   1   1   0   0
  0.1813235E+02  0.2866544E-09  0.2866544E-09  0.2866544E-09  0.5000000E-15
  1.000000000000000E-004
  CAR 
 unknown system                          
     16.45649907     -2.83921795  301      5.67370413      1.00000000
     -2.839  0.0000E+00  0.0000E+00
     -2.775  0.0000E+00  0.0000E+00
     -2.711  0.0000E+00  0.0000E+00
     -2.646  0.0000E+00  0.0000E+00
     -2.582  0.0000E+00  0.0000E+00
     -2.518  0.0000E+00  0.0000E+00
     -2.453  0.0000E+00  0.0000E+00
     -2.389 -0.1004E-31 -0.6458E-33
     -2.325 -0.5633E-23 -0.3623E-24
     -2.260 -0.1118E-15 -0.7193E-17
     -2.196 -0.7387E-10 -0.4751E-11
     -2.132 -0.1655E-05 -0.1064E-06
     -2.067 -0.1045E-02 -0.6735E-04
     -2.003  0.2044E-02  0.6413E-04
     -1.939  0.1579E+00  0.1022E-01
     -1.874  0.3067E-01  0.1220E-01
     -1.810 -0.3019E-02  0.1200E-01
     -1.746 -0.1390E-04  0.1200E-01
     -1.681 -0.1109E-03  0.1199E-01
     -1.617 -0.7637E-02  0.1150E-01
     -1.553  0.1050E+00  0.1825E-01
     -1.489  0.1602E+00  0.2855E-01
     -1.424 -0.8251E-02  0.2802E-01
     -1.360 -0.3708E-03  0.2800E-01
     -1.296 -0.7152E-04  0.2800E-01
     -1.231 -0.1346E-01  0.2713E-01
     -1.167  0.1441E+00  0.3640E-01
     -1.103  0.6191E+00  0.7622E-01
     -1.038  0.2147E-03  0.7623E-01
     -0.974 -0.3568E-02  0.7600E-01
     -0.910 -0.4956E-05  0.7600E-01
     -0.845 -0.1963E-09  0.7600E-01
     -0.781 -0.3314E-15  0.7600E-01
     -0.717 -0.1475E-14  0.7600E-01
     -0.652 -0.7598E-09  0.7600E-01
     -0.588 -0.1284E-04  0.7600E-01
     -0.524 -0.5959E-02  0.7562E-01
     -0.459  0.2980E-01  0.7753E-01
     -0.395  0.6746E+00  0.1209E+00
     -0.331  0.2395E+00  0.1363E+00
     -0.266 -0.3757E-02  0.1361E+00
     -0.202 -0.1559E-02  0.1360E+00
     -0.138 -0.2091E-01  0.1346E+00
     -0.073  0.2717E+00  0.1521E+00
     -0.009  0.5196E+00  0.1855E+00
      0.055 -0.2370E-01  0.1840E+00
      0.119 -0.2528E-01  0.1824E+00
      0.184  0.5004E+00  0.2146E+00
      0.248  0.2932E+00  0.2334E+00
      0.312 -0.2195E-01  0.2320E+00
      0.377 -0.2810E-03  0.2320E+00
      0.441 -0.7431E-07  0.2320E+00
      0.505 -0.6151E-12  0.2320E+00
      0.570 -0.5482E-13  0.2320E+00
      0.634 -0.1208E-07  0.2320E+00
      0.698 -0.8535E-04  0.2320E+00
      0.763 -0.1520E-01  0.2310E+00
      0.827  0.1151E+00  0.2384E+00
      0.891  0.1239E+01  0.3181E+00
      0.956  0.9532E+00  0.3794E+00
      1.020 -0.5061E-01  0.3762E+00
      1.084 -0.3051E-02  0.3760E+00
      1.149 -0.4577E-01  0.3730E+00
      1.213  0.5872E+00  0.4108E+00
      1.277  0.1690E+01  0.5195E+00
      1.342  0.1742E-01  0.5206E+00
      1.406 -0.2796E-01  0.5188E+00
      1.470  0.5421E+00  0.5536E+00
      1.534  0.6551E+00  0.5958E+00
      1.599  0.5940E+00  0.6340E+00
      1.663  0.1041E+00  0.6407E+00
      1.727 -0.1050E-01  0.6400E+00
      1.792 -0.9533E-02  0.6394E+00
      1.856  0.4412E-02  0.6397E+00
      1.920  0.1498E+01  0.7360E+00
      1.985  0.1752E+01  0.8487E+00
      2.049  0.1643E+01  0.9544E+00
      2.113  0.8446E+00  0.1009E+01
      2.178  0.6220E+00  0.1049E+01
      2.242  0.3197E+00  0.1069E+01
      2.306  0.1200E+01  0.1146E+01
      2.371  0.1226E+01  0.1225E+01
      2.435  0.4359E+00  0.1253E+01
      2.499  0.1545E+00  0.1263E+01
      2.564  0.5836E+00  0.1301E+01
      2.628 -0.3022E-01  0.1299E+01
      2.692  0.4962E+00  0.1331E+01
      2.757  0.8383E+00  0.1385E+01
      2.821  0.3129E+01  0.1586E+01
      2.885  0.1763E+01  0.1699E+01
      2.949  0.1282E+01  0.1782E+01
      3.014  0.3142E+00  0.1802E+01
      3.078  0.3113E-01  0.1804E+01
      3.142  0.1890E+01  0.1926E+01
      3.207  0.1519E+01  0.2023E+01
      3.271  0.6883E+00  0.2068E+01
      3.335  0.1135E-01  0.2068E+01
      3.400 -0.8530E-02  0.2068E+01
      3.464  0.2861E-01  0.2070E+01
      3.528  0.2147E+00  0.2083E+01
      3.593 -0.1582E-01  0.2082E+01
      3.657  0.4732E+00  0.2113E+01
      3.721  0.9730E+00  0.2175E+01
      3.786  0.1392E+01  0.2265E+01
      3.850  0.5023E+00  0.2297E+01
      3.914  0.4420E+00  0.2326E+01
      3.979 -0.3156E-01  0.2324E+01
      4.043  0.5049E-01  0.2327E+01
      4.107  0.2994E+00  0.2346E+01
      4.172  0.1982E+01  0.2474E+01
      4.236  0.2187E+01  0.2614E+01
      4.300  0.7983E+00  0.2666E+01
      4.365  0.2945E+01  0.2855E+01
      4.429  0.4060E+01  0.3116E+01
      4.493  0.7740E+00  0.3166E+01
      4.557  0.1295E+01  0.3249E+01
      4.622  0.1931E+01  0.3374E+01
      4.686  0.1127E+01  0.3446E+01
      4.750  0.4967E+00  0.3478E+01
      4.815  0.1430E+01  0.3570E+01
      4.879  0.1440E+01  0.3663E+01
      4.943  0.2645E+01  0.3833E+01
      5.008  0.2834E+01  0.4015E+01
      5.072  0.4972E+00  0.4047E+01
      5.136 -0.1043E+00  0.4040E+01
      5.201  0.6524E+00  0.4082E+01
      5.265  0.3148E+01  0.4285E+01
      5.329  0.2594E+01  0.4452E+01
      5.394  0.2021E+01  0.4581E+01
      5.458  0.5973E+00  0.4620E+01
      5.522  0.1058E+01  0.4688E+01
      5.587  0.1406E+01  0.4778E+01
      5.651  0.3071E+01  0.4976E+01
      5.715  0.1454E+01  0.5069E+01
      5.780  0.1589E+01  0.5172E+01
      5.844 -0.2414E-02  0.5171E+01
      5.908  0.1011E+00  0.5178E+01
      5.972  0.1965E+01  0.5304E+01
      6.037  0.8380E+00  0.5358E+01
      6.101  0.1241E+01  0.5438E+01
      6.165  0.1741E+01  0.5550E+01
      6.230  0.6205E+00  0.5590E+01
      6.294 -0.4098E-01  0.5587E+01
      6.358  0.1578E+00  0.5597E+01
      6.423  0.5261E+00  0.5631E+01
      6.487  0.6587E-01  0.5636E+01
      6.551  0.2063E+00  0.5649E+01
      6.616  0.7031E+00  0.5694E+01
      6.680  0.2168E+00  0.5708E+01
      6.744  0.5671E+00  0.5744E+01
      6.809  0.1311E-01  0.5745E+01
      6.873  0.1229E+01  0.5824E+01
      6.937  0.3306E+00  0.5846E+01
      7.002  0.8080E+00  0.5898E+01
      7.066  0.6271E+00  0.5938E+01
      7.130 -0.3591E-01  0.5936E+01
      7.195  0.2731E+00  0.5953E+01
      7.259  0.8178E+00  0.6006E+01
      7.323  0.1530E+00  0.6016E+01
      7.388  0.7962E+00  0.6067E+01
      7.452  0.8564E-01  0.6072E+01
      7.516  0.1024E+01  0.6138E+01
      7.580  0.6008E+00  0.6177E+01
      7.645  0.6017E+00  0.6216E+01
      7.709  0.1181E-01  0.6216E+01
      7.773 -0.4505E-02  0.6216E+01
      7.838 -0.1060E-04  0.6216E+01
      7.902 -0.2962E-02  0.6216E+01
      7.966 -0.3863E-01  0.6213E+01
      8.031  0.9115E+00  0.6272E+01
      8.095  0.1262E+01  0.6353E+01
      8.159  0.1619E+01  0.6457E+01
      8.224  0.7885E+00  0.6508E+01
      8.288 -0.9355E-01  0.6502E+01
      8.352  0.3640E+00  0.6525E+01
      8.417  0.1159E+01  0.6600E+01
      8.481  0.4222E+00  0.6627E+01
      8.545  0.6093E+00  0.6666E+01
      8.610  0.8275E+00  0.6720E+01
      8.674  0.1745E+01  0.6832E+01
      8.738  0.1089E+01  0.6902E+01
      8.803  0.2009E+00  0.6915E+01
      8.867  0.1139E+01  0.6988E+01
      8.931  0.1792E+01  0.7103E+01
      8.995  0.9264E+00  0.7163E+01
      9.060  0.5240E+00  0.7196E+01
      9.124  0.1794E+01  0.7312E+01
      9.188  0.2360E+01  0.7464E+01
      9.253  0.8314E+00  0.7517E+01
      9.317  0.3173E+00  0.7538E+01
      9.381  0.2044E+01  0.7669E+01
      9.446  0.9814E+00  0.7732E+01
      9.510  0.1244E+01  0.7812E+01
      9.574  0.5852E+00  0.7850E+01
      9.639  0.1272E+00  0.7858E+01
      9.703  0.1165E+01  0.7933E+01
      9.767  0.1593E+01  0.8035E+01
      9.832  0.1192E+01  0.8112E+01
      9.896  0.1816E+00  0.8124E+01
      9.960  0.1940E+00  0.8136E+01
     10.025  0.1549E+01  0.8236E+01
     10.089  0.2222E+01  0.8379E+01
     10.153  0.8444E+00  0.8433E+01
     10.218  0.9605E+00  0.8495E+01
     10.282  0.9310E+00  0.8555E+01
     10.346  0.1306E+01  0.8639E+01
     10.411  0.2082E+01  0.8773E+01
     10.475  0.3111E+01  0.8973E+01
     10.539  0.2500E+01  0.9134E+01
     10.603  0.3296E+01  0.9346E+01
     10.668  0.3509E+01  0.9571E+01
     10.732  0.4431E+01  0.9856E+01
     10.796  0.2518E+01  0.1002E+02
     10.861  0.2209E+01  0.1016E+02
     10.925  0.1110E+01  0.1023E+02
     10.989  0.8013E+00  0.1028E+02
     11.054 -0.4054E-02  0.1028E+02
     11.118  0.5416E+00  0.1032E+02
     11.182  0.2200E+00  0.1033E+02
     11.247  0.5417E+00  0.1037E+02
     11.311  0.2535E+00  0.1038E+02
     11.375  0.2910E+00  0.1040E+02
     11.440  0.3090E+00  0.1042E+02
     11.504  0.2379E+00  0.1044E+02
     11.568 -0.2670E-01  0.1044E+02
     11.633  0.9444E-01  0.1044E+02
     11.697  0.6194E+00  0.1048E+02
     11.761  0.4834E+00  0.1051E+02
     11.826  0.3294E+00  0.1053E+02
     11.890 -0.3006E-01  0.1053E+02
     11.954  0.3769E-01  0.1053E+02
     12.018  0.6525E+00  0.1058E+02
     12.083  0.7065E-01  0.1058E+02
     12.147 -0.1258E-01  0.1058E+02
     12.211 -0.4973E-02  0.1058E+02
     12.276  0.7487E+00  0.1063E+02
     12.340  0.2120E+00  0.1064E+02
     12.404 -0.1909E-01  0.1064E+02
     12.469 -0.2288E-01  0.1064E+02
     12.533  0.3101E+00  0.1066E+02
     12.597  0.4043E+00  0.1068E+02
     12.662  0.9928E+00  0.1075E+02
     12.726  0.2788E+01  0.1093E+02
     12.790  0.9069E+00  0.1099E+02
     12.855  0.1230E+01  0.1107E+02
     12.919  0.1716E+01  0.1118E+02
     12.983  0.9733E+00  0.1124E+02
     13.048  0.3887E+00  0.1126E+02
     13.112  0.1092E+01  0.1133E+02
     13.176 -0.1480E-01  0.1133E+02
     13.241 -0.5317E-02  0.1133E+02
     13.305 -0.7674E-05  0.1133E+02
     13.369 -0.2374E-06  0.1133E+02
     13.434 -0.3433E-03  0.1133E+02
     13.498 -0.5819E-02  0.1133E+02
     13.562  0.1211E+00  0.1134E+02
     13.626  0.1059E+00  0.1135E+02
     13.691  0.6452E+00  0.1139E+02
     13.755  0.6631E-01  0.1139E+02
     13.819  0.2730E+00  0.1141E+02
     13.884  0.8311E-01  0.1141E+02
     13.948  0.4334E+00  0.1144E+02
     14.012  0.3551E+00  0.1147E+02
     14.077 -0.2440E-01  0.1146E+02
     14.141 -0.4503E-03  0.1146E+02
     14.205 -0.8746E-05  0.1146E+02
     14.270 -0.5197E-02  0.1146E+02
     14.334  0.6070E-03  0.1146E+02
     14.398  0.8939E+00  0.1152E+02
     14.463  0.1951E+00  0.1153E+02
     14.527  0.7932E+00  0.1158E+02
     14.591  0.1449E+01  0.1168E+02
     14.656  0.9328E-01  0.1168E+02
     14.720  0.1900E+00  0.1170E+02
     14.784 -0.2259E-02  0.1170E+02
     14.849 -0.5379E-02  0.1170E+02
     14.913 -0.2986E-01  0.1169E+02
     14.977  0.1069E+01  0.1176E+02
     15.041  0.9157E+00  0.1182E+02
     15.106  0.1075E+01  0.1189E+02
     15.170 -0.4238E-01  0.1189E+02
     15.234  0.2587E-01  0.1189E+02
     15.299  0.6264E+00  0.1193E+02
     15.363  0.4069E+00  0.1196E+02
     15.427  0.4613E+00  0.1199E+02
     15.492 -0.2914E-01  0.1198E+02
     15.556  0.3985E-01  0.1199E+02
     15.620  0.2106E+00  0.1200E+02
     15.685  0.2725E-02  0.1200E+02
     15.749 -0.1394E-02  0.1200E+02
     15.813 -0.2206E-05  0.1200E+02
     15.878 -0.9849E-10  0.1200E+02
     15.942 -0.1657E-15  0.1200E+02
     16.006  0.0000E+00  0.1200E+02
     16.071  0.0000E+00  0.1200E+02
     16.135  0.0000E+00  0.1200E+02
     16.199  0.0000E+00  0.1200E+02
     16.264  0.0000E+00  0.1200E+02
     16.328  0.0000E+00  0.1200E+02
     16.392  0.0000E+00  0.1200E+02
     16.456  0.0000E+00  0.1200E+02
