    1    1    1    1
  0.1813235E+02  0.2866544E-09  0.2866544E-09  0.2866544E-09  0.5000000E-15
  1.000000000000000E-004
  CAR 
 unknown system                          
    5   44    6
 
  0.5000000E-01  0.5000000E-01  0.5000000E-01  0.8000000E-02
   1       -1.546323
   2        6.087230
   3        6.087230
   4        7.202136
   5        9.443336
   6        9.443336
 
  0.1500000E+00  0.5000000E-01  0.5000000E-01  0.2400000E-01
   1       -0.423721
   2        5.414132
   3        5.597641
   4        8.551465
   5        9.127220
   6        9.711357
 
  0.2500000E+00  0.5000000E-01  0.5000000E-01  0.2400000E-01
   1        0.901845
   2        4.757087
   3        5.296360
   4        9.345694
   5       10.039088
   6       10.523996
 
  0.3500000E+00  0.5000000E-01  0.5000000E-01  0.2400000E-01
   1        1.530326
   2        4.307448
   3        6.108341
   4        9.668284
   5       10.402954
   6       12.659392
 
  0.4500000E+00  0.5000000E-01  0.5000000E-01  0.1200000E-01
   1        1.587665
   2        4.149495
   3        6.984284
   4        9.649935
   5       10.587560
   6       13.805023
 
 -0.5000000E-01  0.5000000E-01  0.5000000E-01  0.6000000E-02
   1       -1.962140
   2        6.405792
   3        6.405792
   4        6.542987
   5        9.306856
   6        9.803799
 
  0.1500000E+00  0.1500000E+00  0.5000000E-01  0.2400000E-01
   1        0.846528
   2        4.868394
   3        4.940833
   4        9.202380
   5       10.084671
   6       10.448373
 
  0.2500000E+00  0.1500000E+00  0.5000000E-01  0.4800000E-01
   1        2.012544
   2        4.396666
   3        4.973939
   4        9.503464
   5       10.427264
   6       12.674298
 
  0.3500000E+00  0.1500000E+00  0.5000000E-01  0.4800000E-01
   1        2.290246
   2        4.182264
   3        5.939285
   4        9.755748
   5       10.628808
   6       14.527264
 
 -0.1500000E+00  0.1500000E+00  0.5000000E-01  0.2400000E-01
   1       -1.145764
   2        5.952027
   3        6.180467
   4        7.356045
   5        8.625171
   6        9.986607
 
  0.2500000E+00  0.2500000E+00  0.5000000E-01  0.2400000E-01
   1        2.931256
   2        4.291598
   3        5.010002
   4        9.817958
   5       10.525508
   6       14.957967
 
  0.3500000E+00  0.2500000E+00  0.5000000E-01  0.2400000E-01
   1        3.112131
   2        4.375788
   3        5.250891
   4       10.057401
   5       10.570082
   6       14.383448
 
 -0.2500000E+00  0.2500000E+00  0.5000000E-01  0.2400000E-01
   1        0.175569
   2        5.263598
   3        5.609254
   4        8.650299
   5        8.969430
   6       10.182726
 
 -0.1500000E+00  0.2500000E+00  0.5000000E-01  0.2400000E-01
   1       -0.063585
   2        5.626889
   3        5.697974
   4        8.067770
   5        8.475618
   6       10.385838
 
 -0.3500000E+00  0.3500000E+00  0.5000000E-01  0.2400000E-01
   1        1.212827
   2        4.669091
   3        5.693029
   4        9.183364
   5       10.410612
   6       11.105235
 
 -0.2500000E+00  0.3500000E+00  0.5000000E-01  0.4800000E-01
   1        1.239580
   2        4.916753
   3        5.348957
   4        8.369752
   5       10.303856
   6       10.689068
 
 -0.4500000E+00  0.4500000E+00  0.5000000E-01  0.2400000E-01
   1        1.455456
   2        4.337004
   3        6.696164
   4        9.342556
   5       10.780382
   6       13.052365
 
 -0.3500000E+00  0.4500000E+00  0.5000000E-01  0.4800000E-01
   1        1.895472
   2        4.614933
   3        5.596325
   4        8.908999
   5       10.724014
   6       12.692946
 
 -0.2500000E+00  0.4500000E+00  0.5000000E-01  0.2400000E-01
   1        2.362430
   2        4.321499
   3        5.355047
   4        8.676521
   5       10.429584
   6       12.764674
 
 -0.4500000E+00 -0.4500000E+00  0.5000000E-01  0.2400000E-01
   1        1.951174
   2        4.513405
   3        6.090358
   4        8.862891
   5       11.232299
   6       13.944658
 
 -0.3500000E+00 -0.4500000E+00  0.5000000E-01  0.4800000E-01
   1        2.832082
   2        4.379753
   3        5.219990
   4        9.145618
   5       10.650371
   6       15.054889
 
 -0.3500000E+00 -0.3500000E+00  0.5000000E-01  0.8000000E-02
   1        3.491709
   2        4.477662
   3        4.477662
   4       10.108353
   5       10.108353
   6       14.674424
 
  0.1500000E+00  0.1500000E+00  0.1500000E+00  0.8000000E-02
   1        2.232978
   2        4.384081
   3        4.384081
   4       10.051696
   5       10.051696
   6       12.782039
 
  0.2500000E+00  0.1500000E+00  0.1500000E+00  0.2400000E-01
   1        3.139972
   2        4.138095
   3        4.782700
   4       10.218434
   5       10.529313
   6       14.968954
 
  0.3500000E+00  0.1500000E+00  0.1500000E+00  0.1200000E-01
   1        3.147349
   2        4.066123
   3        5.605008
   4       10.278569
   5       10.681129
   6       14.369617
 
 -0.1500000E+00  0.1500000E+00  0.1500000E+00  0.6000000E-02
   1       -0.368614
   2        6.363624
   3        6.363624
   4        7.168100
   5        7.362522
   6       10.582123
 
  0.2500000E+00  0.2500000E+00  0.1500000E+00  0.2400000E-01
   1        3.740898
   2        4.401667
   3        4.830529
   4       10.532129
   5       10.661891
   6       13.661661
 
 -0.2500000E+00  0.2500000E+00  0.1500000E+00  0.2400000E-01
   1        0.893804
   2        5.512076
   3        6.005900
   4        7.234207
   5        8.723017
   6       10.786265
 
 -0.3500000E+00  0.3500000E+00  0.1500000E+00  0.2400000E-01
   1        1.937994
   2        4.887132
   3        5.498209
   4        8.038304
   5       10.850303
   6       10.890660
 
 -0.2500000E+00  0.3500000E+00  0.1500000E+00  0.2400000E-01
   1        2.062975
   2        4.568152
   3        6.140255
   4        7.516234
   5        9.980734
   6       10.951747
 
 -0.4500000E+00  0.4500000E+00  0.1500000E+00  0.2400000E-01
   1        2.160584
   2        5.199714
   3        5.258372
   4        8.013530
   5       11.988829
   6       12.849765
 
 -0.3500000E+00  0.4500000E+00  0.1500000E+00  0.4800000E-01
   1        2.767533
   2        4.183642
   3        5.741982
   4        8.150701
   5       10.720441
   6       12.908861
 
 -0.4500000E+00 -0.4500000E+00  0.1500000E+00  0.2400000E-01
   1        2.779268
   2        4.562503
   3        5.295010
   4        8.145534
   5       11.756223
   6       14.563901
 
 -0.3500000E+00 -0.4500000E+00  0.1500000E+00  0.2400000E-01
   1        3.647791
   2        3.709045
   3        4.971463
   4        9.413561
   5       10.582601
   6       15.368770
 
  0.2500000E+00  0.2500000E+00  0.2500000E+00  0.2000000E-02
   1        4.471303
   2        4.471303
   3        4.471303
   4       10.740371
   5       10.740371
   6       12.746578
 
 -0.2500000E+00  0.2500000E+00  0.2500000E+00  0.6000000E-02
   1        1.970380
   2        4.784548
   3        6.953745
   4        6.953745
   5        8.881666
   6       10.685618
 
 -0.3500000E+00  0.3500000E+00  0.2500000E+00  0.2400000E-01
   1        2.792800
   2        3.854928
   3        7.013676
   4        7.604927
   5       10.544382
   6       10.835663
 
 -0.4500000E+00  0.4500000E+00  0.2500000E+00  0.2400000E-01
   1        2.827281
   2        3.768994
   3        6.843426
   4        7.488713
   5       12.539835
   6       12.824076
 
 -0.3500000E+00  0.4500000E+00  0.2500000E+00  0.2400000E-01
   1        3.118799
   2        3.180840
   3        6.855874
   4        8.832194
   5       10.815182
   6       12.927279
 
 -0.4500000E+00 -0.4500000E+00  0.2500000E+00  0.2400000E-01
   1        2.909346
   2        3.233568
   3        6.578574
   4        9.348085
   5       11.659016
   6       15.270540
 
 -0.3500000E+00  0.3500000E+00  0.3500000E+00  0.6000000E-02
   1        2.896221
   2        2.995240
   3        8.611293
   4        8.611293
   5       10.766201
   6       10.945196
 
 -0.4500000E+00  0.4500000E+00  0.3500000E+00  0.2400000E-01
   1        2.515963
   2        2.678593
   3        9.076353
   4        9.082692
   5       12.259009
   6       13.071583
 
 -0.4500000E+00 -0.4500000E+00  0.3500000E+00  0.8000000E-02
   1        2.362083
   2        2.362083
   3        9.008343
   4       11.436706
   5       11.436706
   6       15.579421
 
 -0.4500000E+00  0.4500000E+00  0.4500000E+00  0.6000000E-02
   1        2.060096
   2        2.106975
   3       11.340370
   4       11.340370
   5       12.248043
   6       13.553163
