    1    1    1    2
  0.1813235E+02  0.2866544E-09  0.2866544E-09  0.2866544E-09  0.5000000E-15
  1.000000000000000E-004
  CAR 
 unknown system                          
    5   44    6
 
  0.5000000E-01  0.5000000E-01  0.5000000E-01  0.8000000E-02
   1       -1.547062     -1.547062
   2        6.086417      6.086417
   3        6.086417      6.086417
   4        7.201256      7.201256
   5        9.442503      9.442503
   6        9.442503      9.442503
 
  0.1500000E+00  0.5000000E-01  0.5000000E-01  0.2400000E-01
   1       -0.424504     -0.424504
   2        5.413356      5.413356
   3        5.596862      5.596862
   4        8.550516      8.550516
   5        9.126375      9.126375
   6        9.710496      9.710496
 
  0.2500000E+00  0.5000000E-01  0.5000000E-01  0.2400000E-01
   1        0.901063      0.901063
   2        4.756339      4.756339
   3        5.295536      5.295536
   4        9.344798      9.344798
   5       10.038191     10.038191
   6       10.522941     10.522941
 
  0.3500000E+00  0.5000000E-01  0.5000000E-01  0.2400000E-01
   1        1.529637      1.529637
   2        4.306714      4.306714
   3        6.107331      6.107331
   4        9.667342      9.667342
   5       10.402005     10.402005
   6       12.658230     12.658230
 
  0.4500000E+00  0.5000000E-01  0.5000000E-01  0.1200000E-01
   1        1.587016      1.587016
   2        4.148765      4.148765
   3        6.983150      6.983150
   4        9.649006      9.649006
   5       10.586580     10.586580
   6       13.803799     13.803799
 
 -0.5000000E-01  0.5000000E-01  0.5000000E-01  0.6000000E-02
   1       -1.962860     -1.962860
   2        6.404955      6.404955
   3        6.404955      6.404955
   4        6.542144      6.542144
   5        9.306040      9.306040
   6        9.802936      9.802936
 
  0.1500000E+00  0.1500000E+00  0.5000000E-01  0.2400000E-01
   1        0.845710      0.845710
   2        4.867646      4.867646
   3        4.940064      4.940064
   4        9.201521      9.201521
   5       10.083756     10.083756
   6       10.447312     10.447312
 
  0.2500000E+00  0.1500000E+00  0.5000000E-01  0.4800000E-01
   1        2.011760      2.011760
   2        4.395916      4.395916
   3        4.973083      4.973083
   4        9.502563      9.502563
   5       10.426304     10.426304
   6       12.673131     12.673131
 
  0.3500000E+00  0.1500000E+00  0.5000000E-01  0.4800000E-01
   1        2.289543      2.289543
   2        4.181513      4.181513
   3        5.938268      5.938268
   4        9.754819      9.754819
   5       10.627818     10.627818
   6       14.526036     14.526036
 
 -0.1500000E+00  0.1500000E+00  0.5000000E-01  0.2400000E-01
   1       -1.146521     -1.146521
   2        5.951220      5.951220
   3        6.179653      6.179653
   4        7.355163      7.355163
   5        8.624392      8.624392
   6        9.985726      9.985726
 
  0.2500000E+00  0.2500000E+00  0.5000000E-01  0.2400000E-01
   1        2.930506      2.930506
   2        4.290805      4.290805
   3        5.009096      5.009096
   4        9.817029      9.817029
   5       10.524528     10.524528
   6       14.956731     14.956731
 
  0.3500000E+00  0.2500000E+00  0.5000000E-01  0.2400000E-01
   1        3.111409      3.111409
   2        4.374969      4.374969
   3        5.249948      5.249948
   4       10.056452     10.056452
   5       10.569085     10.569085
   6       14.382411     14.382411
 
 -0.2500000E+00  0.2500000E+00  0.5000000E-01  0.2400000E-01
   1        0.174780      0.174780
   2        5.262828      5.262828
   3        5.608467      5.608467
   4        8.649466      8.649466
   5        8.968468      8.968468
   6       10.181815     10.181815
 
 -0.1500000E+00  0.2500000E+00  0.5000000E-01  0.2400000E-01
   1       -0.064381     -0.064381
   2        5.626128      5.626128
   3        5.697175      5.697175
   4        8.066992      8.066992
   5        8.474678      8.474678
   6       10.384905     10.384905
 
 -0.3500000E+00  0.3500000E+00  0.5000000E-01  0.2400000E-01
   1        1.212099      1.212099
   2        4.668347      4.668347
   3        5.692128      5.692128
   4        9.182452      9.182452
   5       10.409663     10.409663
   6       11.104163     11.104163
 
 -0.2500000E+00  0.3500000E+00  0.5000000E-01  0.4800000E-01
   1        1.238781      1.238781
   2        4.916014      4.916014
   3        5.348150      5.348150
   4        8.368913      8.368913
   5       10.302838     10.302838
   6       10.688073     10.688073
 
 -0.4500000E+00  0.4500000E+00  0.5000000E-01  0.2400000E-01
   1        1.454808      1.454808
   2        4.336273      4.336273
   3        6.695102      6.695102
   4        9.341644      9.341644
   5       10.779365     10.779365
   6       13.051175     13.051175
 
 -0.3500000E+00  0.4500000E+00  0.5000000E-01  0.4800000E-01
   1        1.894767      1.894767
   2        4.614184      4.614184
   3        5.595414      5.595414
   4        8.908111      8.908111
   5       10.723004     10.723004
   6       12.691783     12.691783
 
 -0.2500000E+00  0.4500000E+00  0.5000000E-01  0.2400000E-01
   1        2.361652      2.361652
   2        4.320778      4.320778
   3        5.354191      5.354191
   4        8.675650      8.675650
   5       10.428610     10.428610
   6       12.763507     12.763507
 
 -0.4500000E+00 -0.4500000E+00  0.5000000E-01  0.2400000E-01
   1        1.950514      1.950514
   2        4.512657      4.512657
   3        6.089375      6.089375
   4        8.862038      8.862038
   5       11.231207     11.231207
   6       13.943419     13.943419
 
 -0.3500000E+00 -0.4500000E+00  0.5000000E-01  0.4800000E-01
   1        2.831374      2.831374
   2        4.378995      4.378995
   3        5.219110      5.219110
   4        9.144720      9.144720
   5       10.649347     10.649347
   6       15.053607     15.053607
 
 -0.3500000E+00 -0.3500000E+00  0.5000000E-01  0.8000000E-02
   1        3.491006      3.491006
   2        4.476853      4.476853
   3        4.476853      4.476853
   4       10.107363     10.107363
   5       10.107363     10.107363
   6       14.673393     14.673393
 
  0.1500000E+00  0.1500000E+00  0.1500000E+00  0.8000000E-02
   1        2.232114      2.232114
   2        4.383324      4.383324
   3        4.383324      4.383324
   4       10.050769     10.050769
   5       10.050769     10.050769
   6       12.780852     12.780852
 
  0.2500000E+00  0.1500000E+00  0.1500000E+00  0.2400000E-01
   1        3.139169      3.139169
   2        4.137325      4.137325
   3        4.781801      4.781801
   4       10.217479     10.217479
   5       10.528341     10.528341
   6       14.967707     14.967707
 
  0.3500000E+00  0.1500000E+00  0.1500000E+00  0.1200000E-01
   1        3.146586      3.146586
   2        4.065347      4.065347
   3        5.604000      5.604000
   4       10.277607     10.277607
   5       10.680139     10.680139
   6       14.368567     14.368567
 
 -0.1500000E+00  0.1500000E+00  0.1500000E+00  0.6000000E-02
   1       -0.369406     -0.369406
   2        6.362788      6.362788
   3        6.362788      6.362788
   4        7.167423      7.167423
   5        7.361654      7.361654
   6       10.581172     10.581172
 
  0.2500000E+00  0.2500000E+00  0.1500000E+00  0.2400000E-01
   1        3.740110      3.740110
   2        4.400816      4.400816
   3        4.829603      4.829603
   4       10.531149     10.531149
   5       10.660902     10.660902
   6       13.660656     13.660656
 
 -0.2500000E+00  0.2500000E+00  0.1500000E+00  0.2400000E-01
   1        0.892979      0.892979
   2        5.511380      5.511380
   3        6.005086      6.005086
   4        7.233393      7.233393
   5        8.722081      8.722081
   6       10.785275     10.785275
 
 -0.3500000E+00  0.3500000E+00  0.1500000E+00  0.2400000E-01
   1        1.937226      1.937226
   2        4.886391      4.886391
   3        5.497419      5.497419
   4        8.037428      8.037428
   5       10.849254     10.849254
   6       10.889637     10.889637
 
 -0.2500000E+00  0.3500000E+00  0.1500000E+00  0.2400000E-01
   1        2.062148      2.062148
   2        4.567508      4.567508
   3        6.139413      6.139413
   4        7.515379      7.515379
   5        9.979756      9.979756
   6       10.950717     10.950717
 
 -0.4500000E+00  0.4500000E+00  0.1500000E+00  0.2400000E-01
   1        2.159916      2.159916
   2        5.198937      5.198937
   3        5.257515      5.257515
   4        8.012718      8.012718
   5       11.987659     11.987659
   6       12.848593     12.848593
 
 -0.3500000E+00  0.4500000E+00  0.1500000E+00  0.4800000E-01
   1        2.766798      2.766798
   2        4.182936      4.182936
   3        5.741166      5.741166
   4        8.149827      8.149827
   5       10.719418     10.719418
   6       12.907677     12.907677
 
 -0.4500000E+00 -0.4500000E+00  0.1500000E+00  0.2400000E-01
   1        2.778601      2.778601
   2        4.561711      4.561711
   3        5.294241      5.294241
   4        8.144684      8.144684
   5       11.755081     11.755081
   6       14.562602     14.562602
 
 -0.3500000E+00 -0.4500000E+00  0.1500000E+00  0.2400000E-01
   1        3.647053      3.647053
   2        3.708370      3.708370
   3        4.970701      4.970701
   4        9.412586      9.412586
   5       10.581565     10.581565
   6       15.367553     15.367553
 
  0.2500000E+00  0.2500000E+00  0.2500000E+00  0.2000000E-02
   1        4.470429      4.470429
   2        4.470429      4.470429
   3        4.470429      4.470429
   4       10.739376     10.739376
   5       10.739376     10.739376
   6       12.745631     12.745631
 
 -0.2500000E+00  0.2500000E+00  0.2500000E+00  0.6000000E-02
   1        1.969532      1.969532
   2        4.783961      4.783961
   3        6.952866      6.952866
   4        6.952866      6.952866
   5        8.880743      8.880743
   6       10.684635     10.684635
 
 -0.3500000E+00  0.3500000E+00  0.2500000E+00  0.2400000E-01
   1        2.792010      2.792010
   2        3.854331      3.854331
   3        7.012800      7.012800
   4        7.604041      7.604041
   5       10.543363     10.543363
   6       10.834650     10.834650
 
 -0.4500000E+00  0.4500000E+00  0.2500000E+00  0.2400000E-01
   1        2.826643      2.826643
   2        3.768292      3.768292
   3        6.842562      6.842562
   4        7.487880      7.487880
   5       12.538688     12.538688
   6       12.822874     12.822874
 
 -0.3500000E+00  0.4500000E+00  0.2500000E+00  0.2400000E-01
   1        3.118085      3.118085
   2        3.180260      3.180260
   3        6.855024      6.855024
   4        8.831223      8.831223
   5       10.814158     10.814158
   6       12.926113     12.926113
 
 -0.4500000E+00 -0.4500000E+00  0.2500000E+00  0.2400000E-01
   1        2.908742      2.908742
   2        3.232921      3.232921
   3        6.577732      6.577732
   4        9.347101      9.347101
   5       11.657894     11.657894
   6       15.269228     15.269228
 
 -0.3500000E+00  0.3500000E+00  0.3500000E+00  0.6000000E-02
   1        2.895517      2.895517
   2        2.994696      2.994696
   3        8.610322      8.610322
   4        8.610322      8.610322
   5       10.765183     10.765183
   6       10.944184     10.944184
 
 -0.4500000E+00  0.4500000E+00  0.3500000E+00  0.2400000E-01
   1        2.515409      2.515409
   2        2.677986      2.677986
   3        9.075381      9.075381
   4        9.081710      9.081710
   5       12.257884     12.257884
   6       13.070420     13.070420
 
 -0.4500000E+00 -0.4500000E+00  0.3500000E+00  0.8000000E-02
   1        2.361526      2.361526
   2        2.361526      2.361526
   3        9.007371      9.007371
   4       11.435603     11.435603
   5       11.435603     11.435603
   6       15.578146     15.578146
 
 -0.4500000E+00  0.4500000E+00  0.4500000E+00  0.6000000E-02
   1        2.059569      2.059569
   2        2.106430      2.106430
   3       11.339273     11.339273
   4       11.339273     11.339273
   5       12.246919     12.246919
   6       13.551999     13.551999
