       N       E                     dE             d eps       ncg     rms          rms(c)
DAV:   1     0.290954487651E+01    0.29095E+01   -0.20628E+03   528   0.672E+02
DAV:   2    -0.122836323894E+02   -0.15193E+02   -0.14517E+02   984   0.951E+01
DAV:   3    -0.123444456923E+02   -0.60813E-01   -0.60761E-01   534   0.887E+00
DAV:   4    -0.123445546468E+02   -0.10895E-03   -0.10895E-03   720   0.289E-01
DAV:   5    -0.123445548140E+02   -0.16727E-06   -0.16688E-06   486   0.926E-03    0.322E+00
DAV:   6    -0.120166311267E+02    0.32792E+00   -0.20410E-01   618   0.345E+00    0.172E+00
DAV:   7    -0.118654920801E+02    0.15114E+00   -0.30058E-01   636   0.405E+00    0.126E-01
DAV:   8    -0.118645353282E+02    0.95675E-03   -0.88111E-04   570   0.262E-01    0.274E-02
DAV:   9    -0.118645501932E+02   -0.14865E-04   -0.55652E-05   366   0.573E-02
   1 F= -.11864550E+02 E0= -.11864758E+02  d E =0.622560E-03
