       N       E                     dE             d eps       ncg     rms          rms(c)
DAV:   1    -0.118645453158E+02   -0.11865E+02   -0.24975E-06   528   0.168E-02    0.355E-04
DAV:   2    -0.118645453603E+02   -0.44512E-07   -0.23292E-07   528   0.373E-03
   1 F= -.11864545E+02 E0= -.11864752E+02  d E =0.621369E-03  mag=     0.0000
