 vasp.5.2.12 11Nov11 complex                                                    
  
 executed on             LinuxIFC date 2012.10.17  09:24:41
 running on    1 nodes
 distr:  one band on    1 nodes,    1 groups


--------------------------------------------------------------------------------------------------------


 INCAR:
 POTCAR:    PAW_PBE Ta 17Jan2003                  
 POTCAR:    PAW_PBE Ta 17Jan2003                  
   VRHFIN =Ta:  6s5d                                                            
   LEXCH  = PE                                                                  
   EATOM  =   130.6506 eV,    9.6025 Ry                                         
                                                                                
   TITEL  = PAW_PBE Ta 17Jan2003                                                
   LULTRA =        F    use ultrasoft PP ?                                      
   IUNSCR =        1    unscreen: 0-lin 1-nonlin 2-no                           
   RPACOR =    2.330    partial core radius                                     
   POMASS =  180.948; ZVAL   =    5.000    mass and valenz                      
   RCORE  =    2.900    outmost cutoff radius                                   
   RWIGS  =    2.840; RWIGS  =    1.503    wigner-seitz radius (au A)           
   ENMAX  =  223.667; ENMIN  =  167.750 eV                                      
   RCLOC  =    2.205    cutoff for local pot                                    
   LCOR   =        T    correct aug charges                                     
   LPAW   =        T    paw PP                                                  
   EAUG   =  332.075                                                            
   DEXC   =    -.049                                                            
   RMAX   =    3.083    core radius for proj-oper                               
   RAUG   =    1.300    factor for augmentation sphere                          
   RDEP   =    3.060    radius for radial grids                                 
   QCUT   =   -4.055; QGAM   =    8.109    optimization parameters              
                                                                                
   Description                                                                  
     l     E      TYP  RCUT    TYP  RCUT                                        
     2   .000     23  2.500                                                     
     2   .000     23  2.500                                                     
     0   .000     23  2.500                                                     
     0   .000     23  2.500                                                     
     1   .000     23  2.900                                                     
     1  2.000     23  2.900                                                     
     3   .000      7   .000                                                     
  local pseudopotential read in
  partial core-charges read in
  atomic valenz-charges read in
  non local Contribution for L=           2  read in
    real space projection operators read in
  non local Contribution for L=           2  read in
    real space projection operators read in
  non local Contribution for L=           0  read in
    real space projection operators read in
  non local Contribution for L=           0  read in
    real space projection operators read in
  non local Contribution for L=           1  read in
    real space projection operators read in
  non local Contribution for L=           1  read in
    real space projection operators read in
    PAW grid and wavefunctions read in
 
   number of l-projection  operators is LMAX  =           6
   number of lm-projection operators is LMMAX =          18
 
  PAW_PBE Ta 17Jan2003                  :
 energy of atom  1       EATOM= -130.6506
 kinetic energy error for atom=    0.0004 (will be added to EATOM!!)
 
 
 POSCAR: Ta                                      
  positions in cartesian coordinates
  No initial velocities read in
 exchange correlation table for  LEXCH =        8
   RHO(1)=    0.500       N(1)  =     2000
   RHO(2)=  100.500       N(2)  =     4000
 


--------------------------------------------------------------------------------------------------------


 ion  position               nearest neighbor table
   1  0.000  0.000  0.000-
 
  LATTYP: Found a body centered cubic cell.
 ALAT       =     3.3100000000
  
  Lattice vectors:
  
 A1 = (   2.8665440865,   0.0000000000,   0.0000000000)
 A2 = (  -0.9555146955,   2.7026036829,   0.0000000000)
 A3 = (  -0.9555146955,  -1.3513018414,   2.3405234457)
 Subroutine PRICEL returns:
 Original cell was already a primitive cell.
 

Analysis of symmetry for initial positions (statically):

 Routine SETGRP: Setting up the symmetry group for a 
 body centered cubic supercell.


 Subroutine GETGRP returns: Found 48 space group operations
 (whereof 48 operations were pure point group operations)
 out of a pool of 48 trial point group operations.


The static configuration has the point symmetry O_h .

Analysis of symmetry for dynamics (positions and initial velocities):

 Subroutine DYNSYM returns: Found 48 space group operations
 (whereof 48 operations were pure point group operations)
 out of a pool of 48 trial space group operations
 (whereof 48 operations were pure point group operations)
 and found also     1 'primitive' translations


The dynamic configuration has the point symmetry O_h .

Analysis of magnetic symmetry:

 Subroutine MAGSYM returns: Found 48 space group operations
 (whereof 48 operations were pure point group operations)
 out of a pool of 48 trial space group operations
 (whereof 48 operations were pure point group operations)
 and found also     1 'primitive' translations


The magnetic configuration has the point symmetry O_h .
 
 
 KPOINTS: KPOINTS created by Atomic Simulation Env

Automatic generation of k-mesh.
 
 Subroutine IBZKPT returns following result:
 ===========================================
 
 Found     44 irreducible k-points:
 
 Following reciprocal coordinates:
            Coordinates               Weight
  0.050000  0.050000  0.050000      8.000000
  0.150000  0.050000  0.050000     24.000000
  0.250000  0.050000  0.050000     24.000000
  0.350000  0.050000  0.050000     24.000000
  0.450000  0.050000  0.050000     12.000000
 -0.050000  0.050000  0.050000      6.000000
  0.150000  0.150000  0.050000     24.000000
  0.250000  0.150000  0.050000     48.000000
  0.350000  0.150000  0.050000     48.000000
 -0.150000  0.150000  0.050000     24.000000
  0.250000  0.250000  0.050000     24.000000
  0.350000  0.250000  0.050000     24.000000
 -0.250000  0.250000  0.050000     24.000000
 -0.150000  0.250000  0.050000     24.000000
 -0.350000  0.350000  0.050000     24.000000
 -0.250000  0.350000  0.050000     48.000000
 -0.450000  0.450000  0.050000     24.000000
 -0.350000  0.450000  0.050000     48.000000
 -0.250000  0.450000  0.050000     24.000000
 -0.450000 -0.450000  0.050000     24.000000
 -0.350000 -0.450000  0.050000     48.000000
 -0.350000 -0.350000  0.050000      8.000000
  0.150000  0.150000  0.150000      8.000000
  0.250000  0.150000  0.150000     24.000000
  0.350000  0.150000  0.150000     12.000000
 -0.150000  0.150000  0.150000      6.000000
  0.250000  0.250000  0.150000     24.000000
 -0.250000  0.250000  0.150000     24.000000
 -0.350000  0.350000  0.150000     24.000000
 -0.250000  0.350000  0.150000     24.000000
 -0.450000  0.450000  0.150000     24.000000
 -0.350000  0.450000  0.150000     48.000000
 -0.450000 -0.450000  0.150000     24.000000
 -0.350000 -0.450000  0.150000     24.000000
  0.250000  0.250000  0.250000      2.000000
 -0.250000  0.250000  0.250000      6.000000
 -0.350000  0.350000  0.250000     24.000000
 -0.450000  0.450000  0.250000     24.000000
 -0.350000  0.450000  0.250000     24.000000
 -0.450000 -0.450000  0.250000     24.000000
 -0.350000  0.350000  0.350000      6.000000
 -0.450000  0.450000  0.350000     24.000000
 -0.450000 -0.450000  0.350000      8.000000
 -0.450000  0.450000  0.450000      6.000000
 
 Following cartesian coordinates:
            Coordinates               Weight
  0.017443  0.024668  0.042725      8.000000
  0.052328  0.037001  0.064088     24.000000
  0.087213  0.049335  0.085451     24.000000
  0.122098  0.061669  0.106814     24.000000
  0.156983  0.074003  0.128176     12.000000
 -0.017443  0.012334  0.021363      6.000000
  0.052328  0.074003  0.085451     24.000000
  0.087213  0.086336  0.106814     48.000000
  0.122098  0.098670  0.128176     48.000000
 -0.052328  0.037001  0.021363     24.000000
  0.087213  0.123338  0.128176     24.000000
  0.122098  0.135672  0.149539     24.000000
 -0.087213  0.061669  0.021363     24.000000
 -0.052328  0.074003  0.042725     24.000000
 -0.122098  0.086336  0.021363     24.000000
 -0.087213  0.098670  0.042725     48.000000
 -0.156983  0.111004  0.021363     24.000000
 -0.122098  0.123338  0.042725     48.000000
 -0.087213  0.135672  0.064088     24.000000
 -0.156983 -0.222008 -0.170902     24.000000
 -0.122098 -0.209674 -0.149539     48.000000
 -0.122098 -0.172673 -0.128176      8.000000
  0.052328  0.074003  0.128176      8.000000
  0.087213  0.086336  0.149539     24.000000
  0.122098  0.098670  0.170902     12.000000
 -0.052328  0.037001  0.064088      6.000000
  0.087213  0.123338  0.170902     24.000000
 -0.087213  0.061669  0.064088     24.000000
 -0.122098  0.086336  0.064088     24.000000
 -0.087213  0.098670  0.085451     24.000000
 -0.156983  0.111004  0.064088     24.000000
 -0.122098  0.123338  0.085451     48.000000
 -0.156983 -0.222008 -0.128176     24.000000
 -0.122098 -0.209674 -0.106814     24.000000
  0.087213  0.123338  0.213627      2.000000
 -0.087213  0.061669  0.106814      6.000000
 -0.122098  0.086336  0.106814     24.000000
 -0.156983  0.111004  0.106814     24.000000
 -0.122098  0.123338  0.128176     24.000000
 -0.156983 -0.222008 -0.085451     24.000000
 -0.122098  0.086336  0.149539      6.000000
 -0.156983  0.111004  0.149539     24.000000
 -0.156983 -0.222008 -0.042725      8.000000
 -0.156983  0.111004  0.192265      6.000000
 


--------------------------------------------------------------------------------------------------------




 Dimension of arrays:
   k-points           NKPTS =     44   k-points in BZ     NKDIM =     44   number of bands    NBANDS=      6
   number of dos      NEDOS =    301   number of ions     NIONS =      1
   non local maximal  LDIM  =      6   non local SUM 2l+1 LMDIM =     18
   total plane-waves  NPLWV =  13824
   max r-space proj   IRMAX =      1   max aug-charges    IRDMAX=  52091
   dimension x,y,z NGX =    24 NGY =   24 NGZ =   24
   dimension x,y,z NGXF=    48 NGYF=   48 NGZF=   48
   support grid    NGXF=    48 NGYF=   48 NGZF=   48
   ions per type =               1
 NGX,Y,Z   is equivalent  to a cutoff of  13.92, 13.92, 13.92 a.u.
 NGXF,Y,Z  is equivalent  to a cutoff of  27.84, 27.84, 27.84 a.u.


 I would recommend the setting:
   dimension x,y,z NGX =    23 NGY =   23 NGZ =   23
 SYSTEM =  unknown system                          
 POSCAR =  Ta                                      

 Startparameter for this run:
   NWRITE =      2    write-flag & timer
   PREC   = accura    normal or accurate (medium, high low for compatibility)
   ISTART =      1    job   : 0-new  1-cont  2-samecut
   ICHARG =      0    charge: 1-file 2-atom 10-const
   ISPIN  =      2    spin polarized calculation?
   LNONCOLLINEAR =      F non collinear calculations
   LSORBIT =      F    spin-orbit coupling
   INIWAV =      1    electr: 0-lowe 1-rand  2-diag
   LASPH  =      F    aspherical Exc in radial PAW
   METAGGA=      F    non-selfconsistent MetaGGA calc.

 Electronic Relaxation 1
   ENCUT  =  600.0 eV  44.10 Ry    6.64 a.u.   5.73  5.73  5.73*2*pi/ulx,y,z
   ENINI  =  600.0     initial cutoff
   ENAUG  =  332.1 eV  augmentation charge cutoff
   NELM   =     60;   NELMIN=  2; NELMDL=  0     # of ELM steps 
   EDIFF  = 0.1E-03   stopping-criterion for ELM
   LREAL  =      F    real-space projection
   NLSPLINE    = F    spline interpolate recip. space projectors
   LCOMPAT=      F    compatible to vasp.4.4
   GGA_COMPAT  = T    GGA compatible to vasp.4.4-vasp.4.6
   LMAXPAW     = -100 max onsite density
   LMAXMIX     =    2 max onsite mixed and CHGCAR
   VOSKOWN=      0    Vosko Wilk Nusair interpolation
   ROPT   =    0.00000
 Ionic relaxation
   EDIFFG = 0.1E-02   stopping-criterion for IOM
   NSW    =      0    number of steps for IOM
   NBLOCK =      1;   KBLOCK =      1    inner block; outer block 
   IBRION =     -1    ionic relax: 0-MD 1-quasi-New 2-CG
   NFREE  =      0    steps in history (QN), initial steepest desc. (CG)
   ISIF   =      2    stress and relaxation
   IWAVPR =     10    prediction:  0-non 1-charg 2-wave 3-comb
   ISYM   =      2    0-nonsym 1-usesym 2-fastsym
   LCORR  =      T    Harris-Foulkes like correction to forces

   POTIM  = 0.5000    time-step for ionic-motion
   TEIN   =    0.0    initial temperature
   TEBEG  =    0.0;   TEEND  =   0.0 temperature during run
   SMASS  =  -3.00    Nose mass-parameter (am)
   estimated Nose-frequenzy (Omega)   =  0.10E-29 period in steps =****** mass=  -0.188E-27a.u.
   SCALEE = 1.0000    scale energy and forces
   NPACO  =    256;   APACO  = 16.0  distance and # of slots for P.C.
   PSTRESS=    0.0 pullay stress

  Mass of Ions in am
   POMASS = 180.95
  Ionic Valenz
   ZVAL   =   5.00
  Atomic Wigner-Seitz radii
   RWIGS  =  -1.00
  virtual crystal weights 
   VCA    =   1.00
   NELECT =       5.0000    total number of electrons
   NUPDOWN=      -1.0000    fix difference up-down

 DOS related values:
   EMIN   =  10.00;   EMAX   =-10.00  energy-range for DOS
   EFERMI =   0.00
   ISMEAR =     1;   SIGMA  =   0.05  broadening in eV -4-tet -1-fermi 0-gaus

 Electronic relaxation 2 (details)
   IALGO  =     38    algorithm
   LDIAG  =      T    sub-space diagonalisation (order eigenvalues)
   LSUBROT=      T    optimize rotation matrix (better conditioning)
   TURBO    =      0    0=normal 1=particle mesh
   IRESTART =      0    0=no restart 2=restart with 2 vectors
   NREBOOT  =      0    no. of reboots
   NMIN     =      0    reboot dimension
   EREF     =   0.00    reference energy to select bands
   IMIX   =      4    mixing-type and parameters
     AMIX     =   0.40;   BMIX     =  1.00
     AMIX_MAG =   1.60;   BMIX_MAG =  1.00
     AMIN     =   0.10
     WC   =   100.;   INIMIX=   1;  MIXPRE=   1

 Intra band minimization:
   WEIMIN = 0.0000     energy-eigenvalue tresh-hold
   EBREAK =  0.42E-05  absolut break condition
   DEPER  =   0.30     relativ break condition  

   TIME   =   0.40     timestep for ELM

  volume/ion in A,a.u.               =      18.13       122.36
  Fermi-wavevector in a.u.,A,eV,Ry     =   1.065566  2.013627 15.448462  1.135430
  Thomas-Fermi vector in A             =   2.201121
 
 Write flags
   LWAVE  =      T    write WAVECAR
   LCHARG =      T    write CHGCAR
   LVTOT  =      F    write LOCPOT, total local potential
   LVHAR  =      F    write LOCPOT, Hartree potential only
   LELF   =      F    write electronic localiz. function (ELF)
   LORBIT =      0    0 simple, 1 ext, 2 COOP (PROOUT)


 Dipole corrections
   LMONO  =      F    monopole corrections only (constant potential shift)
   LDIPOL =      F    correct potential (dipole corrections)
   IDIPOL =      0    1-x, 2-y, 3-z, 4-all directions 
   EPSILON=  1.0000000 bulk dielectric constant

 Exchange correlation treatment:
   GGA     =    --    GGA type
   LEXCH   =     8    internal setting for exchange type
   VOSKOWN=      0    Vosko Wilk Nusair interpolation
   LHFCALC =     F    Hartree Fock is set to
   LHFONE  =     F    Hartree Fock one center treatment
   AEXX    =    0.0000 exact exchange contribution

 Linear response parameters
   LEPSILON=     F    determine dielectric tensor
   LRPA    =     F    only Hartree local field effects (RPA)
   LNABLA  =     F    use nabla operator in PAW spheres
   LVEL    =     F    velocity operator in full k-point grid
   LINTERFAST=   F  fast interpolation
   KINTER  =     0    interpolate to denser k-point grid
   CSHIFT  =0.1000    complex shift for real part using Kramers Kronig
   OMEGAMAX=  -1.0    maximum frequency
   RTIME   =    0.100 relaxation time in fs

 Orbital magnetization related:
   ORBITALMAG=     F  switch on orbital magnetization
   LCHIMAG   =     F  perturbation theory with respect to B field
   DQ        =  0.001000  dq finite difference perturbation B field



--------------------------------------------------------------------------------------------------------


 Static calculation
 charge density and potential will be updated during run
 spin polarized calculation
 Variant of blocked Davidson
 Davidson routine will perform the subspace rotation
 perform sub-space diagonalisation
    after iterative eigenvector-optimisation
 modified Broyden-mixing scheme, WC =      100.0
 initial mixing is a Kerker type mixing with AMIX =  0.4000 and BMIX =      1.0000
 Hartree-type preconditioning will be used
 using additional bands            3
 reciprocal scheme for non local part
 use partial core corrections
 calculate Harris-corrections to forces 
   (improved forces if not selfconsistent)
 use gradient corrections 
 use of overlap-Matrix (Vanderbilt PP)
 Methfessel and Paxton  Order N= 1 SIGMA  =   0.05


--------------------------------------------------------------------------------------------------------


  energy-cutoff  :      600.00
  volume of cell :       18.13
      direct lattice vectors                 reciprocal lattice vectors
     2.866544087  0.000000000  0.000000000     0.348852126  0.123337852  0.213627426
    -0.955514696  2.702603683  0.000000000     0.000000000  0.370013556  0.213627426
    -0.955514696 -1.351301841  2.340523446     0.000000000  0.000000000  0.427254853

  length of vectors
     2.866544087  2.866544087  2.866544087     0.427254853  0.427254853  0.427254853


 
 old parameters found on file WAVECAR:
  energy-cutoff  :      600.00
  volume of cell :       18.13
      direct lattice vectors                 reciprocal lattice vectors
     2.866544087  0.000000000  0.000000000     0.348852126  0.123337852  0.213627426
    -0.955514696  2.702603683  0.000000000     0.000000000  0.370013556  0.213627426
    -0.955514696 -1.351301841  2.340523446     0.000000000  0.000000000  0.427254853

  length of vectors

 
 k-points in units of 2pi/SCALE and weight: KPOINTS created by Atomic Simulation Env
   0.01744261  0.02466757  0.04272549       0.008
   0.05232782  0.03700136  0.06408823       0.024
   0.08721303  0.04933514  0.08545097       0.024
   0.12209824  0.06166893  0.10681371       0.024
   0.15698346  0.07400271  0.12817646       0.012
  -0.01744261  0.01233379  0.02136274       0.006
   0.05232782  0.07400271  0.08545097       0.024
   0.08721303  0.08633650  0.10681371       0.048
   0.12209824  0.09867028  0.12817646       0.048
  -0.05232782  0.03700136  0.02136274       0.024
   0.08721303  0.12333785  0.12817646       0.024
   0.12209824  0.13567164  0.14953920       0.024
  -0.08721303  0.06166893  0.02136274       0.024
  -0.05232782  0.07400271  0.04272549       0.024
  -0.12209824  0.08633650  0.02136274       0.024
  -0.08721303  0.09867028  0.04272549       0.048
  -0.15698346  0.11100407  0.02136274       0.024
  -0.12209824  0.12333785  0.04272549       0.048
  -0.08721303  0.13567164  0.06408823       0.024
  -0.15698346 -0.22200813 -0.17090194       0.024
  -0.12209824 -0.20967435 -0.14953920       0.048
  -0.12209824 -0.17267299 -0.12817646       0.008
   0.05232782  0.07400271  0.12817646       0.008
   0.08721303  0.08633650  0.14953920       0.024
   0.12209824  0.09867028  0.17090194       0.012
  -0.05232782  0.03700136  0.06408823       0.006
   0.08721303  0.12333785  0.17090194       0.024
  -0.08721303  0.06166893  0.06408823       0.024
  -0.12209824  0.08633650  0.06408823       0.024
  -0.08721303  0.09867028  0.08545097       0.024
  -0.15698346  0.11100407  0.06408823       0.024
  -0.12209824  0.12333785  0.08545097       0.048
  -0.15698346 -0.22200813 -0.12817646       0.024
  -0.12209824 -0.20967435 -0.10681371       0.024
   0.08721303  0.12333785  0.21362743       0.002
  -0.08721303  0.06166893  0.10681371       0.006
  -0.12209824  0.08633650  0.10681371       0.024
  -0.15698346  0.11100407  0.10681371       0.024
  -0.12209824  0.12333785  0.12817646       0.024
  -0.15698346 -0.22200813 -0.08545097       0.024
  -0.12209824  0.08633650  0.14953920       0.006
  -0.15698346  0.11100407  0.14953920       0.024
  -0.15698346 -0.22200813 -0.04272549       0.008
  -0.15698346  0.11100407  0.19226468       0.006
 
 k-points in reciprocal lattice and weights: KPOINTS created by Atomic Simulation Env
   0.05000000  0.05000000  0.05000000       0.008
   0.15000000  0.05000000  0.05000000       0.024
   0.25000000  0.05000000  0.05000000       0.024
   0.35000000  0.05000000  0.05000000       0.024
   0.45000000  0.05000000  0.05000000       0.012
  -0.05000000  0.05000000  0.05000000       0.006
   0.15000000  0.15000000  0.05000000       0.024
   0.25000000  0.15000000  0.05000000       0.048
   0.35000000  0.15000000  0.05000000       0.048
  -0.15000000  0.15000000  0.05000000       0.024
   0.25000000  0.25000000  0.05000000       0.024
   0.35000000  0.25000000  0.05000000       0.024
  -0.25000000  0.25000000  0.05000000       0.024
  -0.15000000  0.25000000  0.05000000       0.024
  -0.35000000  0.35000000  0.05000000       0.024
  -0.25000000  0.35000000  0.05000000       0.048
  -0.45000000  0.45000000  0.05000000       0.024
  -0.35000000  0.45000000  0.05000000       0.048
  -0.25000000  0.45000000  0.05000000       0.024
  -0.45000000 -0.45000000  0.05000000       0.024
  -0.35000000 -0.45000000  0.05000000       0.048
  -0.35000000 -0.35000000  0.05000000       0.008
   0.15000000  0.15000000  0.15000000       0.008
   0.25000000  0.15000000  0.15000000       0.024
   0.35000000  0.15000000  0.15000000       0.012
  -0.15000000  0.15000000  0.15000000       0.006
   0.25000000  0.25000000  0.15000000       0.024
  -0.25000000  0.25000000  0.15000000       0.024
  -0.35000000  0.35000000  0.15000000       0.024
  -0.25000000  0.35000000  0.15000000       0.024
  -0.45000000  0.45000000  0.15000000       0.024
  -0.35000000  0.45000000  0.15000000       0.048
  -0.45000000 -0.45000000  0.15000000       0.024
  -0.35000000 -0.45000000  0.15000000       0.024
   0.25000000  0.25000000  0.25000000       0.002
  -0.25000000  0.25000000  0.25000000       0.006
  -0.35000000  0.35000000  0.25000000       0.024
  -0.45000000  0.45000000  0.25000000       0.024
  -0.35000000  0.45000000  0.25000000       0.024
  -0.45000000 -0.45000000  0.25000000       0.024
  -0.35000000  0.35000000  0.35000000       0.006
  -0.45000000  0.45000000  0.35000000       0.024
  -0.45000000 -0.45000000  0.35000000       0.008
  -0.45000000  0.45000000  0.45000000       0.006
 
 position of ions in fractional coordinates (direct lattice) 
   0.00000000  0.00000000  0.00000000
 
 position of ions in cartesian coordinates  (Angst):
   0.00000000  0.00000000  0.00000000
 


--------------------------------------------------------------------------------------------------------


 k-point  1 :  0.05000.05000.0500  plane waves:     609
 k-point  2 :  0.15000.05000.0500  plane waves:     613
 k-point  3 :  0.25000.05000.0500  plane waves:     606
 k-point  4 :  0.35000.05000.0500  plane waves:     602
 k-point  5 :  0.45000.05000.0500  plane waves:     602
 k-point  6 :  -.05000.05000.0500  plane waves:     615
 k-point  7 :  0.15000.15000.0500  plane waves:     610
 k-point  8 :  0.25000.15000.0500  plane waves:     608
 k-point  9 :  0.35000.15000.0500  plane waves:     604
 k-point 10 :  -.15000.15000.0500  plane waves:     611
 k-point 11 :  0.25000.25000.0500  plane waves:     601
 k-point 12 :  0.35000.25000.0500  plane waves:     603
 k-point 13 :  -.25000.25000.0500  plane waves:     603
 k-point 14 :  -.15000.25000.0500  plane waves:     605
 k-point 15 :  -.35000.35000.0500  plane waves:     603
 k-point 16 :  -.25000.35000.0500  plane waves:     604
 k-point 17 :  -.45000.45000.0500  plane waves:     606
 k-point 18 :  -.35000.45000.0500  plane waves:     606
 k-point 19 :  -.25000.45000.0500  plane waves:     599
 k-point 20 :  -.4500-.45000.0500  plane waves:     602
 k-point 21 :  -.3500-.45000.0500  plane waves:     602
 k-point 22 :  -.3500-.35000.0500  plane waves:     604
 k-point 23 :  0.15000.15000.1500  plane waves:     610
 k-point 24 :  0.25000.15000.1500  plane waves:     607
 k-point 25 :  0.35000.15000.1500  plane waves:     602
 k-point 26 :  -.15000.15000.1500  plane waves:     607
 k-point 27 :  0.25000.25000.1500  plane waves:     601
 k-point 28 :  -.25000.25000.1500  plane waves:     601
 k-point 29 :  -.35000.35000.1500  plane waves:     605
 k-point 30 :  -.25000.35000.1500  plane waves:     604
 k-point 31 :  -.45000.45000.1500  plane waves:     606
 k-point 32 :  -.35000.45000.1500  plane waves:     603
 k-point 33 :  -.4500-.45000.1500  plane waves:     598
 k-point 34 :  -.3500-.45000.1500  plane waves:     599
 k-point 35 :  0.25000.25000.2500  plane waves:     604
 k-point 36 :  -.25000.25000.2500  plane waves:     611
 k-point 37 :  -.35000.35000.2500  plane waves:     601
 k-point 38 :  -.45000.45000.2500  plane waves:     603
 k-point 39 :  -.35000.45000.2500  plane waves:     605
 k-point 40 :  -.4500-.45000.2500  plane waves:     611
 k-point 41 :  -.35000.35000.3500  plane waves:     610
 k-point 42 :  -.45000.45000.3500  plane waves:     618
 k-point 43 :  -.4500-.45000.3500  plane waves:     619
 k-point 44 :  -.45000.45000.4500  plane waves:     606

 maximum and minimum number of plane-waves per node :       619      598

 maximum number of plane-waves:       619
 maximum index in each direction: 
   IXMAX=    6   IYMAX=    6   IZMAX=    5
   IXMIN=   -6   IYMIN=   -6   IZMIN=   -6

 WARNING: aliasing errors must be expected set NGX to  26 to avoid them
 WARNING: aliasing errors must be expected set NGY to  26 to avoid them
 NGZ is ok and might be reduce to  24
 aliasing errors are usually negligible using standard VASP settings
 and one can safely disregard these warnings

 serial   3D FFT for wavefunctions
 parallel 3D FFT for charge:
    minimum data exchange during FFTs selected (reduces bandwidth)


 total amount of memory used by VASP on root node    52604. kBytes
========================================================================

   base      :      30000. kBytes
   nonl-proj :       3931. kBytes
   fftplans  :       3916. kBytes
   grid      :       9345. kBytes
   one-center:         31. kBytes
   wavefun   :       5381. kBytes
 
 Broyden mixing: mesh for mixing (old mesh)
   NGX = 11   NGY = 11   NGZ = 11
  (NGX  = 48   NGY  = 48   NGZ  = 48)
  gives a total of   1331 points

 charge density for first step will be calculated from the start-wavefunctions


--------------------------------------------------------------------------------------------------------


 Maximum index for augmentation-charges        50333 (set IRDMAX)


--------------------------------------------------------------------------------------------------------


 initial charge from wavefunction
 First call to EWALD:  gamma=   0.675
 Maximum number of real-space cells 3x 3x 3
 Maximum number of reciprocal cells 3x 3x 3

    FEWALD:  cpu time    0.00: real time    0.00


----------------------------------------- Iteration    1(   1)  ---------------------------------------


    POTLOK:  cpu time    0.34: real time    0.34
    SETDIJ:  cpu time    0.07: real time    0.07
     EDDAV:  cpu time    1.53: real time    1.53
       DOS:  cpu time    0.00: real time    0.00
    CHARGE:  cpu time    0.25: real time    0.25
    MIXING:  cpu time    0.01: real time    0.01
    --------------------------------------------
      LOOP:  cpu time    2.20: real time    2.20

 eigenvalue-minimisations  :   528
 total energy-change (2. order) :-0.1186455E+02  (-0.2497467E-06)
 number of electron       5.0000000 magnetization       0.0000000
 augmentation part        0.4032304 magnetization       0.0000000

 Broyden mixing:
  rms(total) = 0.35483E-04    rms(broyden)= 0.35480E-04
  rms(prec ) = 0.14270E-03
  weight for this iteration     100.00

 Free energy of the ion-electron system (eV)
  ---------------------------------------------------
  alpha Z        PSCENC =        30.58334069
  Ewald energy   TEWEN  =      -197.90100875
  -1/2 Hartree   DENC   =        -0.59049791
  -exchange  EXHF       =         0.00000000
  -V(xc)+E(xc)   XCENC  =       -66.00340182
  PAW double counting   =       192.65951250     -119.23349357
  entropy T*S    EENTRO =         0.00062149
  eigenvalues    EBANDS =        17.97018540
  atomic energy  EATOM  =       130.65019665
  ---------------------------------------------------
  free energy    TOTEN  =       -11.86454532 eV

  energy without entropy =      -11.86516681  energy(sigma->0) =      -11.86475248


--------------------------------------------------------------------------------------------------------




----------------------------------------- Iteration    1(   2)  ---------------------------------------


    POTLOK:  cpu time    0.35: real time    0.35
    SETDIJ:  cpu time    0.07: real time    0.07
     EDDAV:  cpu time    1.53: real time    1.53
       DOS:  cpu time    0.00: real time    0.00
    --------------------------------------------
      LOOP:  cpu time    1.95: real time    1.95

 eigenvalue-minimisations  :   528
 total energy-change (2. order) :-0.4451209E-07  (-0.2329232E-07)
 number of electron       5.0000000 magnetization       0.0000000
 augmentation part        0.4032304 magnetization       0.0000000

 Free energy of the ion-electron system (eV)
  ---------------------------------------------------
  alpha Z        PSCENC =        30.58334069
  Ewald energy   TEWEN  =      -197.90100875
  -1/2 Hartree   DENC   =        -0.59055763
  -exchange  EXHF       =         0.00000000
  -V(xc)+E(xc)   XCENC  =       -66.00343449
  PAW double counting   =       192.65785361     -119.23190579
  entropy T*S    EENTRO =         0.00062137
  eigenvalues    EBANDS =        17.97034899
  atomic energy  EATOM  =       130.65019665
  ---------------------------------------------------
  free energy    TOTEN  =       -11.86454536 eV

  energy without entropy =      -11.86516673  energy(sigma->0) =      -11.86475248


--------------------------------------------------------------------------------------------------------




 average (electrostatic) potential at core
  the test charge radii are     1.2538
  (the norm of the test charge is              1.0000)
       1 -35.0274
 
 
 
 E-fermi :   5.6729     XC(G=0): -12.3693     alpha+bet :-13.5035


 spin component 1

 k-point   1 :       0.0500    0.0500    0.0500
  band No.  band energies     occupation 
      1      -1.5471      1.00000
      2       6.0864      0.00000
      3       6.0864      0.00000
      4       7.2013      0.00000
      5       9.4425      0.00000
      6       9.4425      0.00000

 k-point   2 :       0.1500    0.0500    0.0500
  band No.  band energies     occupation 
      1      -0.4245      1.00000
      2       5.4134      1.00000
      3       5.5969      1.02675
      4       8.5505      0.00000
      5       9.1264      0.00000
      6       9.7105      0.00000

 k-point   3 :       0.2500    0.0500    0.0500
  band No.  band energies     occupation 
      1       0.9011      1.00000
      2       4.7563      1.00000
      3       5.2955      1.00000
      4       9.3448      0.00000
      5      10.0382      0.00000
      6      10.5229      0.00000

 k-point   4 :       0.3500    0.0500    0.0500
  band No.  band energies     occupation 
      1       1.5296      1.00000
      2       4.3067      1.00000
      3       6.1073      0.00000
      4       9.6673      0.00000
      5      10.4020      0.00000
      6      12.6582      0.00000

 k-point   5 :       0.4500    0.0500    0.0500
  band No.  band energies     occupation 
      1       1.5870      1.00000
      2       4.1488      1.00000
      3       6.9831      0.00000
      4       9.6490      0.00000
      5      10.5866      0.00000
      6      13.8038      0.00000

 k-point   6 :      -0.0500    0.0500    0.0500
  band No.  band energies     occupation 
      1      -1.9629      1.00000
      2       6.4050      0.00000
      3       6.4050      0.00000
      4       6.5421      0.00000
      5       9.3060      0.00000
      6       9.8029      0.00000

 k-point   7 :       0.1500    0.1500    0.0500
  band No.  band energies     occupation 
      1       0.8457      1.00000
      2       4.8676      1.00000
      3       4.9401      1.00000
      4       9.2015      0.00000
      5      10.0838      0.00000
      6      10.4473      0.00000

 k-point   8 :       0.2500    0.1500    0.0500
  band No.  band energies     occupation 
      1       2.0118      1.00000
      2       4.3959      1.00000
      3       4.9731      1.00000
      4       9.5026      0.00000
      5      10.4263      0.00000
      6      12.6731      0.00000

 k-point   9 :       0.3500    0.1500    0.0500
  band No.  band energies     occupation 
      1       2.2895      1.00000
      2       4.1815      1.00000
      3       5.9383      0.00000
      4       9.7548      0.00000
      5      10.6278      0.00000
      6      14.5260      0.00000

 k-point  10 :      -0.1500    0.1500    0.0500
  band No.  band energies     occupation 
      1      -1.1465      1.00000
      2       5.9512      0.00000
      3       6.1797      0.00000
      4       7.3552      0.00000
      5       8.6244      0.00000
      6       9.9857      0.00000

 k-point  11 :       0.2500    0.2500    0.0500
  band No.  band energies     occupation 
      1       2.9305      1.00000
      2       4.2908      1.00000
      3       5.0091      1.00000
      4       9.8170      0.00000
      5      10.5245      0.00000
      6      14.9567      0.00000

 k-point  12 :       0.3500    0.2500    0.0500
  band No.  band energies     occupation 
      1       3.1114      1.00000
      2       4.3750      1.00000
      3       5.2499      1.00000
      4      10.0565      0.00000
      5      10.5691      0.00000
      6      14.3824      0.00000

 k-point  13 :      -0.2500    0.2500    0.0500
  band No.  band energies     occupation 
      1       0.1748      1.00000
      2       5.2628      1.00000
      3       5.6085      1.03489
      4       8.6495      0.00000
      5       8.9685      0.00000
      6      10.1818      0.00000

 k-point  14 :      -0.1500    0.2500    0.0500
  band No.  band energies     occupation 
      1      -0.0644      1.00000
      2       5.6261      1.01696
      3       5.6972      0.13756
      4       8.0670      0.00000
      5       8.4747      0.00000
      6      10.3849      0.00000

 k-point  15 :      -0.3500    0.3500    0.0500
  band No.  band energies     occupation 
      1       1.2121      1.00000
      2       4.6683      1.00000
      3       5.6921      0.19922
      4       9.1825      0.00000
      5      10.4097      0.00000
      6      11.1042      0.00000

 k-point  16 :      -0.2500    0.3500    0.0500
  band No.  band energies     occupation 
      1       1.2388      1.00000
      2       4.9160      1.00000
      3       5.3482      1.00000
      4       8.3689      0.00000
      5      10.3028      0.00000
      6      10.6881      0.00000

 k-point  17 :      -0.4500    0.4500    0.0500
  band No.  band energies     occupation 
      1       1.4548      1.00000
      2       4.3363      1.00000
      3       6.6951      0.00000
      4       9.3416      0.00000
      5      10.7794      0.00000
      6      13.0512      0.00000

 k-point  18 :      -0.3500    0.4500    0.0500
  band No.  band energies     occupation 
      1       1.8948      1.00000
      2       4.6142      1.00000
      3       5.5954      1.02543
      4       8.9081      0.00000
      5      10.7230      0.00000
      6      12.6918      0.00000

 k-point  19 :      -0.2500    0.4500    0.0500
  band No.  band energies     occupation 
      1       2.3617      1.00000
      2       4.3208      1.00000
      3       5.3542      1.00000
      4       8.6756      0.00000
      5      10.4286      0.00000
      6      12.7635      0.00000

 k-point  20 :      -0.4500   -0.4500    0.0500
  band No.  band energies     occupation 
      1       1.9505      1.00000
      2       4.5127      1.00000
      3       6.0894      0.00000
      4       8.8620      0.00000
      5      11.2312      0.00000
      6      13.9434      0.00000

 k-point  21 :      -0.3500   -0.4500    0.0500
  band No.  band energies     occupation 
      1       2.8314      1.00000
      2       4.3790      1.00000
      3       5.2191      1.00000
      4       9.1447      0.00000
      5      10.6493      0.00000
      6      15.0536      0.00000

 k-point  22 :      -0.3500   -0.3500    0.0500
  band No.  band energies     occupation 
      1       3.4910      1.00000
      2       4.4769      1.00000
      3       4.4769      1.00000
      4      10.1074      0.00000
      5      10.1074      0.00000
      6      14.6734      0.00000

 k-point  23 :       0.1500    0.1500    0.1500
  band No.  band energies     occupation 
      1       2.2321      1.00000
      2       4.3833      1.00000
      3       4.3833      1.00000
      4      10.0508      0.00000
      5      10.0508      0.00000
      6      12.7809      0.00000

 k-point  24 :       0.2500    0.1500    0.1500
  band No.  band energies     occupation 
      1       3.1392      1.00000
      2       4.1373      1.00000
      3       4.7818      1.00000
      4      10.2175      0.00000
      5      10.5283      0.00000
      6      14.9677      0.00000

 k-point  25 :       0.3500    0.1500    0.1500
  band No.  band energies     occupation 
      1       3.1466      1.00000
      2       4.0653      1.00000
      3       5.6040      1.03257
      4      10.2776      0.00000
      5      10.6801      0.00000
      6      14.3686      0.00000

 k-point  26 :      -0.1500    0.1500    0.1500
  band No.  band energies     occupation 
      1      -0.3694      1.00000
      2       6.3628      0.00000
      3       6.3628      0.00000
      4       7.1674      0.00000
      5       7.3617      0.00000
      6      10.5812      0.00000

 k-point  27 :       0.2500    0.2500    0.1500
  band No.  band energies     occupation 
      1       3.7401      1.00000
      2       4.4008      1.00000
      3       4.8296      1.00000
      4      10.5311      0.00000
      5      10.6609      0.00000
      6      13.6607      0.00000

 k-point  28 :      -0.2500    0.2500    0.1500
  band No.  band energies     occupation 
      1       0.8930      1.00000
      2       5.5114      1.00002
      3       6.0051      0.00000
      4       7.2334      0.00000
      5       8.7221      0.00000
      6      10.7853      0.00000

 k-point  29 :      -0.3500    0.3500    0.1500
  band No.  band energies     occupation 
      1       1.9372      1.00000
      2       4.8864      1.00000
      3       5.4974      1.00000
      4       8.0374      0.00000
      5      10.8493      0.00000
      6      10.8896      0.00000

 k-point  30 :      -0.2500    0.3500    0.1500
  band No.  band energies     occupation 
      1       2.0621      1.00000
      2       4.5675      1.00000
      3       6.1394      0.00000
      4       7.5154      0.00000
      5       9.9798      0.00000
      6      10.9507      0.00000

 k-point  31 :      -0.4500    0.4500    0.1500
  band No.  band energies     occupation 
      1       2.1599      1.00000
      2       5.1989      1.00000
      3       5.2575      1.00000
      4       8.0127      0.00000
      5      11.9877      0.00000
      6      12.8486      0.00000

 k-point  32 :      -0.3500    0.4500    0.1500
  band No.  band energies     occupation 
      1       2.7668      1.00000
      2       4.1829      1.00000
      3       5.7412     -0.03294
      4       8.1498      0.00000
      5      10.7194      0.00000
      6      12.9077      0.00000

 k-point  33 :      -0.4500   -0.4500    0.1500
  band No.  band energies     occupation 
      1       2.7786      1.00000
      2       4.5617      1.00000
      3       5.2942      1.00000
      4       8.1447      0.00000
      5      11.7551      0.00000
      6      14.5626      0.00000

 k-point  34 :      -0.3500   -0.4500    0.1500
  band No.  band energies     occupation 
      1       3.6471      1.00000
      2       3.7084      1.00000
      3       4.9707      1.00000
      4       9.4126      0.00000
      5      10.5816      0.00000
      6      15.3676      0.00000

 k-point  35 :       0.2500    0.2500    0.2500
  band No.  band energies     occupation 
      1       4.4704      1.00000
      2       4.4704      1.00000
      3       4.4704      1.00000
      4      10.7394      0.00000
      5      10.7394      0.00000
      6      12.7456      0.00000

 k-point  36 :      -0.2500    0.2500    0.2500
  band No.  band energies     occupation 
      1       1.9695      1.00000
      2       4.7840      1.00000
      3       6.9529      0.00000
      4       6.9529      0.00000
      5       8.8807      0.00000
      6      10.6846      0.00000

 k-point  37 :      -0.3500    0.3500    0.2500
  band No.  band energies     occupation 
      1       2.7920      1.00000
      2       3.8543      1.00000
      3       7.0128      0.00000
      4       7.6040      0.00000
      5      10.5434      0.00000
      6      10.8346      0.00000

 k-point  38 :      -0.4500    0.4500    0.2500
  band No.  band energies     occupation 
      1       2.8266      1.00000
      2       3.7683      1.00000
      3       6.8426      0.00000
      4       7.4879      0.00000
      5      12.5387      0.00000
      6      12.8229      0.00000

 k-point  39 :      -0.3500    0.4500    0.2500
  band No.  band energies     occupation 
      1       3.1181      1.00000
      2       3.1803      1.00000
      3       6.8550      0.00000
      4       8.8312      0.00000
      5      10.8142      0.00000
      6      12.9261      0.00000

 k-point  40 :      -0.4500   -0.4500    0.2500
  band No.  band energies     occupation 
      1       2.9087      1.00000
      2       3.2329      1.00000
      3       6.5777      0.00000
      4       9.3471      0.00000
      5      11.6579      0.00000
      6      15.2692      0.00000

 k-point  41 :      -0.3500    0.3500    0.3500
  band No.  band energies     occupation 
      1       2.8955      1.00000
      2       2.9947      1.00000
      3       8.6103      0.00000
      4       8.6103      0.00000
      5      10.7652      0.00000
      6      10.9442      0.00000

 k-point  42 :      -0.4500    0.4500    0.3500
  band No.  band energies     occupation 
      1       2.5154      1.00000
      2       2.6780      1.00000
      3       9.0754      0.00000
      4       9.0817      0.00000
      5      12.2579      0.00000
      6      13.0704      0.00000

 k-point  43 :      -0.4500   -0.4500    0.3500
  band No.  band energies     occupation 
      1       2.3615      1.00000
      2       2.3615      1.00000
      3       9.0074      0.00000
      4      11.4356      0.00000
      5      11.4356      0.00000
      6      15.5781      0.00000

 k-point  44 :      -0.4500    0.4500    0.4500
  band No.  band energies     occupation 
      1       2.0596      1.00000
      2       2.1064      1.00000
      3      11.3393      0.00000
      4      11.3393      0.00000
      5      12.2469      0.00000
      6      13.5520      0.00000

 spin component 2

 k-point   1 :       0.0500    0.0500    0.0500
  band No.  band energies     occupation 
      1      -1.5471      1.00000
      2       6.0864      0.00000
      3       6.0864      0.00000
      4       7.2013      0.00000
      5       9.4425      0.00000
      6       9.4425      0.00000

 k-point   2 :       0.1500    0.0500    0.0500
  band No.  band energies     occupation 
      1      -0.4245      1.00000
      2       5.4134      1.00000
      3       5.5969      1.02675
      4       8.5505      0.00000
      5       9.1264      0.00000
      6       9.7105      0.00000

 k-point   3 :       0.2500    0.0500    0.0500
  band No.  band energies     occupation 
      1       0.9011      1.00000
      2       4.7563      1.00000
      3       5.2955      1.00000
      4       9.3448      0.00000
      5      10.0382      0.00000
      6      10.5229      0.00000

 k-point   4 :       0.3500    0.0500    0.0500
  band No.  band energies     occupation 
      1       1.5296      1.00000
      2       4.3067      1.00000
      3       6.1073      0.00000
      4       9.6673      0.00000
      5      10.4020      0.00000
      6      12.6582      0.00000

 k-point   5 :       0.4500    0.0500    0.0500
  band No.  band energies     occupation 
      1       1.5870      1.00000
      2       4.1488      1.00000
      3       6.9831      0.00000
      4       9.6490      0.00000
      5      10.5866      0.00000
      6      13.8038      0.00000

 k-point   6 :      -0.0500    0.0500    0.0500
  band No.  band energies     occupation 
      1      -1.9629      1.00000
      2       6.4050      0.00000
      3       6.4050      0.00000
      4       6.5421      0.00000
      5       9.3060      0.00000
      6       9.8029      0.00000

 k-point   7 :       0.1500    0.1500    0.0500
  band No.  band energies     occupation 
      1       0.8457      1.00000
      2       4.8676      1.00000
      3       4.9401      1.00000
      4       9.2015      0.00000
      5      10.0838      0.00000
      6      10.4473      0.00000

 k-point   8 :       0.2500    0.1500    0.0500
  band No.  band energies     occupation 
      1       2.0118      1.00000
      2       4.3959      1.00000
      3       4.9731      1.00000
      4       9.5026      0.00000
      5      10.4263      0.00000
      6      12.6731      0.00000

 k-point   9 :       0.3500    0.1500    0.0500
  band No.  band energies     occupation 
      1       2.2895      1.00000
      2       4.1815      1.00000
      3       5.9383      0.00000
      4       9.7548      0.00000
      5      10.6278      0.00000
      6      14.5260      0.00000

 k-point  10 :      -0.1500    0.1500    0.0500
  band No.  band energies     occupation 
      1      -1.1465      1.00000
      2       5.9512      0.00000
      3       6.1797      0.00000
      4       7.3552      0.00000
      5       8.6244      0.00000
      6       9.9857      0.00000

 k-point  11 :       0.2500    0.2500    0.0500
  band No.  band energies     occupation 
      1       2.9305      1.00000
      2       4.2908      1.00000
      3       5.0091      1.00000
      4       9.8170      0.00000
      5      10.5245      0.00000
      6      14.9567      0.00000

 k-point  12 :       0.3500    0.2500    0.0500
  band No.  band energies     occupation 
      1       3.1114      1.00000
      2       4.3750      1.00000
      3       5.2499      1.00000
      4      10.0565      0.00000
      5      10.5691      0.00000
      6      14.3824      0.00000

 k-point  13 :      -0.2500    0.2500    0.0500
  band No.  band energies     occupation 
      1       0.1748      1.00000
      2       5.2628      1.00000
      3       5.6085      1.03489
      4       8.6495      0.00000
      5       8.9685      0.00000
      6      10.1818      0.00000

 k-point  14 :      -0.1500    0.2500    0.0500
  band No.  band energies     occupation 
      1      -0.0644      1.00000
      2       5.6261      1.01696
      3       5.6972      0.13756
      4       8.0670      0.00000
      5       8.4747      0.00000
      6      10.3849      0.00000

 k-point  15 :      -0.3500    0.3500    0.0500
  band No.  band energies     occupation 
      1       1.2121      1.00000
      2       4.6683      1.00000
      3       5.6921      0.19922
      4       9.1825      0.00000
      5      10.4097      0.00000
      6      11.1042      0.00000

 k-point  16 :      -0.2500    0.3500    0.0500
  band No.  band energies     occupation 
      1       1.2388      1.00000
      2       4.9160      1.00000
      3       5.3482      1.00000
      4       8.3689      0.00000
      5      10.3028      0.00000
      6      10.6881      0.00000

 k-point  17 :      -0.4500    0.4500    0.0500
  band No.  band energies     occupation 
      1       1.4548      1.00000
      2       4.3363      1.00000
      3       6.6951      0.00000
      4       9.3416      0.00000
      5      10.7794      0.00000
      6      13.0512      0.00000

 k-point  18 :      -0.3500    0.4500    0.0500
  band No.  band energies     occupation 
      1       1.8948      1.00000
      2       4.6142      1.00000
      3       5.5954      1.02543
      4       8.9081      0.00000
      5      10.7230      0.00000
      6      12.6918      0.00000

 k-point  19 :      -0.2500    0.4500    0.0500
  band No.  band energies     occupation 
      1       2.3617      1.00000
      2       4.3208      1.00000
      3       5.3542      1.00000
      4       8.6756      0.00000
      5      10.4286      0.00000
      6      12.7635      0.00000

 k-point  20 :      -0.4500   -0.4500    0.0500
  band No.  band energies     occupation 
      1       1.9505      1.00000
      2       4.5127      1.00000
      3       6.0894      0.00000
      4       8.8620      0.00000
      5      11.2312      0.00000
      6      13.9434      0.00000

 k-point  21 :      -0.3500   -0.4500    0.0500
  band No.  band energies     occupation 
      1       2.8314      1.00000
      2       4.3790      1.00000
      3       5.2191      1.00000
      4       9.1447      0.00000
      5      10.6493      0.00000
      6      15.0536      0.00000

 k-point  22 :      -0.3500   -0.3500    0.0500
  band No.  band energies     occupation 
      1       3.4910      1.00000
      2       4.4769      1.00000
      3       4.4769      1.00000
      4      10.1074      0.00000
      5      10.1074      0.00000
      6      14.6734      0.00000

 k-point  23 :       0.1500    0.1500    0.1500
  band No.  band energies     occupation 
      1       2.2321      1.00000
      2       4.3833      1.00000
      3       4.3833      1.00000
      4      10.0508      0.00000
      5      10.0508      0.00000
      6      12.7809      0.00000

 k-point  24 :       0.2500    0.1500    0.1500
  band No.  band energies     occupation 
      1       3.1392      1.00000
      2       4.1373      1.00000
      3       4.7818      1.00000
      4      10.2175      0.00000
      5      10.5283      0.00000
      6      14.9677      0.00000

 k-point  25 :       0.3500    0.1500    0.1500
  band No.  band energies     occupation 
      1       3.1466      1.00000
      2       4.0653      1.00000
      3       5.6040      1.03257
      4      10.2776      0.00000
      5      10.6801      0.00000
      6      14.3686      0.00000

 k-point  26 :      -0.1500    0.1500    0.1500
  band No.  band energies     occupation 
      1      -0.3694      1.00000
      2       6.3628      0.00000
      3       6.3628      0.00000
      4       7.1674      0.00000
      5       7.3617      0.00000
      6      10.5812      0.00000

 k-point  27 :       0.2500    0.2500    0.1500
  band No.  band energies     occupation 
      1       3.7401      1.00000
      2       4.4008      1.00000
      3       4.8296      1.00000
      4      10.5311      0.00000
      5      10.6609      0.00000
      6      13.6607      0.00000

 k-point  28 :      -0.2500    0.2500    0.1500
  band No.  band energies     occupation 
      1       0.8930      1.00000
      2       5.5114      1.00002
      3       6.0051      0.00000
      4       7.2334      0.00000
      5       8.7221      0.00000
      6      10.7853      0.00000

 k-point  29 :      -0.3500    0.3500    0.1500
  band No.  band energies     occupation 
      1       1.9372      1.00000
      2       4.8864      1.00000
      3       5.4974      1.00000
      4       8.0374      0.00000
      5      10.8493      0.00000
      6      10.8896      0.00000

 k-point  30 :      -0.2500    0.3500    0.1500
  band No.  band energies     occupation 
      1       2.0621      1.00000
      2       4.5675      1.00000
      3       6.1394      0.00000
      4       7.5154      0.00000
      5       9.9798      0.00000
      6      10.9507      0.00000

 k-point  31 :      -0.4500    0.4500    0.1500
  band No.  band energies     occupation 
      1       2.1599      1.00000
      2       5.1989      1.00000
      3       5.2575      1.00000
      4       8.0127      0.00000
      5      11.9877      0.00000
      6      12.8486      0.00000

 k-point  32 :      -0.3500    0.4500    0.1500
  band No.  band energies     occupation 
      1       2.7668      1.00000
      2       4.1829      1.00000
      3       5.7412     -0.03294
      4       8.1498      0.00000
      5      10.7194      0.00000
      6      12.9077      0.00000

 k-point  33 :      -0.4500   -0.4500    0.1500
  band No.  band energies     occupation 
      1       2.7786      1.00000
      2       4.5617      1.00000
      3       5.2942      1.00000
      4       8.1447      0.00000
      5      11.7551      0.00000
      6      14.5626      0.00000

 k-point  34 :      -0.3500   -0.4500    0.1500
  band No.  band energies     occupation 
      1       3.6471      1.00000
      2       3.7084      1.00000
      3       4.9707      1.00000
      4       9.4126      0.00000
      5      10.5816      0.00000
      6      15.3676      0.00000

 k-point  35 :       0.2500    0.2500    0.2500
  band No.  band energies     occupation 
      1       4.4704      1.00000
      2       4.4704      1.00000
      3       4.4704      1.00000
      4      10.7394      0.00000
      5      10.7394      0.00000
      6      12.7456      0.00000

 k-point  36 :      -0.2500    0.2500    0.2500
  band No.  band energies     occupation 
      1       1.9695      1.00000
      2       4.7840      1.00000
      3       6.9529      0.00000
      4       6.9529      0.00000
      5       8.8807      0.00000
      6      10.6846      0.00000

 k-point  37 :      -0.3500    0.3500    0.2500
  band No.  band energies     occupation 
      1       2.7920      1.00000
      2       3.8543      1.00000
      3       7.0128      0.00000
      4       7.6040      0.00000
      5      10.5434      0.00000
      6      10.8346      0.00000

 k-point  38 :      -0.4500    0.4500    0.2500
  band No.  band energies     occupation 
      1       2.8266      1.00000
      2       3.7683      1.00000
      3       6.8426      0.00000
      4       7.4879      0.00000
      5      12.5387      0.00000
      6      12.8229      0.00000

 k-point  39 :      -0.3500    0.4500    0.2500
  band No.  band energies     occupation 
      1       3.1181      1.00000
      2       3.1803      1.00000
      3       6.8550      0.00000
      4       8.8312      0.00000
      5      10.8142      0.00000
      6      12.9261      0.00000

 k-point  40 :      -0.4500   -0.4500    0.2500
  band No.  band energies     occupation 
      1       2.9087      1.00000
      2       3.2329      1.00000
      3       6.5777      0.00000
      4       9.3471      0.00000
      5      11.6579      0.00000
      6      15.2692      0.00000

 k-point  41 :      -0.3500    0.3500    0.3500
  band No.  band energies     occupation 
      1       2.8955      1.00000
      2       2.9947      1.00000
      3       8.6103      0.00000
      4       8.6103      0.00000
      5      10.7652      0.00000
      6      10.9442      0.00000

 k-point  42 :      -0.4500    0.4500    0.3500
  band No.  band energies     occupation 
      1       2.5154      1.00000
      2       2.6780      1.00000
      3       9.0754      0.00000
      4       9.0817      0.00000
      5      12.2579      0.00000
      6      13.0704      0.00000

 k-point  43 :      -0.4500   -0.4500    0.3500
  band No.  band energies     occupation 
      1       2.3615      1.00000
      2       2.3615      1.00000
      3       9.0074      0.00000
      4      11.4356      0.00000
      5      11.4356      0.00000
      6      15.5781      0.00000

 k-point  44 :      -0.4500    0.4500    0.4500
  band No.  band energies     occupation 
      1       2.0596      1.00000
      2       2.1064      1.00000
      3      11.3393      0.00000
      4      11.3393      0.00000
      5      12.2469      0.00000
      6      13.5520      0.00000


--------------------------------------------------------------------------------------------------------


 soft charge-density along one line, spin component           1
         0         1         2         3         4         5         6         7         8         9
 total charge-density along one line
 
 soft charge-density along one line, spin component           2
         0         1         2         3         4         5         6         7         8         9
 total charge-density along one line
 
 pseudopotential strength for first ion, spin component:           1
 -6.575   0.000   0.003   0.000   0.002   0.089   0.000   0.000
  0.000  -6.573   0.000   0.003   0.000   0.000   0.089   0.000
  0.003   0.000  -6.573   0.000  -0.001   0.000   0.000   0.089
  0.000   0.003   0.000  -6.575   0.000   0.000   0.000   0.000
  0.002   0.000  -0.001   0.000  -6.572   0.000   0.000   0.000
  0.089   0.000   0.000   0.000   0.000   0.071   0.000   0.000
  0.000   0.089   0.000   0.000   0.000   0.000   0.071   0.000
  0.000   0.000   0.089   0.000   0.000   0.000   0.000   0.071
  0.000   0.000   0.000   0.089   0.000   0.000   0.000   0.000
  0.000   0.000   0.000   0.000   0.089   0.000   0.000   0.000
  0.000   0.000   0.000   0.000   0.000   0.000   0.000   0.000
  0.000   0.000   0.000   0.000   0.000   0.000   0.000   0.000
  0.000   0.000   0.000   0.000   0.000   0.000   0.000   0.000
  0.000   0.000   0.000   0.000   0.000   0.000   0.000   0.000
  0.000   0.000   0.000   0.000   0.000   0.000   0.000   0.000
  0.000   0.000   0.000   0.000   0.000   0.000   0.000   0.000
  0.000   0.000   0.000   0.000   0.000   0.000   0.000   0.000
  0.000   0.000   0.000   0.000   0.000   0.000   0.000   0.000
 pseudopotential strength for first ion, spin component:           2
 -6.575   0.000   0.003   0.000   0.002   0.089   0.000   0.000
  0.000  -6.573   0.000   0.003   0.000   0.000   0.089   0.000
  0.003   0.000  -6.573   0.000  -0.001   0.000   0.000   0.089
  0.000   0.003   0.000  -6.575   0.000   0.000   0.000   0.000
  0.002   0.000  -0.001   0.000  -6.572   0.000   0.000   0.000
  0.089   0.000   0.000   0.000   0.000   0.071   0.000   0.000
  0.000   0.089   0.000   0.000   0.000   0.000   0.071   0.000
  0.000   0.000   0.089   0.000   0.000   0.000   0.000   0.071
  0.000   0.000   0.000   0.089   0.000   0.000   0.000   0.000
  0.000   0.000   0.000   0.000   0.089   0.000   0.000   0.000
  0.000   0.000   0.000   0.000   0.000   0.000   0.000   0.000
  0.000   0.000   0.000   0.000   0.000   0.000   0.000   0.000
  0.000   0.000   0.000   0.000   0.000   0.000   0.000   0.000
  0.000   0.000   0.000   0.000   0.000   0.000   0.000   0.000
  0.000   0.000   0.000   0.000   0.000   0.000   0.000   0.000
  0.000   0.000   0.000   0.000   0.000   0.000   0.000   0.000
  0.000   0.000   0.000   0.000   0.000   0.000   0.000   0.000
  0.000   0.000   0.000   0.000   0.000   0.000   0.000   0.000
 total augmentation occupancy for first ion, spin component:           1
  0.641   0.000   0.079   0.000   0.046  -0.509   0.000  -0.019   0.000  -0.011   0.000   0.000   0.000   0.000   0.000   0.000
  0.000   0.706   0.000   0.092   0.000   0.000  -0.524   0.000  -0.022   0.000   0.000   0.000   0.000   0.000   0.000   0.000
  0.079   0.000   0.722   0.000  -0.028  -0.019   0.000  -0.528   0.000   0.007   0.000   0.000   0.000   0.000   0.000   0.000
  0.000   0.092   0.000   0.641   0.000   0.000  -0.022   0.000  -0.509   0.000   0.000   0.000   0.000   0.000   0.000   0.000
  0.046   0.000  -0.028   0.000   0.754  -0.011   0.000   0.007   0.000  -0.536   0.000   0.000   0.000   0.000   0.000   0.000
 -0.509   0.000  -0.019   0.000  -0.011   0.448   0.000  -0.014   0.000  -0.008   0.000   0.000   0.000   0.000   0.000   0.000
  0.000  -0.524   0.000  -0.022   0.000   0.000   0.436   0.000  -0.017   0.000   0.000   0.000   0.000   0.000   0.000   0.000
 -0.019   0.000  -0.528   0.000   0.007  -0.014   0.000   0.433   0.000   0.005   0.000   0.000   0.000   0.000   0.000   0.000
  0.000  -0.022   0.000  -0.509   0.000   0.000  -0.017   0.000   0.448   0.000   0.000   0.000   0.000   0.000   0.000   0.000
 -0.011   0.000   0.007   0.000  -0.536  -0.008   0.000   0.005   0.000   0.427   0.000   0.000   0.000   0.000   0.000   0.000
  0.000   0.000   0.000   0.000   0.000   0.000   0.000   0.000   0.000   0.000   1.401  -0.277   0.000   0.000   0.000   0.000
  0.000   0.000   0.000   0.000   0.000   0.000   0.000   0.000   0.000   0.000  -0.277   0.059   0.000   0.000   0.000   0.000
  0.000   0.000   0.000   0.000   0.000   0.000   0.000   0.000   0.000   0.000   0.000   0.000   0.300   0.000   0.000   0.012
  0.000   0.000   0.000   0.000   0.000   0.000   0.000   0.000   0.000   0.000   0.000   0.000   0.000   0.300   0.000   0.000
  0.000   0.000   0.000   0.000   0.000   0.000   0.000   0.000   0.000   0.000   0.000   0.000   0.000   0.000   0.300   0.000
  0.000   0.000   0.000   0.000   0.000   0.000   0.000   0.000   0.000   0.000   0.000   0.000   0.012   0.000   0.000   0.000
  0.000   0.000   0.000   0.000   0.000   0.000   0.000   0.000   0.000   0.000   0.000   0.000   0.000   0.012   0.000   0.000
  0.000   0.000   0.000   0.000   0.000   0.000   0.000   0.000   0.000   0.000   0.000   0.000   0.000   0.000   0.012   0.000
 total augmentation occupancy for first ion, spin component:           2
  0.000   0.000   0.000   0.000   0.000   0.000   0.000   0.000   0.000   0.000   0.000   0.000   0.000   0.000   0.000   0.000
  0.000   0.000   0.000   0.000   0.000   0.000   0.000   0.000   0.000   0.000   0.000   0.000   0.000   0.000   0.000   0.000
  0.000   0.000   0.000   0.000   0.000   0.000   0.000   0.000   0.000   0.000   0.000   0.000   0.000   0.000   0.000   0.000
  0.000   0.000   0.000   0.000   0.000   0.000   0.000   0.000   0.000   0.000   0.000   0.000   0.000   0.000   0.000   0.000
  0.000   0.000   0.000   0.000   0.000   0.000   0.000   0.000   0.000   0.000   0.000   0.000   0.000   0.000   0.000   0.000
  0.000   0.000   0.000   0.000   0.000   0.000   0.000   0.000   0.000   0.000   0.000   0.000   0.000   0.000   0.000   0.000
  0.000   0.000   0.000   0.000   0.000   0.000   0.000   0.000   0.000   0.000   0.000   0.000   0.000   0.000   0.000   0.000
  0.000   0.000   0.000   0.000   0.000   0.000   0.000   0.000   0.000   0.000   0.000   0.000   0.000   0.000   0.000   0.000
  0.000   0.000   0.000   0.000   0.000   0.000   0.000   0.000   0.000   0.000   0.000   0.000   0.000   0.000   0.000   0.000
  0.000   0.000   0.000   0.000   0.000   0.000   0.000   0.000   0.000   0.000   0.000   0.000   0.000   0.000   0.000   0.000
  0.000   0.000   0.000   0.000   0.000   0.000   0.000   0.000   0.000   0.000   0.000   0.000   0.000   0.000   0.000   0.000
  0.000   0.000   0.000   0.000   0.000   0.000   0.000   0.000   0.000   0.000   0.000   0.000   0.000   0.000   0.000   0.000
  0.000   0.000   0.000   0.000   0.000   0.000   0.000   0.000   0.000   0.000   0.000   0.000   0.000   0.000   0.000   0.000
  0.000   0.000   0.000   0.000   0.000   0.000   0.000   0.000   0.000   0.000   0.000   0.000   0.000   0.000   0.000   0.000
  0.000   0.000   0.000   0.000   0.000   0.000   0.000   0.000   0.000   0.000   0.000   0.000   0.000   0.000   0.000   0.000
  0.000   0.000   0.000   0.000   0.000   0.000   0.000   0.000   0.000   0.000   0.000   0.000   0.000   0.000   0.000   0.000
  0.000   0.000   0.000   0.000   0.000   0.000   0.000   0.000   0.000   0.000   0.000   0.000   0.000   0.000   0.000   0.000
  0.000   0.000   0.000   0.000   0.000   0.000   0.000   0.000   0.000   0.000   0.000   0.000   0.000   0.000   0.000   0.000


------------------------ aborting loop because EDIFF is reached ----------------------------------------


    CHARGE:  cpu time    0.25: real time    0.25
    FORLOC:  cpu time    0.01: real time    0.01
    FORNL :  cpu time    0.46: real time    0.46
    STRESS:  cpu time    1.23: real time    1.23
    FORCOR:  cpu time    0.39: real time    0.39
    FORHAR:  cpu time    0.04: real time    0.04
    MIXING:  cpu time    0.01: real time    0.01

  FORCE on cell =-STRESS in cart. coord.  units (eV):
  Direction    XX          YY          ZZ          XY          YZ          ZX
  --------------------------------------------------------------------------------------
  Alpha Z    30.58334    30.58334    30.58334
  Ewald     -65.96700   -65.96700   -65.96700     0.00000     0.00000     0.00000
  Hartree     0.19687     0.19687     0.19687     0.00000     0.00000     0.00000
  E(xc)     -22.45372   -22.45372   -22.45372     0.00000     0.00000     0.00000
  Local       3.87085     3.87085     3.87085     0.00000     0.00000     0.00000
  n-local    -8.06953    -8.68119    -5.47852     1.73038    -2.23431    -1.69262
  augment     2.92410     2.92410     2.92410     0.00000     0.00000     0.00000
  Kinetic    59.80528    59.99976    54.65872    -0.48619     2.91873     1.79883
  Fock        0.00000     0.00000     0.00000     0.00000     0.00000     0.00000
  -------------------------------------------------------------------------------------
  Total      -0.10072    -0.10072    -0.10072     0.00000     0.00000     0.00000
  in kB      -8.89962    -8.89962    -8.89962     0.00000     0.00000     0.00000
  external pressure =       -8.90 kB  Pullay stress =        0.00 kB


 VOLUME and BASIS-vectors are now :
 -----------------------------------------------------------------------------
  energy-cutoff  :      600.00
  volume of cell :       18.13
      direct lattice vectors                 reciprocal lattice vectors
     2.866544087  0.000000000  0.000000000     0.348852126  0.123337852  0.213627426
    -0.955514696  2.702603683  0.000000000     0.000000000  0.370013556  0.213627426
    -0.955514696 -1.351301841  2.340523446     0.000000000  0.000000000  0.427254853

  length of vectors
     2.866544087  2.866544087  2.866544087     0.427254853  0.427254853  0.427254853


 FORCES acting on ions
    electron-ion (+dipol)            ewald-force                    non-local-force                 convergence-correction
 -----------------------------------------------------------------------------------------------
   -.116E-14 0.543E-15 -.195E-14   -.279E-15 -.214E-15 0.640E-15   -.595E-23 0.155E-23 0.000E+00   0.972E-16 0.381E-16 0.143E-16
 -----------------------------------------------------------------------------------------------
   -.116E-14 0.543E-15 -.195E-14   -.279E-15 -.214E-15 0.640E-15   -.595E-23 0.155E-23 0.000E+00   0.972E-16 0.381E-16 0.143E-16
 
 
 POSITION                                       TOTAL-FORCE (eV/Angst)
 -----------------------------------------------------------------------------------
      0.00000      0.00000      0.00000         0.000000      0.000000      0.000000
 -----------------------------------------------------------------------------------
    total drift:                                0.000000      0.000000      0.000000


--------------------------------------------------------------------------------------------------------



  FREE ENERGIE OF THE ION-ELECTRON SYSTEM (eV)
  ---------------------------------------------------
  free  energy   TOTEN  =       -11.864545 eV

  energy  without entropy=      -11.865167  energy(sigma->0) =      -11.864752
 


--------------------------------------------------------------------------------------------------------


    POTLOK:  cpu time    0.48: real time    0.49


--------------------------------------------------------------------------------------------------------


 writing wavefunctions
     LOOP+:  cpu time    7.56: real time    8.28
    4ORBIT:  cpu time    0.00: real time    0.00

 total amount of memory used by VASP on root node    52604. kBytes
========================================================================

   base      :      30000. kBytes
   nonl-proj :       3931. kBytes
   fftplans  :       3916. kBytes
   grid      :       9345. kBytes
   one-center:         31. kBytes
   wavefun   :       5381. kBytes
 
  
  
 General timing and accounting informations for this job:
 ========================================================
  
                  Total CPU time used (sec):        8.666
                            User time (sec):        8.529
                          System time (sec):        0.137
                         Elapsed time (sec):        9.743
  
                   Maximum memory used (kb):           0.
                   Average memory used (kb):           0.
  
                          Minor page faults:        15118
                          Major page faults:            0
                 Voluntary context switches:         1414
