<?xml version="1.0" encoding="ISO-8859-1"?>
<modeling>
 <generator>
  <i name="program" type="string">vasp </i>
  <i name="version" type="string">5.2.12  </i>
  <i name="subversion" type="string">11Nov11 complex                                                      parallel </i>
  <i name="platform" type="string">LinuxIFC </i>
  <i name="date" type="string">2012 10 14 </i>
  <i name="time" type="string">15:12:12 </i>
 </generator>
 <incar>
  <i type="string" name="PREC">accurate</i>
  <i name="ENCUT">    600.00000000</i>
  <i type="logical" name="LREAL"> F  </i>
  <i type="int" name="ISMEAR">     1</i>
  <i name="SIGMA">      0.05000000</i>
 </incar>
 <kpoints>
  <generation param="Monkhorst-Pack">
   <v type="int" name="divisions">      10       10       10 </v>
   <v name="usershift">      0.00000000       0.00000000       0.00000000 </v>
   <v name="genvec1">      0.10000000       0.00000000       0.00000000 </v>
   <v name="genvec2">      0.00000000       0.10000000       0.00000000 </v>
   <v name="genvec3">      0.00000000       0.00000000       0.10000000 </v>
   <v name="shift">      0.50000000       0.50000000       0.50000000 </v>
  </generation>
  <varray name="kpointlist" >
   <v>       0.05000000       0.05000000       0.05000000 </v>
   <v>       0.15000000       0.05000000       0.05000000 </v>
   <v>       0.25000000       0.05000000       0.05000000 </v>
   <v>       0.35000000       0.05000000       0.05000000 </v>
   <v>       0.45000000       0.05000000       0.05000000 </v>
   <v>      -0.05000000       0.05000000       0.05000000 </v>
   <v>       0.15000000       0.15000000       0.05000000 </v>
   <v>       0.25000000       0.15000000       0.05000000 </v>
   <v>       0.35000000       0.15000000       0.05000000 </v>
   <v>      -0.15000000       0.15000000       0.05000000 </v>
   <v>       0.25000000       0.25000000       0.05000000 </v>
   <v>       0.35000000       0.25000000       0.05000000 </v>
   <v>      -0.25000000       0.25000000       0.05000000 </v>
   <v>      -0.15000000       0.25000000       0.05000000 </v>
   <v>      -0.35000000       0.35000000       0.05000000 </v>
   <v>      -0.25000000       0.35000000       0.05000000 </v>
   <v>      -0.45000000       0.45000000       0.05000000 </v>
   <v>      -0.35000000       0.45000000       0.05000000 </v>
   <v>      -0.25000000       0.45000000       0.05000000 </v>
   <v>      -0.45000000      -0.45000000       0.05000000 </v>
   <v>      -0.35000000      -0.45000000       0.05000000 </v>
   <v>      -0.35000000      -0.35000000       0.05000000 </v>
   <v>       0.15000000       0.15000000       0.15000000 </v>
   <v>       0.25000000       0.15000000       0.15000000 </v>
   <v>       0.35000000       0.15000000       0.15000000 </v>
   <v>      -0.15000000       0.15000000       0.15000000 </v>
   <v>       0.25000000       0.25000000       0.15000000 </v>
   <v>      -0.25000000       0.25000000       0.15000000 </v>
   <v>      -0.35000000       0.35000000       0.15000000 </v>
   <v>      -0.25000000       0.35000000       0.15000000 </v>
   <v>      -0.45000000       0.45000000       0.15000000 </v>
   <v>      -0.35000000       0.45000000       0.15000000 </v>
   <v>      -0.45000000      -0.45000000       0.15000000 </v>
   <v>      -0.35000000      -0.45000000       0.15000000 </v>
   <v>       0.25000000       0.25000000       0.25000000 </v>
   <v>      -0.25000000       0.25000000       0.25000000 </v>
   <v>      -0.35000000       0.35000000       0.25000000 </v>
   <v>      -0.45000000       0.45000000       0.25000000 </v>
   <v>      -0.35000000       0.45000000       0.25000000 </v>
   <v>      -0.45000000      -0.45000000       0.25000000 </v>
   <v>      -0.35000000       0.35000000       0.35000000 </v>
   <v>      -0.45000000       0.45000000       0.35000000 </v>
   <v>      -0.45000000      -0.45000000       0.35000000 </v>
   <v>      -0.45000000       0.45000000       0.45000000 </v>
  </varray>
  <varray name="weights" >
   <v>       0.00800000 </v>
   <v>       0.02400000 </v>
   <v>       0.02400000 </v>
   <v>       0.02400000 </v>
   <v>       0.01200000 </v>
   <v>       0.00600000 </v>
   <v>       0.02400000 </v>
   <v>       0.04800000 </v>
   <v>       0.04800000 </v>
   <v>       0.02400000 </v>
   <v>       0.02400000 </v>
   <v>       0.02400000 </v>
   <v>       0.02400000 </v>
   <v>       0.02400000 </v>
   <v>       0.02400000 </v>
   <v>       0.04800000 </v>
   <v>       0.02400000 </v>
   <v>       0.04800000 </v>
   <v>       0.02400000 </v>
   <v>       0.02400000 </v>
   <v>       0.04800000 </v>
   <v>       0.00800000 </v>
   <v>       0.00800000 </v>
   <v>       0.02400000 </v>
   <v>       0.01200000 </v>
   <v>       0.00600000 </v>
   <v>       0.02400000 </v>
   <v>       0.02400000 </v>
   <v>       0.02400000 </v>
   <v>       0.02400000 </v>
   <v>       0.02400000 </v>
   <v>       0.04800000 </v>
   <v>       0.02400000 </v>
   <v>       0.02400000 </v>
   <v>       0.00200000 </v>
   <v>       0.00600000 </v>
   <v>       0.02400000 </v>
   <v>       0.02400000 </v>
   <v>       0.02400000 </v>
   <v>       0.02400000 </v>
   <v>       0.00600000 </v>
   <v>       0.02400000 </v>
   <v>       0.00800000 </v>
   <v>       0.00600000 </v>
  </varray>
 </kpoints>
 <parameters>
  <separator name="general" >
   <i type="string" name="SYSTEM">unknown system</i>
   <i type="logical" name="LCOMPAT"> F  </i>
  </separator>
  <separator name="electronic" >
   <i type="string" name="PREC">accura</i>
   <i name="ENMAX">    600.00000000</i>
   <i name="ENAUG">    332.07500000</i>
   <i name="EDIFF">      0.00010000</i>
   <i type="int" name="IALGO">    38</i>
   <i type="int" name="IWAVPR">    10</i>
   <i type="int" name="NBANDS">     6</i>
   <i name="NELECT">      5.00000000</i>
   <i type="int" name="TURBO">     0</i>
   <i type="int" name="IRESTART">     0</i>
   <i type="int" name="NREBOOT">     0</i>
   <i type="int" name="NMIN">     0</i>
   <i name="EREF">      0.00000000</i>
   <separator name="electronic smearing" >
    <i type="int" name="ISMEAR">     1</i>
    <i name="SIGMA">      0.05000000</i>
    <i name="KSPACING">      0.50000000</i>
    <i type="logical" name="KGAMMA"> T  </i>
   </separator>
   <separator name="electronic projectors" >
    <i type="logical" name="LREAL"> F  </i>
    <v name="ROPT">      0.00000000</v>
    <i type="int" name="LMAXPAW">  -100</i>
    <i type="int" name="LMAXMIX">     2</i>
    <i type="logical" name="NLSPLINE"> F  </i>
   </separator>
   <separator name="electronic startup" >
    <i type="int" name="ISTART">     0</i>
    <i type="int" name="ICHARG">     2</i>
    <i type="int" name="INIWAV">     1</i>
   </separator>
   <separator name="electronic spin" >
    <i type="int" name="ISPIN">     1</i>
    <i type="logical" name="LNONCOLLINEAR"> F  </i>
    <v name="MAGMOM">      1.00000000</v>
    <i name="NUPDOWN">     -1.00000000</i>
    <i type="logical" name="LSORBIT"> F  </i>
    <v name="SAXIS">      0.00000000      0.00000000      1.00000000</v>
    <i type="logical" name="LSPIRAL"> F  </i>
    <v name="QSPIRAL">      0.00000000      0.00000000      0.00000000</v>
    <i type="logical" name="LZEROZ"> F  </i>
   </separator>
   <separator name="electronic exchange-correlation" >
    <i type="logical" name="LASPH"> F  </i>
    <i type="logical" name="LMETAGGA"> F  </i>
   </separator>
   <separator name="electronic convergence" >
    <i type="int" name="NELM">    60</i>
    <i type="int" name="NELMDL">    -5</i>
    <i type="int" name="NELMIN">     2</i>
    <i name="ENINI">    600.00000000</i>
    <separator name="electronic convergence detail" >
     <i type="logical" name="LDIAG"> T  </i>
     <i type="logical" name="LSUBROT"> T  </i>
     <i name="WEIMIN">      0.00000000</i>
     <i name="EBREAK">      0.00000417</i>
     <i name="DEPER">      0.30000000</i>
     <i type="int" name="NRMM">     4</i>
     <i name="TIME">      0.40000000</i>
    </separator>
   </separator>
   <separator name="electronic mixer" >
    <i name="AMIX">      0.40000000</i>
    <i name="BMIX">      1.00000000</i>
    <i name="AMIN">      0.10000000</i>
    <i name="AMIX_MAG">      1.60000000</i>
    <i name="BMIX_MAG">      1.00000000</i>
    <separator name="electronic mixer details" >
     <i type="int" name="IMIX">     4</i>
     <i type="int" name="MAXMIX">   -45</i>
     <i name="WC">    100.00000000</i>
     <i type="int" name="INIMIX">     1</i>
     <i type="int" name="MIXPRE">     1</i>
     <i type="int" name="MREMOVE">     5</i>
    </separator>
   </separator>
   <separator name="electronic dipolcorrection" >
    <i type="logical" name="LDIPOL"> F  </i>
    <i type="logical" name="LMONO"> F  </i>
    <i type="int" name="IDIPOL">     0</i>
    <i name="EPSILON">      1.00000000</i>
    <v name="DIPOL">   -100.00000000   -100.00000000   -100.00000000</v>
    <i name="EFIELD">      0.00000000</i>
   </separator>
  </separator>
  <separator name="grids" >
   <i type="int" name="NGX">    24</i>
   <i type="int" name="NGY">    24</i>
   <i type="int" name="NGZ">    24</i>
   <i type="int" name="NGXF">    48</i>
   <i type="int" name="NGYF">    48</i>
   <i type="int" name="NGZF">    48</i>
   <i type="logical" name="ADDGRID"> F  </i>
  </separator>
  <separator name="ionic" >
   <i type="int" name="NSW">     0</i>
   <i type="int" name="IBRION">    -1</i>
   <i type="int" name="ISIF">     2</i>
   <i name="PSTRESS">      0.00000000</i>
   <i name="EDIFFG">      0.00100000</i>
   <i type="int" name="NFREE">     0</i>
   <i name="POTIM">      0.50000000</i>
   <i name="SMASS">     -3.00000000</i>
   <i name="SCALEE">      1.00000000</i>
  </separator>
  <separator name="ionic md" >
   <i name="TEBEG">      0.00010000</i>
   <i name="TEEND">      0.00010000</i>
   <i type="int" name="NBLOCK">     1</i>
   <i type="int" name="KBLOCK">     1</i>
   <i type="int" name="NPACO">   256</i>
   <i name="APACO">     16.00000000</i>
  </separator>
  <separator name="symmetry" >
   <i type="int" name="ISYM">     2</i>
   <i name="SYMPREC">      0.00001000</i>
  </separator>
  <separator name="dos" >
   <i type="logical" name="LORBIT"> F  </i>
   <v name="RWIGS">     -1.00000000</v>
   <i type="int" name="NEDOS">   301</i>
   <i name="EMIN">     10.00000000</i>
   <i name="EMAX">    -10.00000000</i>
   <i name="EFERMI">      0.00000000</i>
  </separator>
  <separator name="writing" >
   <i type="int" name="NWRITE">     2</i>
   <i type="logical" name="LWAVE"> T  </i>
   <i type="logical" name="LCHARG"> T  </i>
   <i type="logical" name="LPARD"> F  </i>
   <i type="logical" name="LVTOT"> F  </i>
   <i type="logical" name="LVHAR"> F  </i>
   <i type="logical" name="LELF"> F  </i>
   <i type="logical" name="LOPTICS"> F  </i>
   <v name="STM">      0.00000000      0.00000000      0.00000000      0.00000000      0.00000000      0.00000000      0.00000000</v>
  </separator>
  <separator name="performance" >
   <i type="int" name="NPAR">     1</i>
   <i type="int" name="NSIM">     4</i>
   <i type="int" name="NBLK">    -1</i>
   <i type="logical" name="LPLANE"> T  </i>
   <i type="logical" name="LSCALAPACK"> F  </i>
   <i type="logical" name="LSCAAWARE"> F  </i>
   <i type="logical" name="LSCALU"> F  </i>
   <i type="logical" name="LASYNC"> F  </i>
   <i type="logical" name="LORBITALREAL"> F  </i>
  </separator>
  <separator name="miscellaneous" >
   <i type="int" name="IDIOT">     3</i>
   <i type="logical" name="LMUSIC"> F  </i>
   <v name="POMASS">    180.94800000</v>
   <v name="DARWINR">      0.00000000</v>
   <v name="DARWINV">      1.00000000</v>
   <i type="logical" name="LCORR"> T  </i>
  </separator>
  <i type="logical" name="GGA_COMPAT"> T  </i>
  <i type="logical" name="LBERRY"> F  </i>
  <i type="int" name="ICORELEVEL">     0</i>
  <i type="logical" name="LDAU"> F  </i>
  <i type="int" name="I_CONSTRAINED_M">     0</i>
  <separator name="electronic exchange-correlation" >
   <i type="string" name="GGA">--</i>
   <i type="int" name="VOSKOWN">     0</i>
   <i type="logical" name="LHFCALC"> F  </i>
   <i type="string" name="PRECFOCK"></i>
   <i type="logical" name="LHFONE"> F  </i>
   <i type="logical" name="LRHFCALC"> F  </i>
   <i type="logical" name="LTHOMAS"> F  </i>
   <i type="logical" name="LMODELHF"> F  </i>
   <i name="ENCUT4O">     -1.00000000</i>
   <i type="int" name="EXXOEP">     0</i>
   <i type="int" name="FOURORBIT">     0</i>
   <i name="AEXX">      0.00000000</i>
   <i name="HFALPHA">      0.00000000</i>
   <i name="ALDAX">      1.00000000</i>
   <i name="AGGAX">      1.00000000</i>
   <i name="ALDAC">      1.00000000</i>
   <i name="AGGAC">      1.00000000</i>
   <i type="int" name="NKREDX">     1</i>
   <i type="int" name="NKREDY">     1</i>
   <i type="int" name="NKREDZ">     1</i>
   <i type="logical" name="SHIFTRED"> F  </i>
   <i type="logical" name="ODDONLY"> F  </i>
   <i type="logical" name="EVENONLY"> F  </i>
   <i type="int" name="LMAXFOCK">     0</i>
   <i type="int" name="NMAXFOCKAE">     0</i>
   <i type="logical" name="LFOCKAEDFT"> F  </i>
   <i name="HFSCREEN">      0.00000000</i>
   <i name="HFSCREENC">      0.00000000</i>
  </separator>
  <separator name="vdW DFT" >
   <i type="logical" name="LUSE_VDW"> F  </i>
   <i name="Zab_VDW">     -0.84910000</i>
   <i name="PARAM1">      0.12340000</i>
   <i name="PARAM2">      1.00000000</i>
   <i name="PARAM3">      0.00000000</i>
  </separator>
  <separator name="model GW" >
   <i type="int" name="MODEL_GW">     0</i>
   <i name="MODEL_EPS0">     10.87940730</i>
   <i name="MODEL_ALPHA">      1.00000000</i>
  </separator>
  <separator name="linear response parameters" >
   <i type="logical" name="LEPSILON"> F  </i>
   <i type="logical" name="LRPA"> F  </i>
   <i type="logical" name="LNABLA"> F  </i>
   <i type="logical" name="LVEL"> F  </i>
   <i type="int" name="KINTER">     0</i>
   <i name="CSHIFT">      0.10000000</i>
   <i name="OMEGAMAX">     -1.00000000</i>
  </separator>
  <separator name="orbital magnetization" >
   <i type="logical" name="NUCIND"> F  </i>
   <v name="MAGPOS">      0.00000000      0.00000000      0.00000000</v>
   <i type="logical" name="LNICSALL"> T  </i>
   <i type="logical" name="ORBITALMAG"> F  </i>
   <i type="logical" name="LMAGBLOCH"> F  </i>
   <i type="logical" name="LCHIMAG"> F  </i>
   <i type="logical" name="LGAUGE"> T  </i>
   <i type="int" name="MAGATOM">     0</i>
   <v name="MAGDIPOL">      0.00000000      0.00000000      0.00000000</v>
   <v name="AVECCONST">      0.00000000      0.00000000      0.00000000</v>
  </separator>
  <separator name="response functions" >
   <i type="logical" name="LADDER"> F  </i>
   <i type="logical" name="LHARTREE"> T  </i>
   <i type="int" name="IBSE">     0</i>
   <i type="logical" name="LTCTE"> F  </i>
   <i type="logical" name="LTETE"> F  </i>
   <i type="logical" name="LFXCEPS"> F  </i>
   <i type="logical" name="L2ORDER"> F  </i>
   <i type="logical" name="LUSEW"> F  </i>
   <i name="ENCUTGW">     -2.00000000</i>
   <i name="ENCUTGWSOFT">     -2.00000000</i>
   <i name="ENCUTLF">     -1.00000000</i>
   <i type="int" name="LMAXMP2">    -1</i>
   <i name="SCISSOR">      0.00000000</i>
   <i type="int" name="NOMEGA">     0</i>
   <i type="int" name="NOMEGAR">     0</i>
   <i type="int" name="NBANDSGW">    -1</i>
   <i type="int" name="NBANDSO">    -1</i>
   <i type="int" name="NBANDSV">    -1</i>
   <i name="OPTEMAX">      0.00000000</i>
   <i type="int" name="NELM">     1</i>
   <i type="int" name="DIM">     3</i>
   <i type="int" name="ANTIRES">     0</i>
   <i name="OMEGAMAX">    -30.00000000</i>
   <i name="OMEGATL">   -200.00000000</i>
   <i type="int" name="OMEGAGRID">     0</i>
   <i name="CSHIFT">     -0.10000000</i>
   <i type="logical" name="SELFENERGY"> F  </i>
   <i type="logical" name="LSPECTRAL"> F  </i>
   <i type="logical" name="ODDONLYGW"> F  </i>
   <i type="logical" name="EVENONLYGW"> F  </i>
   <i type="int" name="NKREDLFX">     1</i>
   <i type="int" name="NKREDLFY">     1</i>
   <i type="int" name="NKREDLFZ">     1</i>
   <i type="int" name="MAXMEM">  1800</i>
   <i type="int" name="TELESCOPE">     0</i>
  </separator>
 </parameters>
 <atominfo>
  <atoms>       1 </atoms>
  <types>       1 </types>
  <array name="atoms" >
   <dimension dim="1">ion</dimension>
   <field type="string">element</field>
   <field type="int">atomtype</field>
   <set>
    <rc><c>Ta</c><c>   1</c></rc>
   </set>
  </array>
  <array name="atomtypes" >
   <dimension dim="1">type</dimension>
   <field type="int">atomspertype</field>
   <field type="string">element</field>
   <field>mass</field>
   <field>valence</field>
   <field type="string">pseudopotential</field>
   <set>
    <rc><c>   1</c><c>Ta</c><c>    180.94800000</c><c>      5.00000000</c><c>  PAW_PBE Ta 17Jan2003                  </c></rc>
   </set>
  </array>
 </atominfo>
 <structure name="initialpos" >
  <crystal>
   <varray name="basis" >
    <v>       2.86654409       0.00000000       0.00000000 </v>
    <v>      -0.95551470       2.70260368       0.00000000 </v>
    <v>      -0.95551470      -1.35130184       2.34052345 </v>
   </varray>
   <i name="volume">     18.13234550 </i>
   <varray name="rec_basis" >
    <v>       0.34885213       0.12333785       0.21362743 </v>
    <v>       0.00000000       0.37001356       0.21362743 </v>
    <v>       0.00000000       0.00000000       0.42725485 </v>
   </varray>
  </crystal>
  <varray name="positions" >
   <v>       0.00000000       0.00000000       0.00000000 </v>
  </varray>
 </structure>
 <calculation>
  <scstep>
   <time name="dav">    1.25    1.37</time>
   <time name="total">    1.44    1.57</time>
   <energy>
    <i name="alphaZ">     30.58334069 </i>
    <i name="ewald">   -197.90100875 </i>
    <i name="hartreedc">     -2.50452612 </i>
    <i name="XCdc">    -66.68582617 </i>
    <i name="pawpsdc">    148.27821850 </i>
    <i name="pawaedc">    -73.99089003 </i>
    <i name="eentropy">      0.00018883 </i>
    <i name="bandstr">     34.47985127 </i>
    <i name="atom">    130.65019665 </i>
    <i name="e_fr_energy">      2.90954488 </i>
    <i name="e_wo_entrp">      2.90935605 </i>
    <i name="e_0_energy">      2.90948193 </i>
   </energy>
  </scstep>
  <scstep>
   <time name="dav">    1.93    2.05</time>
   <time name="total">    1.93    2.06</time>
   <energy>
    <i name="e_fr_energy">    -12.28363239 </i>
    <i name="e_wo_entrp">    -12.28296399 </i>
    <i name="e_0_energy">    -12.28340959 </i>
   </energy>
  </scstep>
  <scstep>
   <time name="dav">    1.24    1.24</time>
   <time name="total">    1.24    1.94</time>
   <energy>
    <i name="e_fr_energy">    -12.34444569 </i>
    <i name="e_wo_entrp">    -12.34380879 </i>
    <i name="e_0_energy">    -12.34423339 </i>
   </energy>
  </scstep>
  <scstep>
   <time name="dav">    1.54    1.54</time>
   <time name="total">    1.54    1.56</time>
   <energy>
    <i name="e_fr_energy">    -12.34455465 </i>
    <i name="e_wo_entrp">    -12.34391794 </i>
    <i name="e_0_energy">    -12.34434241 </i>
   </energy>
  </scstep>
  <scstep>
   <time name="dav">    1.12    1.12</time>
   <time name="total">    1.37    1.73</time>
   <energy>
    <i name="e_fr_energy">    -12.34455481 </i>
    <i name="e_wo_entrp">    -12.34391811 </i>
    <i name="e_0_energy">    -12.34434258 </i>
   </energy>
  </scstep>
  <scstep>
   <time name="dav">    1.38    1.38</time>
   <time name="total">    1.69    1.74</time>
   <energy>
    <i name="e_fr_energy">    -12.01663113 </i>
    <i name="e_wo_entrp">    -12.01652475 </i>
    <i name="e_0_energy">    -12.01659567 </i>
   </energy>
  </scstep>
  <scstep>
   <time name="dav">    1.35    1.35</time>
   <time name="total">    1.66    2.10</time>
   <energy>
    <i name="e_fr_energy">    -11.86549208 </i>
    <i name="e_wo_entrp">    -11.86603585 </i>
    <i name="e_0_energy">    -11.86567334 </i>
   </energy>
  </scstep>
  <scstep>
   <time name="dav">    1.31    1.33</time>
   <time name="total">    1.63    1.69</time>
   <energy>
    <i name="e_fr_energy">    -11.86453533 </i>
    <i name="e_wo_entrp">    -11.86515174 </i>
    <i name="e_0_energy">    -11.86474080 </i>
   </energy>
  </scstep>
  <scstep>
   <time name="dav">    0.92    0.97</time>
   <time name="total">    1.10    1.56</time>
   <energy>
    <i name="alphaZ">     30.58334069 </i>
    <i name="ewald">   -197.90100875 </i>
    <i name="hartreedc">     -0.59014384 </i>
    <i name="XCdc">    -66.00308107 </i>
    <i name="pawpsdc">    192.63396964 </i>
    <i name="pawaedc">   -119.21257819 </i>
    <i name="eentropy">      0.00062256 </i>
    <i name="bandstr">     17.97413212 </i>
    <i name="atom">    130.65019665 </i>
    <i name="e_fr_energy">    -11.86455019 </i>
    <i name="e_wo_entrp">    -11.86517275 </i>
    <i name="e_0_energy">    -11.86475771 </i>
   </energy>
  </scstep>
  <parameters_embedded>
   <separator name="dft+d2" >
    <i type="logical" name="LVDW"> F  </i>
   </separator>
  </parameters_embedded>
  <structure>
   <crystal>
    <varray name="basis" >
     <v>       2.86654409       0.00000000       0.00000000 </v>
     <v>      -0.95551470       2.70260368       0.00000000 </v>
     <v>      -0.95551470      -1.35130184       2.34052345 </v>
    </varray>
    <i name="volume">     18.13234550 </i>
    <varray name="rec_basis" >
     <v>       0.34885213       0.12333785       0.21362743 </v>
     <v>       0.00000000       0.37001356       0.21362743 </v>
     <v>       0.00000000       0.00000000       0.42725485 </v>
    </varray>
   </crystal>
   <varray name="positions" >
    <v>       0.00000000       0.00000000       0.00000000 </v>
   </varray>
  </structure>
  <varray name="forces" >
   <v>       0.00000000       0.00000000       0.00000000 </v>
  </varray>
  <varray name="stress" >
   <v>      -9.06904589       0.00000000       0.00000000 </v>
   <v>       0.00000000      -9.06904589       0.00000000 </v>
   <v>       0.00000000       0.00000000      -9.06904589 </v>
  </varray>
  <energy>
   <i name="e_fr_energy">    -11.86455019 </i>
   <i name="e_wo_entrp">    -11.86475771 </i>
   <i name="e_0_energy">      0.00062256 </i>
  </energy>
  <time name="totalsc">   15.68   20.04</time>
  <eigenvalues>
   <array>
    <dimension dim="1">band</dimension>
    <dimension dim="2">kpoint</dimension>
    <dimension dim="3">spin</dimension>
    <field>eigene</field>
    <field>occ</field>
    <set>
     <set comment="spin 1">
      <set comment="kpoint 1">
       <r>   -1.5463    1.0000 </r>
       <r>    6.0872    0.0000 </r>
       <r>    6.0872    0.0000 </r>
       <r>    7.2021    0.0000 </r>
       <r>    9.4433    0.0000 </r>
       <r>    9.4433    0.0000 </r>
      </set>
      <set comment="kpoint 2">
       <r>   -0.4237    1.0000 </r>
       <r>    5.4141    1.0000 </r>
       <r>    5.5976    1.0267 </r>
       <r>    8.5515    0.0000 </r>
       <r>    9.1272    0.0000 </r>
       <r>    9.7114    0.0000 </r>
      </set>
      <set comment="kpoint 3">
       <r>    0.9018    1.0000 </r>
       <r>    4.7571    1.0000 </r>
       <r>    5.2964    1.0000 </r>
       <r>    9.3457    0.0000 </r>
       <r>   10.0391    0.0000 </r>
       <r>   10.5240    0.0000 </r>
      </set>
      <set comment="kpoint 4">
       <r>    1.5303    1.0000 </r>
       <r>    4.3074    1.0000 </r>
       <r>    6.1083    0.0000 </r>
       <r>    9.6683    0.0000 </r>
       <r>   10.4030    0.0000 </r>
       <r>   12.6594    0.0000 </r>
      </set>
      <set comment="kpoint 5">
       <r>    1.5877    1.0000 </r>
       <r>    4.1495    1.0000 </r>
       <r>    6.9843    0.0000 </r>
       <r>    9.6499    0.0000 </r>
       <r>   10.5876    0.0000 </r>
       <r>   13.8050    0.0000 </r>
      </set>
      <set comment="kpoint 6">
       <r>   -1.9621    1.0000 </r>
       <r>    6.4058    0.0000 </r>
       <r>    6.4058    0.0000 </r>
       <r>    6.5430    0.0000 </r>
       <r>    9.3069    0.0000 </r>
       <r>    9.8038    0.0000 </r>
      </set>
      <set comment="kpoint 7">
       <r>    0.8465    1.0000 </r>
       <r>    4.8684    1.0000 </r>
       <r>    4.9408    1.0000 </r>
       <r>    9.2024    0.0000 </r>
       <r>   10.0847    0.0000 </r>
       <r>   10.4484    0.0000 </r>
      </set>
      <set comment="kpoint 8">
       <r>    2.0125    1.0000 </r>
       <r>    4.3967    1.0000 </r>
       <r>    4.9739    1.0000 </r>
       <r>    9.5035    0.0000 </r>
       <r>   10.4273    0.0000 </r>
       <r>   12.6743    0.0000 </r>
      </set>
      <set comment="kpoint 9">
       <r>    2.2902    1.0000 </r>
       <r>    4.1823    1.0000 </r>
       <r>    5.9393    0.0000 </r>
       <r>    9.7557    0.0000 </r>
       <r>   10.6288    0.0000 </r>
       <r>   14.5273    0.0000 </r>
      </set>
      <set comment="kpoint 10">
       <r>   -1.1458    1.0000 </r>
       <r>    5.9520    0.0000 </r>
       <r>    6.1805    0.0000 </r>
       <r>    7.3560    0.0000 </r>
       <r>    8.6252    0.0000 </r>
       <r>    9.9866    0.0000 </r>
      </set>
      <set comment="kpoint 11">
       <r>    2.9313    1.0000 </r>
       <r>    4.2916    1.0000 </r>
       <r>    5.0100    1.0000 </r>
       <r>    9.8180    0.0000 </r>
       <r>   10.5255    0.0000 </r>
       <r>   14.9580    0.0000 </r>
      </set>
      <set comment="kpoint 12">
       <r>    3.1121    1.0000 </r>
       <r>    4.3758    1.0000 </r>
       <r>    5.2509    1.0000 </r>
       <r>   10.0574    0.0000 </r>
       <r>   10.5701    0.0000 </r>
       <r>   14.3834    0.0000 </r>
      </set>
      <set comment="kpoint 13">
       <r>    0.1756    1.0000 </r>
       <r>    5.2636    1.0000 </r>
       <r>    5.6093    1.0349 </r>
       <r>    8.6503    0.0000 </r>
       <r>    8.9694    0.0000 </r>
       <r>   10.1827    0.0000 </r>
      </set>
      <set comment="kpoint 14">
       <r>   -0.0636    1.0000 </r>
       <r>    5.6269    1.0172 </r>
       <r>    5.6980    0.1380 </r>
       <r>    8.0678    0.0000 </r>
       <r>    8.4756    0.0000 </r>
       <r>   10.3858    0.0000 </r>
      </set>
      <set comment="kpoint 15">
       <r>    1.2128    1.0000 </r>
       <r>    4.6691    1.0000 </r>
       <r>    5.6930    0.1984 </r>
       <r>    9.1834    0.0000 </r>
       <r>   10.4106    0.0000 </r>
       <r>   11.1052    0.0000 </r>
      </set>
      <set comment="kpoint 16">
       <r>    1.2396    1.0000 </r>
       <r>    4.9168    1.0000 </r>
       <r>    5.3490    1.0000 </r>
       <r>    8.3698    0.0000 </r>
       <r>   10.3039    0.0000 </r>
       <r>   10.6891    0.0000 </r>
      </set>
      <set comment="kpoint 17">
       <r>    1.4555    1.0000 </r>
       <r>    4.3370    1.0000 </r>
       <r>    6.6962    0.0000 </r>
       <r>    9.3426    0.0000 </r>
       <r>   10.7804    0.0000 </r>
       <r>   13.0524    0.0000 </r>
      </set>
      <set comment="kpoint 18">
       <r>    1.8955    1.0000 </r>
       <r>    4.6149    1.0000 </r>
       <r>    5.5963    1.0255 </r>
       <r>    8.9090    0.0000 </r>
       <r>   10.7240    0.0000 </r>
       <r>   12.6929    0.0000 </r>
      </set>
      <set comment="kpoint 19">
       <r>    2.3624    1.0000 </r>
       <r>    4.3215    1.0000 </r>
       <r>    5.3550    1.0000 </r>
       <r>    8.6765    0.0000 </r>
       <r>   10.4296    0.0000 </r>
       <r>   12.7647    0.0000 </r>
      </set>
      <set comment="kpoint 20">
       <r>    1.9512    1.0000 </r>
       <r>    4.5134    1.0000 </r>
       <r>    6.0904    0.0000 </r>
       <r>    8.8629    0.0000 </r>
       <r>   11.2323    0.0000 </r>
       <r>   13.9447    0.0000 </r>
      </set>
      <set comment="kpoint 21">
       <r>    2.8321    1.0000 </r>
       <r>    4.3798    1.0000 </r>
       <r>    5.2200    1.0000 </r>
       <r>    9.1456    0.0000 </r>
       <r>   10.6504    0.0000 </r>
       <r>   15.0549    0.0000 </r>
      </set>
      <set comment="kpoint 22">
       <r>    3.4917    1.0000 </r>
       <r>    4.4777    1.0000 </r>
       <r>    4.4777    1.0000 </r>
       <r>   10.1084    0.0000 </r>
       <r>   10.1084    0.0000 </r>
       <r>   14.6744    0.0000 </r>
      </set>
      <set comment="kpoint 23">
       <r>    2.2330    1.0000 </r>
       <r>    4.3841    1.0000 </r>
       <r>    4.3841    1.0000 </r>
       <r>   10.0517    0.0000 </r>
       <r>   10.0517    0.0000 </r>
       <r>   12.7820    0.0000 </r>
      </set>
      <set comment="kpoint 24">
       <r>    3.1400    1.0000 </r>
       <r>    4.1381    1.0000 </r>
       <r>    4.7827    1.0000 </r>
       <r>   10.2184    0.0000 </r>
       <r>   10.5293    0.0000 </r>
       <r>   14.9690    0.0000 </r>
      </set>
      <set comment="kpoint 25">
       <r>    3.1473    1.0000 </r>
       <r>    4.0661    1.0000 </r>
       <r>    5.6050    1.0327 </r>
       <r>   10.2786    0.0000 </r>
       <r>   10.6811    0.0000 </r>
       <r>   14.3696    0.0000 </r>
      </set>
      <set comment="kpoint 26">
       <r>   -0.3686    1.0000 </r>
       <r>    6.3636    0.0000 </r>
       <r>    6.3636    0.0000 </r>
       <r>    7.1681    0.0000 </r>
       <r>    7.3625    0.0000 </r>
       <r>   10.5821    0.0000 </r>
      </set>
      <set comment="kpoint 27">
       <r>    3.7409    1.0000 </r>
       <r>    4.4017    1.0000 </r>
       <r>    4.8305    1.0000 </r>
       <r>   10.5321    0.0000 </r>
       <r>   10.6619    0.0000 </r>
       <r>   13.6617    0.0000 </r>
      </set>
      <set comment="kpoint 28">
       <r>    0.8938    1.0000 </r>
       <r>    5.5121    1.0000 </r>
       <r>    6.0059    0.0000 </r>
       <r>    7.2342    0.0000 </r>
       <r>    8.7230    0.0000 </r>
       <r>   10.7863    0.0000 </r>
      </set>
      <set comment="kpoint 29">
       <r>    1.9380    1.0000 </r>
       <r>    4.8871    1.0000 </r>
       <r>    5.4982    1.0000 </r>
       <r>    8.0383    0.0000 </r>
       <r>   10.8503    0.0000 </r>
       <r>   10.8907    0.0000 </r>
      </set>
      <set comment="kpoint 30">
       <r>    2.0630    1.0000 </r>
       <r>    4.5682    1.0000 </r>
       <r>    6.1403    0.0000 </r>
       <r>    7.5162    0.0000 </r>
       <r>    9.9807    0.0000 </r>
       <r>   10.9517    0.0000 </r>
      </set>
      <set comment="kpoint 31">
       <r>    2.1606    1.0000 </r>
       <r>    5.1997    1.0000 </r>
       <r>    5.2584    1.0000 </r>
       <r>    8.0135    0.0000 </r>
       <r>   11.9888    0.0000 </r>
       <r>   12.8498    0.0000 </r>
      </set>
      <set comment="kpoint 32">
       <r>    2.7675    1.0000 </r>
       <r>    4.1836    1.0000 </r>
       <r>    5.7420   -0.0330 </r>
       <r>    8.1507    0.0000 </r>
       <r>   10.7204    0.0000 </r>
       <r>   12.9089    0.0000 </r>
      </set>
      <set comment="kpoint 33">
       <r>    2.7793    1.0000 </r>
       <r>    4.5625    1.0000 </r>
       <r>    5.2950    1.0000 </r>
       <r>    8.1455    0.0000 </r>
       <r>   11.7562    0.0000 </r>
       <r>   14.5639    0.0000 </r>
      </set>
      <set comment="kpoint 34">
       <r>    3.6478    1.0000 </r>
       <r>    3.7090    1.0000 </r>
       <r>    4.9715    1.0000 </r>
       <r>    9.4136    0.0000 </r>
       <r>   10.5826    0.0000 </r>
       <r>   15.3688    0.0000 </r>
      </set>
      <set comment="kpoint 35">
       <r>    4.4713    1.0000 </r>
       <r>    4.4713    1.0000 </r>
       <r>    4.4713    1.0000 </r>
       <r>   10.7404    0.0000 </r>
       <r>   10.7404    0.0000 </r>
       <r>   12.7466    0.0000 </r>
      </set>
      <set comment="kpoint 36">
       <r>    1.9704    1.0000 </r>
       <r>    4.7845    1.0000 </r>
       <r>    6.9537    0.0000 </r>
       <r>    6.9537    0.0000 </r>
       <r>    8.8817    0.0000 </r>
       <r>   10.6856    0.0000 </r>
      </set>
      <set comment="kpoint 37">
       <r>    2.7928    1.0000 </r>
       <r>    3.8549    1.0000 </r>
       <r>    7.0137    0.0000 </r>
       <r>    7.6049    0.0000 </r>
       <r>   10.5444    0.0000 </r>
       <r>   10.8357    0.0000 </r>
      </set>
      <set comment="kpoint 38">
       <r>    2.8273    1.0000 </r>
       <r>    3.7690    1.0000 </r>
       <r>    6.8434    0.0000 </r>
       <r>    7.4887    0.0000 </r>
       <r>   12.5398    0.0000 </r>
       <r>   12.8241    0.0000 </r>
      </set>
      <set comment="kpoint 39">
       <r>    3.1188    1.0000 </r>
       <r>    3.1808    1.0000 </r>
       <r>    6.8559    0.0000 </r>
       <r>    8.8322    0.0000 </r>
       <r>   10.8152    0.0000 </r>
       <r>   12.9273    0.0000 </r>
      </set>
      <set comment="kpoint 40">
       <r>    2.9093    1.0000 </r>
       <r>    3.2336    1.0000 </r>
       <r>    6.5786    0.0000 </r>
       <r>    9.3481    0.0000 </r>
       <r>   11.6590    0.0000 </r>
       <r>   15.2705    0.0000 </r>
      </set>
      <set comment="kpoint 41">
       <r>    2.8962    1.0000 </r>
       <r>    2.9952    1.0000 </r>
       <r>    8.6113    0.0000 </r>
       <r>    8.6113    0.0000 </r>
       <r>   10.7662    0.0000 </r>
       <r>   10.9452    0.0000 </r>
      </set>
      <set comment="kpoint 42">
       <r>    2.5160    1.0000 </r>
       <r>    2.6786    1.0000 </r>
       <r>    9.0764    0.0000 </r>
       <r>    9.0827    0.0000 </r>
       <r>   12.2590    0.0000 </r>
       <r>   13.0716    0.0000 </r>
      </set>
      <set comment="kpoint 43">
       <r>    2.3621    1.0000 </r>
       <r>    2.3621    1.0000 </r>
       <r>    9.0083    0.0000 </r>
       <r>   11.4367    0.0000 </r>
       <r>   11.4367    0.0000 </r>
       <r>   15.5794    0.0000 </r>
      </set>
      <set comment="kpoint 44">
       <r>    2.0601    1.0000 </r>
       <r>    2.1070    1.0000 </r>
       <r>   11.3404    0.0000 </r>
       <r>   11.3404    0.0000 </r>
       <r>   12.2480    0.0000 </r>
       <r>   13.5532    0.0000 </r>
      </set>
     </set>
    </set>
   </array>
  </eigenvalues>
  <separator name="orbital magnetization" >
   <v name="MAGDIPOLOUT">      0.00000000      0.00000000      0.00000000</v>
  </separator>
  <dos>
   <i name="efermi">      5.67370413 </i>
   <total>
    <array>
     <dimension dim="1">gridpoints</dimension>
     <dimension dim="2">spin</dimension>
     <field>energy</field>
     <field>total</field>
     <field>integrated</field>
     <set>
      <set comment="spin 1">
       <r>    -2.8392     0.0000     0.0000 </r>
       <r>    -2.7749     0.0000     0.0000 </r>
       <r>    -2.7106     0.0000     0.0000 </r>
       <r>    -2.6463     0.0000     0.0000 </r>
       <r>    -2.5819     0.0000     0.0000 </r>
       <r>    -2.5176     0.0000     0.0000 </r>
       <r>    -2.4533     0.0000     0.0000 </r>
       <r>    -2.3890     0.0000     0.0000 </r>
       <r>    -2.3247     0.0000     0.0000 </r>
       <r>    -2.2603     0.0000     0.0000 </r>
       <r>    -2.1960     0.0000     0.0000 </r>
       <r>    -2.1317     0.0000     0.0000 </r>
       <r>    -2.0674    -0.0010    -0.0001 </r>
       <r>    -2.0031     0.0020     0.0001 </r>
       <r>    -1.9388     0.1579     0.0102 </r>
       <r>    -1.8744     0.0307     0.0122 </r>
       <r>    -1.8101    -0.0030     0.0120 </r>
       <r>    -1.7458     0.0000     0.0120 </r>
       <r>    -1.6815    -0.0001     0.0120 </r>
       <r>    -1.6172    -0.0076     0.0115 </r>
       <r>    -1.5528     0.1050     0.0183 </r>
       <r>    -1.4885     0.1602     0.0286 </r>
       <r>    -1.4242    -0.0083     0.0280 </r>
       <r>    -1.3599    -0.0004     0.0280 </r>
       <r>    -1.2956    -0.0001     0.0280 </r>
       <r>    -1.2312    -0.0135     0.0271 </r>
       <r>    -1.1669     0.1441     0.0364 </r>
       <r>    -1.1026     0.6191     0.0762 </r>
       <r>    -1.0383     0.0002     0.0762 </r>
       <r>    -0.9740    -0.0036     0.0760 </r>
       <r>    -0.9096     0.0000     0.0760 </r>
       <r>    -0.8453     0.0000     0.0760 </r>
       <r>    -0.7810     0.0000     0.0760 </r>
       <r>    -0.7167     0.0000     0.0760 </r>
       <r>    -0.6524     0.0000     0.0760 </r>
       <r>    -0.5881     0.0000     0.0760 </r>
       <r>    -0.5237    -0.0060     0.0756 </r>
       <r>    -0.4594     0.0298     0.0775 </r>
       <r>    -0.3951     0.6746     0.1209 </r>
       <r>    -0.3308     0.2395     0.1363 </r>
       <r>    -0.2665    -0.0038     0.1361 </r>
       <r>    -0.2021    -0.0016     0.1360 </r>
       <r>    -0.1378    -0.0209     0.1346 </r>
       <r>    -0.0735     0.2717     0.1521 </r>
       <r>    -0.0092     0.5196     0.1855 </r>
       <r>     0.0551    -0.0237     0.1840 </r>
       <r>     0.1195    -0.0253     0.1824 </r>
       <r>     0.1838     0.5004     0.2146 </r>
       <r>     0.2481     0.2932     0.2334 </r>
       <r>     0.3124    -0.0219     0.2320 </r>
       <r>     0.3767    -0.0003     0.2320 </r>
       <r>     0.4411     0.0000     0.2320 </r>
       <r>     0.5054     0.0000     0.2320 </r>
       <r>     0.5697     0.0000     0.2320 </r>
       <r>     0.6340     0.0000     0.2320 </r>
       <r>     0.6983    -0.0001     0.2320 </r>
       <r>     0.7626    -0.0152     0.2310 </r>
       <r>     0.8270     0.1151     0.2384 </r>
       <r>     0.8913     1.2387     0.3181 </r>
       <r>     0.9556     0.9532     0.3794 </r>
       <r>     1.0199    -0.0506     0.3762 </r>
       <r>     1.0842    -0.0031     0.3760 </r>
       <r>     1.1486    -0.0458     0.3730 </r>
       <r>     1.2129     0.5872     0.4108 </r>
       <r>     1.2772     1.6896     0.5195 </r>
       <r>     1.3415     0.0174     0.5206 </r>
       <r>     1.4058    -0.0280     0.5188 </r>
       <r>     1.4702     0.5421     0.5536 </r>
       <r>     1.5345     0.6551     0.5958 </r>
       <r>     1.5988     0.5940     0.6340 </r>
       <r>     1.6631     0.1041     0.6407 </r>
       <r>     1.7274    -0.0105     0.6400 </r>
       <r>     1.7918    -0.0095     0.6394 </r>
       <r>     1.8561     0.0044     0.6397 </r>
       <r>     1.9204     1.4982     0.7360 </r>
       <r>     1.9847     1.7517     0.8487 </r>
       <r>     2.0490     1.6431     0.9544 </r>
       <r>     2.1133     0.8446     1.0087 </r>
       <r>     2.1777     0.6220     1.0487 </r>
       <r>     2.2420     0.3197     1.0693 </r>
       <r>     2.3063     1.1999     1.1465 </r>
       <r>     2.3706     1.2257     1.2253 </r>
       <r>     2.4349     0.4359     1.2533 </r>
       <r>     2.4993     0.1545     1.2633 </r>
       <r>     2.5636     0.5836     1.3008 </r>
       <r>     2.6279    -0.0302     1.2989 </r>
       <r>     2.6922     0.4962     1.3308 </r>
       <r>     2.7565     0.8383     1.3847 </r>
       <r>     2.8209     3.1293     1.5860 </r>
       <r>     2.8852     1.7634     1.6994 </r>
       <r>     2.9495     1.2817     1.7818 </r>
       <r>     3.0138     0.3142     1.8020 </r>
       <r>     3.0781     0.0311     1.8040 </r>
       <r>     3.1425     1.8902     1.9256 </r>
       <r>     3.2068     1.5193     2.0233 </r>
       <r>     3.2711     0.6883     2.0676 </r>
       <r>     3.3354     0.0113     2.0683 </r>
       <r>     3.3997    -0.0085     2.0678 </r>
       <r>     3.4640     0.0286     2.0696 </r>
       <r>     3.5284     0.2147     2.0834 </r>
       <r>     3.5927    -0.0158     2.0824 </r>
       <r>     3.6570     0.4732     2.1129 </r>
       <r>     3.7213     0.9730     2.1754 </r>
       <r>     3.7856     1.3918     2.2650 </r>
       <r>     3.8500     0.5023     2.2973 </r>
       <r>     3.9143     0.4420     2.3257 </r>
       <r>     3.9786    -0.0316     2.3237 </r>
       <r>     4.0429     0.0505     2.3269 </r>
       <r>     4.1072     0.2994     2.3462 </r>
       <r>     4.1716     1.9821     2.4737 </r>
       <r>     4.2359     2.1870     2.6143 </r>
       <r>     4.3002     0.7983     2.6657 </r>
       <r>     4.3645     2.9451     2.8551 </r>
       <r>     4.4288     4.0602     3.1162 </r>
       <r>     4.4932     0.7740     3.1660 </r>
       <r>     4.5575     1.2954     3.2493 </r>
       <r>     4.6218     1.9307     3.3735 </r>
       <r>     4.6861     1.1273     3.4460 </r>
       <r>     4.7504     0.4967     3.4780 </r>
       <r>     4.8147     1.4297     3.5699 </r>
       <r>     4.8791     1.4396     3.6625 </r>
       <r>     4.9434     2.6452     3.8327 </r>
       <r>     5.0077     2.8340     4.0149 </r>
       <r>     5.0720     0.4972     4.0469 </r>
       <r>     5.1363    -0.1043     4.0402 </r>
       <r>     5.2007     0.6524     4.0822 </r>
       <r>     5.2650     3.1485     4.2847 </r>
       <r>     5.3293     2.5939     4.4515 </r>
       <r>     5.3936     2.0207     4.5815 </r>
       <r>     5.4579     0.5973     4.6199 </r>
       <r>     5.5223     1.0576     4.6879 </r>
       <r>     5.5866     1.4063     4.7784 </r>
       <r>     5.6509     3.0706     4.9759 </r>
       <r>     5.7152     1.4540     5.0694 </r>
       <r>     5.7795     1.5890     5.1716 </r>
       <r>     5.8439    -0.0024     5.1715 </r>
       <r>     5.9082     0.1011     5.1780 </r>
       <r>     5.9725     1.9650     5.3043 </r>
       <r>     6.0368     0.8380     5.3582 </r>
       <r>     6.1011     1.2407     5.4380 </r>
       <r>     6.1654     1.7409     5.5500 </r>
       <r>     6.2298     0.6205     5.5899 </r>
       <r>     6.2941    -0.0410     5.5873 </r>
       <r>     6.3584     0.1578     5.5974 </r>
       <r>     6.4227     0.5261     5.6313 </r>
       <r>     6.4870     0.0659     5.6355 </r>
       <r>     6.5514     0.2063     5.6488 </r>
       <r>     6.6157     0.7031     5.6940 </r>
       <r>     6.6800     0.2168     5.7080 </r>
       <r>     6.7443     0.5671     5.7444 </r>
       <r>     6.8086     0.0131     5.7453 </r>
       <r>     6.8730     1.2294     5.8243 </r>
       <r>     6.9373     0.3306     5.8456 </r>
       <r>     7.0016     0.8080     5.8976 </r>
       <r>     7.0659     0.6271     5.9379 </r>
       <r>     7.1302    -0.0359     5.9356 </r>
       <r>     7.1946     0.2731     5.9532 </r>
       <r>     7.2589     0.8178     6.0058 </r>
       <r>     7.3232     0.1530     6.0156 </r>
       <r>     7.3875     0.7962     6.0668 </r>
       <r>     7.4518     0.0856     6.0723 </r>
       <r>     7.5162     1.0239     6.1382 </r>
       <r>     7.5805     0.6008     6.1768 </r>
       <r>     7.6448     0.6017     6.2155 </r>
       <r>     7.7091     0.0118     6.2163 </r>
       <r>     7.7734    -0.0045     6.2160 </r>
       <r>     7.8377     0.0000     6.2160 </r>
       <r>     7.9021    -0.0030     6.2158 </r>
       <r>     7.9664    -0.0386     6.2133 </r>
       <r>     8.0307     0.9115     6.2720 </r>
       <r>     8.0950     1.2621     6.3531 </r>
       <r>     8.1593     1.6194     6.4573 </r>
       <r>     8.2237     0.7885     6.5080 </r>
       <r>     8.2880    -0.0935     6.5020 </r>
       <r>     8.3523     0.3640     6.5254 </r>
       <r>     8.4166     1.1592     6.6000 </r>
       <r>     8.4809     0.4222     6.6271 </r>
       <r>     8.5453     0.6093     6.6663 </r>
       <r>     8.6096     0.8275     6.7195 </r>
       <r>     8.6739     1.7448     6.8317 </r>
       <r>     8.7382     1.0887     6.9018 </r>
       <r>     8.8025     0.2009     6.9147 </r>
       <r>     8.8669     1.1391     6.9880 </r>
       <r>     8.9312     1.7915     7.1032 </r>
       <r>     8.9955     0.9264     7.1628 </r>
       <r>     9.0598     0.5240     7.1965 </r>
       <r>     9.1241     1.7942     7.3119 </r>
       <r>     9.1884     2.3598     7.4637 </r>
       <r>     9.2528     0.8314     7.5171 </r>
       <r>     9.3171     0.3173     7.5375 </r>
       <r>     9.3814     2.0444     7.6690 </r>
       <r>     9.4457     0.9814     7.7322 </r>
       <r>     9.5100     1.2436     7.8121 </r>
       <r>     9.5744     0.5852     7.8498 </r>
       <r>     9.6387     0.1272     7.8580 </r>
       <r>     9.7030     1.1655     7.9329 </r>
       <r>     9.7673     1.5935     8.0354 </r>
       <r>     9.8316     1.1925     8.1121 </r>
       <r>     9.8960     0.1816     8.1238 </r>
       <r>     9.9603     0.1940     8.1363 </r>
       <r>    10.0246     1.5493     8.2359 </r>
       <r>    10.0889     2.2221     8.3788 </r>
       <r>    10.1532     0.8444     8.4332 </r>
       <r>    10.2176     0.9605     8.4949 </r>
       <r>    10.2819     0.9310     8.5548 </r>
       <r>    10.3462     1.3056     8.6388 </r>
       <r>    10.4105     2.0822     8.7727 </r>
       <r>    10.4748     3.1110     8.9728 </r>
       <r>    10.5391     2.4998     9.1336 </r>
       <r>    10.6035     3.2964     9.3456 </r>
       <r>    10.6678     3.5092     9.5713 </r>
       <r>    10.7321     4.4310     9.8563 </r>
       <r>    10.7964     2.5178    10.0183 </r>
       <r>    10.8607     2.2094    10.1604 </r>
       <r>    10.9251     1.1101    10.2318 </r>
       <r>    10.9894     0.8013    10.2833 </r>
       <r>    11.0537    -0.0041    10.2830 </r>
       <r>    11.1180     0.5416    10.3179 </r>
       <r>    11.1823     0.2200    10.3320 </r>
       <r>    11.2467     0.5417    10.3669 </r>
       <r>    11.3110     0.2535    10.3832 </r>
       <r>    11.3753     0.2910    10.4019 </r>
       <r>    11.4396     0.3090    10.4218 </r>
       <r>    11.5039     0.2379    10.4371 </r>
       <r>    11.5683    -0.0267    10.4354 </r>
       <r>    11.6326     0.0944    10.4414 </r>
       <r>    11.6969     0.6194    10.4813 </r>
       <r>    11.7612     0.4834    10.5124 </r>
       <r>    11.8255     0.3294    10.5335 </r>
       <r>    11.8898    -0.0301    10.5316 </r>
       <r>    11.9542     0.0377    10.5340 </r>
       <r>    12.0185     0.6525    10.5760 </r>
       <r>    12.0828     0.0707    10.5806 </r>
       <r>    12.1471    -0.0126    10.5797 </r>
       <r>    12.2114    -0.0050    10.5794 </r>
       <r>    12.2758     0.7487    10.6276 </r>
       <r>    12.3401     0.2120    10.6412 </r>
       <r>    12.4044    -0.0191    10.6400 </r>
       <r>    12.4687    -0.0229    10.6385 </r>
       <r>    12.5330     0.3101    10.6585 </r>
       <r>    12.5974     0.4043    10.6845 </r>
       <r>    12.6617     0.9928    10.7483 </r>
       <r>    12.7260     2.7878    10.9276 </r>
       <r>    12.7903     0.9069    10.9860 </r>
       <r>    12.8546     1.2295    11.0650 </r>
       <r>    12.9190     1.7162    11.1754 </r>
       <r>    12.9833     0.9733    11.2380 </r>
       <r>    13.0476     0.3887    11.2630 </r>
       <r>    13.1119     1.0925    11.3333 </r>
       <r>    13.1762    -0.0148    11.3323 </r>
       <r>    13.2405    -0.0053    11.3320 </r>
       <r>    13.3049     0.0000    11.3320 </r>
       <r>    13.3692     0.0000    11.3320 </r>
       <r>    13.4335    -0.0003    11.3320 </r>
       <r>    13.4978    -0.0058    11.3316 </r>
       <r>    13.5621     0.1211    11.3394 </r>
       <r>    13.6265     0.1059    11.3462 </r>
       <r>    13.6908     0.6452    11.3877 </r>
       <r>    13.7551     0.0663    11.3920 </r>
       <r>    13.8194     0.2730    11.4095 </r>
       <r>    13.8837     0.0831    11.4149 </r>
       <r>    13.9481     0.4334    11.4428 </r>
       <r>    14.0124     0.3551    11.4656 </r>
       <r>    14.0767    -0.0244    11.4640 </r>
       <r>    14.1410    -0.0005    11.4640 </r>
       <r>    14.2053     0.0000    11.4640 </r>
       <r>    14.2697    -0.0052    11.4637 </r>
       <r>    14.3340     0.0006    11.4637 </r>
       <r>    14.3983     0.8939    11.5212 </r>
       <r>    14.4626     0.1951    11.5337 </r>
       <r>    14.5269     0.7932    11.5848 </r>
       <r>    14.5912     1.4494    11.6780 </r>
       <r>    14.6556     0.0933    11.6840 </r>
       <r>    14.7199     0.1900    11.6962 </r>
       <r>    14.7842    -0.0023    11.6961 </r>
       <r>    14.8485    -0.0054    11.6957 </r>
       <r>    14.9128    -0.0299    11.6938 </r>
       <r>    14.9772     1.0688    11.7625 </r>
       <r>    15.0415     0.9157    11.8214 </r>
       <r>    15.1058     1.0754    11.8906 </r>
       <r>    15.1701    -0.0424    11.8879 </r>
       <r>    15.2344     0.0259    11.8895 </r>
       <r>    15.2988     0.6264    11.9298 </r>
       <r>    15.3631     0.4069    11.9560 </r>
       <r>    15.4274     0.4613    11.9857 </r>
       <r>    15.4917    -0.0291    11.9838 </r>
       <r>    15.5560     0.0399    11.9864 </r>
       <r>    15.6204     0.2106    11.9999 </r>
       <r>    15.6847     0.0027    12.0001 </r>
       <r>    15.7490    -0.0014    12.0000 </r>
       <r>    15.8133     0.0000    12.0000 </r>
       <r>    15.8776     0.0000    12.0000 </r>
       <r>    15.9419     0.0000    12.0000 </r>
       <r>    16.0063     0.0000    12.0000 </r>
       <r>    16.0706     0.0000    12.0000 </r>
       <r>    16.1349     0.0000    12.0000 </r>
       <r>    16.1992     0.0000    12.0000 </r>
       <r>    16.2635     0.0000    12.0000 </r>
       <r>    16.3279     0.0000    12.0000 </r>
       <r>    16.3922     0.0000    12.0000 </r>
       <r>    16.4565     0.0000    12.0000 </r>
      </set>
     </set>
    </array>
   </total>
  </dos>
 </calculation>
 <structure name="finalpos" >
  <crystal>
   <varray name="basis" >
    <v>       2.86654409       0.00000000       0.00000000 </v>
    <v>      -0.95551470       2.70260368       0.00000000 </v>
    <v>      -0.95551470      -1.35130184       2.34052345 </v>
   </varray>
   <i name="volume">     18.13234550 </i>
   <varray name="rec_basis" >
    <v>       0.34885213       0.12333785       0.21362743 </v>
    <v>       0.00000000       0.37001356       0.21362743 </v>
    <v>       0.00000000       0.00000000       0.42725485 </v>
   </varray>
  </crystal>
  <varray name="positions" >
   <v>       0.00000000       0.00000000       0.00000000 </v>
  </varray>
 </structure>
</modeling>
