<?xml version="1.0" encoding="ISO-8859-1"?>
<modeling>
 <generator>
  <i name="program" type="string">vasp </i>
  <i name="version" type="string">5.2.12  </i>
  <i name="subversion" type="string">11Nov11 complex                                                      parallel </i>
  <i name="platform" type="string">LinuxIFC </i>
  <i name="date" type="string">2012 10 17 </i>
  <i name="time" type="string">09:24:41 </i>
 </generator>
 <incar>
  <i type="string" name="PREC">accurate</i>
  <i type="int" name="ISPIN">     2</i>
  <i name="ENCUT">    600.00000000</i>
  <i type="int" name="NBANDS">     6</i>
  <i type="logical" name="LREAL"> F  </i>
  <i type="int" name="ISMEAR">     1</i>
  <i name="SIGMA">      0.05000000</i>
 </incar>
 <kpoints>
  <generation param="Monkhorst-Pack">
   <v type="int" name="divisions">      10       10       10 </v>
   <v name="usershift">      0.00000000       0.00000000       0.00000000 </v>
   <v name="genvec1">      0.10000000       0.00000000       0.00000000 </v>
   <v name="genvec2">      0.00000000       0.10000000       0.00000000 </v>
   <v name="genvec3">      0.00000000       0.00000000       0.10000000 </v>
   <v name="shift">      0.50000000       0.50000000       0.50000000 </v>
  </generation>
  <varray name="kpointlist" >
   <v>       0.05000000       0.05000000       0.05000000 </v>
   <v>       0.15000000       0.05000000       0.05000000 </v>
   <v>       0.25000000       0.05000000       0.05000000 </v>
   <v>       0.35000000       0.05000000       0.05000000 </v>
   <v>       0.45000000       0.05000000       0.05000000 </v>
   <v>      -0.05000000       0.05000000       0.05000000 </v>
   <v>       0.15000000       0.15000000       0.05000000 </v>
   <v>       0.25000000       0.15000000       0.05000000 </v>
   <v>       0.35000000       0.15000000       0.05000000 </v>
   <v>      -0.15000000       0.15000000       0.05000000 </v>
   <v>       0.25000000       0.25000000       0.05000000 </v>
   <v>       0.35000000       0.25000000       0.05000000 </v>
   <v>      -0.25000000       0.25000000       0.05000000 </v>
   <v>      -0.15000000       0.25000000       0.05000000 </v>
   <v>      -0.35000000       0.35000000       0.05000000 </v>
   <v>      -0.25000000       0.35000000       0.05000000 </v>
   <v>      -0.45000000       0.45000000       0.05000000 </v>
   <v>      -0.35000000       0.45000000       0.05000000 </v>
   <v>      -0.25000000       0.45000000       0.05000000 </v>
   <v>      -0.45000000      -0.45000000       0.05000000 </v>
   <v>      -0.35000000      -0.45000000       0.05000000 </v>
   <v>      -0.35000000      -0.35000000       0.05000000 </v>
   <v>       0.15000000       0.15000000       0.15000000 </v>
   <v>       0.25000000       0.15000000       0.15000000 </v>
   <v>       0.35000000       0.15000000       0.15000000 </v>
   <v>      -0.15000000       0.15000000       0.15000000 </v>
   <v>       0.25000000       0.25000000       0.15000000 </v>
   <v>      -0.25000000       0.25000000       0.15000000 </v>
   <v>      -0.35000000       0.35000000       0.15000000 </v>
   <v>      -0.25000000       0.35000000       0.15000000 </v>
   <v>      -0.45000000       0.45000000       0.15000000 </v>
   <v>      -0.35000000       0.45000000       0.15000000 </v>
   <v>      -0.45000000      -0.45000000       0.15000000 </v>
   <v>      -0.35000000      -0.45000000       0.15000000 </v>
   <v>       0.25000000       0.25000000       0.25000000 </v>
   <v>      -0.25000000       0.25000000       0.25000000 </v>
   <v>      -0.35000000       0.35000000       0.25000000 </v>
   <v>      -0.45000000       0.45000000       0.25000000 </v>
   <v>      -0.35000000       0.45000000       0.25000000 </v>
   <v>      -0.45000000      -0.45000000       0.25000000 </v>
   <v>      -0.35000000       0.35000000       0.35000000 </v>
   <v>      -0.45000000       0.45000000       0.35000000 </v>
   <v>      -0.45000000      -0.45000000       0.35000000 </v>
   <v>      -0.45000000       0.45000000       0.45000000 </v>
  </varray>
  <varray name="weights" >
   <v>       0.00800000 </v>
   <v>       0.02400000 </v>
   <v>       0.02400000 </v>
   <v>       0.02400000 </v>
   <v>       0.01200000 </v>
   <v>       0.00600000 </v>
   <v>       0.02400000 </v>
   <v>       0.04800000 </v>
   <v>       0.04800000 </v>
   <v>       0.02400000 </v>
   <v>       0.02400000 </v>
   <v>       0.02400000 </v>
   <v>       0.02400000 </v>
   <v>       0.02400000 </v>
   <v>       0.02400000 </v>
   <v>       0.04800000 </v>
   <v>       0.02400000 </v>
   <v>       0.04800000 </v>
   <v>       0.02400000 </v>
   <v>       0.02400000 </v>
   <v>       0.04800000 </v>
   <v>       0.00800000 </v>
   <v>       0.00800000 </v>
   <v>       0.02400000 </v>
   <v>       0.01200000 </v>
   <v>       0.00600000 </v>
   <v>       0.02400000 </v>
   <v>       0.02400000 </v>
   <v>       0.02400000 </v>
   <v>       0.02400000 </v>
   <v>       0.02400000 </v>
   <v>       0.04800000 </v>
   <v>       0.02400000 </v>
   <v>       0.02400000 </v>
   <v>       0.00200000 </v>
   <v>       0.00600000 </v>
   <v>       0.02400000 </v>
   <v>       0.02400000 </v>
   <v>       0.02400000 </v>
   <v>       0.02400000 </v>
   <v>       0.00600000 </v>
   <v>       0.02400000 </v>
   <v>       0.00800000 </v>
   <v>       0.00600000 </v>
  </varray>
 </kpoints>
 <parameters>
  <separator name="general" >
   <i type="string" name="SYSTEM">unknown system</i>
   <i type="logical" name="LCOMPAT"> F  </i>
  </separator>
  <separator name="electronic" >
   <i type="string" name="PREC">accura</i>
   <i name="ENMAX">    600.00000000</i>
   <i name="ENAUG">    332.07500000</i>
   <i name="EDIFF">      0.00010000</i>
   <i type="int" name="IALGO">    38</i>
   <i type="int" name="IWAVPR">    10</i>
   <i type="int" name="NBANDS">     6</i>
   <i name="NELECT">      5.00000000</i>
   <i type="int" name="TURBO">     0</i>
   <i type="int" name="IRESTART">     0</i>
   <i type="int" name="NREBOOT">     0</i>
   <i type="int" name="NMIN">     0</i>
   <i name="EREF">      0.00000000</i>
   <separator name="electronic smearing" >
    <i type="int" name="ISMEAR">     1</i>
    <i name="SIGMA">      0.05000000</i>
    <i name="KSPACING">      0.50000000</i>
    <i type="logical" name="KGAMMA"> T  </i>
   </separator>
   <separator name="electronic projectors" >
    <i type="logical" name="LREAL"> F  </i>
    <v name="ROPT">      0.00000000</v>
    <i type="int" name="LMAXPAW">  -100</i>
    <i type="int" name="LMAXMIX">     2</i>
    <i type="logical" name="NLSPLINE"> F  </i>
   </separator>
   <separator name="electronic startup" >
    <i type="int" name="ISTART">     1</i>
    <i type="int" name="ICHARG">     0</i>
    <i type="int" name="INIWAV">     1</i>
   </separator>
   <separator name="electronic spin" >
    <i type="int" name="ISPIN">     2</i>
    <i type="logical" name="LNONCOLLINEAR"> F  </i>
    <v name="MAGMOM">      1.00000000</v>
    <i name="NUPDOWN">     -1.00000000</i>
    <i type="logical" name="LSORBIT"> F  </i>
    <v name="SAXIS">      0.00000000      0.00000000      1.00000000</v>
    <i type="logical" name="LSPIRAL"> F  </i>
    <v name="QSPIRAL">      0.00000000      0.00000000      0.00000000</v>
    <i type="logical" name="LZEROZ"> F  </i>
   </separator>
   <separator name="electronic exchange-correlation" >
    <i type="logical" name="LASPH"> F  </i>
    <i type="logical" name="LMETAGGA"> F  </i>
   </separator>
   <separator name="electronic convergence" >
    <i type="int" name="NELM">    60</i>
    <i type="int" name="NELMDL">     0</i>
    <i type="int" name="NELMIN">     2</i>
    <i name="ENINI">    600.00000000</i>
    <separator name="electronic convergence detail" >
     <i type="logical" name="LDIAG"> T  </i>
     <i type="logical" name="LSUBROT"> T  </i>
     <i name="WEIMIN">      0.00000000</i>
     <i name="EBREAK">      0.00000417</i>
     <i name="DEPER">      0.30000000</i>
     <i type="int" name="NRMM">     4</i>
     <i name="TIME">      0.40000000</i>
    </separator>
   </separator>
   <separator name="electronic mixer" >
    <i name="AMIX">      0.40000000</i>
    <i name="BMIX">      1.00000000</i>
    <i name="AMIN">      0.10000000</i>
    <i name="AMIX_MAG">      1.60000000</i>
    <i name="BMIX_MAG">      1.00000000</i>
    <separator name="electronic mixer details" >
     <i type="int" name="IMIX">     4</i>
     <i type="int" name="MAXMIX">   -45</i>
     <i name="WC">    100.00000000</i>
     <i type="int" name="INIMIX">     1</i>
     <i type="int" name="MIXPRE">     1</i>
     <i type="int" name="MREMOVE">     5</i>
    </separator>
   </separator>
   <separator name="electronic dipolcorrection" >
    <i type="logical" name="LDIPOL"> F  </i>
    <i type="logical" name="LMONO"> F  </i>
    <i type="int" name="IDIPOL">     0</i>
    <i name="EPSILON">      1.00000000</i>
    <v name="DIPOL">   -100.00000000   -100.00000000   -100.00000000</v>
    <i name="EFIELD">      0.00000000</i>
   </separator>
  </separator>
  <separator name="grids" >
   <i type="int" name="NGX">    24</i>
   <i type="int" name="NGY">    24</i>
   <i type="int" name="NGZ">    24</i>
   <i type="int" name="NGXF">    48</i>
   <i type="int" name="NGYF">    48</i>
   <i type="int" name="NGZF">    48</i>
   <i type="logical" name="ADDGRID"> F  </i>
  </separator>
  <separator name="ionic" >
   <i type="int" name="NSW">     0</i>
   <i type="int" name="IBRION">    -1</i>
   <i type="int" name="ISIF">     2</i>
   <i name="PSTRESS">      0.00000000</i>
   <i name="EDIFFG">      0.00100000</i>
   <i type="int" name="NFREE">     0</i>
   <i name="POTIM">      0.50000000</i>
   <i name="SMASS">     -3.00000000</i>
   <i name="SCALEE">      1.00000000</i>
  </separator>
  <separator name="ionic md" >
   <i name="TEBEG">      0.00010000</i>
   <i name="TEEND">      0.00010000</i>
   <i type="int" name="NBLOCK">     1</i>
   <i type="int" name="KBLOCK">     1</i>
   <i type="int" name="NPACO">   256</i>
   <i name="APACO">     16.00000000</i>
  </separator>
  <separator name="symmetry" >
   <i type="int" name="ISYM">     2</i>
   <i name="SYMPREC">      0.00001000</i>
  </separator>
  <separator name="dos" >
   <i type="logical" name="LORBIT"> F  </i>
   <v name="RWIGS">     -1.00000000</v>
   <i type="int" name="NEDOS">   301</i>
   <i name="EMIN">     10.00000000</i>
   <i name="EMAX">    -10.00000000</i>
   <i name="EFERMI">      0.00000000</i>
  </separator>
  <separator name="writing" >
   <i type="int" name="NWRITE">     2</i>
   <i type="logical" name="LWAVE"> T  </i>
   <i type="logical" name="LCHARG"> T  </i>
   <i type="logical" name="LPARD"> F  </i>
   <i type="logical" name="LVTOT"> F  </i>
   <i type="logical" name="LVHAR"> F  </i>
   <i type="logical" name="LELF"> F  </i>
   <i type="logical" name="LOPTICS"> F  </i>
   <v name="STM">      0.00000000      0.00000000      0.00000000      0.00000000      0.00000000      0.00000000      0.00000000</v>
  </separator>
  <separator name="performance" >
   <i type="int" name="NPAR">     1</i>
   <i type="int" name="NSIM">     4</i>
   <i type="int" name="NBLK">    -1</i>
   <i type="logical" name="LPLANE"> T  </i>
   <i type="logical" name="LSCALAPACK"> F  </i>
   <i type="logical" name="LSCAAWARE"> F  </i>
   <i type="logical" name="LSCALU"> F  </i>
   <i type="logical" name="LASYNC"> F  </i>
   <i type="logical" name="LORBITALREAL"> F  </i>
  </separator>
  <separator name="miscellaneous" >
   <i type="int" name="IDIOT">     3</i>
   <i type="logical" name="LMUSIC"> F  </i>
   <v name="POMASS">    180.94800000</v>
   <v name="DARWINR">      0.00000000</v>
   <v name="DARWINV">      1.00000000</v>
   <i type="logical" name="LCORR"> T  </i>
  </separator>
  <i type="logical" name="GGA_COMPAT"> T  </i>
  <i type="logical" name="LBERRY"> F  </i>
  <i type="int" name="ICORELEVEL">     0</i>
  <i type="logical" name="LDAU"> F  </i>
  <i type="int" name="I_CONSTRAINED_M">     0</i>
  <separator name="electronic exchange-correlation" >
   <i type="string" name="GGA">--</i>
   <i type="int" name="VOSKOWN">     0</i>
   <i type="logical" name="LHFCALC"> F  </i>
   <i type="string" name="PRECFOCK"></i>
   <i type="logical" name="LHFONE"> F  </i>
   <i type="logical" name="LRHFCALC"> F  </i>
   <i type="logical" name="LTHOMAS"> F  </i>
   <i type="logical" name="LMODELHF"> F  </i>
   <i name="ENCUT4O">     -1.00000000</i>
   <i type="int" name="EXXOEP">     0</i>
   <i type="int" name="FOURORBIT">     0</i>
   <i name="AEXX">      0.00000000</i>
   <i name="HFALPHA">      0.00000000</i>
   <i name="ALDAX">      1.00000000</i>
   <i name="AGGAX">      1.00000000</i>
   <i name="ALDAC">      1.00000000</i>
   <i name="AGGAC">      1.00000000</i>
   <i type="int" name="NKREDX">     1</i>
   <i type="int" name="NKREDY">     1</i>
   <i type="int" name="NKREDZ">     1</i>
   <i type="logical" name="SHIFTRED"> F  </i>
   <i type="logical" name="ODDONLY"> F  </i>
   <i type="logical" name="EVENONLY"> F  </i>
   <i type="int" name="LMAXFOCK">     0</i>
   <i type="int" name="NMAXFOCKAE">     0</i>
   <i type="logical" name="LFOCKAEDFT"> F  </i>
   <i name="HFSCREEN">      0.00000000</i>
   <i name="HFSCREENC">      0.00000000</i>
  </separator>
  <separator name="vdW DFT" >
   <i type="logical" name="LUSE_VDW"> F  </i>
   <i name="Zab_VDW">     -0.84910000</i>
   <i name="PARAM1">      0.12340000</i>
   <i name="PARAM2">      1.00000000</i>
   <i name="PARAM3">      0.00000000</i>
  </separator>
  <separator name="model GW" >
   <i type="int" name="MODEL_GW">     0</i>
   <i name="MODEL_EPS0">     10.87940730</i>
   <i name="MODEL_ALPHA">      1.00000000</i>
  </separator>
  <separator name="linear response parameters" >
   <i type="logical" name="LEPSILON"> F  </i>
   <i type="logical" name="LRPA"> F  </i>
   <i type="logical" name="LNABLA"> F  </i>
   <i type="logical" name="LVEL"> F  </i>
   <i type="int" name="KINTER">     0</i>
   <i name="CSHIFT">      0.10000000</i>
   <i name="OMEGAMAX">     -1.00000000</i>
  </separator>
  <separator name="orbital magnetization" >
   <i type="logical" name="NUCIND"> F  </i>
   <v name="MAGPOS">      0.00000000      0.00000000      0.00000000</v>
   <i type="logical" name="LNICSALL"> T  </i>
   <i type="logical" name="ORBITALMAG"> F  </i>
   <i type="logical" name="LMAGBLOCH"> F  </i>
   <i type="logical" name="LCHIMAG"> F  </i>
   <i type="logical" name="LGAUGE"> T  </i>
   <i type="int" name="MAGATOM">     0</i>
   <v name="MAGDIPOL">      0.00000000      0.00000000      0.00000000</v>
   <v name="AVECCONST">      0.00000000      0.00000000      0.00000000</v>
  </separator>
  <separator name="response functions" >
   <i type="logical" name="LADDER"> F  </i>
   <i type="logical" name="LHARTREE"> T  </i>
   <i type="int" name="IBSE">     0</i>
   <i type="logical" name="LTCTE"> F  </i>
   <i type="logical" name="LTETE"> F  </i>
   <i type="logical" name="LFXCEPS"> F  </i>
   <i type="logical" name="L2ORDER"> F  </i>
   <i type="logical" name="LUSEW"> F  </i>
   <i name="ENCUTGW">     -2.00000000</i>
   <i name="ENCUTGWSOFT">     -2.00000000</i>
   <i name="ENCUTLF">     -1.00000000</i>
   <i type="int" name="LMAXMP2">    -1</i>
   <i name="SCISSOR">      0.00000000</i>
   <i type="int" name="NOMEGA">     0</i>
   <i type="int" name="NOMEGAR">     0</i>
   <i type="int" name="NBANDSGW">    -1</i>
   <i type="int" name="NBANDSO">    -1</i>
   <i type="int" name="NBANDSV">    -1</i>
   <i name="OPTEMAX">      0.00000000</i>
   <i type="int" name="NELM">     1</i>
   <i type="int" name="DIM">     3</i>
   <i type="int" name="ANTIRES">     0</i>
   <i name="OMEGAMAX">    -30.00000000</i>
   <i name="OMEGATL">   -200.00000000</i>
   <i type="int" name="OMEGAGRID">     0</i>
   <i name="CSHIFT">     -0.10000000</i>
   <i type="logical" name="SELFENERGY"> F  </i>
   <i type="logical" name="LSPECTRAL"> F  </i>
   <i type="logical" name="ODDONLYGW"> F  </i>
   <i type="logical" name="EVENONLYGW"> F  </i>
   <i type="int" name="NKREDLFX">     1</i>
   <i type="int" name="NKREDLFY">     1</i>
   <i type="int" name="NKREDLFZ">     1</i>
   <i type="int" name="MAXMEM">  1800</i>
   <i type="int" name="TELESCOPE">     0</i>
  </separator>
 </parameters>
 <atominfo>
  <atoms>       1 </atoms>
  <types>       1 </types>
  <array name="atoms" >
   <dimension dim="1">ion</dimension>
   <field type="string">element</field>
   <field type="int">atomtype</field>
   <set>
    <rc><c>Ta</c><c>   1</c></rc>
   </set>
  </array>
  <array name="atomtypes" >
   <dimension dim="1">type</dimension>
   <field type="int">atomspertype</field>
   <field type="string">element</field>
   <field>mass</field>
   <field>valence</field>
   <field type="string">pseudopotential</field>
   <set>
    <rc><c>   1</c><c>Ta</c><c>    180.94800000</c><c>      5.00000000</c><c>  PAW_PBE Ta 17Jan2003                  </c></rc>
   </set>
  </array>
 </atominfo>
 <structure name="initialpos" >
  <crystal>
   <varray name="basis" >
    <v>       2.86654409       0.00000000       0.00000000 </v>
    <v>      -0.95551470       2.70260368       0.00000000 </v>
    <v>      -0.95551470      -1.35130184       2.34052345 </v>
   </varray>
   <i name="volume">     18.13234550 </i>
   <varray name="rec_basis" >
    <v>       0.34885213       0.12333785       0.21362743 </v>
    <v>       0.00000000       0.37001356       0.21362743 </v>
    <v>       0.00000000       0.00000000       0.42725485 </v>
   </varray>
  </crystal>
  <varray name="positions" >
   <v>       0.00000000       0.00000000       0.00000000 </v>
  </varray>
 </structure>
 <calculation>
  <scstep>
   <time name="dav">    1.53    1.53</time>
   <time name="total">    2.20    2.20</time>
   <energy>
    <i name="alphaZ">     30.58334069 </i>
    <i name="ewald">   -197.90100875 </i>
    <i name="hartreedc">     -0.59049791 </i>
    <i name="XCdc">    -66.00340182 </i>
    <i name="pawpsdc">    192.65951250 </i>
    <i name="pawaedc">   -119.23349357 </i>
    <i name="eentropy">      0.00062149 </i>
    <i name="bandstr">     17.97018540 </i>
    <i name="atom">    130.65019665 </i>
    <i name="e_fr_energy">    -11.86454532 </i>
    <i name="e_wo_entrp">    -11.86516681 </i>
    <i name="e_0_energy">    -11.86475248 </i>
   </energy>
  </scstep>
  <scstep>
   <time name="dav">    1.53    1.53</time>
   <time name="total">    1.95    1.95</time>
   <energy>
    <i name="alphaZ">     30.58334069 </i>
    <i name="ewald">   -197.90100875 </i>
    <i name="hartreedc">     -0.59055763 </i>
    <i name="XCdc">    -66.00343449 </i>
    <i name="pawpsdc">    192.65785361 </i>
    <i name="pawaedc">   -119.23190579 </i>
    <i name="eentropy">      0.00062137 </i>
    <i name="bandstr">     17.97034899 </i>
    <i name="atom">    130.65019665 </i>
    <i name="e_fr_energy">    -11.86454536 </i>
    <i name="e_wo_entrp">    -11.86516673 </i>
    <i name="e_0_energy">    -11.86475248 </i>
   </energy>
  </scstep>
  <parameters_embedded>
   <separator name="dft+d2" >
    <i type="logical" name="LVDW"> F  </i>
   </separator>
  </parameters_embedded>
  <structure>
   <crystal>
    <varray name="basis" >
     <v>       2.86654409       0.00000000       0.00000000 </v>
     <v>      -0.95551470       2.70260368       0.00000000 </v>
     <v>      -0.95551470      -1.35130184       2.34052345 </v>
    </varray>
    <i name="volume">     18.13234550 </i>
    <varray name="rec_basis" >
     <v>       0.34885213       0.12333785       0.21362743 </v>
     <v>       0.00000000       0.37001356       0.21362743 </v>
     <v>       0.00000000       0.00000000       0.42725485 </v>
    </varray>
   </crystal>
   <varray name="positions" >
    <v>       0.00000000       0.00000000       0.00000000 </v>
   </varray>
  </structure>
  <varray name="forces" >
   <v>       0.00000000       0.00000000       0.00000000 </v>
  </varray>
  <varray name="stress" >
   <v>      -8.89962266       0.00000000       0.00000000 </v>
   <v>       0.00000000      -8.89962266       0.00000000 </v>
   <v>       0.00000000       0.00000000      -8.89962266 </v>
  </varray>
  <energy>
   <i name="e_fr_energy">    -11.86454536 </i>
   <i name="e_wo_entrp">    -11.86475248 </i>
   <i name="e_0_energy">      0.00062137 </i>
  </energy>
  <time name="totalsc">    7.56    8.28</time>
  <eigenvalues>
   <array>
    <dimension dim="1">band</dimension>
    <dimension dim="2">kpoint</dimension>
    <dimension dim="3">spin</dimension>
    <field>eigene</field>
    <field>occ</field>
    <set>
     <set comment="spin 1">
      <set comment="kpoint 1">
       <r>   -1.5471    1.0000 </r>
       <r>    6.0864    0.0000 </r>
       <r>    6.0864    0.0000 </r>
       <r>    7.2013    0.0000 </r>
       <r>    9.4425    0.0000 </r>
       <r>    9.4425    0.0000 </r>
      </set>
      <set comment="kpoint 2">
       <r>   -0.4245    1.0000 </r>
       <r>    5.4134    1.0000 </r>
       <r>    5.5969    1.0268 </r>
       <r>    8.5505    0.0000 </r>
       <r>    9.1264    0.0000 </r>
       <r>    9.7105    0.0000 </r>
      </set>
      <set comment="kpoint 3">
       <r>    0.9011    1.0000 </r>
       <r>    4.7563    1.0000 </r>
       <r>    5.2955    1.0000 </r>
       <r>    9.3448    0.0000 </r>
       <r>   10.0382    0.0000 </r>
       <r>   10.5229    0.0000 </r>
      </set>
      <set comment="kpoint 4">
       <r>    1.5296    1.0000 </r>
       <r>    4.3067    1.0000 </r>
       <r>    6.1073    0.0000 </r>
       <r>    9.6673    0.0000 </r>
       <r>   10.4020    0.0000 </r>
       <r>   12.6582    0.0000 </r>
      </set>
      <set comment="kpoint 5">
       <r>    1.5870    1.0000 </r>
       <r>    4.1488    1.0000 </r>
       <r>    6.9831    0.0000 </r>
       <r>    9.6490    0.0000 </r>
       <r>   10.5866    0.0000 </r>
       <r>   13.8038    0.0000 </r>
      </set>
      <set comment="kpoint 6">
       <r>   -1.9629    1.0000 </r>
       <r>    6.4050    0.0000 </r>
       <r>    6.4050    0.0000 </r>
       <r>    6.5421    0.0000 </r>
       <r>    9.3060    0.0000 </r>
       <r>    9.8029    0.0000 </r>
      </set>
      <set comment="kpoint 7">
       <r>    0.8457    1.0000 </r>
       <r>    4.8676    1.0000 </r>
       <r>    4.9401    1.0000 </r>
       <r>    9.2015    0.0000 </r>
       <r>   10.0838    0.0000 </r>
       <r>   10.4473    0.0000 </r>
      </set>
      <set comment="kpoint 8">
       <r>    2.0118    1.0000 </r>
       <r>    4.3959    1.0000 </r>
       <r>    4.9731    1.0000 </r>
       <r>    9.5026    0.0000 </r>
       <r>   10.4263    0.0000 </r>
       <r>   12.6731    0.0000 </r>
      </set>
      <set comment="kpoint 9">
       <r>    2.2895    1.0000 </r>
       <r>    4.1815    1.0000 </r>
       <r>    5.9383    0.0000 </r>
       <r>    9.7548    0.0000 </r>
       <r>   10.6278    0.0000 </r>
       <r>   14.5260    0.0000 </r>
      </set>
      <set comment="kpoint 10">
       <r>   -1.1465    1.0000 </r>
       <r>    5.9512    0.0000 </r>
       <r>    6.1797    0.0000 </r>
       <r>    7.3552    0.0000 </r>
       <r>    8.6244    0.0000 </r>
       <r>    9.9857    0.0000 </r>
      </set>
      <set comment="kpoint 11">
       <r>    2.9305    1.0000 </r>
       <r>    4.2908    1.0000 </r>
       <r>    5.0091    1.0000 </r>
       <r>    9.8170    0.0000 </r>
       <r>   10.5245    0.0000 </r>
       <r>   14.9567    0.0000 </r>
      </set>
      <set comment="kpoint 12">
       <r>    3.1114    1.0000 </r>
       <r>    4.3750    1.0000 </r>
       <r>    5.2499    1.0000 </r>
       <r>   10.0565    0.0000 </r>
       <r>   10.5691    0.0000 </r>
       <r>   14.3824    0.0000 </r>
      </set>
      <set comment="kpoint 13">
       <r>    0.1748    1.0000 </r>
       <r>    5.2628    1.0000 </r>
       <r>    5.6085    1.0349 </r>
       <r>    8.6495    0.0000 </r>
       <r>    8.9685    0.0000 </r>
       <r>   10.1818    0.0000 </r>
      </set>
      <set comment="kpoint 14">
       <r>   -0.0644    1.0000 </r>
       <r>    5.6261    1.0170 </r>
       <r>    5.6972    0.1376 </r>
       <r>    8.0670    0.0000 </r>
       <r>    8.4747    0.0000 </r>
       <r>   10.3849    0.0000 </r>
      </set>
      <set comment="kpoint 15">
       <r>    1.2121    1.0000 </r>
       <r>    4.6683    1.0000 </r>
       <r>    5.6921    0.1992 </r>
       <r>    9.1825    0.0000 </r>
       <r>   10.4097    0.0000 </r>
       <r>   11.1042    0.0000 </r>
      </set>
      <set comment="kpoint 16">
       <r>    1.2388    1.0000 </r>
       <r>    4.9160    1.0000 </r>
       <r>    5.3482    1.0000 </r>
       <r>    8.3689    0.0000 </r>
       <r>   10.3028    0.0000 </r>
       <r>   10.6881    0.0000 </r>
      </set>
      <set comment="kpoint 17">
       <r>    1.4548    1.0000 </r>
       <r>    4.3363    1.0000 </r>
       <r>    6.6951    0.0000 </r>
       <r>    9.3416    0.0000 </r>
       <r>   10.7794    0.0000 </r>
       <r>   13.0512    0.0000 </r>
      </set>
      <set comment="kpoint 18">
       <r>    1.8948    1.0000 </r>
       <r>    4.6142    1.0000 </r>
       <r>    5.5954    1.0254 </r>
       <r>    8.9081    0.0000 </r>
       <r>   10.7230    0.0000 </r>
       <r>   12.6918    0.0000 </r>
      </set>
      <set comment="kpoint 19">
       <r>    2.3617    1.0000 </r>
       <r>    4.3208    1.0000 </r>
       <r>    5.3542    1.0000 </r>
       <r>    8.6756    0.0000 </r>
       <r>   10.4286    0.0000 </r>
       <r>   12.7635    0.0000 </r>
      </set>
      <set comment="kpoint 20">
       <r>    1.9505    1.0000 </r>
       <r>    4.5127    1.0000 </r>
       <r>    6.0894    0.0000 </r>
       <r>    8.8620    0.0000 </r>
       <r>   11.2312    0.0000 </r>
       <r>   13.9434    0.0000 </r>
      </set>
      <set comment="kpoint 21">
       <r>    2.8314    1.0000 </r>
       <r>    4.3790    1.0000 </r>
       <r>    5.2191    1.0000 </r>
       <r>    9.1447    0.0000 </r>
       <r>   10.6493    0.0000 </r>
       <r>   15.0536    0.0000 </r>
      </set>
      <set comment="kpoint 22">
       <r>    3.4910    1.0000 </r>
       <r>    4.4769    1.0000 </r>
       <r>    4.4769    1.0000 </r>
       <r>   10.1074    0.0000 </r>
       <r>   10.1074    0.0000 </r>
       <r>   14.6734    0.0000 </r>
      </set>
      <set comment="kpoint 23">
       <r>    2.2321    1.0000 </r>
       <r>    4.3833    1.0000 </r>
       <r>    4.3833    1.0000 </r>
       <r>   10.0508    0.0000 </r>
       <r>   10.0508    0.0000 </r>
       <r>   12.7809    0.0000 </r>
      </set>
      <set comment="kpoint 24">
       <r>    3.1392    1.0000 </r>
       <r>    4.1373    1.0000 </r>
       <r>    4.7818    1.0000 </r>
       <r>   10.2175    0.0000 </r>
       <r>   10.5283    0.0000 </r>
       <r>   14.9677    0.0000 </r>
      </set>
      <set comment="kpoint 25">
       <r>    3.1466    1.0000 </r>
       <r>    4.0653    1.0000 </r>
       <r>    5.6040    1.0326 </r>
       <r>   10.2776    0.0000 </r>
       <r>   10.6801    0.0000 </r>
       <r>   14.3686    0.0000 </r>
      </set>
      <set comment="kpoint 26">
       <r>   -0.3694    1.0000 </r>
       <r>    6.3628    0.0000 </r>
       <r>    6.3628    0.0000 </r>
       <r>    7.1674    0.0000 </r>
       <r>    7.3617    0.0000 </r>
       <r>   10.5812    0.0000 </r>
      </set>
      <set comment="kpoint 27">
       <r>    3.7401    1.0000 </r>
       <r>    4.4008    1.0000 </r>
       <r>    4.8296    1.0000 </r>
       <r>   10.5311    0.0000 </r>
       <r>   10.6609    0.0000 </r>
       <r>   13.6607    0.0000 </r>
      </set>
      <set comment="kpoint 28">
       <r>    0.8930    1.0000 </r>
       <r>    5.5114    1.0000 </r>
       <r>    6.0051    0.0000 </r>
       <r>    7.2334    0.0000 </r>
       <r>    8.7221    0.0000 </r>
       <r>   10.7853    0.0000 </r>
      </set>
      <set comment="kpoint 29">
       <r>    1.9372    1.0000 </r>
       <r>    4.8864    1.0000 </r>
       <r>    5.4974    1.0000 </r>
       <r>    8.0374    0.0000 </r>
       <r>   10.8493    0.0000 </r>
       <r>   10.8896    0.0000 </r>
      </set>
      <set comment="kpoint 30">
       <r>    2.0621    1.0000 </r>
       <r>    4.5675    1.0000 </r>
       <r>    6.1394    0.0000 </r>
       <r>    7.5154    0.0000 </r>
       <r>    9.9798    0.0000 </r>
       <r>   10.9507    0.0000 </r>
      </set>
      <set comment="kpoint 31">
       <r>    2.1599    1.0000 </r>
       <r>    5.1989    1.0000 </r>
       <r>    5.2575    1.0000 </r>
       <r>    8.0127    0.0000 </r>
       <r>   11.9877    0.0000 </r>
       <r>   12.8486    0.0000 </r>
      </set>
      <set comment="kpoint 32">
       <r>    2.7668    1.0000 </r>
       <r>    4.1829    1.0000 </r>
       <r>    5.7412   -0.0329 </r>
       <r>    8.1498    0.0000 </r>
       <r>   10.7194    0.0000 </r>
       <r>   12.9077    0.0000 </r>
      </set>
      <set comment="kpoint 33">
       <r>    2.7786    1.0000 </r>
       <r>    4.5617    1.0000 </r>
       <r>    5.2942    1.0000 </r>
       <r>    8.1447    0.0000 </r>
       <r>   11.7551    0.0000 </r>
       <r>   14.5626    0.0000 </r>
      </set>
      <set comment="kpoint 34">
       <r>    3.6471    1.0000 </r>
       <r>    3.7084    1.0000 </r>
       <r>    4.9707    1.0000 </r>
       <r>    9.4126    0.0000 </r>
       <r>   10.5816    0.0000 </r>
       <r>   15.3676    0.0000 </r>
      </set>
      <set comment="kpoint 35">
       <r>    4.4704    1.0000 </r>
       <r>    4.4704    1.0000 </r>
       <r>    4.4704    1.0000 </r>
       <r>   10.7394    0.0000 </r>
       <r>   10.7394    0.0000 </r>
       <r>   12.7456    0.0000 </r>
      </set>
      <set comment="kpoint 36">
       <r>    1.9695    1.0000 </r>
       <r>    4.7840    1.0000 </r>
       <r>    6.9529    0.0000 </r>
       <r>    6.9529    0.0000 </r>
       <r>    8.8807    0.0000 </r>
       <r>   10.6846    0.0000 </r>
      </set>
      <set comment="kpoint 37">
       <r>    2.7920    1.0000 </r>
       <r>    3.8543    1.0000 </r>
       <r>    7.0128    0.0000 </r>
       <r>    7.6040    0.0000 </r>
       <r>   10.5434    0.0000 </r>
       <r>   10.8346    0.0000 </r>
      </set>
      <set comment="kpoint 38">
       <r>    2.8266    1.0000 </r>
       <r>    3.7683    1.0000 </r>
       <r>    6.8426    0.0000 </r>
       <r>    7.4879    0.0000 </r>
       <r>   12.5387    0.0000 </r>
       <r>   12.8229    0.0000 </r>
      </set>
      <set comment="kpoint 39">
       <r>    3.1181    1.0000 </r>
       <r>    3.1803    1.0000 </r>
       <r>    6.8550    0.0000 </r>
       <r>    8.8312    0.0000 </r>
       <r>   10.8142    0.0000 </r>
       <r>   12.9261    0.0000 </r>
      </set>
      <set comment="kpoint 40">
       <r>    2.9087    1.0000 </r>
       <r>    3.2329    1.0000 </r>
       <r>    6.5777    0.0000 </r>
       <r>    9.3471    0.0000 </r>
       <r>   11.6579    0.0000 </r>
       <r>   15.2692    0.0000 </r>
      </set>
      <set comment="kpoint 41">
       <r>    2.8955    1.0000 </r>
       <r>    2.9947    1.0000 </r>
       <r>    8.6103    0.0000 </r>
       <r>    8.6103    0.0000 </r>
       <r>   10.7652    0.0000 </r>
       <r>   10.9442    0.0000 </r>
      </set>
      <set comment="kpoint 42">
       <r>    2.5154    1.0000 </r>
       <r>    2.6780    1.0000 </r>
       <r>    9.0754    0.0000 </r>
       <r>    9.0817    0.0000 </r>
       <r>   12.2579    0.0000 </r>
       <r>   13.0704    0.0000 </r>
      </set>
      <set comment="kpoint 43">
       <r>    2.3615    1.0000 </r>
       <r>    2.3615    1.0000 </r>
       <r>    9.0074    0.0000 </r>
       <r>   11.4356    0.0000 </r>
       <r>   11.4356    0.0000 </r>
       <r>   15.5781    0.0000 </r>
      </set>
      <set comment="kpoint 44">
       <r>    2.0596    1.0000 </r>
       <r>    2.1064    1.0000 </r>
       <r>   11.3393    0.0000 </r>
       <r>   11.3393    0.0000 </r>
       <r>   12.2469    0.0000 </r>
       <r>   13.5520    0.0000 </r>
      </set>
     </set>
     <set comment="spin 2">
      <set comment="kpoint 1">
       <r>   -1.5471    1.0000 </r>
       <r>    6.0864    0.0000 </r>
       <r>    6.0864    0.0000 </r>
       <r>    7.2013    0.0000 </r>
       <r>    9.4425    0.0000 </r>
       <r>    9.4425    0.0000 </r>
      </set>
      <set comment="kpoint 2">
       <r>   -0.4245    1.0000 </r>
       <r>    5.4134    1.0000 </r>
       <r>    5.5969    1.0268 </r>
       <r>    8.5505    0.0000 </r>
       <r>    9.1264    0.0000 </r>
       <r>    9.7105    0.0000 </r>
      </set>
      <set comment="kpoint 3">
       <r>    0.9011    1.0000 </r>
       <r>    4.7563    1.0000 </r>
       <r>    5.2955    1.0000 </r>
       <r>    9.3448    0.0000 </r>
       <r>   10.0382    0.0000 </r>
       <r>   10.5229    0.0000 </r>
      </set>
      <set comment="kpoint 4">
       <r>    1.5296    1.0000 </r>
       <r>    4.3067    1.0000 </r>
       <r>    6.1073    0.0000 </r>
       <r>    9.6673    0.0000 </r>
       <r>   10.4020    0.0000 </r>
       <r>   12.6582    0.0000 </r>
      </set>
      <set comment="kpoint 5">
       <r>    1.5870    1.0000 </r>
       <r>    4.1488    1.0000 </r>
       <r>    6.9831    0.0000 </r>
       <r>    9.6490    0.0000 </r>
       <r>   10.5866    0.0000 </r>
       <r>   13.8038    0.0000 </r>
      </set>
      <set comment="kpoint 6">
       <r>   -1.9629    1.0000 </r>
       <r>    6.4050    0.0000 </r>
       <r>    6.4050    0.0000 </r>
       <r>    6.5421    0.0000 </r>
       <r>    9.3060    0.0000 </r>
       <r>    9.8029    0.0000 </r>
      </set>
      <set comment="kpoint 7">
       <r>    0.8457    1.0000 </r>
       <r>    4.8676    1.0000 </r>
       <r>    4.9401    1.0000 </r>
       <r>    9.2015    0.0000 </r>
       <r>   10.0838    0.0000 </r>
       <r>   10.4473    0.0000 </r>
      </set>
      <set comment="kpoint 8">
       <r>    2.0118    1.0000 </r>
       <r>    4.3959    1.0000 </r>
       <r>    4.9731    1.0000 </r>
       <r>    9.5026    0.0000 </r>
       <r>   10.4263    0.0000 </r>
       <r>   12.6731    0.0000 </r>
      </set>
      <set comment="kpoint 9">
       <r>    2.2895    1.0000 </r>
       <r>    4.1815    1.0000 </r>
       <r>    5.9383    0.0000 </r>
       <r>    9.7548    0.0000 </r>
       <r>   10.6278    0.0000 </r>
       <r>   14.5260    0.0000 </r>
      </set>
      <set comment="kpoint 10">
       <r>   -1.1465    1.0000 </r>
       <r>    5.9512    0.0000 </r>
       <r>    6.1797    0.0000 </r>
       <r>    7.3552    0.0000 </r>
       <r>    8.6244    0.0000 </r>
       <r>    9.9857    0.0000 </r>
      </set>
      <set comment="kpoint 11">
       <r>    2.9305    1.0000 </r>
       <r>    4.2908    1.0000 </r>
       <r>    5.0091    1.0000 </r>
       <r>    9.8170    0.0000 </r>
       <r>   10.5245    0.0000 </r>
       <r>   14.9567    0.0000 </r>
      </set>
      <set comment="kpoint 12">
       <r>    3.1114    1.0000 </r>
       <r>    4.3750    1.0000 </r>
       <r>    5.2499    1.0000 </r>
       <r>   10.0565    0.0000 </r>
       <r>   10.5691    0.0000 </r>
       <r>   14.3824    0.0000 </r>
      </set>
      <set comment="kpoint 13">
       <r>    0.1748    1.0000 </r>
       <r>    5.2628    1.0000 </r>
       <r>    5.6085    1.0349 </r>
       <r>    8.6495    0.0000 </r>
       <r>    8.9685    0.0000 </r>
       <r>   10.1818    0.0000 </r>
      </set>
      <set comment="kpoint 14">
       <r>   -0.0644    1.0000 </r>
       <r>    5.6261    1.0170 </r>
       <r>    5.6972    0.1376 </r>
       <r>    8.0670    0.0000 </r>
       <r>    8.4747    0.0000 </r>
       <r>   10.3849    0.0000 </r>
      </set>
      <set comment="kpoint 15">
       <r>    1.2121    1.0000 </r>
       <r>    4.6683    1.0000 </r>
       <r>    5.6921    0.1992 </r>
       <r>    9.1825    0.0000 </r>
       <r>   10.4097    0.0000 </r>
       <r>   11.1042    0.0000 </r>
      </set>
      <set comment="kpoint 16">
       <r>    1.2388    1.0000 </r>
       <r>    4.9160    1.0000 </r>
       <r>    5.3482    1.0000 </r>
       <r>    8.3689    0.0000 </r>
       <r>   10.3028    0.0000 </r>
       <r>   10.6881    0.0000 </r>
      </set>
      <set comment="kpoint 17">
       <r>    1.4548    1.0000 </r>
       <r>    4.3363    1.0000 </r>
       <r>    6.6951    0.0000 </r>
       <r>    9.3416    0.0000 </r>
       <r>   10.7794    0.0000 </r>
       <r>   13.0512    0.0000 </r>
      </set>
      <set comment="kpoint 18">
       <r>    1.8948    1.0000 </r>
       <r>    4.6142    1.0000 </r>
       <r>    5.5954    1.0254 </r>
       <r>    8.9081    0.0000 </r>
       <r>   10.7230    0.0000 </r>
       <r>   12.6918    0.0000 </r>
      </set>
      <set comment="kpoint 19">
       <r>    2.3617    1.0000 </r>
       <r>    4.3208    1.0000 </r>
       <r>    5.3542    1.0000 </r>
       <r>    8.6756    0.0000 </r>
       <r>   10.4286    0.0000 </r>
       <r>   12.7635    0.0000 </r>
      </set>
      <set comment="kpoint 20">
       <r>    1.9505    1.0000 </r>
       <r>    4.5127    1.0000 </r>
       <r>    6.0894    0.0000 </r>
       <r>    8.8620    0.0000 </r>
       <r>   11.2312    0.0000 </r>
       <r>   13.9434    0.0000 </r>
      </set>
      <set comment="kpoint 21">
       <r>    2.8314    1.0000 </r>
       <r>    4.3790    1.0000 </r>
       <r>    5.2191    1.0000 </r>
       <r>    9.1447    0.0000 </r>
       <r>   10.6493    0.0000 </r>
       <r>   15.0536    0.0000 </r>
      </set>
      <set comment="kpoint 22">
       <r>    3.4910    1.0000 </r>
       <r>    4.4769    1.0000 </r>
       <r>    4.4769    1.0000 </r>
       <r>   10.1074    0.0000 </r>
       <r>   10.1074    0.0000 </r>
       <r>   14.6734    0.0000 </r>
      </set>
      <set comment="kpoint 23">
       <r>    2.2321    1.0000 </r>
       <r>    4.3833    1.0000 </r>
       <r>    4.3833    1.0000 </r>
       <r>   10.0508    0.0000 </r>
       <r>   10.0508    0.0000 </r>
       <r>   12.7809    0.0000 </r>
      </set>
      <set comment="kpoint 24">
       <r>    3.1392    1.0000 </r>
       <r>    4.1373    1.0000 </r>
       <r>    4.7818    1.0000 </r>
       <r>   10.2175    0.0000 </r>
       <r>   10.5283    0.0000 </r>
       <r>   14.9677    0.0000 </r>
      </set>
      <set comment="kpoint 25">
       <r>    3.1466    1.0000 </r>
       <r>    4.0653    1.0000 </r>
       <r>    5.6040    1.0326 </r>
       <r>   10.2776    0.0000 </r>
       <r>   10.6801    0.0000 </r>
       <r>   14.3686    0.0000 </r>
      </set>
      <set comment="kpoint 26">
       <r>   -0.3694    1.0000 </r>
       <r>    6.3628    0.0000 </r>
       <r>    6.3628    0.0000 </r>
       <r>    7.1674    0.0000 </r>
       <r>    7.3617    0.0000 </r>
       <r>   10.5812    0.0000 </r>
      </set>
      <set comment="kpoint 27">
       <r>    3.7401    1.0000 </r>
       <r>    4.4008    1.0000 </r>
       <r>    4.8296    1.0000 </r>
       <r>   10.5311    0.0000 </r>
       <r>   10.6609    0.0000 </r>
       <r>   13.6607    0.0000 </r>
      </set>
      <set comment="kpoint 28">
       <r>    0.8930    1.0000 </r>
       <r>    5.5114    1.0000 </r>
       <r>    6.0051    0.0000 </r>
       <r>    7.2334    0.0000 </r>
       <r>    8.7221    0.0000 </r>
       <r>   10.7853    0.0000 </r>
      </set>
      <set comment="kpoint 29">
       <r>    1.9372    1.0000 </r>
       <r>    4.8864    1.0000 </r>
       <r>    5.4974    1.0000 </r>
       <r>    8.0374    0.0000 </r>
       <r>   10.8493    0.0000 </r>
       <r>   10.8896    0.0000 </r>
      </set>
      <set comment="kpoint 30">
       <r>    2.0621    1.0000 </r>
       <r>    4.5675    1.0000 </r>
       <r>    6.1394    0.0000 </r>
       <r>    7.5154    0.0000 </r>
       <r>    9.9798    0.0000 </r>
       <r>   10.9507    0.0000 </r>
      </set>
      <set comment="kpoint 31">
       <r>    2.1599    1.0000 </r>
       <r>    5.1989    1.0000 </r>
       <r>    5.2575    1.0000 </r>
       <r>    8.0127    0.0000 </r>
       <r>   11.9877    0.0000 </r>
       <r>   12.8486    0.0000 </r>
      </set>
      <set comment="kpoint 32">
       <r>    2.7668    1.0000 </r>
       <r>    4.1829    1.0000 </r>
       <r>    5.7412   -0.0329 </r>
       <r>    8.1498    0.0000 </r>
       <r>   10.7194    0.0000 </r>
       <r>   12.9077    0.0000 </r>
      </set>
      <set comment="kpoint 33">
       <r>    2.7786    1.0000 </r>
       <r>    4.5617    1.0000 </r>
       <r>    5.2942    1.0000 </r>
       <r>    8.1447    0.0000 </r>
       <r>   11.7551    0.0000 </r>
       <r>   14.5626    0.0000 </r>
      </set>
      <set comment="kpoint 34">
       <r>    3.6471    1.0000 </r>
       <r>    3.7084    1.0000 </r>
       <r>    4.9707    1.0000 </r>
       <r>    9.4126    0.0000 </r>
       <r>   10.5816    0.0000 </r>
       <r>   15.3676    0.0000 </r>
      </set>
      <set comment="kpoint 35">
       <r>    4.4704    1.0000 </r>
       <r>    4.4704    1.0000 </r>
       <r>    4.4704    1.0000 </r>
       <r>   10.7394    0.0000 </r>
       <r>   10.7394    0.0000 </r>
       <r>   12.7456    0.0000 </r>
      </set>
      <set comment="kpoint 36">
       <r>    1.9695    1.0000 </r>
       <r>    4.7840    1.0000 </r>
       <r>    6.9529    0.0000 </r>
       <r>    6.9529    0.0000 </r>
       <r>    8.8807    0.0000 </r>
       <r>   10.6846    0.0000 </r>
      </set>
      <set comment="kpoint 37">
       <r>    2.7920    1.0000 </r>
       <r>    3.8543    1.0000 </r>
       <r>    7.0128    0.0000 </r>
       <r>    7.6040    0.0000 </r>
       <r>   10.5434    0.0000 </r>
       <r>   10.8346    0.0000 </r>
      </set>
      <set comment="kpoint 38">
       <r>    2.8266    1.0000 </r>
       <r>    3.7683    1.0000 </r>
       <r>    6.8426    0.0000 </r>
       <r>    7.4879    0.0000 </r>
       <r>   12.5387    0.0000 </r>
       <r>   12.8229    0.0000 </r>
      </set>
      <set comment="kpoint 39">
       <r>    3.1181    1.0000 </r>
       <r>    3.1803    1.0000 </r>
       <r>    6.8550    0.0000 </r>
       <r>    8.8312    0.0000 </r>
       <r>   10.8142    0.0000 </r>
       <r>   12.9261    0.0000 </r>
      </set>
      <set comment="kpoint 40">
       <r>    2.9087    1.0000 </r>
       <r>    3.2329    1.0000 </r>
       <r>    6.5777    0.0000 </r>
       <r>    9.3471    0.0000 </r>
       <r>   11.6579    0.0000 </r>
       <r>   15.2692    0.0000 </r>
      </set>
      <set comment="kpoint 41">
       <r>    2.8955    1.0000 </r>
       <r>    2.9947    1.0000 </r>
       <r>    8.6103    0.0000 </r>
       <r>    8.6103    0.0000 </r>
       <r>   10.7652    0.0000 </r>
       <r>   10.9442    0.0000 </r>
      </set>
      <set comment="kpoint 42">
       <r>    2.5154    1.0000 </r>
       <r>    2.6780    1.0000 </r>
       <r>    9.0754    0.0000 </r>
       <r>    9.0817    0.0000 </r>
       <r>   12.2579    0.0000 </r>
       <r>   13.0704    0.0000 </r>
      </set>
      <set comment="kpoint 43">
       <r>    2.3615    1.0000 </r>
       <r>    2.3615    1.0000 </r>
       <r>    9.0074    0.0000 </r>
       <r>   11.4356    0.0000 </r>
       <r>   11.4356    0.0000 </r>
       <r>   15.5781    0.0000 </r>
      </set>
      <set comment="kpoint 44">
       <r>    2.0596    1.0000 </r>
       <r>    2.1064    1.0000 </r>
       <r>   11.3393    0.0000 </r>
       <r>   11.3393    0.0000 </r>
       <r>   12.2469    0.0000 </r>
       <r>   13.5520    0.0000 </r>
      </set>
     </set>
    </set>
   </array>
  </eigenvalues>
  <separator name="orbital magnetization" >
   <v name="MAGDIPOLOUT">      0.00000000      0.00000000      0.00000000</v>
  </separator>
  <dos>
   <i name="efermi">      5.67286327 </i>
   <total>
    <array>
     <dimension dim="1">gridpoints</dimension>
     <dimension dim="2">spin</dimension>
     <field>energy</field>
     <field>total</field>
     <field>integrated</field>
     <set>
      <set comment="spin 1">
       <r>    -2.8399     0.0000     0.0000 </r>
       <r>    -2.7756     0.0000     0.0000 </r>
       <r>    -2.7113     0.0000     0.0000 </r>
       <r>    -2.6470     0.0000     0.0000 </r>
       <r>    -2.5826     0.0000     0.0000 </r>
       <r>    -2.5183     0.0000     0.0000 </r>
       <r>    -2.4540     0.0000     0.0000 </r>
       <r>    -2.3897     0.0000     0.0000 </r>
       <r>    -2.3254     0.0000     0.0000 </r>
       <r>    -2.2611     0.0000     0.0000 </r>
       <r>    -2.1967     0.0000     0.0000 </r>
       <r>    -2.1324     0.0000     0.0000 </r>
       <r>    -2.0681    -0.0005     0.0000 </r>
       <r>    -2.0038     0.0010     0.0000 </r>
       <r>    -1.9395     0.0790     0.0051 </r>
       <r>    -1.8752     0.0153     0.0061 </r>
       <r>    -1.8108    -0.0015     0.0060 </r>
       <r>    -1.7465     0.0000     0.0060 </r>
       <r>    -1.6822    -0.0001     0.0060 </r>
       <r>    -1.6179    -0.0038     0.0058 </r>
       <r>    -1.5536     0.0525     0.0091 </r>
       <r>    -1.4893     0.0801     0.0143 </r>
       <r>    -1.4249    -0.0041     0.0140 </r>
       <r>    -1.3606    -0.0002     0.0140 </r>
       <r>    -1.2963     0.0000     0.0140 </r>
       <r>    -1.2320    -0.0067     0.0136 </r>
       <r>    -1.1677     0.0721     0.0182 </r>
       <r>    -1.1034     0.3095     0.0381 </r>
       <r>    -1.0390     0.0001     0.0381 </r>
       <r>    -0.9747    -0.0018     0.0380 </r>
       <r>    -0.9104     0.0000     0.0380 </r>
       <r>    -0.8461     0.0000     0.0380 </r>
       <r>    -0.7818     0.0000     0.0380 </r>
       <r>    -0.7174     0.0000     0.0380 </r>
       <r>    -0.6531     0.0000     0.0380 </r>
       <r>    -0.5888     0.0000     0.0380 </r>
       <r>    -0.5245    -0.0030     0.0378 </r>
       <r>    -0.4602     0.0149     0.0388 </r>
       <r>    -0.3959     0.3373     0.0605 </r>
       <r>    -0.3315     0.1197     0.0682 </r>
       <r>    -0.2672    -0.0019     0.0680 </r>
       <r>    -0.2029    -0.0008     0.0680 </r>
       <r>    -0.1386    -0.0105     0.0673 </r>
       <r>    -0.0743     0.1360     0.0761 </r>
       <r>    -0.0100     0.2597     0.0928 </r>
       <r>     0.0544    -0.0119     0.0920 </r>
       <r>     0.1187    -0.0126     0.0912 </r>
       <r>     0.1830     0.2502     0.1073 </r>
       <r>     0.2473     0.1466     0.1167 </r>
       <r>     0.3116    -0.0110     0.1160 </r>
       <r>     0.3759    -0.0001     0.1160 </r>
       <r>     0.4403     0.0000     0.1160 </r>
       <r>     0.5046     0.0000     0.1160 </r>
       <r>     0.5689     0.0000     0.1160 </r>
       <r>     0.6332     0.0000     0.1160 </r>
       <r>     0.6975     0.0000     0.1160 </r>
       <r>     0.7618    -0.0076     0.1155 </r>
       <r>     0.8262     0.0576     0.1192 </r>
       <r>     0.8905     0.6193     0.1590 </r>
       <r>     0.9548     0.4767     0.1897 </r>
       <r>     1.0191    -0.0253     0.1881 </r>
       <r>     1.0834    -0.0015     0.1880 </r>
       <r>     1.1477    -0.0229     0.1865 </r>
       <r>     1.2121     0.2928     0.2053 </r>
       <r>     1.2764     0.8455     0.2597 </r>
       <r>     1.3407     0.0088     0.2603 </r>
       <r>     1.4050    -0.0141     0.2594 </r>
       <r>     1.4693     0.2702     0.2768 </r>
       <r>     1.5336     0.3277     0.2978 </r>
       <r>     1.5980     0.2974     0.3170 </r>
       <r>     1.6623     0.0526     0.3203 </r>
       <r>     1.7266    -0.0053     0.3200 </r>
       <r>     1.7909    -0.0047     0.3197 </r>
       <r>     1.8552     0.0017     0.3198 </r>
       <r>     1.9195     0.7475     0.3679 </r>
       <r>     1.9839     0.8770     0.4243 </r>
       <r>     2.0482     0.8217     0.4771 </r>
       <r>     2.1125     0.4225     0.5043 </r>
       <r>     2.1768     0.3108     0.5243 </r>
       <r>     2.2411     0.1606     0.5346 </r>
       <r>     2.3055     0.5984     0.5731 </r>
       <r>     2.3698     0.6130     0.6125 </r>
       <r>     2.4341     0.2197     0.6267 </r>
       <r>     2.4984     0.0755     0.6315 </r>
       <r>     2.5627     0.2931     0.6504 </r>
       <r>     2.6270    -0.0150     0.6494 </r>
       <r>     2.6914     0.2470     0.6653 </r>
       <r>     2.7557     0.4181     0.6922 </r>
       <r>     2.8200     1.5631     0.7927 </r>
       <r>     2.8843     0.8841     0.8496 </r>
       <r>     2.9486     0.6413     0.8908 </r>
       <r>     3.0129     0.1581     0.9010 </r>
       <r>     3.0773     0.0152     0.9020 </r>
       <r>     3.1416     0.9431     0.9626 </r>
       <r>     3.2059     0.7604     1.0115 </r>
       <r>     3.2702     0.3457     1.0338 </r>
       <r>     3.3345     0.0062     1.0342 </r>
       <r>     3.3988    -0.0043     1.0339 </r>
       <r>     3.4632     0.0141     1.0348 </r>
       <r>     3.5275     0.1075     1.0417 </r>
       <r>     3.5918    -0.0078     1.0412 </r>
       <r>     3.6561     0.2356     1.0564 </r>
       <r>     3.7204     0.4856     1.0876 </r>
       <r>     3.7847     0.6968     1.1324 </r>
       <r>     3.8491     0.2504     1.1485 </r>
       <r>     3.9134     0.2228     1.1628 </r>
       <r>     3.9777    -0.0157     1.1618 </r>
       <r>     4.0420     0.0250     1.1634 </r>
       <r>     4.1063     0.1494     1.1731 </r>
       <r>     4.1706     0.9865     1.2365 </r>
       <r>     4.2350     1.0984     1.3071 </r>
       <r>     4.2993     0.3965     1.3326 </r>
       <r>     4.3636     1.4705     1.4272 </r>
       <r>     4.4279     2.0335     1.5580 </r>
       <r>     4.4922     0.3877     1.5829 </r>
       <r>     4.5565     0.6460     1.6245 </r>
       <r>     4.6209     0.9656     1.6866 </r>
       <r>     4.6852     0.5654     1.7230 </r>
       <r>     4.7495     0.2478     1.7389 </r>
       <r>     4.8138     0.7158     1.7849 </r>
       <r>     4.8781     0.7172     1.8311 </r>
       <r>     4.9424     1.3219     1.9161 </r>
       <r>     5.0068     1.4199     2.0074 </r>
       <r>     5.0711     0.2496     2.0235 </r>
       <r>     5.1354    -0.0521     2.0201 </r>
       <r>     5.1997     0.3245     2.0410 </r>
       <r>     5.2640     1.5732     2.1422 </r>
       <r>     5.3284     1.2972     2.2256 </r>
       <r>     5.3927     1.0115     2.2907 </r>
       <r>     5.4570     0.2994     2.3099 </r>
       <r>     5.5213     0.5274     2.3438 </r>
       <r>     5.5856     0.7028     2.3890 </r>
       <r>     5.6499     1.5364     2.4878 </r>
       <r>     5.7143     0.7263     2.5346 </r>
       <r>     5.7786     0.7961     2.5858 </r>
       <r>     5.8429    -0.0006     2.5857 </r>
       <r>     5.9072     0.0506     2.5890 </r>
       <r>     5.9715     0.9815     2.6521 </r>
       <r>     6.0358     0.4194     2.6791 </r>
       <r>     6.1002     0.6204     2.7190 </r>
       <r>     6.1645     0.8696     2.7749 </r>
       <r>     6.2288     0.3116     2.7950 </r>
       <r>     6.2931    -0.0203     2.7936 </r>
       <r>     6.3574     0.0783     2.7987 </r>
       <r>     6.4217     0.2632     2.8156 </r>
       <r>     6.4861     0.0334     2.8178 </r>
       <r>     6.5504     0.1023     2.8243 </r>
       <r>     6.6147     0.3520     2.8470 </r>
       <r>     6.6790     0.1091     2.8540 </r>
       <r>     6.7433     0.2833     2.8722 </r>
       <r>     6.8076     0.0059     2.8726 </r>
       <r>     6.8720     0.6140     2.9121 </r>
       <r>     6.9363     0.1664     2.9228 </r>
       <r>     7.0006     0.4037     2.9488 </r>
       <r>     7.0649     0.3139     2.9689 </r>
       <r>     7.1292    -0.0180     2.9678 </r>
       <r>     7.1935     0.1357     2.9765 </r>
       <r>     7.2579     0.4091     3.0028 </r>
       <r>     7.3222     0.0769     3.0078 </r>
       <r>     7.3865     0.3980     3.0334 </r>
       <r>     7.4508     0.0430     3.0361 </r>
       <r>     7.5151     0.5107     3.0690 </r>
       <r>     7.5794     0.3016     3.0884 </r>
       <r>     7.6438     0.3011     3.1077 </r>
       <r>     7.7081     0.0062     3.1081 </r>
       <r>     7.7724    -0.0023     3.1080 </r>
       <r>     7.8367     0.0000     3.1080 </r>
       <r>     7.9010    -0.0015     3.1079 </r>
       <r>     7.9653    -0.0195     3.1067 </r>
       <r>     8.0297     0.4532     3.1358 </r>
       <r>     8.0940     0.6326     3.1765 </r>
       <r>     8.1583     0.8079     3.2285 </r>
       <r>     8.2226     0.3974     3.2540 </r>
       <r>     8.2869    -0.0468     3.2510 </r>
       <r>     8.3513     0.1798     3.2626 </r>
       <r>     8.4156     0.5812     3.2999 </r>
       <r>     8.4799     0.2110     3.3135 </r>
       <r>     8.5442     0.3048     3.3331 </r>
       <r>     8.6085     0.4121     3.3596 </r>
       <r>     8.6728     0.8720     3.4157 </r>
       <r>     8.7372     0.5463     3.4508 </r>
       <r>     8.8015     0.1008     3.4573 </r>
       <r>     8.8658     0.5675     3.4938 </r>
       <r>     8.9301     0.8963     3.5515 </r>
       <r>     8.9944     0.4646     3.5814 </r>
       <r>     9.0587     0.2617     3.5982 </r>
       <r>     9.1231     0.8946     3.6557 </r>
       <r>     9.1874     1.1804     3.7317 </r>
       <r>     9.2517     0.4185     3.7586 </r>
       <r>     9.3160     0.1567     3.7686 </r>
       <r>     9.3803     1.0228     3.8344 </r>
       <r>     9.4446     0.4907     3.8660 </r>
       <r>     9.5090     0.6210     3.9059 </r>
       <r>     9.5733     0.2950     3.9249 </r>
       <r>     9.6376     0.0626     3.9289 </r>
       <r>     9.7019     0.5816     3.9663 </r>
       <r>     9.7662     0.7965     4.0176 </r>
       <r>     9.8305     0.5974     4.0560 </r>
       <r>     9.8949     0.0920     4.0619 </r>
       <r>     9.9592     0.0956     4.0681 </r>
       <r>    10.0235     0.7733     4.1178 </r>
       <r>    10.0878     1.1114     4.1893 </r>
       <r>    10.1521     0.4240     4.2165 </r>
       <r>    10.2164     0.4795     4.2474 </r>
       <r>    10.2808     0.4657     4.2773 </r>
       <r>    10.3451     0.6535     4.3194 </r>
       <r>    10.4094     1.0365     4.3860 </r>
       <r>    10.4737     1.5599     4.4864 </r>
       <r>    10.5380     1.2468     4.5666 </r>
       <r>    10.6023     1.6498     4.6727 </r>
       <r>    10.6667     1.7529     4.7854 </r>
       <r>    10.7310     2.2165     4.9280 </r>
       <r>    10.7953     1.2600     5.0090 </r>
       <r>    10.8596     1.1055     5.0801 </r>
       <r>    10.9239     0.5556     5.1158 </r>
       <r>    10.9882     0.4012     5.1416 </r>
       <r>    11.0526    -0.0018     5.1415 </r>
       <r>    11.1169     0.2705     5.1589 </r>
       <r>    11.1812     0.1103     5.1660 </r>
       <r>    11.2455     0.2706     5.1834 </r>
       <r>    11.3098     0.1270     5.1916 </r>
       <r>    11.3742     0.1455     5.2009 </r>
       <r>    11.4385     0.1544     5.2109 </r>
       <r>    11.5028     0.1191     5.2185 </r>
       <r>    11.5671    -0.0133     5.2177 </r>
       <r>    11.6314     0.0471     5.2207 </r>
       <r>    11.6957     0.3098     5.2406 </r>
       <r>    11.7601     0.2417     5.2562 </r>
       <r>    11.8244     0.1648     5.2668 </r>
       <r>    11.8887    -0.0150     5.2658 </r>
       <r>    11.9530     0.0189     5.2670 </r>
       <r>    12.0173     0.3263     5.2880 </r>
       <r>    12.0816     0.0353     5.2903 </r>
       <r>    12.1460    -0.0063     5.2899 </r>
       <r>    12.2103    -0.0026     5.2897 </r>
       <r>    12.2746     0.3741     5.3138 </r>
       <r>    12.3389     0.1063     5.3206 </r>
       <r>    12.4032    -0.0096     5.3200 </r>
       <r>    12.4675    -0.0114     5.3193 </r>
       <r>    12.5319     0.1548     5.3292 </r>
       <r>    12.5962     0.2023     5.3422 </r>
       <r>    12.6605     0.4960     5.3741 </r>
       <r>    12.7248     1.3941     5.4638 </r>
       <r>    12.7891     0.4537     5.4930 </r>
       <r>    12.8534     0.6148     5.5325 </r>
       <r>    12.9178     0.8580     5.5877 </r>
       <r>    12.9821     0.4869     5.6190 </r>
       <r>    13.0464     0.1942     5.6315 </r>
       <r>    13.1107     0.5463     5.6666 </r>
       <r>    13.1750    -0.0073     5.6662 </r>
       <r>    13.2393    -0.0027     5.6660 </r>
       <r>    13.3037     0.0000     5.6660 </r>
       <r>    13.3680     0.0000     5.6660 </r>
       <r>    13.4323    -0.0002     5.6660 </r>
       <r>    13.4966    -0.0029     5.6658 </r>
       <r>    13.5609     0.0605     5.6697 </r>
       <r>    13.6252     0.0525     5.6731 </r>
       <r>    13.6896     0.3224     5.6938 </r>
       <r>    13.7539     0.0339     5.6960 </r>
       <r>    13.8182     0.1365     5.7048 </r>
       <r>    13.8825     0.0415     5.7074 </r>
       <r>    13.9468     0.2168     5.7214 </r>
       <r>    14.0111     0.1775     5.7328 </r>
       <r>    14.0755    -0.0122     5.7320 </r>
       <r>    14.1398    -0.0002     5.7320 </r>
       <r>    14.2041     0.0000     5.7320 </r>
       <r>    14.2684    -0.0026     5.7318 </r>
       <r>    14.3327    -0.0001     5.7318 </r>
       <r>    14.3971     0.4459     5.7605 </r>
       <r>    14.4614     0.0991     5.7669 </r>
       <r>    14.5257     0.3965     5.7924 </r>
       <r>    14.5900     0.7250     5.8390 </r>
       <r>    14.6543     0.0460     5.8420 </r>
       <r>    14.7186     0.0953     5.8481 </r>
       <r>    14.7830    -0.0010     5.8480 </r>
       <r>    14.8473    -0.0027     5.8479 </r>
       <r>    14.9116    -0.0150     5.8469 </r>
       <r>    14.9759     0.5343     5.8813 </r>
       <r>    15.0402     0.4583     5.9107 </r>
       <r>    15.1045     0.5374     5.9453 </r>
       <r>    15.1689    -0.0212     5.9439 </r>
       <r>    15.2332     0.0131     5.9448 </r>
       <r>    15.2975     0.3133     5.9649 </r>
       <r>    15.3618     0.2030     5.9780 </r>
       <r>    15.4261     0.2310     5.9928 </r>
       <r>    15.4904    -0.0146     5.9919 </r>
       <r>    15.5548     0.0199     5.9932 </r>
       <r>    15.6191     0.1053     6.0000 </r>
       <r>    15.6834     0.0014     6.0000 </r>
       <r>    15.7477    -0.0007     6.0000 </r>
       <r>    15.8120     0.0000     6.0000 </r>
       <r>    15.8763     0.0000     6.0000 </r>
       <r>    15.9407     0.0000     6.0000 </r>
       <r>    16.0050     0.0000     6.0000 </r>
       <r>    16.0693     0.0000     6.0000 </r>
       <r>    16.1336     0.0000     6.0000 </r>
       <r>    16.1979     0.0000     6.0000 </r>
       <r>    16.2622     0.0000     6.0000 </r>
       <r>    16.3266     0.0000     6.0000 </r>
       <r>    16.3909     0.0000     6.0000 </r>
       <r>    16.4552     0.0000     6.0000 </r>
      </set>
      <set comment="spin 2">
       <r>    -2.8399     0.0000     0.0000 </r>
       <r>    -2.7756     0.0000     0.0000 </r>
       <r>    -2.7113     0.0000     0.0000 </r>
       <r>    -2.6470     0.0000     0.0000 </r>
       <r>    -2.5826     0.0000     0.0000 </r>
       <r>    -2.5183     0.0000     0.0000 </r>
       <r>    -2.4540     0.0000     0.0000 </r>
       <r>    -2.3897     0.0000     0.0000 </r>
       <r>    -2.3254     0.0000     0.0000 </r>
       <r>    -2.2611     0.0000     0.0000 </r>
       <r>    -2.1967     0.0000     0.0000 </r>
       <r>    -2.1324     0.0000     0.0000 </r>
       <r>    -2.0681    -0.0005     0.0000 </r>
       <r>    -2.0038     0.0010     0.0000 </r>
       <r>    -1.9395     0.0790     0.0051 </r>
       <r>    -1.8752     0.0153     0.0061 </r>
       <r>    -1.8108    -0.0015     0.0060 </r>
       <r>    -1.7465     0.0000     0.0060 </r>
       <r>    -1.6822    -0.0001     0.0060 </r>
       <r>    -1.6179    -0.0038     0.0058 </r>
       <r>    -1.5536     0.0525     0.0091 </r>
       <r>    -1.4893     0.0801     0.0143 </r>
       <r>    -1.4249    -0.0041     0.0140 </r>
       <r>    -1.3606    -0.0002     0.0140 </r>
       <r>    -1.2963     0.0000     0.0140 </r>
       <r>    -1.2320    -0.0067     0.0136 </r>
       <r>    -1.1677     0.0721     0.0182 </r>
       <r>    -1.1034     0.3095     0.0381 </r>
       <r>    -1.0390     0.0001     0.0381 </r>
       <r>    -0.9747    -0.0018     0.0380 </r>
       <r>    -0.9104     0.0000     0.0380 </r>
       <r>    -0.8461     0.0000     0.0380 </r>
       <r>    -0.7818     0.0000     0.0380 </r>
       <r>    -0.7174     0.0000     0.0380 </r>
       <r>    -0.6531     0.0000     0.0380 </r>
       <r>    -0.5888     0.0000     0.0380 </r>
       <r>    -0.5245    -0.0030     0.0378 </r>
       <r>    -0.4602     0.0149     0.0388 </r>
       <r>    -0.3959     0.3373     0.0605 </r>
       <r>    -0.3315     0.1197     0.0682 </r>
       <r>    -0.2672    -0.0019     0.0680 </r>
       <r>    -0.2029    -0.0008     0.0680 </r>
       <r>    -0.1386    -0.0105     0.0673 </r>
       <r>    -0.0743     0.1360     0.0761 </r>
       <r>    -0.0100     0.2597     0.0928 </r>
       <r>     0.0544    -0.0119     0.0920 </r>
       <r>     0.1187    -0.0126     0.0912 </r>
       <r>     0.1830     0.2502     0.1073 </r>
       <r>     0.2473     0.1466     0.1167 </r>
       <r>     0.3116    -0.0110     0.1160 </r>
       <r>     0.3759    -0.0001     0.1160 </r>
       <r>     0.4403     0.0000     0.1160 </r>
       <r>     0.5046     0.0000     0.1160 </r>
       <r>     0.5689     0.0000     0.1160 </r>
       <r>     0.6332     0.0000     0.1160 </r>
       <r>     0.6975     0.0000     0.1160 </r>
       <r>     0.7618    -0.0076     0.1155 </r>
       <r>     0.8262     0.0576     0.1192 </r>
       <r>     0.8905     0.6193     0.1590 </r>
       <r>     0.9548     0.4767     0.1897 </r>
       <r>     1.0191    -0.0253     0.1881 </r>
       <r>     1.0834    -0.0015     0.1880 </r>
       <r>     1.1477    -0.0229     0.1865 </r>
       <r>     1.2121     0.2928     0.2053 </r>
       <r>     1.2764     0.8455     0.2597 </r>
       <r>     1.3407     0.0088     0.2603 </r>
       <r>     1.4050    -0.0141     0.2594 </r>
       <r>     1.4693     0.2702     0.2768 </r>
       <r>     1.5336     0.3277     0.2978 </r>
       <r>     1.5980     0.2974     0.3170 </r>
       <r>     1.6623     0.0526     0.3203 </r>
       <r>     1.7266    -0.0053     0.3200 </r>
       <r>     1.7909    -0.0047     0.3197 </r>
       <r>     1.8552     0.0017     0.3198 </r>
       <r>     1.9195     0.7475     0.3679 </r>
       <r>     1.9839     0.8770     0.4243 </r>
       <r>     2.0482     0.8217     0.4771 </r>
       <r>     2.1125     0.4225     0.5043 </r>
       <r>     2.1768     0.3108     0.5243 </r>
       <r>     2.2411     0.1606     0.5346 </r>
       <r>     2.3055     0.5984     0.5731 </r>
       <r>     2.3698     0.6130     0.6125 </r>
       <r>     2.4341     0.2197     0.6267 </r>
       <r>     2.4984     0.0755     0.6315 </r>
       <r>     2.5627     0.2931     0.6504 </r>
       <r>     2.6270    -0.0150     0.6494 </r>
       <r>     2.6914     0.2470     0.6653 </r>
       <r>     2.7557     0.4181     0.6922 </r>
       <r>     2.8200     1.5631     0.7927 </r>
       <r>     2.8843     0.8841     0.8496 </r>
       <r>     2.9486     0.6413     0.8908 </r>
       <r>     3.0129     0.1581     0.9010 </r>
       <r>     3.0773     0.0152     0.9020 </r>
       <r>     3.1416     0.9431     0.9626 </r>
       <r>     3.2059     0.7604     1.0115 </r>
       <r>     3.2702     0.3457     1.0338 </r>
       <r>     3.3345     0.0062     1.0342 </r>
       <r>     3.3988    -0.0043     1.0339 </r>
       <r>     3.4632     0.0141     1.0348 </r>
       <r>     3.5275     0.1075     1.0417 </r>
       <r>     3.5918    -0.0078     1.0412 </r>
       <r>     3.6561     0.2356     1.0564 </r>
       <r>     3.7204     0.4856     1.0876 </r>
       <r>     3.7847     0.6968     1.1324 </r>
       <r>     3.8491     0.2504     1.1485 </r>
       <r>     3.9134     0.2228     1.1628 </r>
       <r>     3.9777    -0.0157     1.1618 </r>
       <r>     4.0420     0.0250     1.1634 </r>
       <r>     4.1063     0.1494     1.1731 </r>
       <r>     4.1706     0.9865     1.2365 </r>
       <r>     4.2350     1.0984     1.3071 </r>
       <r>     4.2993     0.3965     1.3326 </r>
       <r>     4.3636     1.4705     1.4272 </r>
       <r>     4.4279     2.0335     1.5580 </r>
       <r>     4.4922     0.3877     1.5829 </r>
       <r>     4.5565     0.6460     1.6245 </r>
       <r>     4.6209     0.9656     1.6866 </r>
       <r>     4.6852     0.5654     1.7230 </r>
       <r>     4.7495     0.2478     1.7389 </r>
       <r>     4.8138     0.7158     1.7849 </r>
       <r>     4.8781     0.7172     1.8311 </r>
       <r>     4.9424     1.3219     1.9161 </r>
       <r>     5.0068     1.4199     2.0074 </r>
       <r>     5.0711     0.2496     2.0235 </r>
       <r>     5.1354    -0.0521     2.0201 </r>
       <r>     5.1997     0.3245     2.0410 </r>
       <r>     5.2640     1.5732     2.1422 </r>
       <r>     5.3284     1.2972     2.2256 </r>
       <r>     5.3927     1.0115     2.2907 </r>
       <r>     5.4570     0.2994     2.3099 </r>
       <r>     5.5213     0.5274     2.3438 </r>
       <r>     5.5856     0.7028     2.3890 </r>
       <r>     5.6499     1.5364     2.4878 </r>
       <r>     5.7143     0.7263     2.5346 </r>
       <r>     5.7786     0.7961     2.5858 </r>
       <r>     5.8429    -0.0006     2.5857 </r>
       <r>     5.9072     0.0506     2.5890 </r>
       <r>     5.9715     0.9815     2.6521 </r>
       <r>     6.0358     0.4194     2.6791 </r>
       <r>     6.1002     0.6204     2.7190 </r>
       <r>     6.1645     0.8696     2.7749 </r>
       <r>     6.2288     0.3116     2.7950 </r>
       <r>     6.2931    -0.0203     2.7936 </r>
       <r>     6.3574     0.0783     2.7987 </r>
       <r>     6.4217     0.2632     2.8156 </r>
       <r>     6.4861     0.0334     2.8178 </r>
       <r>     6.5504     0.1023     2.8243 </r>
       <r>     6.6147     0.3520     2.8470 </r>
       <r>     6.6790     0.1091     2.8540 </r>
       <r>     6.7433     0.2833     2.8722 </r>
       <r>     6.8076     0.0059     2.8726 </r>
       <r>     6.8720     0.6140     2.9121 </r>
       <r>     6.9363     0.1664     2.9228 </r>
       <r>     7.0006     0.4037     2.9488 </r>
       <r>     7.0649     0.3139     2.9689 </r>
       <r>     7.1292    -0.0180     2.9678 </r>
       <r>     7.1935     0.1357     2.9765 </r>
       <r>     7.2579     0.4091     3.0028 </r>
       <r>     7.3222     0.0769     3.0078 </r>
       <r>     7.3865     0.3980     3.0334 </r>
       <r>     7.4508     0.0430     3.0361 </r>
       <r>     7.5151     0.5107     3.0690 </r>
       <r>     7.5794     0.3016     3.0884 </r>
       <r>     7.6438     0.3011     3.1077 </r>
       <r>     7.7081     0.0062     3.1081 </r>
       <r>     7.7724    -0.0023     3.1080 </r>
       <r>     7.8367     0.0000     3.1080 </r>
       <r>     7.9010    -0.0015     3.1079 </r>
       <r>     7.9653    -0.0195     3.1067 </r>
       <r>     8.0297     0.4532     3.1358 </r>
       <r>     8.0940     0.6326     3.1765 </r>
       <r>     8.1583     0.8079     3.2285 </r>
       <r>     8.2226     0.3974     3.2540 </r>
       <r>     8.2869    -0.0468     3.2510 </r>
       <r>     8.3513     0.1798     3.2626 </r>
       <r>     8.4156     0.5812     3.2999 </r>
       <r>     8.4799     0.2110     3.3135 </r>
       <r>     8.5442     0.3048     3.3331 </r>
       <r>     8.6085     0.4121     3.3596 </r>
       <r>     8.6728     0.8720     3.4157 </r>
       <r>     8.7372     0.5463     3.4508 </r>
       <r>     8.8015     0.1008     3.4573 </r>
       <r>     8.8658     0.5675     3.4938 </r>
       <r>     8.9301     0.8963     3.5515 </r>
       <r>     8.9944     0.4646     3.5814 </r>
       <r>     9.0587     0.2617     3.5982 </r>
       <r>     9.1231     0.8946     3.6557 </r>
       <r>     9.1874     1.1804     3.7317 </r>
       <r>     9.2517     0.4185     3.7586 </r>
       <r>     9.3160     0.1567     3.7686 </r>
       <r>     9.3803     1.0228     3.8344 </r>
       <r>     9.4446     0.4907     3.8660 </r>
       <r>     9.5090     0.6210     3.9059 </r>
       <r>     9.5733     0.2950     3.9249 </r>
       <r>     9.6376     0.0626     3.9289 </r>
       <r>     9.7019     0.5816     3.9663 </r>
       <r>     9.7662     0.7965     4.0176 </r>
       <r>     9.8305     0.5974     4.0560 </r>
       <r>     9.8949     0.0920     4.0619 </r>
       <r>     9.9592     0.0956     4.0681 </r>
       <r>    10.0235     0.7733     4.1178 </r>
       <r>    10.0878     1.1114     4.1893 </r>
       <r>    10.1521     0.4240     4.2165 </r>
       <r>    10.2164     0.4795     4.2474 </r>
       <r>    10.2808     0.4657     4.2773 </r>
       <r>    10.3451     0.6535     4.3194 </r>
       <r>    10.4094     1.0365     4.3860 </r>
       <r>    10.4737     1.5599     4.4864 </r>
       <r>    10.5380     1.2468     4.5666 </r>
       <r>    10.6023     1.6498     4.6727 </r>
       <r>    10.6667     1.7529     4.7854 </r>
       <r>    10.7310     2.2165     4.9280 </r>
       <r>    10.7953     1.2600     5.0090 </r>
       <r>    10.8596     1.1055     5.0801 </r>
       <r>    10.9239     0.5556     5.1158 </r>
       <r>    10.9882     0.4012     5.1416 </r>
       <r>    11.0526    -0.0018     5.1415 </r>
       <r>    11.1169     0.2705     5.1589 </r>
       <r>    11.1812     0.1103     5.1660 </r>
       <r>    11.2455     0.2706     5.1834 </r>
       <r>    11.3098     0.1270     5.1916 </r>
       <r>    11.3742     0.1455     5.2009 </r>
       <r>    11.4385     0.1544     5.2109 </r>
       <r>    11.5028     0.1191     5.2185 </r>
       <r>    11.5671    -0.0133     5.2177 </r>
       <r>    11.6314     0.0471     5.2207 </r>
       <r>    11.6957     0.3098     5.2406 </r>
       <r>    11.7601     0.2417     5.2562 </r>
       <r>    11.8244     0.1648     5.2668 </r>
       <r>    11.8887    -0.0150     5.2658 </r>
       <r>    11.9530     0.0189     5.2670 </r>
       <r>    12.0173     0.3263     5.2880 </r>
       <r>    12.0816     0.0353     5.2903 </r>
       <r>    12.1460    -0.0063     5.2899 </r>
       <r>    12.2103    -0.0026     5.2897 </r>
       <r>    12.2746     0.3741     5.3138 </r>
       <r>    12.3389     0.1063     5.3206 </r>
       <r>    12.4032    -0.0096     5.3200 </r>
       <r>    12.4675    -0.0114     5.3193 </r>
       <r>    12.5319     0.1548     5.3292 </r>
       <r>    12.5962     0.2023     5.3422 </r>
       <r>    12.6605     0.4960     5.3741 </r>
       <r>    12.7248     1.3941     5.4638 </r>
       <r>    12.7891     0.4537     5.4930 </r>
       <r>    12.8534     0.6148     5.5325 </r>
       <r>    12.9178     0.8580     5.5877 </r>
       <r>    12.9821     0.4869     5.6190 </r>
       <r>    13.0464     0.1942     5.6315 </r>
       <r>    13.1107     0.5463     5.6666 </r>
       <r>    13.1750    -0.0073     5.6662 </r>
       <r>    13.2393    -0.0027     5.6660 </r>
       <r>    13.3037     0.0000     5.6660 </r>
       <r>    13.3680     0.0000     5.6660 </r>
       <r>    13.4323    -0.0002     5.6660 </r>
       <r>    13.4966    -0.0029     5.6658 </r>
       <r>    13.5609     0.0605     5.6697 </r>
       <r>    13.6252     0.0525     5.6731 </r>
       <r>    13.6896     0.3224     5.6938 </r>
       <r>    13.7539     0.0339     5.6960 </r>
       <r>    13.8182     0.1365     5.7048 </r>
       <r>    13.8825     0.0415     5.7074 </r>
       <r>    13.9468     0.2168     5.7214 </r>
       <r>    14.0111     0.1775     5.7328 </r>
       <r>    14.0755    -0.0122     5.7320 </r>
       <r>    14.1398    -0.0002     5.7320 </r>
       <r>    14.2041     0.0000     5.7320 </r>
       <r>    14.2684    -0.0026     5.7318 </r>
       <r>    14.3327    -0.0001     5.7318 </r>
       <r>    14.3971     0.4459     5.7605 </r>
       <r>    14.4614     0.0991     5.7669 </r>
       <r>    14.5257     0.3965     5.7924 </r>
       <r>    14.5900     0.7250     5.8390 </r>
       <r>    14.6543     0.0460     5.8420 </r>
       <r>    14.7186     0.0953     5.8481 </r>
       <r>    14.7830    -0.0010     5.8480 </r>
       <r>    14.8473    -0.0027     5.8479 </r>
       <r>    14.9116    -0.0150     5.8469 </r>
       <r>    14.9759     0.5343     5.8813 </r>
       <r>    15.0402     0.4583     5.9107 </r>
       <r>    15.1045     0.5374     5.9453 </r>
       <r>    15.1689    -0.0212     5.9439 </r>
       <r>    15.2332     0.0131     5.9448 </r>
       <r>    15.2975     0.3133     5.9649 </r>
       <r>    15.3618     0.2030     5.9780 </r>
       <r>    15.4261     0.2310     5.9928 </r>
       <r>    15.4904    -0.0146     5.9919 </r>
       <r>    15.5548     0.0199     5.9932 </r>
       <r>    15.6191     0.1053     6.0000 </r>
       <r>    15.6834     0.0014     6.0000 </r>
       <r>    15.7477    -0.0007     6.0000 </r>
       <r>    15.8120     0.0000     6.0000 </r>
       <r>    15.8763     0.0000     6.0000 </r>
       <r>    15.9407     0.0000     6.0000 </r>
       <r>    16.0050     0.0000     6.0000 </r>
       <r>    16.0693     0.0000     6.0000 </r>
       <r>    16.1336     0.0000     6.0000 </r>
       <r>    16.1979     0.0000     6.0000 </r>
       <r>    16.2622     0.0000     6.0000 </r>
       <r>    16.3266     0.0000     6.0000 </r>
       <r>    16.3909     0.0000     6.0000 </r>
       <r>    16.4552     0.0000     6.0000 </r>
      </set>
     </set>
    </array>
   </total>
  </dos>
 </calculation>
 <structure name="finalpos" >
  <crystal>
   <varray name="basis" >
    <v>       2.86654409       0.00000000       0.00000000 </v>
    <v>      -0.95551470       2.70260368       0.00000000 </v>
    <v>      -0.95551470      -1.35130184       2.34052345 </v>
   </varray>
   <i name="volume">     18.13234550 </i>
   <varray name="rec_basis" >
    <v>       0.34885213       0.12333785       0.21362743 </v>
    <v>       0.00000000       0.37001356       0.21362743 </v>
    <v>       0.00000000       0.00000000       0.42725485 </v>
   </varray>
  </crystal>
  <varray name="positions" >
   <v>       0.00000000       0.00000000       0.00000000 </v>
  </varray>
 </structure>
</modeling>
