   4   4   1   0
  0.8797333E+01  0.2461200E-09  0.2461200E-09  0.6707900E-09  0.5000000E-15
  1.000000000000000E-004
  CAR 
 unknown system                          
     18.41146315    -16.97597651  301      3.43432644      1.00000000
    -16.976  0.0000E+00  0.0000E+00  0.0000E+00  0.0000E+00
    -16.858  0.0000E+00  0.0000E+00  0.0000E+00  0.0000E+00
    -16.740  0.0000E+00  0.0000E+00  0.0000E+00  0.0000E+00
    -16.622  0.0000E+00  0.0000E+00  0.0000E+00  0.0000E+00
    -16.504  0.0000E+00  0.0000E+00  0.0000E+00  0.0000E+00
    -16.386  0.0000E+00  0.0000E+00  0.0000E+00  0.0000E+00
    -16.268  0.0000E+00  0.0000E+00  0.0000E+00  0.0000E+00
    -16.150  0.0000E+00  0.0000E+00  0.0000E+00  0.0000E+00
    -16.032  0.0000E+00  0.0000E+00  0.0000E+00  0.0000E+00
    -15.914  0.0000E+00  0.0000E+00  0.0000E+00  0.0000E+00
    -15.796 -0.1025E-34 -0.7605E-35 -0.1209E-35 -0.8971E-36
    -15.678 -0.1235E-19 -0.9949E-20 -0.1457E-20 -0.1174E-20
    -15.560 -0.1934E-09 -0.1694E-09 -0.2282E-10 -0.1999E-10
    -15.443 -0.2783E-04 -0.2676E-04 -0.3283E-05 -0.3157E-05
    -15.325  0.1625E-02  0.1602E-02  0.1884E-03  0.1858E-03
    -15.207  0.2349E-02  0.2348E-02  0.4655E-03  0.4628E-03
    -15.089  0.1304E-02  0.1332E-02  0.6193E-03  0.6199E-03
    -14.971  0.6943E-02  0.6791E-02  0.1438E-02  0.1421E-02
    -14.853  0.1480E-01  0.1482E-01  0.3184E-02  0.3169E-02
    -14.735  0.1030E-01  0.1043E-01  0.4399E-02  0.4399E-02
    -14.617 -0.2002E-03 -0.2069E-03  0.4375E-02  0.4375E-02
    -14.499 -0.2414E-08 -0.2751E-08  0.4375E-02  0.4375E-02
    -14.381 -0.6903E-05 -0.6380E-05  0.4374E-02  0.4374E-02
    -14.263  0.2309E-02  0.2197E-02  0.4647E-02  0.4633E-02
    -14.145  0.1641E-01  0.1642E-01  0.6583E-02  0.6570E-02
    -14.027  0.1338E-01  0.1348E-01  0.8161E-02  0.8161E-02
    -13.909  0.6549E-03  0.5815E-03  0.8238E-02  0.8229E-02
    -13.791  0.1662E-01  0.1660E-01  0.1020E-01  0.1019E-01
    -13.673  0.1447E-01  0.1456E-01  0.1191E-01  0.1190E-01
    -13.555 -0.2553E-03 -0.2430E-03  0.1188E-01  0.1188E-01
    -13.437 -0.1125E-06 -0.1253E-06  0.1188E-01  0.1188E-01
    -13.319 -0.1187E-15 -0.1438E-15  0.1188E-01  0.1188E-01
    -13.201 -0.1347E-28 -0.1032E-28  0.1188E-01  0.1188E-01
    -13.083 -0.5674E-15 -0.4711E-15  0.1187E-01  0.1187E-01
    -12.965 -0.3112E-06 -0.2805E-06  0.1187E-01  0.1187E-01
    -12.847 -0.4849E-03 -0.5145E-03  0.1182E-01  0.1181E-01
    -12.729  0.3163E-01  0.3144E-01  0.1555E-01  0.1552E-01
    -12.612  0.3247E-01  0.3262E-01  0.1938E-01  0.1937E-01
    -12.494 -0.2782E-04  0.3980E-04  0.1938E-01  0.1938E-01
    -12.376 -0.7927E-06 -0.8754E-06  0.1938E-01  0.1938E-01
    -12.258 -0.9167E-07 -0.8242E-07  0.1937E-01  0.1937E-01
    -12.140 -0.3145E-03 -0.3222E-03  0.1934E-01  0.1934E-01
    -12.022  0.1583E-01  0.1572E-01  0.2121E-01  0.2119E-01
    -11.904  0.1644E-01  0.1653E-01  0.2314E-01  0.2314E-01
    -11.786 -0.1644E-03 -0.1406E-03  0.2313E-01  0.2313E-01
    -11.668 -0.2401E-06 -0.2659E-06  0.2313E-01  0.2313E-01
    -11.550 -0.6172E-15 -0.7421E-15  0.2312E-01  0.2312E-01
    -11.432 -0.2275E-26 -0.1774E-26  0.2312E-01  0.2312E-01
    -11.314 -0.1611E-13 -0.1359E-13  0.2312E-01  0.2312E-01
    -11.196 -0.1432E-05 -0.1310E-05  0.2312E-01  0.2312E-01
    -11.078  0.6245E-03  0.5589E-03  0.2320E-01  0.2319E-01
    -10.960  0.1972E-01  0.1964E-01  0.2553E-01  0.2551E-01
    -10.842  0.1162E-01  0.1178E-01  0.2690E-01  0.2690E-01
    -10.724  0.7345E-02  0.7044E-02  0.2776E-01  0.2773E-01
    -10.606  0.4471E-01  0.4467E-01  0.3304E-01  0.3300E-01
    -10.488  0.1141E-01  0.1175E-01  0.3438E-01  0.3438E-01
    -10.370 -0.6830E-04 -0.7279E-04  0.3438E-01  0.3438E-01
    -10.252 -0.3817E-08 -0.3362E-08  0.3437E-01  0.3437E-01
    -10.134 -0.2017E-03 -0.1958E-03  0.3435E-01  0.3435E-01
    -10.016  0.1089E-01  0.1073E-01  0.3564E-01  0.3562E-01
     -9.898  0.5243E-02  0.5399E-02  0.3625E-01  0.3625E-01
     -9.781 -0.3719E-04 -0.3961E-04  0.3625E-01  0.3625E-01
     -9.663 -0.2143E-10 -0.2499E-10  0.3625E-01  0.3625E-01
     -9.545 -0.1532E-33 -0.1139E-33  0.3625E-01  0.3625E-01
     -9.427 -0.1676E-18 -0.1354E-18  0.3625E-01  0.3625E-01
     -9.309 -0.2347E-08 -0.2060E-08  0.3625E-01  0.3625E-01
     -9.191 -0.3113E-03 -0.2994E-03  0.3621E-01  0.3621E-01
     -9.073  0.2002E-01  0.1969E-01  0.3857E-01  0.3854E-01
     -8.955  0.2527E-01  0.2549E-01  0.4155E-01  0.4154E-01
     -8.837  0.2726E-02  0.2826E-02  0.4188E-01  0.4188E-01
     -8.719 -0.1018E-04 -0.1080E-04  0.4188E-01  0.4188E-01
     -8.601 -0.1098E-11 -0.1248E-11  0.4188E-01  0.4188E-01
     -8.483 -0.2235E-14 -0.1901E-14  0.4187E-01  0.4187E-01
     -8.365 -0.7987E-06 -0.7306E-06  0.4187E-01  0.4187E-01
     -8.247 -0.2318E-03 -0.3043E-03  0.4185E-01  0.4184E-01
     -8.129  0.3294E-01  0.3302E-01  0.4573E-01  0.4573E-01
     -8.011 -0.9168E-03 -0.9246E-03  0.4563E-01  0.4563E-01
     -7.893 -0.3344E-03 -0.3215E-03  0.4559E-01  0.4559E-01
     -7.775  0.2485E-01  0.2445E-01  0.4852E-01  0.4847E-01
     -7.657  0.3993E-01  0.4032E-01  0.5323E-01  0.5323E-01
     -7.539 -0.8664E-03 -0.8699E-03  0.5313E-01  0.5313E-01
     -7.421 -0.7405E-07 -0.8173E-07  0.5312E-01  0.5312E-01
     -7.303  0.0000E+00  0.0000E+00  0.5312E-01  0.5312E-01
     -7.185  0.0000E+00  0.0000E+00  0.5312E-01  0.5312E-01
     -7.067  0.0000E+00  0.0000E+00  0.5312E-01  0.5312E-01
     -6.950 -0.1399E-36 -0.1082E-36  0.5312E-01  0.5312E-01
     -6.832 -0.9858E-21 -0.8163E-21  0.5312E-01  0.5312E-01
     -6.714 -0.9049E-10 -0.8027E-10  0.5312E-01  0.5312E-01
     -6.596 -0.8923E-04 -0.8514E-04  0.5311E-01  0.5311E-01
     -6.478  0.9859E-02  0.9662E-02  0.5428E-01  0.5425E-01
     -6.360  0.2175E-01  0.2195E-01  0.5684E-01  0.5684E-01
     -6.242  0.3028E-01  0.3012E-01  0.6041E-01  0.6040E-01
     -6.124  0.1788E-02  0.1942E-02  0.6063E-01  0.6063E-01
     -6.006 -0.4113E-05 -0.4457E-05  0.6063E-01  0.6063E-01
     -5.888 -0.6972E-13 -0.8154E-13  0.6062E-01  0.6062E-01
     -5.770 -0.3530E-13 -0.3146E-13  0.6062E-01  0.6062E-01
     -5.652 -0.2665E-05 -0.2511E-05  0.6062E-01  0.6062E-01
     -5.534  0.1048E-02  0.9716E-03  0.6075E-01  0.6074E-01
     -5.416  0.3108E-01  0.3113E-01  0.6441E-01  0.6441E-01
     -5.298 -0.3346E-03 -0.3089E-03  0.6438E-01  0.6438E-01
     -5.180 -0.4458E-06 -0.4772E-06  0.6438E-01  0.6438E-01
     -5.062 -0.1143E-13 -0.1020E-13  0.6437E-01  0.6437E-01
     -4.944 -0.1862E-05 -0.1720E-05  0.6437E-01  0.6437E-01
     -4.826  0.9832E-04 -0.7433E-06  0.6439E-01  0.6437E-01
     -4.708  0.7373E-01  0.7341E-01  0.7308E-01  0.7303E-01
     -4.590  0.2173E-01  0.2216E-01  0.7565E-01  0.7565E-01
     -4.472 -0.1837E-03 -0.1904E-03  0.7563E-01  0.7563E-01
     -4.354 -0.2126E-09 -0.2329E-09  0.7562E-01  0.7562E-01
     -4.236 -0.5686E-08 -0.5535E-08  0.7562E-01  0.7562E-01
     -4.119 -0.1244E-04 -0.1257E-04  0.7562E-01  0.7562E-01
     -4.001  0.9123E-03  0.9108E-03  0.7573E-01  0.7573E-01
     -3.883  0.4218E-03  0.4209E-03  0.7578E-01  0.7578E-01
     -3.765  0.3301E-03  0.3327E-03  0.7582E-01  0.7582E-01
     -3.647  0.6829E-03  0.6765E-03  0.7590E-01  0.7590E-01
     -3.529  0.5980E-02  0.5985E-02  0.7661E-01  0.7661E-01
     -3.411  0.3576E-02  0.3566E-02  0.7703E-01  0.7703E-01
     -3.293  0.4319E-03  0.4617E-03  0.7708E-01  0.7708E-01
     -3.175  0.5459E-01  0.5380E-01  0.8352E-01  0.8343E-01
     -3.057  0.4637E-01  0.4716E-01  0.8899E-01  0.8899E-01
     -2.939  0.2505E-02  0.2476E-02  0.8928E-01  0.8928E-01
     -2.821  0.1572E-02  0.1584E-02  0.8947E-01  0.8947E-01
     -2.703  0.3348E-02  0.3328E-02  0.8986E-01  0.8986E-01
     -2.585  0.8083E-02  0.8098E-02  0.9082E-01  0.9082E-01
     -2.467  0.2507E-02  0.2461E-02  0.9111E-01  0.9111E-01
     -2.349  0.7192E-01  0.7192E-01  0.9960E-01  0.9959E-01
     -2.231  0.7371E-02  0.7406E-02  0.1005E+00  0.1005E+00
     -2.113  0.2462E-01  0.2460E-01  0.1034E+00  0.1034E+00
     -1.995  0.1086E-01  0.1066E-01  0.1047E+00  0.1046E+00
     -1.877  0.2881E-01  0.2908E-01  0.1081E+00  0.1081E+00
     -1.759  0.3583E-01  0.3572E-01  0.1123E+00  0.1123E+00
     -1.641  0.3905E-02  0.3982E-02  0.1127E+00  0.1127E+00
     -1.523  0.4575E-02  0.4580E-02  0.1133E+00  0.1133E+00
     -1.406  0.2225E-02  0.2201E-02  0.1135E+00  0.1135E+00
     -1.288  0.7738E-02  0.7764E-02  0.1145E+00  0.1145E+00
     -1.170  0.9322E-03  0.9210E-03  0.1146E+00  0.1146E+00
     -1.052  0.3119E-02  0.3126E-02  0.1149E+00  0.1149E+00
     -0.934  0.1680E-01  0.1671E-01  0.1169E+00  0.1169E+00
     -0.816  0.4834E-01  0.4823E-01  0.1226E+00  0.1226E+00
     -0.698  0.2507E-01  0.2527E-01  0.1256E+00  0.1256E+00
     -0.580  0.7211E-02  0.7218E-02  0.1264E+00  0.1264E+00
     -0.462  0.3900E-03  0.3734E-03  0.1265E+00  0.1265E+00
     -0.344  0.7550E-02  0.7566E-02  0.1274E+00  0.1274E+00
     -0.226  0.7493E-03  0.7018E-03  0.1274E+00  0.1274E+00
     -0.108  0.4655E-01  0.4658E-01  0.1329E+00  0.1329E+00
      0.010  0.2557E-02  0.2560E-02  0.1332E+00  0.1332E+00
      0.128  0.1134E-01  0.1135E-01  0.1346E+00  0.1346E+00
      0.246  0.9266E-02  0.9248E-02  0.1357E+00  0.1357E+00
      0.364  0.7025E-02  0.7046E-02  0.1365E+00  0.1365E+00
      0.482  0.2847E-02  0.2690E-02  0.1368E+00  0.1368E+00
      0.600  0.3343E-01  0.3360E-01  0.1408E+00  0.1408E+00
      0.718 -0.2300E-03 -0.2521E-03  0.1408E+00  0.1408E+00
      0.836  0.3505E-02  0.3513E-02  0.1412E+00  0.1412E+00
      0.954  0.5830E-02  0.5820E-02  0.1419E+00  0.1419E+00
      1.072  0.6203E-02  0.6212E-02  0.1426E+00  0.1426E+00
      1.190  0.5528E-02  0.5460E-02  0.1432E+00  0.1432E+00
      1.308  0.2470E-01  0.2475E-01  0.1462E+00  0.1461E+00
      1.425  0.7920E-02  0.7940E-02  0.1471E+00  0.1471E+00
      1.543  0.1245E-01  0.1244E-01  0.1486E+00  0.1486E+00
      1.661  0.7552E-02  0.7511E-02  0.1494E+00  0.1494E+00
      1.779  0.1028E-01  0.1032E-01  0.1507E+00  0.1507E+00
      1.897  0.1353E-01  0.1352E-01  0.1523E+00  0.1523E+00
      2.015  0.1284E-01  0.1282E-01  0.1538E+00  0.1538E+00
      2.133  0.2033E-01  0.2035E-01  0.1562E+00  0.1562E+00
      2.251  0.7253E-03  0.7438E-03  0.1563E+00  0.1563E+00
      2.369 -0.2462E-05 -0.2520E-05  0.1563E+00  0.1563E+00
      2.487 -0.7101E-13 -0.7438E-13  0.1562E+00  0.1562E+00
      2.605 -0.4598E-19 -0.4353E-19  0.1562E+00  0.1562E+00
      2.723 -0.6390E-09 -0.6181E-09  0.1562E+00  0.1562E+00
      2.841 -0.8747E-04 -0.8659E-04  0.1562E+00  0.1562E+00
      2.959  0.5159E-02  0.5142E-02  0.1568E+00  0.1568E+00
      3.077  0.5519E-02  0.5526E-02  0.1575E+00  0.1575E+00
      3.195  0.4608E-02  0.4604E-02  0.1580E+00  0.1580E+00
      3.313  0.5653E-02  0.5652E-02  0.1587E+00  0.1587E+00
      3.431  0.1083E-01  0.1083E-01  0.1600E+00  0.1600E+00
      3.549  0.1115E-03  0.1198E-03  0.1600E+00  0.1600E+00
      3.667 -0.4229E-06 -0.4339E-06  0.1600E+00  0.1600E+00
      3.785 -0.2301E-14 -0.2413E-14  0.1600E+00  0.1600E+00
      3.903  0.0000E+00  0.0000E+00  0.1600E+00  0.1600E+00
      4.021  0.0000E+00  0.0000E+00  0.1600E+00  0.1600E+00
      4.139  0.0000E+00  0.0000E+00  0.1600E+00  0.1600E+00
      4.256  0.0000E+00  0.0000E+00  0.1600E+00  0.1600E+00
      4.374  0.0000E+00  0.0000E+00  0.1600E+00  0.1600E+00
      4.492  0.0000E+00  0.0000E+00  0.1600E+00  0.1600E+00
      4.610  0.0000E+00  0.0000E+00  0.1600E+00  0.1600E+00
      4.728 -0.1798E-35 -0.1665E-35  0.1600E+00  0.1600E+00
      4.846 -0.6961E-20 -0.6582E-20  0.1600E+00  0.1600E+00
      4.964 -0.3548E-09 -0.3425E-09  0.1600E+00  0.1600E+00
      5.082 -0.1931E-03 -0.1906E-03  0.1600E+00  0.1600E+00
      5.200  0.1682E-01  0.1675E-01  0.1620E+00  0.1620E+00
      5.318  0.1520E-01  0.1526E-01  0.1638E+00  0.1638E+00
      5.436 -0.3109E-04 -0.2621E-04  0.1638E+00  0.1638E+00
      5.554 -0.2662E-06 -0.2722E-06  0.1637E+00  0.1637E+00
      5.672 -0.1561E-03 -0.1558E-03  0.1637E+00  0.1637E+00
      5.790  0.5898E-02  0.5890E-02  0.1644E+00  0.1644E+00
      5.908  0.2801E-02  0.2804E-02  0.1648E+00  0.1648E+00
      6.026  0.1774E-02  0.1773E-02  0.1650E+00  0.1650E+00
      6.144  0.1248E-02  0.1249E-02  0.1651E+00  0.1651E+00
      6.262  0.1935E-01  0.1932E-01  0.1674E+00  0.1674E+00
      6.380  0.1249E-01  0.1252E-01  0.1689E+00  0.1689E+00
      6.498  0.8212E-02  0.8216E-02  0.1698E+00  0.1698E+00
      6.616  0.7653E-02  0.7649E-02  0.1707E+00  0.1707E+00
      6.734  0.7973E-02  0.7967E-02  0.1717E+00  0.1717E+00
      6.852  0.1675E-01  0.1673E-01  0.1737E+00  0.1737E+00
      6.970  0.8065E-02  0.8078E-02  0.1746E+00  0.1746E+00
      7.087  0.5418E-02  0.5421E-02  0.1752E+00  0.1752E+00
      7.205  0.6647E-02  0.6638E-02  0.1760E+00  0.1760E+00
      7.323  0.7309E-02  0.7328E-02  0.1769E+00  0.1769E+00
      7.441 -0.1630E-03 -0.1640E-03  0.1769E+00  0.1769E+00
      7.559 -0.2399E-05 -0.2356E-05  0.1769E+00  0.1769E+00
      7.677  0.9749E-03  0.9625E-03  0.1770E+00  0.1770E+00
      7.795  0.8521E-02  0.8528E-02  0.1780E+00  0.1780E+00
      7.913  0.4388E-02  0.4391E-02  0.1785E+00  0.1785E+00
      8.031  0.3497E-02  0.3491E-02  0.1789E+00  0.1789E+00
      8.149  0.2435E-02  0.2430E-02  0.1792E+00  0.1792E+00
      8.267  0.3185E-02  0.3189E-02  0.1796E+00  0.1796E+00
      8.385  0.5945E-02  0.5940E-02  0.1803E+00  0.1803E+00
      8.503  0.3861E-02  0.3878E-02  0.1807E+00  0.1807E+00
      8.621  0.1719E-02  0.1715E-02  0.1809E+00  0.1809E+00
      8.739  0.1421E-02  0.1415E-02  0.1811E+00  0.1811E+00
      8.857  0.3494E-02  0.3504E-02  0.1815E+00  0.1815E+00
      8.975 -0.3161E-04 -0.3192E-04  0.1815E+00  0.1815E+00
      9.093 -0.5804E-04 -0.5727E-04  0.1815E+00  0.1815E+00
      9.211  0.9238E-02  0.9186E-02  0.1826E+00  0.1826E+00
      9.329  0.1869E-01  0.1871E-01  0.1848E+00  0.1848E+00
      9.447  0.1053E-01  0.1054E-01  0.1861E+00  0.1861E+00
      9.565  0.1215E-01  0.1215E-01  0.1875E+00  0.1875E+00
      9.683  0.1969E-01  0.1967E-01  0.1898E+00  0.1898E+00
      9.801  0.3936E-02  0.3974E-02  0.1903E+00  0.1903E+00
      9.918  0.2230E-02  0.2221E-02  0.1905E+00  0.1905E+00
     10.036  0.3598E-02  0.3608E-02  0.1910E+00  0.1910E+00
     10.154  0.8053E-02  0.8047E-02  0.1919E+00  0.1919E+00
     10.272  0.2657E-04  0.3155E-04  0.1919E+00  0.1919E+00
     10.390  0.4011E-03  0.3997E-03  0.1920E+00  0.1920E+00
     10.508  0.1497E-02  0.1490E-02  0.1921E+00  0.1921E+00
     10.626  0.2761E-02  0.2770E-02  0.1925E+00  0.1925E+00
     10.744 -0.1969E-03 -0.1991E-03  0.1924E+00  0.1924E+00
     10.862  0.8379E-02  0.8382E-02  0.1934E+00  0.1934E+00
     10.980 -0.3327E-03 -0.3325E-03  0.1934E+00  0.1934E+00
     11.098  0.3866E-02  0.3861E-02  0.1938E+00  0.1938E+00
     11.216  0.1460E-03  0.1473E-03  0.1939E+00  0.1939E+00
     11.334  0.8643E-02  0.8624E-02  0.1949E+00  0.1949E+00
     11.452  0.1070E-01  0.1069E-01  0.1961E+00  0.1961E+00
     11.570  0.2046E-01  0.2045E-01  0.1986E+00  0.1986E+00
     11.688  0.2235E-01  0.2223E-01  0.2012E+00  0.2012E+00
     11.806  0.2247E-01  0.2255E-01  0.2038E+00  0.2038E+00
     11.924  0.2355E-01  0.2363E-01  0.2066E+00  0.2066E+00
     12.042  0.3356E-02  0.3345E-02  0.2070E+00  0.2070E+00
     12.160  0.3877E-03  0.3664E-03  0.2071E+00  0.2071E+00
     12.278  0.1452E-01  0.1456E-01  0.2088E+00  0.2088E+00
     12.396  0.2198E-01  0.2180E-01  0.2114E+00  0.2113E+00
     12.514  0.2862E-01  0.2871E-01  0.2147E+00  0.2147E+00
     12.632  0.3955E-01  0.3954E-01  0.2194E+00  0.2194E+00
     12.749  0.2033E-01  0.2045E-01  0.2218E+00  0.2218E+00
     12.867  0.1045E-02  0.1020E-02  0.2219E+00  0.2219E+00
     12.985  0.6076E-02  0.6090E-02  0.2226E+00  0.2226E+00
     13.103  0.2049E-01  0.2036E-01  0.2251E+00  0.2251E+00
     13.221  0.2864E-01  0.2867E-01  0.2284E+00  0.2284E+00
     13.339  0.2709E-01  0.2704E-01  0.2316E+00  0.2316E+00
     13.457  0.3619E-01  0.3619E-01  0.2359E+00  0.2359E+00
     13.575  0.2885E-01  0.2898E-01  0.2393E+00  0.2393E+00
     13.693  0.3745E-01  0.3723E-01  0.2437E+00  0.2437E+00
     13.811  0.1141E-01  0.1165E-01  0.2451E+00  0.2451E+00
     13.929  0.4066E-02  0.4063E-02  0.2456E+00  0.2456E+00
     14.047  0.1000E-01  0.9794E-02  0.2467E+00  0.2467E+00
     14.165  0.3559E-01  0.3579E-01  0.2509E+00  0.2509E+00
     14.283  0.2012E-01  0.2013E-01  0.2533E+00  0.2533E+00
     14.401  0.3042E-02  0.3046E-02  0.2537E+00  0.2537E+00
     14.519  0.9358E-02  0.9350E-02  0.2548E+00  0.2548E+00
     14.637  0.3272E-02  0.3277E-02  0.2552E+00  0.2552E+00
     14.755  0.4028E-02  0.4019E-02  0.2556E+00  0.2556E+00
     14.873  0.1314E-01  0.1313E-01  0.2572E+00  0.2572E+00
     14.991  0.2048E-01  0.2048E-01  0.2596E+00  0.2596E+00
     15.109  0.1381E-01  0.1382E-01  0.2612E+00  0.2612E+00
     15.227  0.4400E-03  0.4424E-03  0.2613E+00  0.2613E+00
     15.345  0.9797E-02  0.9785E-02  0.2624E+00  0.2624E+00
     15.463  0.1376E-01  0.1377E-01  0.2641E+00  0.2641E+00
     15.580  0.1415E-01  0.1414E-01  0.2657E+00  0.2657E+00
     15.698  0.3547E-02  0.3553E-02  0.2661E+00  0.2661E+00
     15.816  0.1066E-01  0.1065E-01  0.2674E+00  0.2674E+00
     15.934  0.1314E-01  0.1313E-01  0.2690E+00  0.2689E+00
     16.052  0.4298E-02  0.4318E-02  0.2695E+00  0.2695E+00
     16.170  0.7326E-02  0.7282E-02  0.2703E+00  0.2703E+00
     16.288  0.1492E-01  0.1495E-01  0.2721E+00  0.2721E+00
     16.406  0.1773E-01  0.1767E-01  0.2742E+00  0.2742E+00
     16.524  0.1646E-01  0.1645E-01  0.2761E+00  0.2761E+00
     16.642  0.1934E-01  0.1943E-01  0.2784E+00  0.2784E+00
     16.760  0.5889E-02  0.5877E-02  0.2791E+00  0.2791E+00
     16.878  0.7907E-02  0.7925E-02  0.2800E+00  0.2800E+00
     16.996 -0.2009E-03 -0.2039E-03  0.2800E+00  0.2800E+00
     17.114 -0.1942E-08 -0.2084E-08  0.2800E+00  0.2800E+00
     17.232  0.0000E+00  0.0000E+00  0.2800E+00  0.2800E+00
     17.350  0.0000E+00  0.0000E+00  0.2800E+00  0.2800E+00
     17.468  0.0000E+00  0.0000E+00  0.2800E+00  0.2800E+00
     17.586  0.0000E+00  0.0000E+00  0.2800E+00  0.2800E+00
     17.704  0.0000E+00  0.0000E+00  0.2800E+00  0.2800E+00
     17.822  0.0000E+00  0.0000E+00  0.2800E+00  0.2800E+00
     17.940  0.0000E+00  0.0000E+00  0.2800E+00  0.2800E+00
     18.058  0.0000E+00  0.0000E+00  0.2800E+00  0.2800E+00
     18.176  0.0000E+00  0.0000E+00  0.2800E+00  0.2800E+00
     18.294  0.0000E+00  0.0000E+00  0.2800E+00  0.2800E+00
     18.411  0.0000E+00  0.0000E+00  0.2800E+00  0.2800E+00
     18.41146315    -16.97597651  301      3.43432644      1.00000000
    -16.976  0.0000E+00  0.0000E+00  0.0000E+00  0.0000E+00  0.0000E+00  0.0000E+00  0.0000E+00  0.0000E+00  0.0000E+00  0.0000E+00  0.0000E+00  0.0000E+00  0.0000E+00  0.0000E+00  0.0000E+00  0.0000E+00  0.0000E+00  0.0000E+00
    -16.858  0.0000E+00  0.0000E+00  0.0000E+00  0.0000E+00  0.0000E+00  0.0000E+00  0.0000E+00  0.0000E+00  0.0000E+00  0.0000E+00  0.0000E+00  0.0000E+00  0.0000E+00  0.0000E+00  0.0000E+00  0.0000E+00  0.0000E+00  0.0000E+00
    -16.740  0.0000E+00  0.0000E+00  0.0000E+00  0.0000E+00  0.0000E+00  0.0000E+00  0.0000E+00  0.0000E+00  0.0000E+00  0.0000E+00  0.0000E+00  0.0000E+00  0.0000E+00  0.0000E+00  0.0000E+00  0.0000E+00  0.0000E+00  0.0000E+00
    -16.622  0.0000E+00  0.0000E+00  0.0000E+00  0.0000E+00  0.0000E+00  0.0000E+00  0.0000E+00  0.0000E+00  0.0000E+00  0.0000E+00  0.0000E+00  0.0000E+00  0.0000E+00  0.0000E+00  0.0000E+00  0.0000E+00  0.0000E+00  0.0000E+00
    -16.504  0.0000E+00  0.0000E+00  0.0000E+00  0.0000E+00  0.0000E+00  0.0000E+00  0.0000E+00  0.0000E+00  0.0000E+00  0.0000E+00  0.0000E+00  0.0000E+00  0.0000E+00  0.0000E+00  0.0000E+00  0.0000E+00  0.0000E+00  0.0000E+00
    -16.386  0.0000E+00  0.0000E+00  0.0000E+00  0.0000E+00  0.0000E+00  0.0000E+00  0.0000E+00  0.0000E+00  0.0000E+00  0.0000E+00  0.0000E+00  0.0000E+00  0.0000E+00  0.0000E+00  0.0000E+00  0.0000E+00  0.0000E+00  0.0000E+00
    -16.268  0.0000E+00  0.0000E+00  0.0000E+00  0.0000E+00  0.0000E+00  0.0000E+00  0.0000E+00  0.0000E+00  0.0000E+00  0.0000E+00  0.0000E+00  0.0000E+00  0.0000E+00  0.0000E+00  0.0000E+00  0.0000E+00  0.0000E+00  0.0000E+00
    -16.150  0.0000E+00  0.0000E+00  0.0000E+00  0.0000E+00  0.0000E+00  0.0000E+00  0.0000E+00  0.0000E+00  0.0000E+00  0.0000E+00  0.0000E+00  0.0000E+00  0.0000E+00  0.0000E+00  0.0000E+00  0.0000E+00  0.0000E+00  0.0000E+00
    -16.032  0.0000E+00  0.0000E+00  0.0000E+00  0.0000E+00  0.0000E+00  0.0000E+00  0.0000E+00  0.0000E+00  0.0000E+00  0.0000E+00  0.0000E+00  0.0000E+00  0.0000E+00  0.0000E+00  0.0000E+00  0.0000E+00  0.0000E+00  0.0000E+00
    -15.914  0.0000E+00  0.0000E+00  0.0000E+00  0.0000E+00  0.0000E+00  0.0000E+00  0.0000E+00  0.0000E+00  0.0000E+00  0.0000E+00  0.0000E+00  0.0000E+00  0.0000E+00  0.0000E+00  0.0000E+00  0.0000E+00  0.0000E+00  0.0000E+00
    -15.796 -0.8165E-34 -0.6057E-34 -0.5301E-50 -0.3441E-50 -0.1199E-39 -0.8859E-40 -0.1590E-49 -0.1032E-49  0.0000E+00  0.0000E+00  0.0000E+00  0.0000E+00  0.0000E+00  0.0000E+00  0.0000E+00  0.0000E+00  0.0000E+00  0.0000E+00
    -15.678 -0.9836E-19 -0.7925E-19 -0.6311E-35 -0.4479E-35 -0.2527E-24 -0.2029E-24 -0.1893E-34 -0.1344E-34  0.0000E+00  0.0000E+00  0.0000E+00  0.0000E+00  0.0000E+00  0.0000E+00  0.0000E+00  0.0000E+00  0.0000E+00  0.0000E+00
    -15.560 -0.1541E-08 -0.1350E-08 -0.9704E-25 -0.7575E-25 -0.6891E-14 -0.6014E-14 -0.2911E-24 -0.2273E-24  0.0000E+00  0.0000E+00  0.0000E+00  0.0000E+00  0.0000E+00  0.0000E+00  0.0000E+00  0.0000E+00  0.0000E+00  0.0000E+00
    -15.443 -0.2219E-03 -0.2133E-03 -0.1333E-19 -0.1188E-19 -0.2522E-08 -0.2396E-08 -0.3999E-19 -0.3565E-19  0.0000E+00  0.0000E+00  0.0000E+00  0.0000E+00  0.0000E+00  0.0000E+00  0.0000E+00  0.0000E+00  0.0000E+00  0.0000E+00
    -15.325  0.1297E-01  0.1278E-01  0.7485E-18  0.7157E-18  0.2557E-06  0.2488E-06  0.2245E-17  0.2148E-17  0.0000E+00  0.0000E+00  0.0000E+00  0.0000E+00  0.0000E+00  0.0000E+00  0.0000E+00  0.0000E+00  0.0000E+00  0.0000E+00
    -15.207  0.1897E-01  0.1896E-01 -0.3710E-11 -0.3212E-11  0.1114E-05  0.1115E-05 -0.1113E-10 -0.9636E-11  0.0000E+00  0.0000E+00  0.0000E+00  0.0000E+00  0.0000E+00  0.0000E+00  0.0000E+00  0.0000E+00  0.0000E+00  0.0000E+00
    -15.089  0.1067E-01  0.1089E-01 -0.3205E-05 -0.3032E-05  0.1956E-06  0.2025E-06 -0.9616E-05 -0.9097E-05  0.0000E+00  0.0000E+00  0.0000E+00  0.0000E+00  0.0000E+00  0.0000E+00  0.0000E+00  0.0000E+00  0.0000E+00  0.0000E+00
    -14.971  0.5437E-01  0.5317E-01  0.3353E-03  0.3280E-03  0.7813E-06  0.7515E-06  0.1006E-02  0.9841E-03  0.0000E+00  0.0000E+00  0.0000E+00  0.0000E+00  0.0000E+00  0.0000E+00  0.0000E+00  0.0000E+00  0.0000E+00  0.0000E+00
    -14.853  0.1170E+00  0.1171E+00  0.7203E-03  0.7213E-03  0.6341E-05  0.6330E-05  0.2161E-02  0.2164E-02  0.0000E+00  0.0000E+00  0.0000E+00  0.0000E+00  0.0000E+00  0.0000E+00  0.0000E+00  0.0000E+00  0.0000E+00  0.0000E+00
    -14.735  0.8242E-01  0.8347E-01  0.5087E-03  0.5152E-03  0.1763E-05  0.1808E-05  0.1526E-02  0.1546E-02  0.0000E+00  0.0000E+00  0.0000E+00  0.0000E+00  0.0000E+00  0.0000E+00  0.0000E+00  0.0000E+00  0.0000E+00  0.0000E+00
    -14.617 -0.1604E-02 -0.1658E-02 -0.9904E-05 -0.1023E-04 -0.2005E-07 -0.2101E-07 -0.2971E-04 -0.3070E-04  0.0000E+00  0.0000E+00  0.0000E+00  0.0000E+00  0.0000E+00  0.0000E+00  0.0000E+00  0.0000E+00  0.0000E+00  0.0000E+00
    -14.499 -0.1936E-07 -0.2206E-07 -0.1197E-09 -0.1363E-09 -0.9153E-13 -0.1047E-12 -0.3586E-09 -0.4086E-09  0.0000E+00  0.0000E+00  0.0000E+00  0.0000E+00  0.0000E+00  0.0000E+00  0.0000E+00  0.0000E+00  0.0000E+00  0.0000E+00
    -14.381 -0.5212E-04 -0.4816E-04 -0.2954E-05 -0.2730E-05 -0.3482E-09 -0.3198E-09 -0.9868E-06 -0.9119E-06  0.0000E+00  0.0000E+00  0.0000E+00  0.0000E+00  0.0000E+00  0.0000E+00  0.0000E+00  0.0000E+00  0.0000E+00  0.0000E+00
    -14.263  0.1743E-01  0.1658E-01  0.9877E-03  0.9399E-03  0.8410E-07  0.7409E-07  0.3300E-03  0.3140E-03  0.0000E+00  0.0000E+00  0.0000E+00  0.0000E+00  0.0000E+00  0.0000E+00  0.0000E+00  0.0000E+00  0.0000E+00  0.0000E+00
    -14.145  0.1246E+00  0.1246E+00  0.7068E-02  0.7070E-02  0.5102E-05  0.5067E-05  0.2361E-02  0.2362E-02  0.0000E+00  0.0000E+00  0.0000E+00  0.0000E+00  0.0000E+00  0.0000E+00  0.0000E+00  0.0000E+00  0.0000E+00  0.0000E+00
    -14.027  0.1030E+00  0.1038E+00  0.5857E-02  0.5902E-02  0.2730E-05  0.2780E-05  0.1955E-02  0.1970E-02  0.0000E+00  0.0000E+00  0.0000E+00  0.0000E+00  0.0000E+00  0.0000E+00  0.0000E+00  0.0000E+00  0.0000E+00  0.0000E+00
    -13.909  0.4757E-02  0.4214E-02  0.4713E-04  0.3379E-04 -0.6470E-07 -0.7021E-07  0.4980E-03  0.4556E-03  0.0000E+00  0.0000E+00  0.0000E+00  0.0000E+00  0.0000E+00  0.0000E+00  0.0000E+00  0.0000E+00  0.0000E+00  0.0000E+00
    -13.791  0.1238E+00  0.1236E+00  0.3152E-02  0.3147E-02  0.4402E-05  0.4362E-05  0.9455E-02  0.9440E-02  0.0000E+00  0.0000E+00  0.0000E+00  0.0000E+00  0.0000E+00  0.0000E+00  0.0000E+00  0.0000E+00  0.0000E+00  0.0000E+00
    -13.673  0.1093E+00  0.1100E+00  0.2788E-02  0.2805E-02  0.3075E-05  0.3123E-05  0.8364E-02  0.8416E-02  0.0000E+00  0.0000E+00  0.0000E+00  0.0000E+00  0.0000E+00  0.0000E+00  0.0000E+00  0.0000E+00  0.0000E+00  0.0000E+00
    -13.555 -0.1929E-02 -0.1836E-02 -0.4922E-04 -0.4684E-04 -0.5355E-07 -0.5440E-07 -0.1477E-03 -0.1405E-03  0.0000E+00  0.0000E+00  0.0000E+00  0.0000E+00  0.0000E+00  0.0000E+00  0.0000E+00  0.0000E+00  0.0000E+00  0.0000E+00
    -13.437 -0.8523E-06 -0.9497E-06 -0.2175E-07 -0.2424E-07 -0.4441E-11 -0.4977E-11 -0.6525E-07 -0.7271E-07  0.0000E+00  0.0000E+00  0.0000E+00  0.0000E+00  0.0000E+00  0.0000E+00  0.0000E+00  0.0000E+00  0.0000E+00  0.0000E+00
    -13.319 -0.8999E-15 -0.1091E-14 -0.2297E-16 -0.2783E-16 -0.8958E-39 -0.9600E-40 -0.6890E-16 -0.8350E-16  0.0000E+00  0.0000E+00  0.0000E+00  0.0000E+00  0.0000E+00  0.0000E+00  0.0000E+00  0.0000E+00  0.0000E+00  0.0000E+00
    -13.201 -0.9460E-28 -0.7250E-28 -0.9934E-29 -0.7613E-29 -0.1640E-33 -0.1253E-33 -0.7461E-29 -0.5718E-29  0.0000E+00  0.0000E+00  0.0000E+00  0.0000E+00  0.0000E+00  0.0000E+00  0.0000E+00  0.0000E+00  0.0000E+00  0.0000E+00
    -13.083 -0.3985E-14 -0.3309E-14 -0.4185E-15 -0.3475E-15 -0.1095E-19 -0.9060E-20 -0.3143E-15 -0.2610E-15  0.0000E+00  0.0000E+00  0.0000E+00  0.0000E+00  0.0000E+00  0.0000E+00  0.0000E+00  0.0000E+00  0.0000E+00  0.0000E+00
    -12.965 -0.2186E-05 -0.1971E-05 -0.2296E-06 -0.2069E-06 -0.1042E-10 -0.9348E-11 -0.1724E-06 -0.1554E-06  0.0000E+00  0.0000E+00  0.0000E+00  0.0000E+00  0.0000E+00  0.0000E+00  0.0000E+00  0.0000E+00  0.0000E+00  0.0000E+00
    -12.847 -0.3418E-02 -0.3625E-02 -0.3589E-03 -0.3807E-03 -0.9974E-07 -0.9852E-07 -0.2695E-03 -0.2859E-03  0.0000E+00  0.0000E+00  0.0000E+00  0.0000E+00  0.0000E+00  0.0000E+00  0.0000E+00  0.0000E+00  0.0000E+00  0.0000E+00
    -12.729  0.2229E+00  0.2215E+00  0.2340E-01  0.2326E-01  0.5726E-05  0.5647E-05  0.1757E-01  0.1747E-01  0.0000E+00  0.0000E+00  0.0000E+00  0.0000E+00  0.0000E+00  0.0000E+00  0.0000E+00  0.0000E+00  0.0000E+00  0.0000E+00
    -12.612  0.2320E+00  0.2331E+00  0.2438E-01  0.2449E-01  0.6520E-05  0.6605E-05  0.1830E-01  0.1838E-01  0.0000E+00  0.0000E+00  0.0000E+00  0.0000E+00  0.0000E+00  0.0000E+00  0.0000E+00  0.0000E+00  0.0000E+00  0.0000E+00
    -12.494 -0.1842E-03  0.3012E-03 -0.1932E-04  0.3167E-04 -0.1037E-06 -0.1030E-06 -0.1456E-04  0.2371E-04  0.0000E+00  0.0000E+00  0.0000E+00  0.0000E+00  0.0000E+00  0.0000E+00  0.0000E+00  0.0000E+00  0.0000E+00  0.0000E+00
    -12.376 -0.5685E-05 -0.6279E-05 -0.5973E-06 -0.6597E-06 -0.2909E-10 -0.3233E-10 -0.4483E-06 -0.4951E-06  0.0000E+00  0.0000E+00  0.0000E+00  0.0000E+00  0.0000E+00  0.0000E+00  0.0000E+00  0.0000E+00  0.0000E+00  0.0000E+00
    -12.258 -0.6248E-06 -0.5617E-06 -0.3680E-07 -0.3308E-07 -0.2660E-11 -0.2383E-11 -0.1104E-06 -0.9925E-07  0.0000E+00  0.0000E+00  0.0000E+00  0.0000E+00  0.0000E+00  0.0000E+00  0.0000E+00  0.0000E+00  0.0000E+00  0.0000E+00
    -12.140 -0.2149E-02 -0.2201E-02 -0.1265E-03 -0.1295E-03 -0.4186E-07 -0.4109E-07 -0.3794E-03 -0.3886E-03  0.0000E+00  0.0000E+00  0.0000E+00  0.0000E+00  0.0000E+00  0.0000E+00  0.0000E+00  0.0000E+00  0.0000E+00  0.0000E+00
    -12.022  0.1082E+00  0.1075E+00  0.6369E-02  0.6324E-02  0.2415E-05  0.2380E-05  0.1911E-01  0.1897E-01  0.0000E+00  0.0000E+00  0.0000E+00  0.0000E+00  0.0000E+00  0.0000E+00  0.0000E+00  0.0000E+00  0.0000E+00  0.0000E+00
    -11.904  0.1140E+00  0.1146E+00  0.6684E-02  0.6722E-02  0.2780E-05  0.2819E-05  0.2005E-01  0.2017E-01  0.0000E+00  0.0000E+00  0.0000E+00  0.0000E+00  0.0000E+00  0.0000E+00  0.0000E+00  0.0000E+00  0.0000E+00  0.0000E+00
    -11.786 -0.1137E-02 -0.9707E-03 -0.6670E-04 -0.5698E-04 -0.4749E-07 -0.4771E-07 -0.2001E-03 -0.1710E-03  0.0000E+00  0.0000E+00  0.0000E+00  0.0000E+00  0.0000E+00  0.0000E+00  0.0000E+00  0.0000E+00  0.0000E+00  0.0000E+00
    -11.668 -0.1671E-05 -0.1850E-05 -0.9791E-07 -0.1084E-06 -0.7669E-11 -0.8544E-11 -0.2937E-06 -0.3253E-06  0.0000E+00  0.0000E+00  0.0000E+00  0.0000E+00  0.0000E+00  0.0000E+00  0.0000E+00  0.0000E+00  0.0000E+00  0.0000E+00
    -11.550 -0.4297E-14 -0.5166E-14 -0.2517E-15 -0.3027E-15 -0.1063E-19 -0.1283E-19 -0.7552E-15 -0.9080E-15  0.0000E+00  0.0000E+00  0.0000E+00  0.0000E+00  0.0000E+00  0.0000E+00  0.0000E+00  0.0000E+00  0.0000E+00  0.0000E+00
    -11.432 -0.1472E-25 -0.1147E-25 -0.3560E-26 -0.2775E-26 -0.2331E-31 -0.1814E-31 -0.1246E-26 -0.9710E-27  0.0000E+00  0.0000E+00  0.0000E+00  0.0000E+00  0.0000E+00  0.0000E+00  0.0000E+00  0.0000E+00  0.0000E+00  0.0000E+00
    -11.314 -0.1043E-12 -0.8797E-13 -0.2521E-13 -0.2127E-13 -0.2504E-18 -0.2108E-18 -0.8821E-14 -0.7443E-14  0.0000E+00  0.0000E+00  0.0000E+00  0.0000E+00  0.0000E+00  0.0000E+00  0.0000E+00  0.0000E+00  0.0000E+00  0.0000E+00
    -11.196 -0.9270E-05 -0.8481E-05 -0.2241E-05 -0.2051E-05 -0.3997E-10 -0.3641E-10 -0.7842E-06 -0.7176E-06  0.0000E+00  0.0000E+00  0.0000E+00  0.0000E+00  0.0000E+00  0.0000E+00  0.0000E+00  0.0000E+00  0.0000E+00  0.0000E+00
    -11.078  0.4032E-02  0.3607E-02  0.9757E-03  0.8731E-03 -0.2644E-07 -0.2843E-07  0.3414E-03  0.3055E-03  0.0000E+00  0.0000E+00  0.0000E+00  0.0000E+00  0.0000E+00  0.0000E+00  0.0000E+00  0.0000E+00  0.0000E+00  0.0000E+00