    4    4   50    2
  0.8797333E+01  0.2461200E-09  0.2461200E-09  0.6707900E-09  0.5000000E-15
  1.000000000000000E-004
  CAR 
 unknown system                          
   16   50   14
 
  0.0000000E+00  0.0000000E+00  0.0000000E+00  0.1953125E-02
   1      -15.367457    -15.366584
   2      -15.171081    -15.170186
   3       -4.072138     -4.071923
   4       -2.585019     -2.584768
   5        1.207111      1.207648
   6        1.207120      1.207653
   7        1.218083      1.218621
   8        1.218092      1.218625
   9        8.135577      8.135726
  10       12.549779     12.550282
  11       12.549786     12.550287
  12       12.583207     12.583712
  13       12.583214     12.583717
  14       13.614427     13.614453
 
  0.1250000E+00 -0.6938894E-17  0.0000000E+00  0.1171875E-01
   1      -14.996393    -14.995524
   2      -14.804712    -14.803821
   3       -3.623088     -3.622873
   4       -2.159987     -2.159736
   5       -0.184322     -0.183738
   6       -0.155933     -0.155347
   7        0.500953      0.501491
   8        0.521318      0.521856
   9        8.595315      8.595459
  10       12.597008     12.597553
  11       12.680467     12.681020
  12       13.972318     13.972354
  13       14.054161     14.054668
  14       14.083650     14.084159
 
  0.2500000E+00 -0.1387779E-16  0.0000000E+00  0.1171875E-01
   1      -13.892866    -13.892008
   2      -13.715016    -13.714139
   3       -3.208711     -3.208049
   4       -3.147332     -3.146665
   5       -2.301698     -2.301483
   6       -0.919383     -0.919135
   7       -0.810944     -0.810409
   8       -0.781597     -0.781060
   9        9.971599      9.971734
  10       11.249459     11.249632
  11       11.707761     11.707941
  12       12.194377     12.195050
  13       12.394487     12.395181
  14       15.089574     15.089587
 
  0.3750000E+00 -0.5551115E-16  0.0000000E+00  0.1171875E-01
   1      -12.095345    -12.094502
   2      -11.939993    -11.939133
   3       -6.502274     -6.501555
   4       -6.408008     -6.407280
   5       -1.817959     -1.817424
   6       -1.785666     -1.785129
   7       -0.237665     -0.237448
   8        0.936100      0.936342
   9        7.686438      7.686628
  10        8.418420      8.418625
  11       11.660117     11.660837
  12       11.861640     11.862322
  13       12.371601     12.371854
  14       16.671367     16.671368
 
  0.5000000E+00 -0.2775558E-16  0.0000000E+00  0.5859375E-02
   1      -10.069031    -10.068136
   2       -9.997487     -9.996585
   3       -9.007242     -9.006555
   4       -8.952404     -8.951712
   5       -2.180065     -2.179530
   6       -2.147288     -2.146751
   7        1.580217      1.580444
   8        2.090517      2.090749
   9        5.730239      5.730429
  10        6.276951      6.277167
  11       11.477814     11.478589
  12       11.742667     11.743471
  13       15.279439     15.279605
  14       15.418730     15.418782
 
  0.1250000E+00  0.1250000E+00  0.0000000E+00  0.1171875E-01
   1      -14.259103    -14.258241
   2      -14.076693    -14.075811
   3       -2.736549     -2.736333
   4       -1.988319     -1.987673
   5       -1.961950     -1.961303
   6       -1.324614     -1.324365
   7       -0.901671     -0.901129
   8       -0.883584     -0.883041
   9        9.519661      9.519799
  10       12.304452     12.304622
  11       12.582828     12.582998
  12       13.397189     13.397711
  13       13.526901     13.527445
  14       15.054797     15.056269
 
  0.2500000E+00  0.1250000E+00  0.0000000E+00  0.2343750E-01
   1      -12.807587    -12.806740
   2      -12.643203    -12.642337
   3       -4.797867     -4.797161
   4       -4.729130     -4.728418
   5       -2.429859     -2.429303
   6       -2.388690     -2.388130
   7       -1.024379     -1.024163
   8        0.258945      0.259190
   9        9.193626      9.193817
  10        9.678792      9.678987
  11       11.349073     11.349202
  12       13.412417     13.413070
  13       13.680195     13.680878
  14       15.761161     15.761168
 
  0.3750000E+00  0.1250000E+00  0.0000000E+00  0.2343750E-01
   1      -10.727154    -10.726315
   2      -10.592355    -10.591500
   3       -7.810967     -7.810234
   4       -7.710158     -7.709414
   5       -3.200320     -3.199753
   6       -3.151152     -3.150582
   7        1.221576      1.221796
   8        2.118889      2.119126
   9        6.202535      6.202732
  10        6.808943      6.809157
  11       13.034473     13.035173
  12       13.336289     13.337012
  13       14.063557     14.063701
  14       16.798509     16.798697
 
  0.2500000E+00  0.2500000E+00  0.0000000E+00  0.1171875E-01
   1      -11.057023    -11.056189
   2      -10.915227    -10.914379
   3       -6.305961     -6.305180
   4       -6.258379     -6.257595
   5       -4.716829     -4.716277
   6       -4.681462     -4.680907
   7        0.978505      0.978722
   8        2.056126      2.056365
   9        6.826455      6.826663
  10        7.259332      7.259541
  11       13.567617     13.567735
  12       15.758227     15.758267
  13       16.136797     16.137247
  14       16.348344     16.348862
 
  0.3750000E+00  0.2500000E+00  0.0000000E+00  0.1171875E-01
   1       -9.117027     -9.116161
   2       -9.052256     -9.051383
   3       -8.211636     -8.210886
   4       -8.183277     -8.182519
   5       -5.514792     -5.514223
   6       -5.450991     -5.450412
   7        2.916823      2.917044
   8        3.401942      3.402170
   9        5.193605      5.193828
  10        5.286506      5.286717
  11       15.532023     15.532099
  12       15.637932     15.638024
  13       15.917934     15.918396
  14       16.167402     16.167725
 
  0.0000000E+00  0.0000000E+00  0.1250000E+00  0.3906250E-02
   1      -15.360319    -15.359445
   2      -15.178875    -15.177980
   3       -4.023422     -4.023205
   4       -2.652723     -2.652474
   5        1.209007      1.209545
   6        1.209016      1.209549
   7        1.218167      1.218706
   8        1.218176      1.218710
   9        8.296020      8.296168
  10       12.552407     12.552911
  11       12.552414     12.552915
  12       12.579053     12.579557
  13       12.579060     12.579562
  14       13.267720     13.267766
 
  0.1250000E+00 -0.6938894E-17  0.1250000E+00  0.2343750E-01
   1      -14.989383    -14.988513
   2      -14.812325    -14.811435
   3       -3.575139     -3.574922
   4       -2.225629     -2.225380
   5       -0.183284     -0.182700
   6       -0.156982     -0.156397
   7        0.501752      0.502290
   8        0.520270      0.520809
   9        8.753399      8.753542
  10       12.594661     12.595202
  11       12.678274     12.678826
  12       13.649010     13.649010
  13       14.055400     14.055907
  14       14.080315     14.080822
 
  0.2500000E+00 -0.1387779E-16  0.1250000E+00  0.2343750E-01
   1      -13.886350    -13.885491
   2      -13.722058    -13.721181
   3       -3.206508     -3.205845
   4       -3.149628     -3.148961
   5       -2.256195     -2.255978
   6       -0.981309     -0.981063
   7       -0.809931     -0.809395
   8       -0.782991     -0.782454
   9       10.115165     10.115300
  10       11.272907     11.273082
  11       11.679632     11.679812
  12       12.199401     12.200073
  13       12.392924     12.393616
  14       14.795232     14.795266
 
  0.3750000E+00 -0.5551115E-16  0.1250000E+00  0.2343750E-01
   1      -12.089623    -12.088779
   2      -11.946105    -11.945246
   3       -6.498698     -6.497979
   4       -6.411504     -6.410777
   5       -1.816694     -1.816159
   6       -1.786723     -1.786186
   7       -0.197680     -0.197462
   8        0.885537      0.885779
   9        7.706702      7.706892
  10        8.385256      8.385461
  11       11.673807     11.674538
  12       11.865455     11.866164
  13       12.496766     12.496979
  14       16.441003     16.441020
 
  0.5000000E+00 -0.2775558E-16  0.1250000E+00  0.1171875E-01
   1      -10.066013    -10.065118
   2       -9.999882     -9.998979
   3       -9.005736     -9.005049
   4       -8.955026     -8.954334
   5       -2.178761     -2.178226
   6       -2.147854     -2.147317
   7        1.603956      1.604183
   8        2.077960      2.078192
   9        5.733250      5.733441
  10        6.242325      6.242541
  11       11.487585     11.488361
  12       11.732462     11.733265
  13       15.403850     15.404014
  14       15.514041     15.514093
 
  0.1250000E+00  0.1250000E+00  0.1250000E+00  0.2343750E-01
   1      -14.252421    -14.251559
   2      -14.083924    -14.083043
   3       -2.690184     -2.689967
   4       -1.987210     -1.986564
   5       -1.962937     -1.962290
   6       -1.387947     -1.387699
   7       -0.900799     -0.900256
   8       -0.884049     -0.883505
   9        9.671955      9.672091
  10       12.312114     12.312284
  11       12.572013     12.572184
  12       13.391259     13.391773
  13       13.527604     13.528146
  14       14.373856     14.373803
 
  0.2500000E+00  0.1250000E+00  0.1250000E+00  0.4687500E-01
   1      -12.801543    -12.800695
   2      -12.649687    -12.648823
   3       -4.795297     -4.794591
   4       -4.731683     -4.730972
   5       -2.428309     -2.427753
   6       -2.390392     -2.389833
   7       -0.981586     -0.981369
   8        0.202537      0.202781
   9        9.209837      9.210028
  10        9.658213      9.658408
  11       11.488401     11.488528
  12       13.418893     13.419543
  13       13.674079     13.674761
  14       15.535238     15.535263
 
  0.3750000E+00  0.1250000E+00  0.1250000E+00  0.4687500E-01
   1      -10.722165    -10.721325
   2      -10.597631    -10.596776
   3       -7.807244     -7.806510
   4       -7.714062     -7.713317
   5       -3.198675     -3.198108
   6       -3.153227     -3.152657
   7        1.254324      1.254545
   8        2.083368      2.083604
   9        6.216083      6.216281
  10        6.777552      6.777766
  11       13.045807     13.046509
  12       13.324988     13.325713
  13       14.168465     14.168602
  14       16.596811     16.596860
 
  0.2500000E+00  0.2500000E+00  0.1250000E+00  0.2343750E-01
   1      -11.051778    -11.050944
   2      -10.920786    -10.919939
   3       -6.304063     -6.303281
   4       -6.260093     -6.259309
   5       -4.715576     -4.715024
   6       -4.682849     -4.682294
   7        1.015633      1.015852
   8        2.010887      2.011125
   9        6.844050      6.844259
  10        7.242974      7.243183
  11       13.651025     13.651139
  12       15.579786     15.579872
  13       16.255131     16.255542
  14       16.347057     16.347554
 
  0.3750000E+00  0.2500000E+00  0.1250000E+00  0.2343750E-01
   1       -9.114289     -9.113422
   2       -9.054411     -9.053538
   3       -8.211042     -8.210292
   4       -8.184787     -8.184030
   5       -5.512470     -5.511900
   6       -5.453445     -5.452867
   7        2.939950      2.940172
   8        3.391250      3.391477
   9        5.190251      5.190474
  10        5.270951      5.271162
  11       15.334570     15.334671
  12       15.337552     15.337647
  13       15.983023     15.983479
  14       16.419951     16.420171
 
  0.0000000E+00  0.0000000E+00  0.2500000E+00  0.3906250E-02
   1      -15.339761    -15.338885
   2      -15.200971    -15.200079
   3       -3.882342     -3.882122
   4       -2.836968     -2.836722
   5        1.210054      1.210591
   6        1.210062      1.210596
   7        1.217299      1.217838
   8        1.217308      1.217842
   9        8.759769      8.759913
  10       12.428013     12.428093
  11       12.555962     12.556465
  12       12.555969     12.556470
  13       12.576843     12.577347
  14       12.576850     12.577352
 
  0.1250000E+00 -0.6938894E-17  0.2500000E+00  0.2343750E-01
   1      -14.969331    -14.968459
   2      -14.833869    -14.832981
   3       -3.436265     -3.436045
   4       -2.408064     -2.407819
   5       -0.180627     -0.180043
   6       -0.160221     -0.159637
   7        0.503770      0.504308
   8        0.517861      0.518399
   9        9.209086      9.209226
  10       12.539412     12.539852
  11       12.669520     12.670070
  12       12.899021     12.899205
  13       14.056223     14.056730
  14       14.076709     14.077216
 
  0.2500000E+00 -0.1387779E-16  0.2500000E+00  0.2343750E-01
   1      -13.867711    -13.866850
   2      -13.741987    -13.741113
   3       -3.199830     -3.199167
   4       -3.156523     -3.155857
   5       -2.123980     -2.123760
   6       -1.152832     -1.152589
   7       -0.805976     -0.805440
   8       -0.785845     -0.785308
   9       10.519821     10.519955
  10       11.342475     11.342650
  11       11.615857     11.616041
  12       12.210656     12.211320
  13       12.388774     12.389459
  14       14.070183     14.070263
 
  0.3750000E+00 -0.5551115E-16  0.2500000E+00  0.2343750E-01
   1      -12.073251    -12.072406
   2      -11.963435    -11.962578
   3       -6.488699     -6.487979
   4       -6.422029     -6.421302
   5       -1.812748     -1.812213
   6       -1.790635     -1.790098
   7       -0.082355     -0.082134
   8        0.745282      0.745521
   9        7.767419      7.767610
  10        8.287169      8.287370
  11       11.705332     11.706077
  12       11.857919     11.858660
  13       12.879127     12.879289
  14       15.848644     15.848693
 
  0.5000000E+00 -0.2775558E-16  0.2500000E+00  0.1171875E-01
   1      -10.057553    -10.056657
   2      -10.006840    -10.005938
   3       -9.001224     -9.000537
   4       -8.962335     -8.961644
   5       -2.174662     -2.174127
   6       -2.151512     -2.150976
   7        1.668129      1.668357
   8        2.035265      2.035497
   9        5.750246      5.750439
  10        6.142119      6.142330
  11       11.515617     11.516394
  12       11.703151     11.703950
  13       15.755078     15.755235
  14       15.780366     15.780418
 
  0.1250000E+00  0.1250000E+00  0.2500000E+00  0.2343750E-01
   1      -14.233329    -14.232464
   2      -14.104395    -14.103516
   3       -2.555704     -2.555484
   4       -1.984473     -1.983827
   5       -1.965640     -1.964992
   6       -1.563974     -1.563730
   7       -0.899236     -0.898693
   8       -0.886159     -0.885615
   9       10.110652     10.110785
  10       12.340335     12.340507
  11       12.537160     12.537333
  12       13.290840     13.291200
  13       13.525781     13.526321
  14       13.728931     13.729163
 
  0.2500000E+00  0.1250000E+00  0.2500000E+00  0.4687500E-01
   1      -12.784266    -12.783416
   2      -12.668063    -12.667200
   3       -4.787974     -4.787267
   4       -4.739406     -4.738696
   5       -2.424195     -2.423639
   6       -2.394759     -2.394200
   7       -0.857720     -0.857500
   8        0.044699      0.044939
   9        9.254726      9.254917
  10        9.601788      9.601983
  11       11.885662     11.885786
  12       13.432808     13.433450
  13       13.656362     13.657039
  14       14.954157     14.954223
 
  0.3750000E+00  0.1250000E+00  0.2500000E+00  0.4687500E-01
   1      -10.707868    -10.707026
   2      -10.612583    -10.611731
   3       -7.796594     -7.795859
   4       -7.725291     -7.724548
   5       -3.193422     -3.192855
   6       -3.158581     -3.158011
   7        1.348121      1.348344
   8        1.983937      1.984172
   9        6.260251      6.260450
  10        6.694122      6.694333
  11       13.078035     13.078740
  12       13.291611     13.292335
  13       14.465155     14.465278
  14       16.261966     16.262025
 
  0.2500000E+00  0.2500000E+00  0.2500000E+00  0.2343750E-01
   1      -11.036816    -11.035980
   2      -10.936565    -10.935719
   3       -6.298809     -6.298027
   4       -6.265210     -6.264426
   5       -4.712251     -4.711698
   6       -4.687335     -4.686780
   7        1.121951      1.122172
   8        1.881455      1.881691
   9        6.889693      6.889902
  10        7.195036      7.195245
  11       13.878274     13.878379
  12       15.257254     15.257345
  13       16.388234     16.388723
  14       16.411743     16.412170
 
  0.3750000E+00  0.2500000E+00  0.2500000E+00  0.2343750E-01
   1       -9.106592     -9.105725
   2       -9.060706     -9.059834
   3       -8.209076     -8.208325
   4       -8.188872     -8.188116
   5       -5.505861     -5.505290
   6       -5.460852     -5.460275
   7        3.007123      3.007346
   8        3.357768      3.357996
   9        5.179265      5.179486
  10        5.233887      5.234099
  11       14.986729     14.986824
  12       15.043456     15.043562
  13       16.148827     16.149312
  14       16.802313     16.802943
 
  0.0000000E+00  0.0000000E+00  0.3750000E+00  0.3906250E-02
   1      -15.308703    -15.307824
   2      -15.233621    -15.232733
   3       -3.663845     -3.663619
   4       -3.100663     -3.100423
   5        1.210991      1.211529
   6        1.211000      1.211533
   7        1.215434      1.215973
   8        1.215443      1.215977
   9        9.477180      9.477317
  10       11.403149     11.403256
  11       12.558191     12.558694
  12       12.558198     12.558699
  13       12.571155     12.571659
  14       12.571162     12.571664
 
  0.1250000E+00 -0.6938894E-17  0.3750000E+00  0.2343750E-01
   1      -14.938991    -14.938115
   2      -14.865705    -14.864821
   3       -3.220620     -3.220394
   4       -2.666859     -2.666620
   5       -0.175978     -0.175395
   6       -0.164868     -0.164283
   7        0.507363      0.507901
   8        0.514572      0.515110
   9        9.913958      9.914091
  10       11.788808     11.788922
  11       12.651976     12.652519
  12       12.667680     12.668225
  13       14.061196     14.061703
  14       14.071402     14.071909
 
  0.2500000E+00 -0.1387779E-16  0.3750000E+00  0.2343750E-01
   1      -13.839499    -13.838635
   2      -13.771483    -13.770611
   3       -3.190002     -3.189338
   4       -3.166610     -3.165944
   5       -1.919219     -1.918994
   6       -1.395868     -1.395631
   7       -0.801475     -0.800938
   8       -0.790592     -0.790055
   9       11.063968     11.064113
  10       11.483181     11.483343
  11       11.556543     11.556739
  12       12.206827     12.207454
  13       12.391866     12.392531
  14       13.187030     13.187180
 
  0.3750000E+00 -0.5551115E-16  0.3750000E+00  0.2343750E-01
   1      -12.048525    -12.047677
   2      -11.989124    -11.988270
   3       -6.473637     -6.472915
   4       -6.437559     -6.436834
   5       -1.807722     -1.807186
   6       -1.795468     -1.794932
   7        0.094442      0.094666
   8        0.542524      0.542759
   9        7.869734      7.869927
  10        8.153491      8.153691
  11       11.745600     11.746352
  12       11.829931     11.830685
  13       13.486076     13.486207
  14       15.067225     15.067306
 
  0.5000000E+00 -0.2775558E-16  0.3750000E+00  0.1171875E-01
   1      -10.045196    -10.044297
   2      -10.017702    -10.016801
   3       -8.993667     -8.992980
   4       -8.972502     -8.971812
   5       -2.169423     -2.168888
   6       -2.156847     -2.156311
   7        1.764001      1.764231
   8        1.964437      1.964669
   9        5.798434      5.798629
  10        6.013995      6.014202
  11       11.558171     11.558953
  12       11.659561     11.660354
  13       16.160273     16.160325
  14       16.250243     16.250384
 
  0.1250000E+00  0.1250000E+00  0.3750000E+00  0.2343750E-01
   1      -14.204411    -14.203544
   2      -14.134662    -14.133787
   3       -2.347199     -2.346974
   4       -1.980387     -1.979742
   5       -1.969516     -1.968869
   6       -1.812263     -1.812024
   7       -0.896297     -0.895754
   8       -0.889065     -0.888522
   9       10.788628     10.788754
  10       12.381627     12.381805
  11       12.488490     12.488665
  12       12.573354     12.573461
  13       13.522628     13.523141
  14       13.522948     13.523484
 
  0.2500000E+00  0.1250000E+00  0.3750000E+00  0.4687500E-01
   1      -12.758151    -12.757299
   2      -12.695275    -12.694416
   3       -4.776891     -4.776183
   4       -4.750643     -4.749933
   5       -2.417660     -2.417104
   6       -2.401472     -2.400914
   7       -0.666511     -0.666287
   8       -0.179547     -0.179312
   9        9.329517      9.329709
  10        9.519398      9.519593
  11       12.483468     12.483594
  12       13.425828     13.426417
  13       13.640289     13.640951
  14       14.215449     14.215603
 
  0.3750000E+00  0.1250000E+00  0.3750000E+00  0.4687500E-01
   1      -10.686327    -10.685483
   2      -10.634788    -10.633938
   3       -7.780511     -7.779774
   4       -7.741903     -7.741162
   5       -3.185434     -3.184867
   6       -3.166539     -3.165970
   7        1.490615      1.490841
   8        1.836621      1.836854
   9        6.339715      6.339916
  10        6.577074      6.577282
  11       13.125896     13.126607
  12       13.241475     13.242196
  13       14.898588     14.898693
  14       15.857097     15.857167
 
  0.2500000E+00  0.2500000E+00  0.3750000E+00  0.2343750E-01
   1      -11.014210    -11.013373
   2      -10.959968    -10.959125
   3       -6.290889     -6.290106
   4       -6.272763     -6.271979
   5       -4.706968     -4.706415
   6       -4.693504     -4.692949
   7        1.286008      1.286232
   8        1.696084      1.696316
   9        6.959320      6.959529
  10        7.124086      7.124295
  11       14.194339     14.194432
  12       14.904037     14.904123
  13       16.512787     16.513310
  14       16.525296     16.525754
 
  0.3750000E+00  0.2500000E+00  0.3750000E+00  0.2343750E-01
   1       -9.095388     -9.094519
   2       -9.070534     -9.069663
   3       -8.205553     -8.204801
   4       -8.194577     -8.193823
   5       -5.495781     -5.495209
   6       -5.471569     -5.470994
   7        3.101582      3.101807
   8        3.294718      3.294946
   9        5.169628      5.169846
  10        5.195522      5.195735
  11       14.777954     14.778049
  12       14.825105     14.825208
  13       16.355956     16.356484
  14       16.699524     16.700126
 
  0.0000000E+00  0.0000000E+00  0.5000000E+00  0.1953125E-02
   1      -15.271495    -15.270611
   2      -15.271495    -15.270611
   3       -3.391706     -3.391474
   4       -3.391706     -3.391474
   5        1.213855      1.214394
   6        1.213855      1.214394
   7        1.213864      1.214398
   8        1.213864      1.214398
   9       10.383928     10.384054
  10       10.383928     10.384054
  11       12.564973     12.565477
  12       12.564973     12.565477
  13       12.564980     12.565482
  14       12.564980     12.565482
 
  0.1250000E+00 -0.6938894E-17  0.5000000E+00  0.1171875E-01
   1      -14.902664    -14.901784
   2      -14.902664    -14.901784
   3       -2.952612     -2.952379
   4       -2.952612     -2.952379
   5       -0.169921     -0.169337
   6       -0.169921     -0.169337
   7        0.510864      0.511402
   8        0.510864      0.511402
   9       10.802773     10.802896
  10       10.802773     10.802896
  11       12.654584     12.655133
  12       12.654584     12.655133
  13       14.067378     14.067886
  14       14.067378     14.067886
 
  0.2500000E+00 -0.1387779E-16  0.5000000E+00  0.1171875E-01
   1      -13.805757    -13.804890
   2      -13.805757    -13.804890
   3       -3.178233     -3.177569
   4       -3.178233     -3.177569
   5       -1.665970     -1.665739
   6       -1.665970     -1.665739
   7       -0.795980     -0.795444
   8       -0.795980     -0.795444
   9       11.373882     11.374055
  10       11.373882     11.374055
  11       12.014866     12.015187
  12       12.014866     12.015187
  13       12.508051     12.508534
  14       12.508051     12.508534
 
  0.3750000E+00 -0.5551115E-16  0.5000000E+00  0.1171875E-01
   1      -12.019043    -12.018193
   2      -12.019043    -12.018193
   3       -6.455687     -6.454964
   4       -6.455687     -6.454964
   5       -1.801508     -1.800972
   6       -1.801508     -1.800972
   7        0.312547      0.312777
   8        0.312547      0.312777
   9        8.005690      8.005887
  10        8.005690      8.005887
  11       11.789470     11.790225
  12       11.789470     11.790225
  13       14.244452     14.244560
  14       14.244452     14.244560
 
  0.5000000E+00 -0.2775558E-16  0.5000000E+00  0.5859375E-02
   1      -10.031152    -10.030252
   2      -10.031152    -10.030252
   3       -8.983698     -8.983009
   4       -8.983698     -8.983009
   5       -2.163351     -2.162815
   6       -2.163351     -2.162815
   7        1.869387      1.869618
   8        1.869387      1.869618
   9        5.888641      5.888841
  10        5.888641      5.888841
  11       11.608321     11.609109
  12       11.608321     11.609109
  13       16.490134     16.490209
  14       16.490134     16.490209
 
  0.1250000E+00  0.1250000E+00  0.5000000E+00  0.1171875E-01
   1      -14.169819    -14.168948
   2      -14.169819    -14.168948
   3       -2.089035     -2.088801
   4       -2.089035     -2.088801
   5       -1.974246     -1.973602
   6       -1.974246     -1.973602
   7       -0.892889     -0.892346
   8       -0.892889     -0.892346
   9       11.639031     11.639147
  10       11.639031     11.639147
  11       12.433487     12.433661
  12       12.433487     12.433661
  13       13.516226     13.516758
  14       13.516226     13.516758
 
  0.2500000E+00  0.1250000E+00  0.5000000E+00  0.2343750E-01
   1      -12.726942    -12.726087
   2      -12.726942    -12.726087
   3       -4.763750     -4.763042
   4       -4.763750     -4.763042
   5       -2.409693     -2.409135
   6       -2.409693     -2.409135
   7       -0.430227     -0.429997
   8       -0.430227     -0.429997
   9        9.422557      9.422751
  10        9.422557      9.422751
  11       13.150746     13.150976
  12       13.150746     13.150976
  13       13.700080     13.700619
  14       13.700080     13.700619
 
  0.3750000E+00  0.1250000E+00  0.5000000E+00  0.2343750E-01
   1      -10.660698    -10.659851
   2      -10.660698    -10.659851
   3       -7.761323     -7.760584
   4       -7.761323     -7.760584
   5       -3.176151     -3.175582
   6       -3.176151     -3.175582
   7        1.662178      1.662407
   8        1.662178      1.662407
   9        6.450400      6.450604
  10        6.450400      6.450604
  11       13.182674     13.183390
  12       13.182674     13.183390
  13       15.387733     15.387820
  14       15.387733     15.387820
 
  0.2500000E+00  0.2500000E+00  0.5000000E+00  0.1171875E-01
   1      -10.987243    -10.986403
   2      -10.987243    -10.986403
   3       -6.281731     -6.280948
   4       -6.281731     -6.280948
   5       -4.700200     -4.699646
   6       -4.700200     -4.699646
   7        1.486347      1.486574
   8        1.486347      1.486574
   9        7.044567      7.044777
  10        7.044567      7.044777
  11       14.545346     14.545432
  12       14.545346     14.545432
  13       16.589311     16.589805
  14       16.589312     16.589805
 
  0.3750000E+00  0.2500000E+00  0.5000000E+00  0.1171875E-01
   1       -9.082684     -9.081813
   2       -9.082684     -9.081813
   3       -8.200545     -8.199792
   4       -8.200545     -8.199792
   5       -5.483678     -5.483104
   6       -5.483678     -5.483104
   7        3.205747      3.205974
   8        3.205747      3.205974
   9        5.174181      5.174398
  10        5.174181      5.174398
  11       14.728144     14.728242
  12       14.728144     14.728242
  13       16.548991     16.549560
  14       16.548991     16.549560
