       N       E                     dE             d eps       ncg     rms          rms(c)
DAV:   1     0.337204060083E+02    0.33720E+02   -0.75123E+03  2800   0.917E+02
DAV:   2    -0.347179433913E+02   -0.68438E+02   -0.62743E+02  3896   0.191E+02
DAV:   3    -0.375543354748E+02   -0.28364E+01   -0.28177E+01  3700   0.377E+01
DAV:   4    -0.375822947545E+02   -0.27959E-01   -0.27854E-01  3400   0.439E+00
DAV:   5    -0.375827586907E+02   -0.46394E-03   -0.55865E-03  3708   0.596E-01    0.123E+01
DAV:   6    -0.367886824044E+02    0.79408E+00   -0.22176E+00  3100   0.975E+00    0.479E+00
DAV:   7    -0.368772870223E+02   -0.88605E-01   -0.14137E+00  3136   0.778E+00    0.188E+00
DAV:   8    -0.368224490300E+02    0.54838E-01   -0.26024E-01  3400   0.374E+00    0.670E-01
DAV:   9    -0.368341862211E+02   -0.11737E-01   -0.19289E-02  3178   0.127E+00    0.337E-01
DAV:  10    -0.368345547877E+02   -0.36857E-03   -0.17502E-03  3520   0.459E-01    0.125E-01
DAV:  11    -0.368347867762E+02   -0.23199E-03   -0.55604E-04  3232   0.220E-01    0.495E-02
DAV:  12    -0.368348253829E+02   -0.38607E-04   -0.99780E-05  2628   0.892E-02
   1 F= -.36834825E+02 E0= -.36834884E+02  d E =-.368348E+02  mag=    -0.0003
       N       E                     dE             d eps       ncg     rms          rms(c)
DAV:   1    -0.368390314049E+02   -0.42446E-02   -0.27889E-01  2962   0.465E+00    0.430E-01
DAV:   2    -0.368344147498E+02    0.46167E-02   -0.67658E-03  3352   0.577E-01    0.226E-01
DAV:   3    -0.368326667682E+02    0.17480E-02   -0.39869E-03  3052   0.419E-01    0.190E-02
DAV:   4    -0.368326659377E+02    0.83055E-06   -0.10362E-04  2660   0.714E-02
   2 F= -.36832666E+02 E0= -.36832724E+02  d E =0.215945E-02  mag=     0.0000
       N       E                     dE             d eps       ncg     rms          rms(c)
DAV:   1    -0.368446677706E+02   -0.12001E-01   -0.22335E-01  2920   0.404E+00    0.270E-01
DAV:   2    -0.368427813825E+02    0.18864E-02   -0.41017E-03  3658   0.451E-01    0.167E-01
DAV:   3    -0.368416242244E+02    0.11572E-02   -0.20507E-03  3064   0.313E-01    0.228E-02
DAV:   4    -0.368416254031E+02   -0.11787E-05   -0.94400E-05  2702   0.644E-02
   3 F= -.36841625E+02 E0= -.36841683E+02  d E =-.895947E-02  mag=     0.0000
       N       E                     dE             d eps       ncg     rms          rms(c)
DAV:   1    -0.368480995824E+02   -0.64754E-02   -0.11862E-01  2860   0.260E+00    0.252E-01
DAV:   2    -0.368454453740E+02    0.26542E-02   -0.38078E-03  2986   0.432E-01    0.136E-01
DAV:   3    -0.368443506700E+02    0.10947E-02   -0.28985E-03  3040   0.355E-01    0.213E-02
DAV:   4    -0.368443578609E+02   -0.71908E-05   -0.96133E-05  2624   0.681E-02
   4 F= -.36844358E+02 E0= -.36844416E+02  d E =-.273246E-02  mag=     0.0000
       N       E                     dE             d eps       ncg     rms          rms(c)
DAV:   1    -0.368476282275E+02   -0.32776E-02   -0.59939E-02  2824   0.183E+00    0.160E-01
DAV:   2    -0.368464404681E+02    0.11878E-02   -0.16794E-03  3184   0.284E-01    0.919E-02
DAV:   3    -0.368458868413E+02    0.55363E-03   -0.14832E-03  3202   0.254E-01    0.195E-02
DAV:   4    -0.368458881374E+02   -0.12962E-05   -0.51984E-05  2014   0.501E-02
   5 F= -.36845888E+02 E0= -.36845946E+02  d E =-.153028E-02  mag=     0.0000
       N       E                     dE             d eps       ncg     rms          rms(c)
DAV:   1    -0.370334493744E+02   -0.18756E+00   -0.57174E+00  2800   0.175E+01    0.162E+00
DAV:   2    -0.369103959985E+02    0.12305E+00   -0.17120E-01  2938   0.289E+00    0.918E-01
DAV:   3    -0.368546308264E+02    0.55765E-01   -0.15513E-01  3028   0.258E+00    0.188E-01
DAV:   4    -0.368548080179E+02   -0.17719E-03   -0.55818E-03  3286   0.501E-01    0.164E-01
DAV:   5    -0.368544938306E+02    0.31419E-03   -0.54834E-04  3176   0.192E-01    0.647E-02
DAV:   6    -0.368545329947E+02   -0.39164E-04   -0.49821E-04  3106   0.180E-01
   6 F= -.36854533E+02 E0= -.36854592E+02  d E =-.864486E-02  mag=     0.0000
