 vasp.5.2.12 11Nov11 complex                                                    
  
 executed on             LinuxIFC date 2012.10.17  12:23:52
 running on    1 nodes
 distr:  one band on    1 nodes,    1 groups


--------------------------------------------------------------------------------------------------------


 INCAR:
 POTCAR:   PAW_PBE C 08Apr2002                    
 POTCAR:   PAW_PBE C 08Apr2002                    
   VRHFIN =C: s2p2                                                              
   LEXCH  = PE                                                                  
   EATOM  =   147.1560 eV,   10.8157 Ry                                         
                                                                                
   TITEL  = PAW_PBE C 08Apr2002                                                 
   LULTRA =        F    use ultrasoft PP ?                                      
   IUNSCR =        0    unscreen: 0-lin 1-nonlin 2-no                           
   RPACOR =     .000    partial core radius                                     
   POMASS =   12.011; ZVAL   =    4.000    mass and valenz                      
   RCORE  =    1.500    outmost cutoff radius                                   
   RWIGS  =    1.630; RWIGS  =     .863    wigner-seitz radius (au A)           
   ENMAX  =  400.000; ENMIN  =  300.000 eV                                      
   ICORE  =        2    local potential                                         
   LCOR   =        T    correct aug charges                                     
   LPAW   =        T    paw PP                                                  
   EAUG   =  644.873                                                            
   DEXC   =     .000                                                            
   RMAX   =    2.266    core radius for proj-oper                               
   RAUG   =    1.300    factor for augmentation sphere                          
   RDEP   =    1.501    radius for radial grids                                 
   RDEPT  =    1.300    core radius for aug-charge                              
   QCUT   =   -5.516; QGAM   =   11.032    optimization parameters              
                                                                                
   Description                                                                  
     l     E      TYP  RCUT    TYP  RCUT                                        
     0   .000     23  1.200                                                     
     0   .000     23  1.200                                                     
     1   .000     23  1.500                                                     
     1  2.500     23  1.500                                                     
     2   .000      7  1.500                                                     
  local pseudopotential read in
  atomic valenz-charges read in
  non local Contribution for L=           0  read in
    real space projection operators read in
  non local Contribution for L=           0  read in
    real space projection operators read in
  non local Contribution for L=           1  read in
    real space projection operators read in
  non local Contribution for L=           1  read in
    real space projection operators read in
    PAW grid and wavefunctions read in
 
   number of l-projection  operators is LMAX  =           4
   number of lm-projection operators is LMMAX =           8
 
 PAW_PBE C 08Apr2002                    :
 energy of atom  1       EATOM= -147.1560
 kinetic energy error for atom=    0.0116 (will be added to EATOM!!)
 
 
 POSCAR:  C                                      
  positions in cartesian coordinates
  No initial velocities read in
 exchange correlation table for  LEXCH =        8
   RHO(1)=    0.500       N(1)  =     2000
   RHO(2)=  100.500       N(2)  =     4000
 


--------------------------------------------------------------------------------------------------------


 ion  position               nearest neighbor table
   1  0.000  0.000  0.000-   2 1.42   2 1.42   2 1.42
   2  0.333  0.667  0.000-   1 1.42   1 1.42   1 1.42
   3  0.333  0.667  0.500-   4 1.42   4 1.42   4 1.42
   4  0.667  0.333  0.500-   3 1.42   3 1.42   3 1.42
 
  LATTYP: Found a hexagonal cell.
 ALAT       =     2.4612000000
 C/A-ratio  =     2.7254591256
  
  Lattice vectors:
  
 A1 = (   2.4612000000,   0.0000000000,   0.0000000000)
 A2 = (  -1.2306000000,   2.1314617238,   0.0000000000)
 A3 = (   0.0000000000,   0.0000000000,   6.7079000000)
 Subroutine PRICEL returns:
 Original cell was already a primitive cell.
 

Analysis of symmetry for initial positions (statically):

 Routine SETGRP: Setting up the symmetry group for a 
 hexagonal supercell.


 Subroutine GETGRP returns: Found 24 space group operations
 (whereof 12 operations were pure point group operations)
 out of a pool of 24 trial point group operations.


The static configuration has the point symmetry D_3h.
 The point group associated with its full space group is D_6h.

Analysis of symmetry for dynamics (positions and initial velocities):

 Subroutine DYNSYM returns: Found 24 space group operations
 (whereof 12 operations were pure point group operations)
 out of a pool of 24 trial space group operations
 (whereof 12 operations were pure point group operations)
 and found also     1 'primitive' translations


The dynamic configuration has the point symmetry D_3h.
 The point group associated with its full space group is D_6h.

Analysis of magnetic symmetry:

 Subroutine MAGSYM returns: Found 24 space group operations
 (whereof 12 operations were pure point group operations)
 out of a pool of 24 trial space group operations
 (whereof 12 operations were pure point group operations)
 and found also     1 'primitive' translations


The magnetic configuration has the point symmetry D_3h.
 The point group associated with its full space group is D_6h.
 
 
 KPOINTS: KPOINTS created by Atomic Simulation Env

Automatic generation of k-mesh.
 
 Subroutine IBZKPT returns following result:
 ===========================================
 
 Found     50 irreducible k-points:
 
 Following reciprocal coordinates:
            Coordinates               Weight
  0.000000  0.000000  0.000000      1.000000
  0.125000  0.000000  0.000000      6.000000
  0.250000  0.000000  0.000000      6.000000
  0.375000  0.000000  0.000000      6.000000
  0.500000  0.000000  0.000000      3.000000
  0.125000  0.125000  0.000000      6.000000
  0.250000  0.125000  0.000000     12.000000
  0.375000  0.125000  0.000000     12.000000
  0.250000  0.250000  0.000000      6.000000
  0.375000  0.250000  0.000000      6.000000
  0.000000  0.000000  0.125000      2.000000
  0.125000  0.000000  0.125000     12.000000
  0.250000  0.000000  0.125000     12.000000
  0.375000  0.000000  0.125000     12.000000
  0.500000  0.000000  0.125000      6.000000
  0.125000  0.125000  0.125000     12.000000
  0.250000  0.125000  0.125000     24.000000
  0.375000  0.125000  0.125000     24.000000
  0.250000  0.250000  0.125000     12.000000
  0.375000  0.250000  0.125000     12.000000
  0.000000  0.000000  0.250000      2.000000
  0.125000  0.000000  0.250000     12.000000
  0.250000  0.000000  0.250000     12.000000
  0.375000  0.000000  0.250000     12.000000
  0.500000  0.000000  0.250000      6.000000
  0.125000  0.125000  0.250000     12.000000
  0.250000  0.125000  0.250000     24.000000
  0.375000  0.125000  0.250000     24.000000
  0.250000  0.250000  0.250000     12.000000
  0.375000  0.250000  0.250000     12.000000
  0.000000  0.000000  0.375000      2.000000
  0.125000  0.000000  0.375000     12.000000
  0.250000  0.000000  0.375000     12.000000
  0.375000  0.000000  0.375000     12.000000
  0.500000  0.000000  0.375000      6.000000
  0.125000  0.125000  0.375000     12.000000
  0.250000  0.125000  0.375000     24.000000
  0.375000  0.125000  0.375000     24.000000
  0.250000  0.250000  0.375000     12.000000
  0.375000  0.250000  0.375000     12.000000
  0.000000  0.000000  0.500000      1.000000
  0.125000  0.000000  0.500000      6.000000
  0.250000  0.000000  0.500000      6.000000
  0.375000  0.000000  0.500000      6.000000
  0.500000  0.000000  0.500000      3.000000
  0.125000  0.125000  0.500000      6.000000
  0.250000  0.125000  0.500000     12.000000
  0.375000  0.125000  0.500000     12.000000
  0.250000  0.250000  0.500000      6.000000
  0.375000  0.250000  0.500000      6.000000
 
 Following cartesian coordinates:
            Coordinates               Weight
  0.000000  0.000000  0.000000      1.000000
  0.050788  0.029323  0.000000      6.000000
  0.101576  0.058645  0.000000      6.000000
  0.152365  0.087968  0.000000      6.000000
  0.203153  0.117290  0.000000      3.000000
  0.050788  0.087968  0.000000      6.000000
  0.101576  0.117290  0.000000     12.000000
  0.152365  0.146613  0.000000     12.000000
  0.101576  0.175936  0.000000      6.000000
  0.152365  0.205258  0.000000      6.000000
  0.000000  0.000000  0.018635      2.000000
  0.050788  0.029323  0.018635     12.000000
  0.101576  0.058645  0.018635     12.000000
  0.152365  0.087968  0.018635     12.000000
  0.203153  0.117290  0.018635      6.000000
  0.050788  0.087968  0.018635     12.000000
  0.101576  0.117290  0.018635     24.000000
  0.152365  0.146613  0.018635     24.000000
  0.101576  0.175936  0.018635     12.000000
  0.152365  0.205258  0.018635     12.000000
  0.000000  0.000000  0.037269      2.000000
  0.050788  0.029323  0.037269     12.000000
  0.101576  0.058645  0.037269     12.000000
  0.152365  0.087968  0.037269     12.000000
  0.203153  0.117290  0.037269      6.000000
  0.050788  0.087968  0.037269     12.000000
  0.101576  0.117290  0.037269     24.000000
  0.152365  0.146613  0.037269     24.000000
  0.101576  0.175936  0.037269     12.000000
  0.152365  0.205258  0.037269     12.000000
  0.000000  0.000000  0.055904      2.000000
  0.050788  0.029323  0.055904     12.000000
  0.101576  0.058645  0.055904     12.000000
  0.152365  0.087968  0.055904     12.000000
  0.203153  0.117290  0.055904      6.000000
  0.050788  0.087968  0.055904     12.000000
  0.101576  0.117290  0.055904     24.000000
  0.152365  0.146613  0.055904     24.000000
  0.101576  0.175936  0.055904     12.000000
  0.152365  0.205258  0.055904     12.000000
  0.000000  0.000000  0.074539      1.000000
  0.050788  0.029323  0.074539      6.000000
  0.101576  0.058645  0.074539      6.000000
  0.152365  0.087968  0.074539      6.000000
  0.203153  0.117290  0.074539      3.000000
  0.050788  0.087968  0.074539      6.000000
  0.101576  0.117290  0.074539     12.000000
  0.152365  0.146613  0.074539     12.000000
  0.101576  0.175936  0.074539      6.000000
  0.152365  0.205258  0.074539      6.000000
 


--------------------------------------------------------------------------------------------------------




 Dimension of arrays:
   k-points           NKPTS =     50   k-points in BZ     NKDIM =     50   number of bands    NBANDS=     14
   number of dos      NEDOS =    301   number of ions     NIONS =      4
   non local maximal  LDIM  =      4   non local SUM 2l+1 LMDIM =      8
   total plane-waves  NPLWV =  15552
   max r-space proj   IRMAX =      1   max aug-charges    IRDMAX=   5414
   dimension x,y,z NGX =    18 NGY =   18 NGZ =   48
   dimension x,y,z NGXF=    36 NGYF=   36 NGZF=   96
   support grid    NGXF=    36 NGYF=   36 NGZF=   96
   ions per type =               4
 NGX,Y,Z   is equivalent  to a cutoff of  12.16, 12.16, 11.90 a.u.
 NGXF,Y,Z  is equivalent  to a cutoff of  24.32, 24.32, 23.79 a.u.


 I would recommend the setting:
   dimension x,y,z NGX =    17 NGY =   17 NGZ =   46
 SYSTEM =  unknown system                          
 POSCAR =   C                                      

 Startparameter for this run:
   NWRITE =      2    write-flag & timer
   PREC   = accura    normal or accurate (medium, high low for compatibility)
   ISTART =      0    job   : 0-new  1-cont  2-samecut
   ICHARG =      2    charge: 1-file 2-atom 10-const
   ISPIN  =      2    spin polarized calculation?
   LNONCOLLINEAR =      F non collinear calculations
   LSORBIT =      F    spin-orbit coupling
   INIWAV =      1    electr: 0-lowe 1-rand  2-diag
   LASPH  =      F    aspherical Exc in radial PAW
   METAGGA=      F    non-selfconsistent MetaGGA calc.

 Electronic Relaxation 1
   ENCUT  =  450.0 eV  33.07 Ry    5.75 a.u.   4.26  4.26 11.60*2*pi/ulx,y,z
   ENINI  =  450.0     initial cutoff
   ENAUG  =  644.9 eV  augmentation charge cutoff
   NELM   =     60;   NELMIN=  2; NELMDL= -5     # of ELM steps 
   EDIFF  = 0.1E-03   stopping-criterion for ELM
   LREAL  =      F    real-space projection
   NLSPLINE    = F    spline interpolate recip. space projectors
   LCOMPAT=      F    compatible to vasp.4.4
   GGA_COMPAT  = T    GGA compatible to vasp.4.4-vasp.4.6
   LMAXPAW     = -100 max onsite density
   LMAXMIX     =    2 max onsite mixed and CHGCAR
   VOSKOWN=      0    Vosko Wilk Nusair interpolation
   ROPT   =    0.00000
 Ionic relaxation
   EDIFFG = -.5E-01   stopping-criterion for IOM
   NSW    =     50    number of steps for IOM
   NBLOCK =      1;   KBLOCK =     50    inner block; outer block 
   IBRION =      1    ionic relax: 0-MD 1-quasi-New 2-CG
   NFREE  =      0    steps in history (QN), initial steepest desc. (CG)
   ISIF   =      3    stress and relaxation
   IWAVPR =     11    prediction:  0-non 1-charg 2-wave 3-comb
   ISYM   =      2    0-nonsym 1-usesym 2-fastsym
   LCORR  =      T    Harris-Foulkes like correction to forces

   POTIM  = 0.5000    time-step for ionic-motion
   TEIN   =    0.0    initial temperature
   TEBEG  =    0.0;   TEEND  =   0.0 temperature during run
   SMASS  =  -3.00    Nose mass-parameter (am)
   estimated Nose-frequenzy (Omega)   =  0.10E-29 period in steps =****** mass=  -0.138E-27a.u.
   SCALEE = 1.0000    scale energy and forces
   NPACO  =    256;   APACO  = 16.0  distance and # of slots for P.C.
   PSTRESS=    0.0 pullay stress

  Mass of Ions in am
   POMASS =  12.01
  Ionic Valenz
   ZVAL   =   4.00
  Atomic Wigner-Seitz radii
   RWIGS  =  -1.00
  virtual crystal weights 
   VCA    =   1.00
   NELECT =      16.0000    total number of electrons
   NUPDOWN=      -1.0000    fix difference up-down

 DOS related values:
   EMIN   =  10.00;   EMAX   =-10.00  energy-range for DOS
   EFERMI =   0.00
   ISMEAR =     1;   SIGMA  =   0.05  broadening in eV -4-tet -1-fermi 0-gaus

 Electronic relaxation 2 (details)
   IALGO  =     38    algorithm
   LDIAG  =      T    sub-space diagonalisation (order eigenvalues)
   LSUBROT=      T    optimize rotation matrix (better conditioning)
   TURBO    =      0    0=normal 1=particle mesh
   IRESTART =      0    0=no restart 2=restart with 2 vectors
   NREBOOT  =      0    no. of reboots
   NMIN     =      0    reboot dimension
   EREF     =   0.00    reference energy to select bands
   IMIX   =      4    mixing-type and parameters
     AMIX     =   0.40;   BMIX     =  1.00
     AMIX_MAG =   1.60;   BMIX_MAG =  1.00
     AMIN     =   0.10
     WC   =   100.;   INIMIX=   1;  MIXPRE=   1

 Intra band minimization:
   WEIMIN = 0.0010     energy-eigenvalue tresh-hold
   EBREAK =  0.18E-05  absolut break condition
   DEPER  =   0.30     relativ break condition  

   TIME   =   0.40     timestep for ELM

  volume/ion in A,a.u.               =       8.80        59.37
  Fermi-wavevector in a.u.,A,eV,Ry     =   1.258861  2.378903 21.561578  1.584731
  Thomas-Fermi vector in A             =   2.392450
 
 Write flags
   LWAVE  =      T    write WAVECAR
   LCHARG =      T    write CHGCAR
   LVTOT  =      F    write LOCPOT, total local potential
   LVHAR  =      F    write LOCPOT, Hartree potential only
   LELF   =      F    write electronic localiz. function (ELF)
   LORBIT =     11    0 simple, 1 ext, 2 COOP (PROOUT)


 Dipole corrections
   LMONO  =      F    monopole corrections only (constant potential shift)
   LDIPOL =      F    correct potential (dipole corrections)
   IDIPOL =      0    1-x, 2-y, 3-z, 4-all directions 
   EPSILON=  1.0000000 bulk dielectric constant

 Exchange correlation treatment:
   GGA     =    --    GGA type
   LEXCH   =     8    internal setting for exchange type
   VOSKOWN=      0    Vosko Wilk Nusair interpolation
   LHFCALC =     F    Hartree Fock is set to
   LHFONE  =     F    Hartree Fock one center treatment
   AEXX    =    0.0000 exact exchange contribution

 Linear response parameters
   LEPSILON=     F    determine dielectric tensor
   LRPA    =     F    only Hartree local field effects (RPA)
   LNABLA  =     F    use nabla operator in PAW spheres
   LVEL    =     F    velocity operator in full k-point grid
   LINTERFAST=   F  fast interpolation
   KINTER  =     0    interpolate to denser k-point grid
   CSHIFT  =0.1000    complex shift for real part using Kramers Kronig
   OMEGAMAX=  -1.0    maximum frequency
   RTIME   =    0.100 relaxation time in fs

 Orbital magnetization related:
   ORBITALMAG=     F  switch on orbital magnetization
   LCHIMAG   =     F  perturbation theory with respect to B field
   DQ        =  0.001000  dq finite difference perturbation B field



--------------------------------------------------------------------------------------------------------


 quasi-Newton-method for relaxation of ions
 charge density and potential will be updated during run
 spin polarized calculation
 Variant of blocked Davidson
 Davidson routine will perform the subspace rotation
 perform sub-space diagonalisation
    after iterative eigenvector-optimisation
 modified Broyden-mixing scheme, WC =      100.0
 initial mixing is a Kerker type mixing with AMIX =  0.4000 and BMIX =      1.0000
 Hartree-type preconditioning will be used
 using additional bands            6
 reciprocal scheme for non local part
 calculate Harris-corrections to forces 
   (improved forces if not selfconsistent)
 use gradient corrections 
 use of overlap-Matrix (Vanderbilt PP)
 Methfessel and Paxton  Order N= 1 SIGMA  =   0.05


--------------------------------------------------------------------------------------------------------


  energy-cutoff  :      450.00
  volume of cell :       35.19
      direct lattice vectors                 reciprocal lattice vectors
     2.461200000  0.000000000  0.000000000     0.406305867  0.234580802  0.000000000
    -1.230600000  2.131461724  0.000000000     0.000000000  0.469161603  0.000000000
     0.000000000  0.000000000  6.707900000     0.000000000  0.000000000  0.149077953

  length of vectors
     2.461200000  2.461200000  6.707900000     0.469161603  0.469161603  0.149077953


 
 k-points in units of 2pi/SCALE and weight: KPOINTS created by Atomic Simulation Env
   0.00000000  0.00000000  0.00000000       0.002
   0.05078823  0.02932260  0.00000000       0.012
   0.10157647  0.05864520  0.00000000       0.012
   0.15236470  0.08796780  0.00000000       0.012
   0.20315293  0.11729040  0.00000000       0.006
   0.05078823  0.08796780  0.00000000       0.012
   0.10157647  0.11729040  0.00000000       0.023
   0.15236470  0.14661300  0.00000000       0.023
   0.10157647  0.17593560  0.00000000       0.012
   0.15236470  0.20525820  0.00000000       0.012
   0.00000000  0.00000000  0.01863474       0.004
   0.05078823  0.02932260  0.01863474       0.023
   0.10157647  0.05864520  0.01863474       0.023
   0.15236470  0.08796780  0.01863474       0.023
   0.20315293  0.11729040  0.01863474       0.012
   0.05078823  0.08796780  0.01863474       0.023
   0.10157647  0.11729040  0.01863474       0.047
   0.15236470  0.14661300  0.01863474       0.047
   0.10157647  0.17593560  0.01863474       0.023
   0.15236470  0.20525820  0.01863474       0.023
   0.00000000  0.00000000  0.03726949       0.004
   0.05078823  0.02932260  0.03726949       0.023
   0.10157647  0.05864520  0.03726949       0.023
   0.15236470  0.08796780  0.03726949       0.023
   0.20315293  0.11729040  0.03726949       0.012
   0.05078823  0.08796780  0.03726949       0.023
   0.10157647  0.11729040  0.03726949       0.047
   0.15236470  0.14661300  0.03726949       0.047
   0.10157647  0.17593560  0.03726949       0.023
   0.15236470  0.20525820  0.03726949       0.023
   0.00000000  0.00000000  0.05590423       0.004
   0.05078823  0.02932260  0.05590423       0.023
   0.10157647  0.05864520  0.05590423       0.023
   0.15236470  0.08796780  0.05590423       0.023
   0.20315293  0.11729040  0.05590423       0.012
   0.05078823  0.08796780  0.05590423       0.023
   0.10157647  0.11729040  0.05590423       0.047
   0.15236470  0.14661300  0.05590423       0.047
   0.10157647  0.17593560  0.05590423       0.023
   0.15236470  0.20525820  0.05590423       0.023
   0.00000000  0.00000000  0.07453898       0.002
   0.05078823  0.02932260  0.07453898       0.012
   0.10157647  0.05864520  0.07453898       0.012
   0.15236470  0.08796780  0.07453898       0.012
   0.20315293  0.11729040  0.07453898       0.006
   0.05078823  0.08796780  0.07453898       0.012
   0.10157647  0.11729040  0.07453898       0.023
   0.15236470  0.14661300  0.07453898       0.023
   0.10157647  0.17593560  0.07453898       0.012
   0.15236470  0.20525820  0.07453898       0.012
 
 k-points in reciprocal lattice and weights: KPOINTS created by Atomic Simulation Env
   0.00000000  0.00000000  0.00000000       0.002
   0.12500000  0.00000000  0.00000000       0.012
   0.25000000  0.00000000  0.00000000       0.012
   0.37500000  0.00000000  0.00000000       0.012
   0.50000000  0.00000000  0.00000000       0.006
   0.12500000  0.12500000  0.00000000       0.012
   0.25000000  0.12500000  0.00000000       0.023
   0.37500000  0.12500000  0.00000000       0.023
   0.25000000  0.25000000  0.00000000       0.012
   0.37500000  0.25000000  0.00000000       0.012
   0.00000000  0.00000000  0.12500000       0.004
   0.12500000  0.00000000  0.12500000       0.023
   0.25000000  0.00000000  0.12500000       0.023
   0.37500000  0.00000000  0.12500000       0.023
   0.50000000  0.00000000  0.12500000       0.012
   0.12500000  0.12500000  0.12500000       0.023
   0.25000000  0.12500000  0.12500000       0.047
   0.37500000  0.12500000  0.12500000       0.047
   0.25000000  0.25000000  0.12500000       0.023
   0.37500000  0.25000000  0.12500000       0.023
   0.00000000  0.00000000  0.25000000       0.004
   0.12500000  0.00000000  0.25000000       0.023
   0.25000000  0.00000000  0.25000000       0.023
   0.37500000  0.00000000  0.25000000       0.023
   0.50000000  0.00000000  0.25000000       0.012
   0.12500000  0.12500000  0.25000000       0.023
   0.25000000  0.12500000  0.25000000       0.047
   0.37500000  0.12500000  0.25000000       0.047
   0.25000000  0.25000000  0.25000000       0.023
   0.37500000  0.25000000  0.25000000       0.023
   0.00000000  0.00000000  0.37500000       0.004
   0.12500000  0.00000000  0.37500000       0.023
   0.25000000  0.00000000  0.37500000       0.023
   0.37500000  0.00000000  0.37500000       0.023
   0.50000000  0.00000000  0.37500000       0.012
   0.12500000  0.12500000  0.37500000       0.023
   0.25000000  0.12500000  0.37500000       0.047
   0.37500000  0.12500000  0.37500000       0.047
   0.25000000  0.25000000  0.37500000       0.023
   0.37500000  0.25000000  0.37500000       0.023
   0.00000000  0.00000000  0.50000000       0.002
   0.12500000  0.00000000  0.50000000       0.012
   0.25000000  0.00000000  0.50000000       0.012
   0.37500000  0.00000000  0.50000000       0.012
   0.50000000  0.00000000  0.50000000       0.006
   0.12500000  0.12500000  0.50000000       0.012
   0.25000000  0.12500000  0.50000000       0.023
   0.37500000  0.12500000  0.50000000       0.023
   0.25000000  0.25000000  0.50000000       0.012
   0.37500000  0.25000000  0.50000000       0.012
 
 position of ions in fractional coordinates (direct lattice) 
   0.00000000  0.00000000  0.00000000
   0.33333333  0.66666667  0.00000000
   0.33333333  0.66666667  0.50000000
   0.66666667  0.33333333  0.50000000
 
 position of ions in cartesian coordinates  (Angst):
   0.00000000  0.00000000  0.00000000
   0.00000000  1.42097448  0.00000000
   0.00000000  1.42097448  3.35395000
   1.23060000  0.71048724  3.35395000
 


--------------------------------------------------------------------------------------------------------


 k-point  1 :  0.00000.00000.0000  plane waves:     785
 k-point  2 :  0.12500.00000.0000  plane waves:     763
 k-point  3 :  0.25000.00000.0000  plane waves:     761
 k-point  4 :  0.37500.00000.0000  plane waves:     764
 k-point  5 :  0.50000.00000.0000  plane waves:     772
 k-point  6 :  0.12500.12500.0000  plane waves:     765
 k-point  7 :  0.25000.12500.0000  plane waves:     758
 k-point  8 :  0.37500.12500.0000  plane waves:     765
 k-point  9 :  0.25000.25000.0000  plane waves:     760
 k-point 10 :  0.37500.25000.0000  plane waves:     762
 k-point 11 :  0.00000.00000.1250  plane waves:     779
 k-point 12 :  0.12500.00000.1250  plane waves:     761
 k-point 13 :  0.25000.00000.1250  plane waves:     764
 k-point 14 :  0.37500.00000.1250  plane waves:     757
 k-point 15 :  0.50000.00000.1250  plane waves:     764
 k-point 16 :  0.12500.12500.1250  plane waves:     759
 k-point 17 :  0.25000.12500.1250  plane waves:     757
 k-point 18 :  0.37500.12500.1250  plane waves:     767
 k-point 19 :  0.25000.25000.1250  plane waves:     756
 k-point 20 :  0.37500.25000.1250  plane waves:     761
 k-point 21 :  0.00000.00000.2500  plane waves:     767
 k-point 22 :  0.12500.00000.2500  plane waves:     768
 k-point 23 :  0.25000.00000.2500  plane waves:     756
 k-point 24 :  0.37500.00000.2500  plane waves:     762
 k-point 25 :  0.50000.00000.2500  plane waves:     762
 k-point 26 :  0.12500.12500.2500  plane waves:     766
 k-point 27 :  0.25000.12500.2500  plane waves:     760
 k-point 28 :  0.37500.12500.2500  plane waves:     766
 k-point 29 :  0.25000.25000.2500  plane waves:     763
 k-point 30 :  0.37500.25000.2500  plane waves:     764
 k-point 31 :  0.00000.00000.3750  plane waves:     779
 k-point 32 :  0.12500.00000.3750  plane waves:     766
 k-point 33 :  0.25000.00000.3750  plane waves:     756
 k-point 34 :  0.37500.00000.3750  plane waves:     765
 k-point 35 :  0.50000.00000.3750  plane waves:     758
 k-point 36 :  0.12500.12500.3750  plane waves:     763
 k-point 37 :  0.25000.12500.3750  plane waves:     760
 k-point 38 :  0.37500.12500.3750  plane waves:     762
 k-point 39 :  0.25000.25000.3750  plane waves:     763
 k-point 40 :  0.37500.25000.3750  plane waves:     766
 k-point 41 :  0.00000.00000.5000  plane waves:     768
 k-point 42 :  0.12500.00000.5000  plane waves:     760
 k-point 43 :  0.25000.00000.5000  plane waves:     756
 k-point 44 :  0.37500.00000.5000  plane waves:     764
 k-point 45 :  0.50000.00000.5000  plane waves:     768
 k-point 46 :  0.12500.12500.5000  plane waves:     766
 k-point 47 :  0.25000.12500.5000  plane waves:     758
 k-point 48 :  0.37500.12500.5000  plane waves:     766
 k-point 49 :  0.25000.25000.5000  plane waves:     758
 k-point 50 :  0.37500.25000.5000  plane waves:     764

 maximum and minimum number of plane-waves per node :       785      756

 maximum number of plane-waves:       785
 maximum index in each direction: 
   IXMAX=    4   IYMAX=    4   IZMAX=   11
   IXMIN=   -4   IYMIN=   -4   IZMIN=  -12

 NGX is ok and might be reduce to  18
 NGY is ok and might be reduce to  18
 NGZ is ok and might be reduce to  48

 serial   3D FFT for wavefunctions
 parallel 3D FFT for charge:
    minimum data exchange during FFTs selected (reduces bandwidth)


 total amount of memory used by VASP on root node    65563. kBytes
========================================================================

   base      :      30000. kBytes
   nonl-proj :       2562. kBytes
   fftplans  :       4320. kBytes
   grid      :      10357. kBytes
   one-center:         24. kBytes
   wavefun   :      18300. kBytes
 
 Broyden mixing: mesh for mixing (old mesh)
   NGX =  9   NGY =  9   NGZ = 23
  (NGX  = 36   NGY  = 36   NGZ  = 96)
  gives a total of   1863 points

 initial charge density was supplied:
 charge density of overlapping atoms calculated
 number of electron      16.0000000 magnetization       4.0000000
 keeping initial charge density in first step


--------------------------------------------------------------------------------------------------------


 Maximum index for augmentation-charges         5067 (set IRDMAX)


--------------------------------------------------------------------------------------------------------


 First call to EWALD:  gamma=   0.541
 Maximum number of real-space cells 4x 4x 2
 Maximum number of reciprocal cells 2x 2x 5

    FEWALD:  cpu time    0.00: real time    0.00


----------------------------------------- Iteration    1(   1)  ---------------------------------------


    POTLOK:  cpu time    0.40: real time    0.40
    SETDIJ:  cpu time    0.05: real time    0.05
     EDDAV:  cpu time    7.72: real time    7.72
       DOS:  cpu time    0.01: real time    0.01
    --------------------------------------------
      LOOP:  cpu time    8.17: real time    8.18

 eigenvalue-minimisations  :  2800
 total energy-change (2. order) : 0.3372041E+02  (-0.7512256E+03)
 number of electron      16.0000000 magnetization       4.0000000
 augmentation part       16.0000000 magnetization       4.0000000

 Free energy of the ion-electron system (eV)
  ---------------------------------------------------
  alpha Z        PSCENC =        37.04766603
  Ewald energy   TEWEN  =      -460.60042082
  -1/2 Hartree   DENC   =      -148.78490797
  -exchange  EXHF       =         0.00000000
  -V(xc)+E(xc)   XCENC  =        56.10990954
  PAW double counting   =       150.95130483     -155.51722924
  entropy T*S    EENTRO =         0.00006799
  eigenvalues    EBANDS =       -34.06349829
  atomic energy  EATOM  =       588.57751394
  ---------------------------------------------------
  free energy    TOTEN  =        33.72040601 eV

  energy without entropy =       33.72033802  energy(sigma->0) =       33.72038335


--------------------------------------------------------------------------------------------------------




----------------------------------------- Iteration    1(   2)  ---------------------------------------


     EDDAV:  cpu time    9.86: real time    9.86
       DOS:  cpu time    0.01: real time    0.01
    --------------------------------------------
      LOOP:  cpu time    9.86: real time    9.87

 eigenvalue-minimisations  :  3896
 total energy-change (2. order) :-0.6843835E+02  (-0.6274279E+02)
 number of electron      16.0000000 magnetization       4.0000000
 augmentation part       16.0000000 magnetization       4.0000000

 Free energy of the ion-electron system (eV)
  ---------------------------------------------------
  alpha Z        PSCENC =        37.04766603
  Ewald energy   TEWEN  =      -460.60042082
  -1/2 Hartree   DENC   =      -148.78490797
  -exchange  EXHF       =         0.00000000
  -V(xc)+E(xc)   XCENC  =        56.10990954
  PAW double counting   =       150.95130483     -155.51722924
  entropy T*S    EENTRO =         0.00002991
  eigenvalues    EBANDS =      -102.50180961
  atomic energy  EATOM  =       588.57751394
  ---------------------------------------------------
  free energy    TOTEN  =       -34.71794339 eV

  energy without entropy =      -34.71797330  energy(sigma->0) =      -34.71795336


--------------------------------------------------------------------------------------------------------




----------------------------------------- Iteration    1(   3)  ---------------------------------------


     EDDAV:  cpu time    9.49: real time    9.50
       DOS:  cpu time    0.01: real time    0.01
    --------------------------------------------
      LOOP:  cpu time    9.50: real time    9.52

 eigenvalue-minimisations  :  3700
 total energy-change (2. order) :-0.2836392E+01  (-0.2817736E+01)
 number of electron      16.0000000 magnetization       4.0000000
 augmentation part       16.0000000 magnetization       4.0000000

 Free energy of the ion-electron system (eV)
  ---------------------------------------------------
  alpha Z        PSCENC =        37.04766603
  Ewald energy   TEWEN  =      -460.60042082
  -1/2 Hartree   DENC   =      -148.78490797
  -exchange  EXHF       =         0.00000000
  -V(xc)+E(xc)   XCENC  =        56.10990954
  PAW double counting   =       150.95130483     -155.51722924
  entropy T*S    EENTRO =         0.00019632
  eigenvalues    EBANDS =      -105.33836811
  atomic energy  EATOM  =       588.57751394
  ---------------------------------------------------
  free energy    TOTEN  =       -37.55433547 eV

  energy without entropy =      -37.55453179  energy(sigma->0) =      -37.55440091


--------------------------------------------------------------------------------------------------------




----------------------------------------- Iteration    1(   4)  ---------------------------------------


     EDDAV:  cpu time    8.90: real time    8.90
       DOS:  cpu time    0.01: real time    0.01
    --------------------------------------------
      LOOP:  cpu time    8.91: real time    8.93

 eigenvalue-minimisations  :  3400
 total energy-change (2. order) :-0.2795928E-01  (-0.2785383E-01)
 number of electron      16.0000000 magnetization       4.0000000
 augmentation part       16.0000000 magnetization       4.0000000

 Free energy of the ion-electron system (eV)
  ---------------------------------------------------
  alpha Z        PSCENC =        37.04766603
  Ewald energy   TEWEN  =      -460.60042082
  -1/2 Hartree   DENC   =      -148.78490797
  -exchange  EXHF       =         0.00000000
  -V(xc)+E(xc)   XCENC  =        56.10990954
  PAW double counting   =       150.95130483     -155.51722924
  entropy T*S    EENTRO =         0.00010371
  eigenvalues    EBANDS =      -105.36623478
  atomic energy  EATOM  =       588.57751394
  ---------------------------------------------------
  free energy    TOTEN  =       -37.58229475 eV

  energy without entropy =      -37.58239846  energy(sigma->0) =      -37.58232932


--------------------------------------------------------------------------------------------------------




----------------------------------------- Iteration    1(   5)  ---------------------------------------


     EDDAV:  cpu time    9.51: real time    9.52
       DOS:  cpu time    0.01: real time    0.01
    CHARGE:  cpu time    0.66: real time    0.66
    MIXING:  cpu time    0.01: real time    0.01
    --------------------------------------------
      LOOP:  cpu time   10.19: real time   10.20

 eigenvalue-minimisations  :  3708
 total energy-change (2. order) :-0.4639362E-03  (-0.5586521E-03)
 number of electron      15.9999995 magnetization       1.0089501
 augmentation part        0.4269975 magnetization       1.0103093

 Broyden mixing:
  rms(total) = 0.12336E+01    rms(broyden)= 0.12335E+01
  rms(prec ) = 0.15820E+01
  weight for this iteration     100.00

 Free energy of the ion-electron system (eV)
  ---------------------------------------------------
  alpha Z        PSCENC =        37.04766603
  Ewald energy   TEWEN  =      -460.60042082
  -1/2 Hartree   DENC   =      -148.78490797
  -exchange  EXHF       =         0.00000000
  -V(xc)+E(xc)   XCENC  =        56.10990954
  PAW double counting   =       150.95130483     -155.51722924
  entropy T*S    EENTRO =         0.00019482
  eigenvalues    EBANDS =      -105.36678982
  atomic energy  EATOM  =       588.57751394
  ---------------------------------------------------
  free energy    TOTEN  =       -37.58275869 eV

  energy without entropy =      -37.58295351  energy(sigma->0) =      -37.58282363


--------------------------------------------------------------------------------------------------------




----------------------------------------- Iteration    1(   6)  ---------------------------------------


    POTLOK:  cpu time    0.39: real time    0.39
    SETDIJ:  cpu time    0.05: real time    0.05
     EDDAV:  cpu time    8.31: real time    8.31
       DOS:  cpu time    0.01: real time    0.01
    CHARGE:  cpu time    0.64: real time    0.64
    MIXING:  cpu time    0.01: real time    0.01
    --------------------------------------------
      LOOP:  cpu time    9.41: real time    9.43

 eigenvalue-minimisations  :  3100
 total energy-change (2. order) : 0.7940763E+00  (-0.2217641E+00)
 number of electron      15.9999995 magnetization       0.0519519
 augmentation part        0.4090290 magnetization       0.0444956

 Broyden mixing:
  rms(total) = 0.47868E+00    rms(broyden)= 0.47865E+00
  rms(prec ) = 0.70364E+00
  weight for this iteration     100.00

 eigenvalues of (default mixing * dielectric matrix)
  average eigenvalue GAMMA=   0.9504
  0.9504

 Free energy of the ion-electron system (eV)
  ---------------------------------------------------
  alpha Z        PSCENC =        37.04766603
  Ewald energy   TEWEN  =      -460.60042082
  -1/2 Hartree   DENC   =      -165.30359594
  -exchange  EXHF       =         0.00000000
  -V(xc)+E(xc)   XCENC  =        56.83018988
  PAW double counting   =       205.94290008     -210.90487079
  entropy T*S    EENTRO =         0.00008027
  eigenvalues    EBANDS =       -88.37814505
  atomic energy  EATOM  =       588.57751394
  ---------------------------------------------------
  free energy    TOTEN  =       -36.78868240 eV

  energy without entropy =      -36.78876267  energy(sigma->0) =      -36.78870916


--------------------------------------------------------------------------------------------------------




----------------------------------------- Iteration    1(   7)  ---------------------------------------


    POTLOK:  cpu time    0.39: real time    0.39
    SETDIJ:  cpu time    0.05: real time    0.05
     EDDAV:  cpu time    8.38: real time    8.38
       DOS:  cpu time    0.01: real time    0.01
    CHARGE:  cpu time    0.63: real time    0.64
    MIXING:  cpu time    0.01: real time    0.01
    --------------------------------------------
      LOOP:  cpu time    9.47: real time    9.48

 eigenvalue-minimisations  :  3136
 total energy-change (2. order) :-0.8860462E-01  (-0.1413683E+00)
 number of electron      15.9999995 magnetization      -0.1400826
 augmentation part        0.3941988 magnetization      -0.1393176

 Broyden mixing:
  rms(total) = 0.18806E+00    rms(broyden)= 0.18801E+00
  rms(prec ) = 0.26850E+00
  weight for this iteration     100.00

 eigenvalues of (default mixing * dielectric matrix)
  average eigenvalue GAMMA=   1.1882
  0.8396  1.5369

 Free energy of the ion-electron system (eV)
  ---------------------------------------------------
  alpha Z        PSCENC =        37.04766603
  Ewald energy   TEWEN  =      -460.60042082
  -1/2 Hartree   DENC   =      -176.86027754
  -exchange  EXHF       =         0.00000000
  -V(xc)+E(xc)   XCENC  =        57.25171119
  PAW double counting   =       248.22302259     -253.38374437
  entropy T*S    EENTRO =         0.00017535
  eigenvalues    EBANDS =       -77.13293337
  atomic energy  EATOM  =       588.57751394
  ---------------------------------------------------
  free energy    TOTEN  =       -36.87728702 eV

  energy without entropy =      -36.87746237  energy(sigma->0) =      -36.87734547


--------------------------------------------------------------------------------------------------------




----------------------------------------- Iteration    1(   8)  ---------------------------------------


    POTLOK:  cpu time    0.39: real time    0.39
    SETDIJ:  cpu time    0.05: real time    0.05
     EDDAV:  cpu time    8.90: real time    8.90
       DOS:  cpu time    0.01: real time    0.01
    CHARGE:  cpu time    0.64: real time    0.64
    MIXING:  cpu time    0.01: real time    0.01
    --------------------------------------------
      LOOP:  cpu time    9.99: real time   10.01

 eigenvalue-minimisations  :  3400
 total energy-change (2. order) : 0.5483799E-01  (-0.2602362E-01)
 number of electron      15.9999995 magnetization      -0.0317635
 augmentation part        0.3868428 magnetization      -0.0294799

 Broyden mixing:
  rms(total) = 0.66975E-01    rms(broyden)= 0.66924E-01
  rms(prec ) = 0.79383E-01
  weight for this iteration     100.00

 eigenvalues of (default mixing * dielectric matrix)
  average eigenvalue GAMMA=   1.1789
  1.7919  0.9705  0.7743

 Free energy of the ion-electron system (eV)
  ---------------------------------------------------
  alpha Z        PSCENC =        37.04766603
  Ewald energy   TEWEN  =      -460.60042082
  -1/2 Hartree   DENC   =      -182.81942234
  -exchange  EXHF       =         0.00000000
  -V(xc)+E(xc)   XCENC  =        57.64965891
  PAW double counting   =       272.96511411     -278.19447286
  entropy T*S    EENTRO =         0.00017664
  eigenvalues    EBANDS =       -71.44826263
  atomic energy  EATOM  =       588.57751394
  ---------------------------------------------------
  free energy    TOTEN  =       -36.82244903 eV

  energy without entropy =      -36.82262567  energy(sigma->0) =      -36.82250791


--------------------------------------------------------------------------------------------------------




----------------------------------------- Iteration    1(   9)  ---------------------------------------


    POTLOK:  cpu time    0.39: real time    0.39
    SETDIJ:  cpu time    0.05: real time    0.05
     EDDAV:  cpu time    8.44: real time    8.45
       DOS:  cpu time    0.01: real time    0.01
    CHARGE:  cpu time    0.63: real time    0.63
    MIXING:  cpu time    0.01: real time    0.01
    --------------------------------------------
      LOOP:  cpu time    9.53: real time    9.55

 eigenvalue-minimisations  :  3178
 total energy-change (2. order) :-0.1173719E-01  (-0.1928899E-02)
 number of electron      15.9999995 magnetization       0.0135489
 augmentation part        0.3854609 magnetization       0.0159159

 Broyden mixing:
  rms(total) = 0.33689E-01    rms(broyden)= 0.33682E-01
  rms(prec ) = 0.40127E-01
  weight for this iteration     100.00

 eigenvalues of (default mixing * dielectric matrix)
  average eigenvalue GAMMA=   1.2666
  2.1358  1.3606  0.8928  0.6772

 Free energy of the ion-electron system (eV)
  ---------------------------------------------------
  alpha Z        PSCENC =        37.04766603
  Ewald energy   TEWEN  =      -460.60042082
  -1/2 Hartree   DENC   =      -183.49560111
  -exchange  EXHF       =         0.00000000
  -V(xc)+E(xc)   XCENC  =        57.68686955
  PAW double counting   =       277.44509680     -282.65542934
  entropy T*S    EENTRO =         0.00016606
  eigenvalues    EBANDS =       -70.84004732
  atomic energy  EATOM  =       588.57751394
  ---------------------------------------------------
  free energy    TOTEN  =       -36.83418622 eV

  energy without entropy =      -36.83435228  energy(sigma->0) =      -36.83424157


--------------------------------------------------------------------------------------------------------




----------------------------------------- Iteration    1(  10)  ---------------------------------------


    POTLOK:  cpu time    0.39: real time    0.39
    SETDIJ:  cpu time    0.05: real time    0.05
     EDDAV:  cpu time    9.15: real time    9.15
       DOS:  cpu time    0.01: real time    0.01
    CHARGE:  cpu time    0.64: real time    0.64
    MIXING:  cpu time    0.01: real time    0.01
    --------------------------------------------
      LOOP:  cpu time   10.24: real time   10.26

 eigenvalue-minimisations  :  3520
 total energy-change (2. order) :-0.3685667E-03  (-0.1750198E-03)
 number of electron      15.9999995 magnetization       0.0093971
 augmentation part        0.3853850 magnetization       0.0084242

 Broyden mixing:
  rms(total) = 0.12485E-01    rms(broyden)= 0.12484E-01
  rms(prec ) = 0.15237E-01
  weight for this iteration     100.00

 eigenvalues of (default mixing * dielectric matrix)
  average eigenvalue GAMMA=   1.2464
  2.3057  1.5123  0.8970  0.8648  0.6524

 Free energy of the ion-electron system (eV)
  ---------------------------------------------------
  alpha Z        PSCENC =        37.04766603
  Ewald energy   TEWEN  =      -460.60042082
  -1/2 Hartree   DENC   =      -183.73282599
  -exchange  EXHF       =         0.00000000
  -V(xc)+E(xc)   XCENC  =        57.70442801
  PAW double counting   =       279.62952464     -284.81967146
  entropy T*S    EENTRO =         0.00017573
  eigenvalues    EBANDS =       -70.64094487
  atomic energy  EATOM  =       588.57751394
  ---------------------------------------------------
  free energy    TOTEN  =       -36.83455479 eV

  energy without entropy =      -36.83473052  energy(sigma->0) =      -36.83461337


--------------------------------------------------------------------------------------------------------




----------------------------------------- Iteration    1(  11)  ---------------------------------------


    POTLOK:  cpu time    0.39: real time    0.39
    SETDIJ:  cpu time    0.05: real time    0.05
     EDDAV:  cpu time    8.59: real time    8.59
       DOS:  cpu time    0.01: real time    0.01
    CHARGE:  cpu time    0.64: real time    0.64
    MIXING:  cpu time    0.01: real time    0.01
    --------------------------------------------
      LOOP:  cpu time    9.69: real time    9.70

 eigenvalue-minimisations  :  3232
 total energy-change (2. order) :-0.2319884E-03  (-0.5560417E-04)
 number of electron      15.9999995 magnetization       0.0015835
 augmentation part        0.3854379 magnetization       0.0007931

 Broyden mixing:
  rms(total) = 0.49522E-02    rms(broyden)= 0.49521E-02
  rms(prec ) = 0.58692E-02
  weight for this iteration     100.00

 eigenvalues of (default mixing * dielectric matrix)
  average eigenvalue GAMMA=   1.3200
  2.4977  1.8675  1.2912  0.8941  0.7453  0.6242

 Free energy of the ion-electron system (eV)
  ---------------------------------------------------
  alpha Z        PSCENC =        37.04766603
  Ewald energy   TEWEN  =      -460.60042082
  -1/2 Hartree   DENC   =      -183.77517245
  -exchange  EXHF       =         0.00000000
  -V(xc)+E(xc)   XCENC  =        57.70821672
  PAW double counting   =       280.16621371     -285.34605358
  entropy T*S    EENTRO =         0.00017504
  eigenvalues    EBANDS =       -70.61292536
  atomic energy  EATOM  =       588.57751394
  ---------------------------------------------------
  free energy    TOTEN  =       -36.83478678 eV

  energy without entropy =      -36.83496182  energy(sigma->0) =      -36.83484512


--------------------------------------------------------------------------------------------------------




----------------------------------------- Iteration    1(  12)  ---------------------------------------


    POTLOK:  cpu time    0.39: real time    0.39
    SETDIJ:  cpu time    0.05: real time    0.05
     EDDAV:  cpu time    7.48: real time    7.48
       DOS:  cpu time    0.01: real time    0.01
    --------------------------------------------
      LOOP:  cpu time    7.93: real time    7.94

 eigenvalue-minimisations  :  2628
 total energy-change (2. order) :-0.3860678E-04  (-0.9977964E-05)
 number of electron      15.9999995 magnetization       0.0015835
 augmentation part        0.3854379 magnetization       0.0007931

 Free energy of the ion-electron system (eV)
  ---------------------------------------------------
  alpha Z        PSCENC =        37.04766603
  Ewald energy   TEWEN  =      -460.60042082
  -1/2 Hartree   DENC   =      -183.78502396
  -exchange  EXHF       =         0.00000000
  -V(xc)+E(xc)   XCENC  =        57.70932096
  PAW double counting   =       280.20860155     -285.38484645
  entropy T*S    EENTRO =         0.00017464
  eigenvalues    EBANDS =       -70.60781128
  atomic energy  EATOM  =       588.57751394
  ---------------------------------------------------
  free energy    TOTEN  =       -36.83482538 eV

  energy without entropy =      -36.83500002  energy(sigma->0) =      -36.83488360


--------------------------------------------------------------------------------------------------------




 average (electrostatic) potential at core
  the test charge radii are     0.6991
  (the norm of the test charge is              1.0000)
       1 -50.6487       2 -50.6817       3 -50.6817       4 -50.6487
 
 
 
 E-fermi :   3.9618     XC(G=0): -10.3212     alpha+bet :-11.4114


 spin component 1

 k-point   1 :       0.0000    0.0000    0.0000
  band No.  band energies     occupation 
      1     -14.9655      1.00000
      2     -14.6653      1.00000
      3      -3.8270      1.00000
      4      -1.8616      1.00000
      5       1.7167      1.00000
      6       1.7167      1.00000
      7       1.7356      1.00000
      8       1.7356      1.00000
      9       8.9912      0.00000
     10      13.0875      0.00000
     11      13.0875      0.00000
     12      13.1414      0.00000
     13      13.1414      0.00000
     14      15.2846      0.00000

 k-point   2 :       0.1250    0.0000    0.0000
  band No.  band energies     occupation 
      1     -14.5919      1.00000
      2     -14.2984      1.00000
      3      -3.3737      1.00000
      4      -1.4384      1.00000
      5       0.3151      1.00000
      6       0.3629      1.00000
      7       1.0022      1.00000
      8       1.0367      1.00000
      9       9.4431      0.00000
     10      13.1298      0.00000
     11      13.2543      0.00000
     12      14.6009      0.00000
     13      14.6511      0.00000
     14      14.8440      0.00000

 k-point   3 :       0.2500    0.0000    0.0000
  band No.  band energies     occupation 
      1     -13.4807      1.00000
      2     -13.2073      1.00000
      3      -2.7291      1.00000
      4      -2.6298      1.00000
      5      -2.0387      1.00000
      6      -0.3203      1.00000
      7      -0.2717      1.00000
      8      -0.2063      1.00000
      9      10.7947      0.00000
     10      11.6970      0.00000
     11      12.3384      0.00000
     12      12.7143      0.00000
     13      13.0060      0.00000
     14      16.5950      0.00000

 k-point   4 :       0.3750    0.0000    0.0000
  band No.  band energies     occupation 
      1     -11.6701      1.00000
      2     -11.4294      1.00000
      3      -6.0447      1.00000
      4      -5.8952      1.00000
      5      -1.3342      1.00000
      6      -1.2804      1.00000
      7       0.0550      1.00000
      8       1.6188      1.00000
      9       8.0864      0.00000
     10       9.0743      0.00000
     11      12.1698      0.00000
     12      12.4942      0.00000
     13      13.1562      0.00000
     14      17.9414      0.00000

 k-point   5 :       0.5000    0.0000    0.0000
  band No.  band energies     occupation 
      1      -9.6082      1.00000
      2      -9.4963      1.00000
      3      -8.5519      1.00000
      4      -8.4675      1.00000
      5      -1.6986      1.00000
      6      -1.6435      1.00000
      7       1.9421      1.00000
      8       2.6278      1.00000
      9       6.2290      0.00000
     10       6.9055      0.00000
     11      11.9780      0.00000
     12      12.3742      0.00000
     13      16.0122      0.00000
     14      16.1400      0.00000

 k-point   6 :       0.1250    0.1250    0.0000
  band No.  band energies     occupation 
      1     -13.8495      1.00000
      2     -13.5695      1.00000
      3      -2.4784      1.00000
      4      -1.4924      1.00000
      5      -1.4490      1.00000
      6      -0.6082      1.00000
      7      -0.4085      1.00000
      8      -0.3780      1.00000
      9      10.3537      0.00000
     10      12.7814      0.00000
     11      13.1831      0.00000
     12      13.9286      0.00000
     13      14.1007      0.00000
     14      15.6250      0.00000

 k-point   7 :       0.2500    0.1250    0.0000
  band No.  band energies     occupation 
      1     -12.3877      1.00000
      2     -12.1339      1.00000
      3      -4.3247      1.00000
      4      -4.2144      1.00000
      5      -1.9517      1.00000
      6      -1.8841      1.00000
      7      -0.7460      1.00000
      8       0.9607      1.00000
      9       9.6223      0.00000
     10      10.2930      0.00000
     11      12.1525      0.00000
     12      13.9270      0.00000
     13      14.3049      0.00000
     14      17.0584      0.00000

 k-point   8 :       0.3750    0.1250    0.0000
  band No.  band energies     occupation 
      1     -10.2898      1.00000
      2     -10.0794      1.00000
      3      -7.3608      1.00000
      4      -7.2016      1.00000
      5      -2.7279      1.00000
      6      -2.6473      1.00000
      7       1.5473      1.00000
      8       2.7444      1.00000
      9       6.6371      0.00000
     10       7.4345      0.00000
     11      13.5376      0.00000
     12      13.9749      0.00000
     13      14.8184      0.00000
     14      17.7217      0.00000

 k-point   9 :       0.2500    0.2500    0.0000
  band No.  band energies     occupation 
      1     -10.6238      1.00000
      2     -10.4031      1.00000
      3      -5.8273      1.00000
      4      -5.7512      1.00000
      5      -4.2509      1.00000
      6      -4.1946      1.00000
      7       1.2872      1.00000
      8       2.7289      1.00000
      9       7.2457      0.00000
     10       7.8486      0.00000
     11      14.3267      0.00000
     12      16.6270      0.00000
     13      16.6542      0.00000
     14      16.8558      0.00000

 k-point  10 :       0.3750    0.2500    0.0000
  band No.  band energies     occupation 
      1      -8.6521      1.00000
      2      -8.5502      1.00000
      3      -7.7375      1.00000
      4      -7.6935      1.00000
      5      -5.0607      1.00000
      6      -4.9583      1.00000
      7       3.2797      1.00000
      8       3.9280      0.95129
      9       5.6977      0.00000
     10       5.8725      0.00000
     11      16.2557      0.00000
     12      16.2690      0.00000
     13      16.4315      0.00000
     14      16.7956      0.00000

 k-point  11 :       0.0000    0.0000    0.1250
  band No.  band energies     occupation 
      1     -14.9548      1.00000
      2     -14.6775      1.00000
      3      -3.7639      1.00000
      4      -1.9540      1.00000
      5       1.7181      1.00000
      6       1.7181      1.00000
      7       1.7351      1.00000
      8       1.7351      1.00000
      9       9.1840      0.00000
     10      13.0902      0.00000
     11      13.0902      0.00000
     12      13.1366      0.00000
     13      13.1367      0.00000
     14      14.8932      0.00000

 k-point  12 :       0.1250    0.0000    0.1250
  band No.  band energies     occupation 
      1     -14.5814      1.00000
      2     -14.3103      1.00000
      3      -3.3116      1.00000
      4      -1.5289      1.00000
      5       0.3169      1.00000
      6       0.3611      1.00000
      7       1.0035      1.00000
      8       1.0352      1.00000
      9       9.6324      0.00000
     10      13.1310      0.00000
     11      13.2501      0.00000
     12      14.6028      0.00000
     13      14.6471      0.00000
     14      14.8537      0.00000

 k-point  13 :       0.2500    0.0000    0.1250
  band No.  band energies     occupation 
      1     -13.4709      1.00000
      2     -13.2183      1.00000
      3      -2.7254      1.00000
      4      -2.6337      1.00000
      5      -1.9794      1.00000
      6      -0.3185      1.00000
      7      -0.2910      1.00000
      8      -0.2737      1.00000
      9      10.9604      0.00000
     10      11.7305      0.00000
     11      12.3022      0.00000
     12      12.7243      0.00000
     13      13.0062      0.00000
     14      16.2772      0.00000

 k-point  14 :       0.3750    0.0000    0.1250
  band No.  band energies     occupation 
      1     -11.6613      1.00000
      2     -11.4390      1.00000
      3      -6.0391      1.00000
      4      -5.9010      1.00000
      5      -1.3322      1.00000
      6      -1.2824      1.00000
      7       0.1076      1.00000
      8       1.5503      1.00000
      9       8.1122      0.00000
     10       9.0268      0.00000
     11      12.1864      0.00000
     12      12.4909      0.00000
     13      13.3118      0.00000
     14      17.6973      0.00000

 k-point  15 :       0.5000    0.0000    0.1250
  band No.  band energies     occupation 
      1      -9.6033      1.00000
      2      -9.4997      1.00000
      3      -8.5502      1.00000
      4      -8.4720      1.00000
      5      -1.6965      1.00000
      6      -1.6453      1.00000
      7       1.9756      1.00000
      8       2.6138      1.00000
      9       6.2237      0.00000
     10       6.8541      0.00000
     11      11.9924      0.00000
     12      12.3587      0.00000
     13      16.1594      0.00000
     14      16.2459      0.00000

 k-point  16 :       0.1250    0.1250    0.1250
  band No.  band energies     occupation 
      1     -13.8394      1.00000
      2     -13.5808      1.00000
      3      -2.4181      1.00000
      4      -1.4907      1.00000
      5      -1.4505      1.00000
      6      -0.6950      1.00000
      7      -0.4073      1.00000
      8      -0.3791      1.00000
      9      10.5353      0.00000
     10      12.7933      0.00000
     11      13.1643      0.00000
     12      13.9321      0.00000
     13      14.1042      0.00000
     14      15.6293      0.00000

 k-point  17 :       0.2500    0.1250    0.1250
  band No.  band energies     occupation 
      1     -12.3785      1.00000
      2     -12.1440      1.00000
      3      -4.3206      1.00000
      4      -4.2186      1.00000
      5      -1.9493      1.00000
      6      -1.8868      1.00000
      7      -0.6900      1.00000
      8       0.8832      1.00000
      9       9.6439      0.00000
     10      10.2646      0.00000
     11      12.3163      0.00000
     12      13.9381      0.00000
     13      14.2972      0.00000
     14      16.8164      0.00000

 k-point  18 :       0.3750    0.1250    0.1250
  band No.  band energies     occupation 
      1     -10.2821      1.00000
      2     -10.0877      1.00000
      3      -7.3551      1.00000
      4      -7.2079      1.00000
      5      -2.7249      1.00000
      6      -2.6505      1.00000
      7       1.5914      1.00000
      8       2.6990      1.00000
      9       6.6514      0.00000
     10       7.3918      0.00000
     11      13.5532      0.00000
     12      13.9571      0.00000
     13      14.9386      0.00000
     14      17.4062      0.00000

 k-point  19 :       0.2500    0.2500    0.1250
  band No.  band energies     occupation 
      1     -10.6158      1.00000
      2     -10.4119      1.00000
      3      -5.8243      1.00000
      4      -5.7539      1.00000
      5      -4.2492      1.00000
      6      -4.1971      1.00000
      7       1.3362      1.00000
      8       2.6668      1.00000
      9       7.2692      0.00000
     10       7.8251      0.00000
     11      14.4152      0.00000
     12      16.3215      0.00000
     13      16.8497      0.00000
     14      16.8866      0.00000

 k-point  20 :       0.3750    0.2500    0.1250
  band No.  band energies     occupation 
      1      -8.6476      1.00000
      2      -8.5532      1.00000
      3      -7.7370      1.00000
      4      -7.6962      1.00000
      5      -5.0571      1.00000
      6      -4.9624      1.00000
      7       3.3139      1.00000
      8       3.9190      1.00302
      9       5.6917      0.00000
     10       5.8440      0.00000
     11      15.8883      0.00000
     12      15.9701      0.00000
     13      16.5353      0.00000
     14      17.1441      0.00000

 k-point  21 :       0.0000    0.0000    0.2500
  band No.  band energies     occupation 
      1     -14.9239      1.00000
      2     -14.7118      1.00000
      3      -3.5809      1.00000
      4      -2.2055      1.00000
      5       1.7200      1.00000
      6       1.7200      1.00000
      7       1.7332      1.00000
      8       1.7332      1.00000
      9       9.7361      0.00000
     10      13.0958      0.00000
     11      13.0958      0.00000
     12      13.1313      0.00000
     13      13.1313      0.00000
     14      13.9565      0.00000

 k-point  22 :       0.1250    0.0000    0.2500
  band No.  band energies     occupation 
      1     -14.5512      1.00000
      2     -14.3439      1.00000
      3      -3.1311      1.00000
      4      -1.7764      1.00000
      5       0.3218      1.00000
      6       0.3557      1.00000
      7       1.0069      1.00000
      8       1.0313      1.00000
      9      10.1738      0.00000
     10      13.1260      0.00000
     11      13.2381      0.00000
     12      14.3469      0.00000
     13      14.6062      0.00000
     14      14.6409      0.00000

 k-point  23 :       0.2500    0.0000    0.2500
  band No.  band energies     occupation 
      1     -13.4426      1.00000
      2     -13.2494      1.00000
      3      -2.7148      1.00000
      4      -2.6448      1.00000
      5      -1.8071      1.00000
      6      -0.5234      1.00000
      7      -0.3129      1.00000
      8      -0.2788      1.00000
      9      11.3951      0.00000
     10      11.8592      0.00000
     11      12.2115      0.00000
     12      12.7505      0.00000
     13      13.0075      0.00000
     14      15.4789      0.00000

 k-point  24 :       0.3750    0.0000    0.2500
  band No.  band energies     occupation 
      1     -11.6363      1.00000
      2     -11.4662      1.00000
      3      -6.0234      1.00000
      4      -5.9177      1.00000
      5      -1.3262      1.00000
      6      -1.2885      1.00000
      7       0.2595      1.00000
      8       1.3600      1.00000
      9       8.1911      0.00000
     10       8.8932      0.00000
     11      12.2289      0.00000
     12      12.4672      0.00000
     13      13.7703      0.00000
     14      17.0767      0.00000

 k-point  25 :       0.5000    0.0000    0.2500
  band No.  band energies     occupation 
      1      -9.5894      1.00000
      2      -9.5098      1.00000
      3      -8.5446      1.00000
      4      -8.4844      1.00000
      5      -1.6904      1.00000
      6      -1.6514      1.00000
      7       2.0687      1.00000
      8       2.5656      1.00000
      9       6.2246      0.00000
     10       6.7146      0.00000
     11      12.0338      0.00000
     12      12.3143      0.00000
     13      16.5396      0.00000
     14      16.5695      0.00000

 k-point  26 :       0.1250    0.1250    0.2500
  band No.  band energies     occupation 
      1     -13.8106      1.00000
      2     -13.6127      1.00000
      3      -2.2431      1.00000
      4      -1.4860      1.00000
      5      -1.4548      1.00000
      6      -0.9331      1.00000
      7      -0.4045      1.00000
      8      -0.3828      1.00000
      9      11.0540      0.00000
     10      12.8294      0.00000
     11      13.1109      0.00000
     12      13.9266      0.00000
     13      14.1088      0.00000
     14      15.0826      0.00000

 k-point  27 :       0.2500    0.1250    0.2500
  band No.  band energies     occupation 
      1     -12.3522      1.00000
      2     -12.1728      1.00000
      3      -4.3089      1.00000
      4      -4.2309      1.00000
      5      -1.9422      1.00000
      6      -1.8943      1.00000
      7      -0.5278      1.00000
      8       0.6696      1.00000
      9       9.7070      0.00000
     10      10.1854      0.00000
     11      12.7763      0.00000
     12      13.9670      0.00000
     13      14.2778      0.00000
     14      16.2005      0.00000

 k-point  28 :       0.3750    0.1250    0.2500
  band No.  band energies     occupation 
      1     -10.2601      1.00000
      2     -10.1113      1.00000
      3      -7.3385      1.00000
      4      -7.2259      1.00000
      5      -2.7164      1.00000
      6      -2.6594      1.00000
      7       1.7181      1.00000
      8       2.5687      1.00000
      9       6.7016      0.00000
     10       7.2757      0.00000
     11      13.5976      0.00000
     12      13.9059      0.00000
     13      15.2708      0.00000
     14      17.0764      0.00000

 k-point  29 :       0.2500    0.2500    0.2500
  band No.  band energies     occupation 
      1     -10.5928      1.00000
      2     -10.4367      1.00000
      3      -5.8157      1.00000
      4      -5.7618      1.00000
      5      -4.2443      1.00000
      6      -4.2044      1.00000
      7       1.4775      1.00000
      8       2.4925      1.00000
      9       7.3343      0.00000
     10       7.7585      0.00000
     11      14.6454      0.00000
     12      15.9632      0.00000
     13      16.9038      0.00000
     14      17.0566      0.00000

 k-point  30 :       0.3750    0.2500    0.2500
  band No.  band energies     occupation 
      1      -8.6349      1.00000
      2      -8.5623      1.00000
      3      -7.7351      1.00000
      4      -7.7034      1.00000
      5      -5.0467      1.00000
      6      -4.9744      1.00000
      7       3.4102      1.00000
      8       3.8852      1.02618
      9       5.6758      0.00000
     10       5.7755      0.00000
     11      15.4763      0.00000
     12      15.5965      0.00000
     13      16.7374      0.00000
     14      17.4814      0.00000

 k-point  31 :       0.0000    0.0000    0.3750
  band No.  band energies     occupation 
      1     -14.8770      1.00000
      2     -14.7623      1.00000
      3      -3.2962      1.00000
      4      -2.5571      1.00000
      5       1.7227      1.00000
      6       1.7227      1.00000
      7       1.7302      1.00000
      8       1.7302      1.00000
      9      10.5798      0.00000
     10      12.7986      0.00000
     11      13.1021      0.00000
     12      13.1021      0.00000
     13      13.1224      0.00000
     14      13.1225      0.00000

 k-point  32 :       0.1250    0.0000    0.3750
  band No.  band energies     occupation 
      1     -14.5053      1.00000
      2     -14.3931      1.00000
      3      -2.8502      1.00000
      4      -2.1222      1.00000
      5       0.3296      1.00000
      6       0.3479      1.00000
      7       1.0126      1.00000
      8       1.0257      1.00000
      9      10.9994      0.00000
     10      12.9904      0.00000
     11      13.2222      0.00000
     12      13.3774      0.00000
     13      14.6142      0.00000
     14      14.6324      0.00000

 k-point  33 :       0.2500    0.0000    0.3750
  band No.  band energies     occupation 
      1     -13.3997      1.00000
      2     -13.2952      1.00000
      3      -2.6990      1.00000
      4      -2.6611      1.00000
      5      -1.5396      1.00000
      6      -0.8492      1.00000
      7      -0.3052      1.00000
      8      -0.2867      1.00000
      9      11.7582      0.00000
     10      12.0811      0.00000
     11      12.3153      0.00000
     12      12.7785      0.00000
     13      13.0456      0.00000
     14      14.4699      0.00000

 k-point  34 :       0.3750    0.0000    0.3750
  band No.  band energies     occupation 
      1     -11.5984      1.00000
      2     -11.5064      1.00000
      3      -5.9996      1.00000
      4      -5.9425      1.00000
      5      -1.3176      1.00000
      6      -1.2971      1.00000
      7       0.4937      1.00000
      8       1.0875      1.00000
      9       8.3262      0.00000
     10       8.7080      0.00000
     11      12.2877      0.00000
     12      12.4182      0.00000
     13      14.4756      0.00000
     14      16.2417      0.00000

 k-point  35 :       0.5000    0.0000    0.3750
  band No.  band energies     occupation 
      1      -9.5694      1.00000
      2      -9.5261      1.00000
      3      -8.5343      1.00000
      4      -8.5015      1.00000
      5      -1.6815      1.00000
      6      -1.6604      1.00000
      7       2.2034      1.00000
      8       2.4767      1.00000
      9       6.2669      0.00000
     10       6.5370      0.00000
     11      12.0965      0.00000
     12      12.2483      0.00000
     13      16.9517      0.00000
     14      17.1199      0.00000

 k-point  36 :       0.1250    0.1250    0.3750
  band No.  band energies     occupation 
      1     -13.7667      1.00000
      2     -13.6597      1.00000
      3      -1.9710      1.00000
      4      -1.4794      1.00000
      5      -1.4614      1.00000
      6      -1.2655      1.00000
      7      -0.3998      1.00000
      8      -0.3879      1.00000
      9      11.8424      0.00000
     10      12.8851      0.00000
     11      13.0392      0.00000
     12      13.7190      0.00000
     13      14.1111      0.00000
     14      14.2665      0.00000

 k-point  37 :       0.2500    0.1250    0.3750
  band No.  band energies     occupation 
      1     -12.3123      1.00000
      2     -12.2153      1.00000
      3      -4.2912      1.00000
      4      -4.2490      1.00000
      5      -1.9315      1.00000
      6      -1.9054      1.00000
      7      -0.2765      1.00000
      8       0.3682      1.00000
      9       9.8094      0.00000
     10      10.0699      0.00000
     11      13.4353      0.00000
     12      13.9982      0.00000
     13      14.2802      0.00000
     14      15.3834      0.00000

 k-point  38 :       0.3750    0.1250    0.3750
  band No.  band energies     occupation 
      1     -10.2267      1.00000
      2     -10.1462      1.00000
      3      -7.3133      1.00000
      4      -7.2523      1.00000
      5      -2.7034      1.00000
      6      -2.6726      1.00000
      7       1.9101      1.00000
      8       2.3724      1.00000
      9       6.7999      0.00000
     10       7.1145      0.00000
     11      13.6643      0.00000
     12      13.8307      0.00000
     13      15.7365      0.00000
     14      16.6937      0.00000

 k-point  39 :       0.2500    0.2500    0.3750
  band No.  band energies     occupation 
      1     -10.5579      1.00000
      2     -10.4734      1.00000
      3      -5.8029      1.00000
      4      -5.7738      1.00000
      5      -4.2362      1.00000
      6      -4.2146      1.00000
      7       1.6953      1.00000
      8       2.2429      1.00000
      9       7.4320      0.00000
     10       7.6606      0.00000
     11      14.9431      0.00000
     12      15.6026      0.00000
     13      17.0743      0.00000
     14      17.1624      0.00000

 k-point  40 :       0.3750    0.2500    0.3750
  band No.  band energies     occupation 
      1      -8.6166      1.00000
      2      -8.5772      1.00000
      3      -7.7306      1.00000
      4      -7.7133      1.00000
      5      -5.0308      1.00000
      6      -4.9917      1.00000
      7       3.5466      1.00000
      8       3.8107      1.00008
      9       5.6613      0.00000
     10       5.7058      0.00000
     11      15.2374      0.00000
     12      15.3197      0.00000
     13      16.9799      0.00000
     14      17.3671      0.00000

 k-point  41 :       0.0000    0.0000    0.5000
  band No.  band energies     occupation 
      1     -14.8204      1.00000
      2     -14.8204      1.00000
      3      -2.9402      1.00000
      4      -2.9402      1.00000
      5       1.7270      1.00000
      6       1.7270      1.00000
      7       1.7270      1.00000
      8       1.7270      1.00000
      9      11.6317      0.00000
     10      11.6317      0.00000
     11      13.1125      0.00000
     12      13.1125      0.00000
     13      13.1125      0.00000
     14      13.1125      0.00000

 k-point  42 :       0.1250    0.0000    0.5000
  band No.  band energies     occupation 
      1     -14.4499      1.00000
      2     -14.4499      1.00000
      3      -2.4993      1.00000
      4      -2.4993      1.00000
      5       0.3390      1.00000
      6       0.3390      1.00000
      7       1.0191      1.00000
      8       1.0191      1.00000
      9      12.0188      0.00000
     10      12.0188      0.00000
     11      13.2210      0.00000
     12      13.2210      0.00000
     13      14.6240      0.00000
     14      14.6240      0.00000

 k-point  43 :       0.2500    0.0000    0.5000
  band No.  band energies     occupation 
      1     -13.3481      1.00000
      2     -13.3481      1.00000
      3      -2.6801      1.00000
      4      -2.6801      1.00000
      5      -1.2063      1.00000
      6      -1.2063      1.00000
      7      -0.2960      1.00000
      8      -0.2960      1.00000
      9      11.9343      0.00000
     10      11.9343      0.00000
     11      12.7459      0.00000
     12      12.7459      0.00000
     13      13.4970      0.00000
     14      13.4970      0.00000

 k-point  44 :       0.3750    0.0000    0.5000
  band No.  band energies     occupation 
      1     -11.5528      1.00000
      2     -11.5528      1.00000
      3      -5.9712      1.00000
      4      -5.9712      1.00000
      5      -1.3073      1.00000
      6      -1.3073      1.00000
      7       0.7826      1.00000
      8       0.7826      1.00000
      9       8.5071      0.00000
     10       8.5071      0.00000
     11      12.3544      0.00000
     12      12.3544      0.00000
     13      15.3347      0.00000
     14      15.3347      0.00000

 k-point  45 :       0.5000    0.0000    0.5000
  band No.  band energies     occupation 
      1      -9.5470      1.00000
      2      -9.5470      1.00000
      3      -8.5193      1.00000
      4      -8.5193      1.00000
      5      -1.6711      1.00000
      6      -1.6711      1.00000
      7       2.3492      1.00000
      8       2.3492      1.00000
      9       6.3739      0.00000
     10       6.3739      0.00000
     11      12.1715      0.00000
     12      12.1715      0.00000
     13      17.3158      0.00000
     14      17.3158      0.00000

 k-point  46 :       0.1250    0.1250    0.5000
  band No.  band energies     occupation 
      1     -13.7138      1.00000
      2     -13.7138      1.00000
      3      -1.6323      1.00000
      4      -1.6323      1.00000
      5      -1.4688      1.00000
      6      -1.4688      1.00000
      7      -0.3941      1.00000
      8      -0.3941      1.00000
      9      12.7913      0.00000
     10      12.7913      0.00000
     11      12.9762      0.00000
     12      12.9762      0.00000
     13      14.1165      0.00000
     14      14.1165      0.00000

 k-point  47 :       0.2500    0.1250    0.5000
  band No.  band energies     occupation 
      1     -12.2643      1.00000
      2     -12.2643      1.00000
      3      -4.2701      1.00000
      4      -4.2701      1.00000
      5      -1.9186      1.00000
      6      -1.9186      1.00000
      7       0.0356      1.00000
      8       0.0356      1.00000
      9       9.9368      0.00000
     10       9.9368      0.00000
     11      13.9428      0.00000
     12      13.9428      0.00000
     13      14.5819      0.00000
     14      14.5819      0.00000

 k-point  48 :       0.3750    0.1250    0.5000
  band No.  band energies     occupation 
      1     -10.1868      1.00000
      2     -10.1868      1.00000
      3      -7.2831      1.00000
      4      -7.2831      1.00000
      5      -2.6882      1.00000
      6      -2.6882      1.00000
      7       2.1401      1.00000
      8       2.1401      1.00000
      9       6.9443      0.00000
     10       6.9443      0.00000
     11      13.7453      0.00000
     12      13.7453      0.00000
     13      16.2362      0.00000
     14      16.2362      0.00000

 k-point  49 :       0.2500    0.2500    0.5000
  band No.  band energies     occupation 
      1     -10.5160      1.00000
      2     -10.5160      1.00000
      3      -5.7881      1.00000
      4      -5.7881      1.00000
      5      -4.2258      1.00000
      6      -4.2258      1.00000
      7       1.9624      1.00000
      8       1.9624      1.00000
      9       7.5477      0.00000
     10       7.5477      0.00000
     11      15.2624      0.00000
     12      15.2624      0.00000
     13      17.2018      0.00000
     14      17.2020      0.00000

 k-point  50 :       0.3750    0.2500    0.5000
  band No.  band energies     occupation 
      1      -8.5961      1.00000
      2      -8.5961      1.00000
      3      -7.7231      1.00000
      4      -7.7231      1.00000
      5      -5.0115      1.00000
      6      -5.0115      1.00000
      7       3.6917      1.00000
      8       3.6917      1.00000
      9       5.6669      0.00000
     10       5.6669      0.00000
     11      15.1898      0.00000
     12      15.1898      0.00000
     13      17.1991      0.00000
     14      17.1991      0.00000

 spin component 2

 k-point   1 :       0.0000    0.0000    0.0000
  band No.  band energies     occupation 
      1     -14.9645      1.00000
      2     -14.6642      1.00000
      3      -3.8259      1.00000
      4      -1.8603      1.00000
      5       1.7169      1.00000
      6       1.7169      1.00000
      7       1.7358      1.00000
      8       1.7358      1.00000
      9       8.9915      0.00000
     10      13.0886      0.00000
     11      13.0886      0.00000
     12      13.1426      0.00000
     13      13.1426      0.00000
     14      15.2815      0.00000

 k-point   2 :       0.1250    0.0000    0.0000
  band No.  band energies     occupation 
      1     -14.5909      1.00000
      2     -14.2974      1.00000
      3      -3.3726      1.00000
      4      -1.4371      1.00000
      5       0.3154      1.00000
      6       0.3632      1.00000
      7       1.0025      1.00000
      8       1.0370      1.00000
      9       9.4433      0.00000
     10      13.1311      0.00000
     11      13.2557      0.00000
     12      14.6019      0.00000
     13      14.6522      0.00000
     14      14.8446      0.00000

 k-point   3 :       0.2500    0.0000    0.0000
  band No.  band energies     occupation 
      1     -13.4797      1.00000
      2     -13.2063      1.00000
      3      -2.7285      1.00000
      4      -2.6293      1.00000
      5      -2.0376      1.00000
      6      -0.3199      1.00000
      7      -0.2714      1.00000
      8      -0.2050      1.00000
      9      10.7950      0.00000
     10      11.6980      0.00000
     11      12.3395      0.00000
     12      12.7159      0.00000
     13      13.0076      0.00000
     14      16.5956      0.00000

 k-point   4 :       0.3750    0.0000    0.0000
  band No.  band energies     occupation 
      1     -11.6692      1.00000
      2     -11.4285      1.00000
      3      -6.0440      1.00000
      4      -5.8945      1.00000
      5      -1.3338      1.00000
      6      -1.2800      1.00000
      7       0.0560      1.00000
      8       1.6200      1.00000
      9       8.0875      0.00000
     10       9.0755      0.00000
     11      12.1715      0.00000
     12      12.4958      0.00000
     13      13.1567      0.00000
     14      17.9424      0.00000

 k-point   5 :       0.5000    0.0000    0.0000
  band No.  band energies     occupation 
      1      -9.6076      1.00000
      2      -9.4956      1.00000
      3      -8.5509      1.00000
      4      -8.4665      1.00000
      5      -1.6982      1.00000
      6      -1.6430      1.00000
      7       1.9429      1.00000
      8       2.6291      1.00000
      9       6.2299      0.00000
     10       6.9069      0.00000
     11      11.9798      0.00000
     12      12.3761      0.00000
     13      16.0121      0.00000
     14      16.1408      0.00000

 k-point   6 :       0.1250    0.1250    0.0000
  band No.  band energies     occupation 
      1     -13.8485      1.00000
      2     -13.5684      1.00000
      3      -2.4773      1.00000
[...]
      5      -1.8072      1.00000
      6      -1.7949      1.00000
      7       0.0947      1.00000
      8       0.5428      1.00000
      9       7.8699      0.00000
     10       8.1537      0.00000
     11      11.7464      0.00000
     12      11.8307      0.00000
     13      13.4862      0.00000
     14      15.0673      0.00000

 k-point  35 :       0.5000    0.0000    0.3750
  band No.  band energies     occupation 
      1     -10.0443      1.00000
      2     -10.0168      1.00000
      3      -8.9930      1.00000
      4      -8.9718      1.00000
      5      -2.1689      1.00000
      6      -2.1563      1.00000
      7       1.7642      1.00000
      8       1.9647      1.00000
      9       5.7986      0.00000
     10       6.0142      0.00000
     11      11.5590      0.00000
     12      11.6604      0.00000
     13      16.1603      0.00000
     14      16.2504      0.00000

 k-point  36 :       0.1250    0.1250    0.3750
  band No.  band energies     occupation 
      1     -14.2035      1.00000
      2     -14.1338      1.00000
      3      -2.3470      1.00000
      4      -1.9797      1.00000
      5      -1.9689      1.00000
      6      -1.8120      1.00000
      7      -0.8958      1.00000
      8      -0.8885      1.00000
      9      10.7888      0.00000
     10      12.3818      0.00000
     11      12.4887      0.00000
     12      12.5735      0.00000
     13      13.5231      0.00000
     14      13.5235      0.00000

 k-point  37 :       0.2500    0.1250    0.3750
  band No.  band energies     occupation 
      1     -12.7573      1.00000
      2     -12.6944      1.00000
      3      -4.7762      1.00000
      4      -4.7499      1.00000
      5      -2.4171      1.00000
      6      -2.4009      1.00000
      7      -0.6663      1.00000
      8      -0.1793      1.00000
      9       9.3297      0.00000
     10       9.5196      0.00000
     11      12.4836      0.00000
     12      13.4264      0.00000
     13      13.6410      0.00000
     14      14.2156      0.00000

 k-point  38 :       0.3750    0.1250    0.3750
  band No.  band energies     occupation 
      1     -10.6855      1.00000
      2     -10.6339      1.00000
      3      -7.7798      1.00000
      4      -7.7412      1.00000
      5      -3.1849      1.00000
      6      -3.1660      1.00000
      7       1.4908      1.00000
      8       1.8369      1.00000
      9       6.3399      0.00000
     10       6.5773      0.00000
     11      13.1266      0.00000
     12      13.2422      0.00000
     13      14.8987      0.00000
     14      15.8572      0.00000

 k-point  39 :       0.2500    0.2500    0.3750
  band No.  band energies     occupation 
      1     -11.0134      1.00000
      2     -10.9591      1.00000
      3      -6.2901      1.00000
      4      -6.2720      1.00000
      5      -4.7064      1.00000
      6      -4.6929      1.00000
      7       1.2862      1.00000
      8       1.6963      1.00000
      9       6.9595      0.00000
     10       7.1243      0.00000
     11      14.1944      0.00000
     12      14.9041      0.00000
     13      16.5133      0.00000
     14      16.5258      0.00000

 k-point  40 :       0.3750    0.2500    0.3750
  band No.  band energies     occupation 
      1      -9.0945      1.00000
      2      -9.0697      1.00000
      3      -8.2048      1.00000
      4      -8.1938      1.00000
      5      -5.4952      1.00000
      6      -5.4710      1.00000
      7       3.1018      1.00000
      8       3.2949      1.00029
      9       5.1698      0.00000
     10       5.1957      0.00000
     11      14.7780      0.00000
     12      14.8252      0.00000
     13      16.3565      0.00000
     14      16.7001      0.00000

 k-point  41 :       0.0000    0.0000    0.5000
  band No.  band energies     occupation 
      1     -15.2706      1.00000
      2     -15.2706      1.00000
      3      -3.3915      1.00000
      4      -3.3915      1.00000
      5       1.2144      1.00000
      6       1.2144      1.00000
      7       1.2144      1.00000
      8       1.2144      1.00000
      9      10.3841      0.00000
     10      10.3841      0.00000
     11      12.5655      0.00000
     12      12.5655      0.00000
     13      12.5655      0.00000
     14      12.5655      0.00000

 k-point  42 :       0.1250    0.0000    0.5000
  band No.  band energies     occupation 
      1     -14.9018      1.00000
      2     -14.9018      1.00000
      3      -2.9524      1.00000
      4      -2.9524      1.00000
      5      -0.1693      1.00000
      6      -0.1693      1.00000
      7       0.5114      1.00000
      8       0.5114      1.00000
      9      10.8029      0.00000
     10      10.8029      0.00000
     11      12.6551      0.00000
     12      12.6551      0.00000
     13      14.0679      0.00000
     14      14.0679      0.00000

 k-point  43 :       0.2500    0.0000    0.5000
  band No.  band energies     occupation 
      1     -13.8049      1.00000
      2     -13.8049      1.00000
      3      -3.1776      1.00000
      4      -3.1776      1.00000
      5      -1.6657      1.00000
      6      -1.6657      1.00000
      7      -0.7954      1.00000
      8      -0.7954      1.00000
      9      11.3741      0.00000
     10      11.3741      0.00000
     11      12.0152      0.00000
     12      12.0152      0.00000
     13      12.5085      0.00000
     14      12.5085      0.00000

 k-point  44 :       0.3750    0.0000    0.5000
  band No.  band energies     occupation 
      1     -12.0182      1.00000
      2     -12.0182      1.00000
      3      -6.4550      1.00000
      4      -6.4550      1.00000
      5      -1.8010      1.00000
      6      -1.8010      1.00000
      7       0.3128      1.00000
      8       0.3128      1.00000
      9       8.0059      0.00000
     10       8.0059      0.00000
     11      11.7902      0.00000
     12      11.7902      0.00000
     13      14.2446      0.00000
     14      14.2446      0.00000

 k-point  45 :       0.5000    0.0000    0.5000
  band No.  band energies     occupation 
      1     -10.0303      1.00000
      2     -10.0303      1.00000
      3      -8.9830      1.00000
      4      -8.9830      1.00000
      5      -2.1628      1.00000
      6      -2.1628      1.00000
      7       1.8696      1.00000
      8       1.8696      1.00000
      9       5.8888      0.00000
     10       5.8888      0.00000
     11      11.6091      0.00000
     12      11.6091      0.00000
     13      16.4902      0.00000
     14      16.4902      0.00000

 k-point  46 :       0.1250    0.1250    0.5000
  band No.  band energies     occupation 
      1     -14.1689      1.00000
      2     -14.1689      1.00000
      3      -2.0888      1.00000
      4      -2.0888      1.00000
      5      -1.9736      1.00000
      6      -1.9736      1.00000
      7      -0.8923      1.00000
      8      -0.8923      1.00000
      9      11.6391      0.00000
     10      11.6391      0.00000
     11      12.4337      0.00000
     12      12.4337      0.00000
     13      13.5168      0.00000
     14      13.5168      0.00000

 k-point  47 :       0.2500    0.1250    0.5000
  band No.  band energies     occupation 
      1     -12.7261      1.00000
      2     -12.7261      1.00000
      3      -4.7630      1.00000
      4      -4.7630      1.00000
      5      -2.4091      1.00000
      6      -2.4091      1.00000
      7      -0.4300      1.00000
      8      -0.4300      1.00000
      9       9.4228      0.00000
     10       9.4228      0.00000
     11      13.1510      0.00000
     12      13.1510      0.00000
     13      13.7006      0.00000
     14      13.7006      0.00000

 k-point  48 :       0.3750    0.1250    0.5000
  band No.  band energies     occupation 
      1     -10.6599      1.00000
      2     -10.6599      1.00000
      3      -7.7606      1.00000
      4      -7.7606      1.00000
      5      -3.1756      1.00000
      6      -3.1756      1.00000
      7       1.6624      1.00000
      8       1.6624      1.00000
      9       6.4506      0.00000
     10       6.4506      0.00000
     11      13.1834      0.00000
     12      13.1834      0.00000
     13      15.3878      0.00000
     14      15.3878      0.00000

 k-point  49 :       0.2500    0.2500    0.5000
  band No.  band energies     occupation 
      1     -10.9864      1.00000
      2     -10.9864      1.00000
      3      -6.2809      1.00000
      4      -6.2809      1.00000
      5      -4.6996      1.00000
      6      -4.6996      1.00000
      7       1.4866      1.00000
      8       1.4866      1.00000
      9       7.0448      0.00000
     10       7.0448      0.00000
     11      14.5454      0.00000
     12      14.5454      0.00000
     13      16.5898      0.00000
     14      16.5898      0.00000

 k-point  50 :       0.3750    0.2500    0.5000
  band No.  band energies     occupation 
      1      -9.0818      1.00000
      2      -9.0818      1.00000
      3      -8.1998      1.00000
      4      -8.1998      1.00000
      5      -5.4831      1.00000
      6      -5.4831      1.00000
      7       3.2060      1.00000
      8       3.2060      1.00000
      9       5.1744      0.00000
     10       5.1744      0.00000
     11      14.7282      0.00000
     12      14.7282      0.00000
     13      16.5496      0.00000
     14      16.5496      0.00000


--------------------------------------------------------------------------------------------------------


 soft charge-density along one line, spin component           1
         0         1         2         3         4         5         6         7         8         9
 total charge-density along one line
 
 soft charge-density along one line, spin component           2
         0         1         2         3         4         5         6         7         8         9
 total charge-density along one line
 
 pseudopotential strength for first ion, spin component:           1
  9.800   0.006   0.000   0.000   0.000   0.000   0.000   0.000
  0.006  -0.002   0.000   0.000   0.000   0.000   0.000   0.000
  0.000   0.000  -3.970   0.000   0.000  -0.015   0.000   0.000
  0.000   0.000   0.000  -3.963   0.000   0.000  -0.012   0.000
  0.000   0.000   0.000   0.000  -3.970   0.000   0.000  -0.015
  0.000   0.000  -0.015   0.000   0.000  -0.764   0.000   0.000
  0.000   0.000   0.000  -0.012   0.000   0.000  -0.764   0.000
  0.000   0.000   0.000   0.000  -0.015   0.000   0.000  -0.764
 pseudopotential strength for first ion, spin component:           2
  9.801   0.006   0.000   0.000   0.000   0.000   0.000   0.000
  0.006  -0.002   0.000   0.000   0.000   0.000   0.000   0.000
  0.000   0.000  -3.969   0.000   0.000  -0.015   0.000   0.000
  0.000   0.000   0.000  -3.963   0.000   0.000  -0.012   0.000
  0.000   0.000   0.000   0.000  -3.969   0.000   0.000  -0.015
  0.000   0.000  -0.015   0.000   0.000  -0.764   0.000   0.000
  0.000   0.000   0.000  -0.012   0.000   0.000  -0.764   0.000
  0.000   0.000   0.000   0.000  -0.015   0.000   0.000  -0.764
 total augmentation occupancy for first ion, spin component:           1
  1.469  -1.150   0.000   0.000   0.000   0.000   0.000   0.000
 -1.150   1.105   0.000   0.000   0.000   0.000   0.000   0.000
  0.000   0.000   1.222   0.000   0.000   0.225   0.000   0.000
  0.000   0.000   0.000   0.932   0.000   0.000   0.108   0.000
  0.000   0.000   0.000   0.000   1.222   0.000   0.000   0.225
  0.000   0.000   0.225   0.000   0.000   0.047   0.000   0.000
  0.000   0.000   0.000   0.108   0.000   0.000   0.014   0.000
  0.000   0.000   0.000   0.000   0.225   0.000   0.000   0.047
 total augmentation occupancy for first ion, spin component:           2
  0.000   0.000   0.000   0.000   0.000   0.000   0.000   0.000
  0.000   0.000   0.000   0.000   0.000   0.000   0.000   0.000
  0.000   0.000   0.000   0.000   0.000   0.000   0.000   0.000
  0.000   0.000   0.000   0.000   0.000   0.000   0.000   0.000
  0.000   0.000   0.000   0.000   0.000   0.000   0.000   0.000
  0.000   0.000   0.000   0.000   0.000   0.000   0.000   0.000
  0.000   0.000   0.000   0.000   0.000   0.000   0.000   0.000
  0.000   0.000   0.000   0.000   0.000   0.000   0.000   0.000


------------------------ aborting loop because EDIFF is reached ----------------------------------------


 


 total charge     
 
# of ion     s       p       d       tot
----------------------------------------
  1        0.866   1.789   0.000   2.655
  2        0.867   1.787   0.000   2.654
  3        0.867   1.787   0.000   2.654
  4        0.866   1.789   0.000   2.655
------------------------------------------------
tot        3.467   7.152   0.000  10.618
 


 magnetization (x)
 
# of ion     s       p       d       tot
----------------------------------------
  1        0.000   0.000   0.000   0.000
  2        0.000   0.000   0.000   0.000
  3        0.000   0.000   0.000   0.000
  4        0.000   0.000   0.000   0.000
------------------------------------------------
tot        0.000   0.000   0.000   0.000
 
    CHARGE:  cpu time    0.64: real time    0.64
    FORLOC:  cpu time    0.01: real time    0.01
    FORNL :  cpu time    0.84: real time    0.84
    STRESS:  cpu time    0.96: real time    0.96
    FORHAR:  cpu time    0.05: real time    0.05
    MIXING:  cpu time    0.01: real time    0.01

  FORCE on cell =-STRESS in cart. coord.  units (eV):
  Direction    XX          YY          ZZ          XY          YZ          ZX
  --------------------------------------------------------------------------------------
  Alpha Z    34.97304    34.97304    34.97304
  Ewald     110.48513   110.48513  -648.22435     0.00000     0.00000     0.00000
  Hartree   184.79229   184.79229  -162.19897     0.00000     0.00000     0.00000
  E(xc)     -58.40173   -58.40173   -60.61509     0.00000     0.00000     0.00000
  Local    -496.37806  -496.37809   575.45998    -0.00002     0.00000     0.00000
  n-local   -13.58133   -14.50907   -12.87370    -0.61647     0.01425     0.01752
  augment    -1.54297    -1.54295    -1.41550     0.00001     0.00000     0.00000
  Kinetic   237.23865   243.05340   275.05264     6.18837    -0.19607    -0.24511
  Fock        0.00000     0.00000     0.00000     0.00000     0.00000     0.00000
  -------------------------------------------------------------------------------------
  Total       0.02853     0.02853     0.15805     0.00000     0.00000     0.00000
  in kB       1.22620     1.22620     6.79295     0.00000     0.00000     0.00000
  external pressure =        3.08 kB  Pullay stress =        0.00 kB


 VOLUME and BASIS-vectors are now :
 -----------------------------------------------------------------------------
  energy-cutoff  :      450.00
  volume of cell :       37.28
      direct lattice vectors                 reciprocal lattice vectors
     2.466471527  0.000000000  0.000000000     0.405437480  0.234079438  0.000000000
    -1.233235764  2.136027000  0.000000000     0.000000000  0.468158876  0.000000000
     0.000000000  0.000000000  7.075476563     0.000000000  0.000000000  0.141333236

  length of vectors
     2.466471527  2.466471527  7.075476563     0.468158876  0.468158876  0.141333236


 FORCES acting on ions
    electron-ion (+dipol)            ewald-force                    non-local-force                 convergence-correction
 -----------------------------------------------------------------------------------------------
   -.698E-06 0.403E-06 0.115E-13   0.607E-11 -.363E-11 -.187E-13   -.555E-16 -.111E-15 0.000E+00   -.140E-06 0.811E-07 -.411E-13
   0.698E-06 -.403E-06 -.938E-12   -.607E-11 0.363E-11 -.187E-13   -.278E-16 -.337E-22 0.000E+00   0.156E-06 -.901E-07 -.383E-13
   -.698E-06 0.403E-06 -.145E-13   -.126E-10 0.709E-11 0.187E-13   0.173E-21 0.337E-22 0.000E+00   -.156E-06 0.901E-07 -.152E-13
   0.698E-06 -.403E-06 -.305E-11   0.126E-10 -.709E-11 0.187E-13   0.416E-16 0.111E-15 0.000E+00   0.140E-06 -.811E-07 -.218E-13
 -----------------------------------------------------------------------------------------------
   0.116E-10 -.664E-11 -.399E-11   0.617E-14 -.180E-14 0.447E-20   -.416E-16 0.423E-27 0.000E+00   0.308E-13 0.970E-15 -.117E-12
 
 
 POSITION                                       TOTAL-FORCE (eV/Angst)
 -----------------------------------------------------------------------------------
      0.00000      0.00000      0.00000         0.000000      0.000000      0.000000
      0.00000      1.42402      0.00000         0.000000      0.000000      0.000000
      0.00000      1.42402      3.53774         0.000000      0.000000      0.000000
      1.23324      0.71201      3.53774         0.000000      0.000000      0.000000
 -----------------------------------------------------------------------------------
    total drift:                                0.000000      0.000000      0.000000


--------------------------------------------------------------------------------------------------------



  FREE ENERGIE OF THE ION-ELECTRON SYSTEM (eV)
  ---------------------------------------------------
  free  energy   TOTEN  =       -36.854533 eV

  energy  without entropy=      -36.854709  energy(sigma->0) =      -36.854592
 
 d Force = 0.0000000E+00[ 0.000E+00, 0.000E+00]  d Energy = 0.8644857E-02-0.864E-02
 d Force = 0.0000000E+00[ 0.000E+00, 0.000E+00]  d Ewald  =-0.2229240E+02 0.223E+02


--------------------------------------------------------------------------------------------------------


    POTLOK:  cpu time    0.43: real time    0.43


--------------------------------------------------------------------------------------------------------


 Quasi-Newton relaxation of ions (Broydens 2nd method)
  g(Force)  = 0.343E-46   g(Stress)= 0.321E-03

 retain information from N=  1 steps
 eigenvalues of (default step * inverse Hessian matrix)
  average eigenvalue of G=  13.1341
 eigenvalue spectrum of G is 13.1341


--------------------------------------------------------------------------------------------------------


  
 reached required accuracy - stopping structural energy minimisation
 writing wavefunctions
     LOOP+:  cpu time   63.55: real time   63.78
    4ORBIT:  cpu time    0.00: real time    0.00
 


 total charge     
 
# of ion     s       p       d       tot
----------------------------------------
  1        0.866   1.789   0.000   2.655
  2        0.867   1.787   0.000   2.654
  3        0.867   1.787   0.000   2.654
  4        0.866   1.789   0.000   2.655
------------------------------------------------
tot        3.467   7.152   0.000  10.618
 


 magnetization (x)
 
# of ion     s       p       d       tot
----------------------------------------
  1        0.000   0.000   0.000   0.000
  2        0.000   0.000   0.000   0.000
  3        0.000   0.000   0.000   0.000
  4        0.000   0.000   0.000   0.000
------------------------------------------------
tot        0.000   0.000   0.000   0.000
 

 total amount of memory used by VASP on root node    65563. kBytes
========================================================================

   base      :      30000. kBytes
   nonl-proj :       2562. kBytes
   fftplans  :       4320. kBytes
   grid      :      10357. kBytes
   one-center:         24. kBytes
   wavefun   :      18300. kBytes
 
  
  
 General timing and accounting informations for this job:
 ========================================================
  
                  Total CPU time used (sec):      339.446
                            User time (sec):      339.179
                          System time (sec):        0.267
                         Elapsed time (sec):      340.567
  
                   Maximum memory used (kb):           0.
                   Average memory used (kb):           0.
  
                          Minor page faults:        46643
                          Major page faults:            1
                 Voluntary context switches:         1142
