PROCAR lm decomposed
# of k-points:   50         # of bands:  14         # of ions:   4

 k-point    1 :    0.00000000 0.00000000 0.00000000     weight = 0.00195312

band   1 # energy  -15.36745653 # occ.  1.00000000
 
ion      s     py     pz     px    dxy    dyz    dz2    dxz    dx2    tot
  1  0.159  0.000  0.000  0.000  0.000  0.000  0.000  0.000  0.000  0.159
  2  0.159  0.000  0.000  0.000  0.000  0.000  0.000  0.000  0.000  0.159
  3  0.159  0.000  0.000  0.000  0.000  0.000  0.000  0.000  0.000  0.159
  4  0.159  0.000  0.000  0.000  0.000  0.000  0.000  0.000  0.000  0.159
tot  0.637  0.000  0.000  0.000  0.000  0.000  0.000  0.000  0.000  0.637
 
band   2 # energy  -15.17108137 # occ.  1.00000000
 
ion      s     py     pz     px    dxy    dyz    dz2    dxz    dx2    tot
  1  0.163  0.000  0.000  0.000  0.000  0.000  0.000  0.000  0.000  0.163
  2  0.164  0.000  0.000  0.000  0.000  0.000  0.000  0.000  0.000  0.164
  3  0.164  0.000  0.000  0.000  0.000  0.000  0.000  0.000  0.000  0.164
  4  0.163  0.000  0.000  0.000  0.000  0.000  0.000  0.000  0.000  0.163
tot  0.654  0.000  0.000  0.000  0.000  0.000  0.000  0.000  0.000  0.654
 
band   3 # energy   -4.07213796 # occ.  1.00000000
 
ion      s     py     pz     px    dxy    dyz    dz2    dxz    dx2    tot
  1  0.000  0.000  0.097  0.000  0.000  0.000  0.000  0.000  0.000  0.097
  2  0.000  0.000  0.098  0.000  0.000  0.000  0.000  0.000  0.000  0.098
  3  0.000  0.000  0.098  0.000  0.000  0.000  0.000  0.000  0.000  0.098
  4  0.000  0.000  0.097  0.000  0.000  0.000  0.000  0.000  0.000  0.097
tot  0.000  0.000  0.390  0.000  0.000  0.000  0.000  0.000  0.000  0.390
 
band   4 # energy   -2.58501901 # occ.  1.00000000
 
ion      s     py     pz     px    dxy    dyz    dz2    dxz    dx2    tot
  1  0.000  0.000  0.122  0.000  0.000  0.000  0.000  0.000  0.000  0.122
  2  0.000  0.000  0.122  0.000  0.000  0.000  0.000  0.000  0.000  0.122
  3  0.000  0.000  0.122  0.000  0.000  0.000  0.000  0.000  0.000  0.122
  4  0.000  0.000  0.122  0.000  0.000  0.000  0.000  0.000  0.000  0.122
tot  0.000  0.000  0.489  0.000  0.000  0.000  0.000  0.000  0.000  0.489
 
band   5 # energy    1.20711090 # occ.  1.00000000
 
ion      s     py     pz     px    dxy    dyz    dz2    dxz    dx2    tot
  1  0.000  0.051  0.000  0.154  0.000  0.000  0.000  0.000  0.000  0.205
  2  0.000  0.052  0.000  0.155  0.000  0.000  0.000  0.000  0.000  0.206
  3  0.000  0.052  0.000  0.155  0.000  0.000  0.000  0.000  0.000  0.206
  4  0.000  0.051  0.000  0.154  0.000  0.000  0.000  0.000  0.000  0.205
tot  0.000  0.206  0.000  0.617  0.000  0.000  0.000  0.000  0.000  0.823
 
band   6 # energy    1.20711964 # occ.  1.00000000
 
ion      s     py     pz     px    dxy    dyz    dz2    dxz    dx2    tot
  1  0.000  0.154  0.000  0.051  0.000  0.000  0.000  0.000  0.000  0.205
  2  0.000  0.155  0.000  0.052  0.000  0.000  0.000  0.000  0.000  0.206
  3  0.000  0.155  0.000  0.052  0.000  0.000  0.000  0.000  0.000  0.206
  4  0.000  0.154  0.000  0.051  0.000  0.000  0.000  0.000  0.000  0.205
tot  0.000  0.617  0.000  0.206  0.000  0.000  0.000  0.000  0.000  0.823
 
band   7 # energy    1.21808290 # occ.  1.00000000
 
ion      s     py     pz     px    dxy    dyz    dz2    dxz    dx2    tot
  1  0.000  0.052  0.000  0.155  0.000  0.000  0.000  0.000  0.000  0.206
  2  0.000  0.052  0.000  0.155  0.000  0.000  0.000  0.000  0.000  0.206
  3  0.000  0.052  0.000  0.155  0.000  0.000  0.000  0.000  0.000  0.206
  4  0.000  0.052  0.000  0.155  0.000  0.000  0.000  0.000  0.000  0.206
tot  0.000  0.206  0.000  0.618  0.000  0.000  0.000  0.000  0.000  0.824
 
band   8 # energy    1.21809159 # occ.  1.00000000
 
ion      s     py     pz     px    dxy    dyz    dz2    dxz    dx2    tot
  1  0.000  0.155  0.000  0.052  0.000  0.000  0.000  0.000  0.000  0.206
  2  0.000  0.155  0.000  0.052  0.000  0.000  0.000  0.000  0.000  0.206
  3  0.000  0.155  0.000  0.052  0.000  0.000  0.000  0.000  0.000  0.206
  4  0.000  0.155  0.000  0.052  0.000  0.000  0.000  0.000  0.000  0.206
tot  0.000  0.618  0.000  0.206  0.000  0.000  0.000  0.000  0.000  0.824
 
band   9 # energy    8.13557724 # occ.  0.00000000
 
ion      s     py     pz     px    dxy    dyz    dz2    dxz    dx2    tot
  1  0.019  0.000  0.000  0.000  0.000  0.000  0.000  0.000  0.000  0.019
  2  0.018  0.000  0.000  0.000  0.000  0.000  0.000  0.000  0.000  0.018
  3  0.018  0.000  0.000  0.000  0.000  0.000  0.000  0.000  0.000  0.018
  4  0.019  0.000  0.000  0.000  0.000  0.000  0.000  0.000  0.000  0.019
tot  0.074  0.000  0.000  0.000  0.000  0.000  0.000  0.000  0.000  0.074
 
band  10 # energy   12.54977941 # occ.  0.00000000
 
ion      s     py     pz     px    dxy    dyz    dz2    dxz    dx2    tot
  1  0.000  0.033  0.000  0.098  0.000  0.000  0.000  0.000  0.000  0.130
  2  0.000  0.033  0.000  0.099  0.000  0.000  0.000  0.000  0.000  0.132
  3  0.000  0.033  0.000  0.099  0.000  0.000  0.000  0.000  0.000  0.132
  4  0.000  0.033  0.000  0.098  0.000  0.000  0.000  0.000  0.000  0.130
tot  0.000  0.131  0.000  0.393  0.000  0.000  0.000  0.000  0.000  0.524
 
band  11 # energy   12.54978641 # occ.  0.00000000
 
ion      s     py     pz     px    dxy    dyz    dz2    dxz    dx2    tot
  1  0.000  0.098  0.000  0.033  0.000  0.000  0.000  0.000  0.000  0.130
  2  0.000  0.099  0.000  0.033  0.000  0.000  0.000  0.000  0.000  0.132
  3  0.000  0.099  0.000  0.033  0.000  0.000  0.000  0.000  0.000  0.132
  4  0.000  0.098  0.000  0.033  0.000  0.000  0.000  0.000  0.000  0.130
tot  0.000  0.393  0.000  0.131  0.000  0.000  0.000  0.000  0.000  0.524
 
band  12 # energy   12.58320725 # occ.  0.00000000
 
ion      s     py     pz     px    dxy    dyz    dz2    dxz    dx2    tot
  1  0.000  0.033  0.000  0.100  0.000  0.000  0.000  0.000  0.000  0.133
  2  0.000  0.033  0.000  0.098  0.000  0.000  0.000  0.000  0.000  0.131
  3  0.000  0.033  0.000  0.098  0.000  0.000  0.000  0.000  0.000  0.131
  4  0.000  0.033  0.000  0.100  0.000  0.000  0.000  0.000  0.000  0.133
tot  0.000  0.132  0.000  0.395  0.000  0.000  0.000  0.000  0.000  0.527
 
band  13 # energy   12.58321412 # occ.  0.00000000
 
ion      s     py     pz     px    dxy    dyz    dz2    dxz    dx2    tot
  1  0.000  0.100  0.000  0.033  0.000  0.000  0.000  0.000  0.000  0.133
  2  0.000  0.098  0.000  0.033  0.000  0.000  0.000  0.000  0.000  0.131
  3  0.000  0.098  0.000  0.033  0.000  0.000  0.000  0.000  0.000  0.131
  4  0.000  0.100  0.000  0.033  0.000  0.000  0.000  0.000  0.000  0.133
tot  0.000  0.395  0.000  0.132  0.000  0.000  0.000  0.000  0.000  0.527
 
band  14 # energy   13.61442700 # occ.  0.00000000
 
ion      s     py     pz     px    dxy    dyz    dz2    dxz    dx2    tot
  1  0.000  0.000  0.065  0.000  0.000  0.000  0.000  0.000  0.000  0.065
  2  0.000  0.000  0.069  0.000  0.000  0.000  0.000  0.000  0.000  0.069
  3  0.000  0.000  0.069  0.000  0.000  0.000  0.000  0.000  0.000  0.069
  4  0.000  0.000  0.065  0.000  0.000  0.000  0.000  0.000  0.000  0.065
tot  0.000  0.000  0.269  0.000  0.000  0.000  0.000  0.000  0.000  0.269
 

 k-point    2 :    0.12500000 0.00000000 0.00000000     weight = 0.01171875

band   1 # energy  -14.99639346 # occ.  1.00000000
 
ion      s     py     pz     px    dxy    dyz    dz2    dxz    dx2    tot
  1  0.156  0.001  0.000  0.003  0.000  0.000  0.000  0.000  0.000  0.160
  2  0.157  0.001  0.000  0.003  0.000  0.000  0.000  0.000  0.000  0.160
  3  0.157  0.001  0.000  0.003  0.000  0.000  0.000  0.000  0.000  0.160
  4  0.156  0.001  0.000  0.003  0.000  0.000  0.000  0.000  0.000  0.160
tot  0.626  0.004  0.000  0.012  0.000  0.000  0.000  0.000  0.000  0.641
 
band   2 # energy  -14.80471248 # occ.  1.00000000
 
ion      s     py     pz     px    dxy    dyz    dz2    dxz    dx2    tot
  1  0.160  0.001  0.000  0.003  0.000  0.000  0.000  0.000  0.000  0.164
  2  0.160  0.001  0.000  0.003  0.000  0.000  0.000  0.000  0.000  0.164
  3  0.160  0.001  0.000  0.003  0.000  0.000  0.000  0.000  0.000  0.164
  4  0.160  0.001  0.000  0.003  0.000  0.000  0.000  0.000  0.000  0.164
tot  0.642  0.004  0.000  0.012  0.000  0.000  0.000  0.000  0.000  0.658
 
band   3 # energy   -3.62308813 # occ.  1.00000000
 
ion      s     py     pz     px    dxy    dyz    dz2    dxz    dx2    tot
  1  0.000  0.000  0.098  0.000  0.000  0.000  0.000  0.000  0.000  0.098
  2  0.000  0.000  0.098  0.000  0.000  0.000  0.000  0.000  0.000  0.098
  3  0.000  0.000  0.098  0.000  0.000  0.000  0.000  0.000  0.000  0.098
  4  0.000  0.000  0.098  0.000  0.000  0.000  0.000  0.000  0.000  0.098
tot  0.000  0.000  0.393  0.000  0.000  0.000  0.000  0.000  0.000  0.393
 
band   4 # energy   -2.15998653 # occ.  1.00000000
 
ion      s     py     pz     px    dxy    dyz    dz2    dxz    dx2    tot
  1  0.000  0.000  0.123  0.000  0.000  0.000  0.000  0.000  0.000  0.123
  2  0.000  0.000  0.123  0.000  0.000  0.000  0.000  0.000  0.000  0.123
  3  0.000  0.000  0.123  0.000  0.000  0.000  0.000  0.000  0.000  0.123
  4  0.000  0.000  0.123  0.000  0.000  0.000  0.000  0.000  0.000  0.123
tot  0.000  0.000  0.491  0.000  0.000  0.000  0.000  0.000  0.000  0.491
 
band   5 # energy   -0.18432162 # occ.  1.00000000
 
ion      s     py     pz     px    dxy    dyz    dz2    dxz    dx2    tot
  1  0.018  0.045  0.000  0.136  0.000  0.000  0.000  0.000  0.000  0.199
  2  0.018  0.045  0.000  0.136  0.000  0.000  0.000  0.000  0.000  0.200
  3  0.018  0.045  0.000  0.136  0.000  0.000  0.000  0.000  0.000  0.200
  4  0.018  0.045  0.000  0.136  0.000  0.000  0.000  0.000  0.000  0.199
tot  0.073  0.181  0.000  0.543  0.000  0.000  0.000  0.000  0.000  0.797
 
band   6 # energy   -0.15593252 # occ.  1.00000000
 
ion      s     py     pz     px    dxy    dyz    dz2    dxz    dx2    tot
  1  0.018  0.045  0.000  0.136  0.000  0.000  0.000  0.000  0.000  0.200
  2  0.018  0.045  0.000  0.136  0.000  0.000  0.000  0.000  0.000  0.200
  3  0.018  0.045  0.000  0.136  0.000  0.000  0.000  0.000  0.000  0.200
  4  0.018  0.045  0.000  0.136  0.000  0.000  0.000  0.000  0.000  0.200
tot  0.073  0.182  0.000  0.545  0.000  0.000  0.000  0.000  0.000  0.800
 
band   7 # energy    0.50095285 # occ.  1.00000000
 
ion      s     py     pz     px    dxy    dyz    dz2    dxz    dx2    tot
  1  0.000  0.151  0.000  0.050  0.000  0.000  0.000  0.000  0.000  0.202
  2  0.000  0.152  0.000  0.051  0.000  0.000  0.000  0.000  0.000  0.202
  3  0.000  0.152  0.000  0.051  0.000  0.000  0.000  0.000  0.000  0.202
  4  0.000  0.151  0.000  0.050  0.000  0.000  0.000  0.000  0.000  0.202
tot  0.000  0.606  0.000  0.202  0.000  0.000  0.000  0.000  0.000  0.808
 
band   8 # energy    0.52131766 # occ.  1.00000000
 
ion      s     py     pz     px    dxy    dyz    dz2    dxz    dx2    tot
  1  0.000  0.152  0.000  0.051  0.000  0.000  0.000  0.000  0.000  0.202
  2  0.000  0.152  0.000  0.051  0.000  0.000  0.000  0.000  0.000  0.203
  3  0.000  0.152  0.000  0.051  0.000  0.000  0.000  0.000  0.000  0.203
  4  0.000  0.152  0.000  0.051  0.000  0.000  0.000  0.000  0.000  0.202
tot  0.000  0.608  0.000  0.203  0.000  0.000  0.000  0.000  0.000  0.810
 
band   9 # energy    8.59531510 # occ.  0.00000000
 
ion      s     py     pz     px    dxy    dyz    dz2    dxz    dx2    tot
  1  0.017  0.001  0.000  0.002  0.000  0.000  0.000  0.000  0.000  0.019
  2  0.017  0.000  0.000  0.001  0.000  0.000  0.000  0.000  0.000  0.019
  3  0.017  0.000  0.000  0.001  0.000  0.000  0.000  0.000  0.000  0.019
  4  0.017  0.001  0.000  0.002  0.000  0.000  0.000  0.000  0.000  0.019
tot  0.067  0.002  0.000  0.006  0.000  0.000  0.000  0.000  0.000  0.075
 
band  10 # energy   12.59700761 # occ.  0.00000000
 
ion      s     py     pz     px    dxy    dyz    dz2    dxz    dx2    tot
  1  0.016  0.027  0.000  0.080  0.000  0.000  0.000  0.000  0.000  0.123
  2  0.017  0.027  0.000  0.082  0.000  0.000  0.000  0.000  0.000  0.126
  3  0.017  0.027  0.000  0.082  0.000  0.000  0.000  0.000  0.000  0.126
  4  0.016  0.027  0.000  0.080  0.000  0.000  0.000  0.000  0.000  0.123
tot  0.066  0.108  0.000  0.324  0.000  0.000  0.000  0.000  0.000  0.498
 
band  11 # energy   12.68046675 # occ.  0.00000000
 
ion      s     py     pz     px    dxy    dyz    dz2    dxz    dx2    tot
  1  0.018  0.027  0.000  0.082  0.000  0.000  0.000  0.000  0.000  0.128
  2  0.018  0.027  0.000  0.080  0.000  0.000  0.000  0.000  0.000  0.124
  3  0.018  0.027  0.000  0.080  0.000  0.000  0.000  0.000  0.000  0.124
  4  0.018  0.027  0.000  0.082  0.000  0.000  0.000  0.000  0.000  0.128
tot  0.072  0.108  0.000  0.325  0.000  0.000  0.000  0.000  0.000  0.505
 
band  12 # energy   13.97231762 # occ.  0.00000000
 
ion      s     py     pz     px    dxy    dyz    dz2    dxz    dx2    tot
  1  0.000  0.000  0.039  0.000  0.000  0.000  0.000  0.000  0.000  0.039
  2  0.000  0.000  0.105  0.000  0.000  0.000  0.000  0.000  0.000  0.105
  3  0.000  0.000  0.105  0.000  0.000  0.000  0.000  0.000  0.000  0.105
  4  0.000  0.000  0.039  0.000  0.000  0.000  0.000  0.000  0.000  0.039
tot  0.000  0.000  0.287  0.000  0.000  0.000  0.000  0.000  0.000  0.287
 
band  13 # energy   14.05416099 # occ.  0.00000000
 
ion      s     py     pz     px    dxy    dyz    dz2    dxz    dx2    tot
  1  0.000  0.102  0.000  0.034  0.000  0.000  0.000  0.000  0.000  0.136
  2  0.000  0.103  0.000  0.034  0.000  0.000  0.000  0.000  0.000  0.138
  3  0.000  0.103  0.000  0.034  0.000  0.000  0.000  0.000  0.000  0.138
  4  0.000  0.102  0.000  0.034  0.000  0.000  0.000  0.000  0.000  0.136
tot  0.000  0.411  0.000  0.137  0.000  0.000  0.000  0.000  0.000  0.548
 
band  14 # energy   14.08365027 # occ.  0.00000000
 
ion      s     py     pz     px    dxy    dyz    dz2    dxz    dx2    tot
  1  0.000  0.104  0.000  0.035  0.000  0.000  0.000  0.000  0.000  0.139
  2  0.000  0.103  0.000  0.034  0.000  0.000  0.000  0.000  0.000  0.137
  3  0.000  0.103  0.000  0.034  0.000  0.000  0.000  0.000  0.000  0.137
  4  0.000  0.104  0.000  0.035  0.000  0.000  0.000  0.000  0.000  0.139
tot  0.000  0.413  0.000  0.138  0.000  0.000  0.000  0.000  0.000  0.551
 

 k-point    3 :    0.25000000 0.00000000 0.00000000     weight = 0.01171875

band   1 # energy  -13.89286624 # occ.  1.00000000
 
ion      s     py     pz     px    dxy    dyz    dz2    dxz    dx2    tot
  1  0.148  0.004  0.000  0.011  0.000  0.000  0.000  0.000  0.000  0.163
  2  0.148  0.004  0.000  0.011  0.000  0.000  0.000  0.000  0.000  0.163
  3  0.148  0.004  0.000  0.011  0.000  0.000  0.000  0.000  0.000  0.163
  4  0.148  0.004  0.000  0.011  0.000  0.000  0.000  0.000  0.000  0.163
tot  0.593  0.015  0.000  0.045  0.000  0.000  0.000  0.000  0.000  0.654
 
band   2 # energy  -13.71501625 # occ.  1.00000000
 
ion      s     py     pz     px    dxy    dyz    dz2    dxz    dx2    tot
  1  0.152  0.004  0.000  0.012  0.000  0.000  0.000  0.000  0.000  0.167
  2  0.152  0.004  0.000  0.012  0.000  0.000  0.000  0.000  0.000  0.167
  3  0.152  0.004  0.000  0.012  0.000  0.000  0.000  0.000  0.000  0.167
  4  0.152  0.004  0.000  0.012  0.000  0.000  0.000  0.000  0.000  0.167
tot  0.607  0.015  0.000  0.046  0.000  0.000  0.000  0.000  0.000  0.669
 
band   3 # energy   -3.20871112 # occ.  1.00000000
 
ion      s     py     pz     px    dxy    dyz    dz2    dxz    dx2    tot
  1  0.050  0.035  0.000  0.104  0.000  0.000  0.000  0.000  0.000  0.188
  2  0.049  0.035  0.000  0.104  0.000  0.000  0.000  0.000  0.000  0.189
  3  0.049  0.035  0.000  0.104  0.000  0.000  0.000  0.000  0.000  0.189
  4  0.050  0.035  0.000  0.104  0.000  0.000  0.000  0.000  0.000  0.188
tot  0.198  0.139  0.000  0.417  0.000  0.000  0.000  0.000  0.000  0.754
 
band   4 # energy   -3.14733228 # occ.  1.00000000
 
ion      s     py     pz     px    dxy    dyz    dz2    dxz    dx2    tot
  1  0.050  0.035  0.000  0.105  0.000  0.000  0.000  0.000  0.000  0.190
  2  0.050  0.035  0.000  0.105  0.000  0.000  0.000  0.000  0.000  0.190
  3  0.050  0.035  0.000  0.105  0.000  0.000  0.000  0.000  0.000  0.190
  4  0.050  0.035  0.000  0.105  0.000  0.000  0.000  0.000  0.000  0.190
tot  0.200  0.140  0.000  0.421  0.000  0.000  0.000  0.000  0.000  0.761
 
band   5 # energy   -2.30169824 # occ.  1.00000000
 
ion      s     py     pz     px    dxy    dyz    dz2    dxz    dx2    tot
  1  0.000  0.000  0.101  0.000  0.000  0.000  0.000  0.000  0.000  0.101
  2  0.000  0.000  0.101  0.000  0.000  0.000  0.000  0.000  0.000  0.101
  3  0.000  0.000  0.101  0.000  0.000  0.000  0.000  0.000  0.000  0.101
  4  0.000  0.000  0.101  0.000  0.000  0.000  0.000  0.000  0.000  0.101
tot  0.000  0.000  0.404  0.000  0.000  0.000  0.000  0.000  0.000  0.404
 
band   6 # energy   -0.91938255 # occ.  1.00000000
 
ion      s     py     pz     px    dxy    dyz    dz2    dxz    dx2    tot
  1  0.000  0.000  0.126  0.000  0.000  0.000  0.000  0.000  0.000  0.126
  2  0.000  0.000  0.125  0.000  0.000  0.000  0.000  0.000  0.000  0.125
  3  0.000  0.000  0.125  0.000  0.000  0.000  0.000  0.000  0.000  0.125
  4  0.000  0.000  0.126  0.000  0.000  0.000  0.000  0.000  0.000  0.126
tot  0.000  0.000  0.501  0.000  0.000  0.000  0.000  0.000  0.000  0.501
 
band   7 # energy   -0.81094428 # occ.  1.00000000
 
ion      s     py     pz     px    dxy    dyz    dz2    dxz    dx2    tot
  1  0.000  0.148  0.000  0.049  0.000  0.000  0.000  0.000  0.000  0.198
  2  0.000  0.148  0.000  0.049  0.000  0.000  0.000  0.000  0.000  0.198
  3  0.000  0.148  0.000  0.049  0.000  0.000  0.000  0.000  0.000  0.198
  4  0.000  0.148  0.000  0.049  0.000  0.000  0.000  0.000  0.000  0.198
tot  0.000  0.593  0.000  0.198  0.000  0.000  0.000  0.000  0.000  0.791
 
band   8 # energy   -0.78159742 # occ.  1.00000000
 
ion      s     py     pz     px    dxy    dyz    dz2    dxz    dx2    tot
  1  0.000  0.149  0.000  0.050  0.000  0.000  0.000  0.000  0.000  0.198
  2  0.000  0.149  0.000  0.050  0.000  0.000  0.000  0.000  0.000  0.199
  3  0.000  0.149  0.000  0.050  0.000  0.000  0.000  0.000  0.000  0.199
  4  0.000  0.149  0.000  0.050  0.000  0.000  0.000  0.000  0.000  0.198
tot  0.000  0.595  0.000  0.198  0.000  0.000  0.000  0.000  0.000  0.794
 
band   9 # energy    9.97159853 # occ.  0.00000000
 
ion      s     py     pz     px    dxy    dyz    dz2    dxz    dx2    tot
  1  0.012  0.002  0.000  0.006  0.000  0.000  0.000  0.000  0.000  0.020
  2  0.012  0.002  0.000  0.006  0.000  0.000  0.000  0.000  0.000  0.020
  3  0.012  0.002  0.000  0.006  0.000  0.000  0.000  0.000  0.000  0.020
  4  0.012  0.002  0.000  0.006  0.000  0.000  0.000  0.000  0.000  0.020
tot  0.049  0.008  0.000  0.023  0.000  0.000  0.000  0.000  0.000  0.080
 
band  10 # energy   11.24945883 # occ.  0.00000000
 
ion      s     py     pz     px    dxy    dyz    dz2    dxz    dx2    tot
  1  0.000  0.000  0.136  0.000  0.000  0.000  0.000  0.000  0.000  0.136
  2  0.000  0.000  0.157  0.000  0.000  0.000  0.000  0.000  0.000  0.157
  3  0.000  0.000  0.157  0.000  0.000  0.000  0.000  0.000  0.000  0.157
  4  0.000  0.000  0.136  0.000  0.000  0.000  0.000  0.000  0.000  0.136
tot  0.000  0.000  0.587  0.000  0.000  0.000  0.000  0.000  0.000  0.587
 
band  11 # energy   11.70776137 # occ.  0.00000000
 
ion      s     py     pz     px    dxy    dyz    dz2    dxz    dx2    tot
  1  0.000  0.000  0.169  0.000  0.000  0.000  0.000  0.000  0.000  0.169
  2  0.000  0.000  0.150  0.000  0.000  0.000  0.000  0.000  0.000  0.150
  3  0.000  0.000  0.150  0.000  0.000  0.000  0.000  0.000  0.000  0.150
  4  0.000  0.000  0.169  0.000  0.000  0.000  0.000  0.000  0.000  0.169
tot  0.000  0.000  0.638  0.000  0.000  0.000  0.000  0.000  0.000  0.638
 
band  12 # energy   12.19437658 # occ.  0.00000000
 
ion      s     py     pz     px    dxy    dyz    dz2    dxz    dx2    tot
  1  0.056  0.014  0.000  0.043  0.000  0.000  0.000  0.000  0.000  0.112
  2  0.061  0.015  0.000  0.044  0.000  0.000  0.000  0.000  0.000  0.120
  3  0.061  0.015  0.000  0.044  0.000  0.000  0.000  0.000  0.000  0.120
  4  0.056  0.014  0.000  0.043  0.000  0.000  0.000  0.000  0.000  0.112
tot  0.233  0.058  0.000  0.173  0.000  0.000  0.000  0.000  0.000  0.465
 
band  13 # energy   12.39448658 # occ.  0.00000000
 
ion      s     py     pz     px    dxy    dyz    dz2    dxz    dx2    tot
  1  0.065  0.014  0.000  0.043  0.000  0.000  0.000  0.000  0.000  0.122
  2  0.060  0.014  0.000  0.041  0.000  0.000  0.000  0.000  0.000  0.115
  3  0.060  0.014  0.000  0.041  0.000  0.000  0.000  0.000  0.000  0.115
  4  0.065  0.014  0.000  0.043  0.000  0.000  0.000  0.000  0.000  0.122
tot  0.251  0.056  0.000  0.168  0.000  0.000  0.000  0.000  0.000  0.475
 
band  14 # energy   15.08957382 # occ.  0.00000000
 
ion      s     py     pz     px    dxy    dyz    dz2    dxz    dx2    tot
  1  0.000  0.000  0.075  0.000  0.000  0.000  0.000  0.000  0.000  0.075
  2  0.000  0.000  0.067  0.000  0.000  0.000  0.000  0.000  0.000  0.067
  3  0.000  0.000  0.067  0.000  0.000  0.000  0.000  0.000  0.000  0.067
  4  0.000  0.000  0.075  0.000  0.000  0.000  0.000  0.000  0.000  0.075
tot  0.000  0.000  0.284  0.000  0.000  0.000  0.000  0.000  0.000  0.284
 

 k-point    4 :    0.37500000 0.00000000 0.00000000     weight = 0.01171875

band   1 # energy  -12.09534501 # occ.  1.00000000
 
ion      s     py     pz     px    dxy    dyz    dz2    dxz    dx2    tot
  1  0.136  0.008  0.000  0.024  0.000  0.000  0.000  0.000  0.000  0.168
  2  0.137  0.008  0.000  0.024  0.000  0.000  0.000  0.000  0.000  0.169
  3  0.137  0.008  0.000  0.024  0.000  0.000  0.000  0.000  0.000  0.169
  4  0.136  0.008  0.000  0.024  0.000  0.000  0.000  0.000  0.000  0.168
tot  0.546  0.032  0.000  0.096  0.000  0.000  0.000  0.000  0.000  0.674
 
band   2 # energy  -11.93999290 # occ.  1.00000000
 
ion      s     py     pz     px    dxy    dyz    dz2    dxz    dx2    tot
  1  0.139  0.008  0.000  0.024  0.000  0.000  0.000  0.000  0.000  0.172
  2  0.139  0.008  0.000  0.025  0.000  0.000  0.000  0.000  0.000  0.172
  3  0.139  0.008  0.000  0.025  0.000  0.000  0.000  0.000  0.000  0.172
  4  0.139  0.008  0.000  0.024  0.000  0.000  0.000  0.000  0.000  0.172
tot  0.557  0.033  0.000  0.098  0.000  0.000  0.000  0.000  0.000  0.688
 
band   3 # energy   -6.50227406 # occ.  1.00000000
 
ion      s     py     pz     px    dxy    dyz    dz2    dxz    dx2    tot
  1  0.076  0.026  0.000  0.077  0.000  0.000  0.000  0.000  0.000  0.179
  2  0.076  0.026  0.000  0.077  0.000  0.000  0.000  0.000  0.000  0.179
  3  0.076  0.026  0.000  0.077  0.000  0.000  0.000  0.000  0.000  0.179
  4  0.076  0.026  0.000  0.077  0.000  0.000  0.000  0.000  0.000  0.179
tot  0.304  0.103  0.000  0.309  0.000  0.000  0.000  0.000  0.000  0.715
 
band   4 # energy   -6.40800776 # occ.  1.00000000
 
ion      s     py     pz     px    dxy    dyz    dz2    dxz    dx2    tot
  1  0.077  0.026  0.000  0.078  0.000  0.000  0.000  0.000  0.000  0.181
  2  0.077  0.026  0.000  0.078  0.000  0.000  0.000  0.000  0.000  0.181
  3  0.077  0.026  0.000  0.078  0.000  0.000  0.000  0.000  0.000  0.181
  4  0.077  0.026  0.000  0.078  0.000  0.000  0.000  0.000  0.000  0.181
tot  0.307  0.104  0.000  0.312  0.000  0.000  0.000  0.000  0.000  0.724
 
band   5 # energy   -1.81795911 # occ.  1.00000000
 
ion      s     py     pz     px    dxy    dyz    dz2    dxz    dx2    tot
  1  0.000  0.147  0.000  0.049  0.000  0.000  0.000  0.000  0.000  0.196
  2  0.000  0.147  0.000  0.049  0.000  0.000  0.000  0.000  0.000  0.196
  3  0.000  0.147  0.000  0.049  0.000  0.000  0.000  0.000  0.000  0.196
  4  0.000  0.147  0.000  0.049  0.000  0.000  0.000  0.000  0.000  0.196
tot  0.000  0.588  0.000  0.196  0.000  0.000  0.000  0.000  0.000  0.785
 
band   6 # energy   -1.78566618 # occ.  1.00000000
 
ion      s     py     pz     px    dxy    dyz    dz2    dxz    dx2    tot
  1  0.000  0.148  0.000  0.049  0.000  0.000  0.000  0.000  0.000  0.197
  2  0.000  0.148  0.000  0.049  0.000  0.000  0.000  0.000  0.000  0.197
  3  0.000  0.148  0.000  0.049  0.000  0.000  0.000  0.000  0.000  0.197
  4  0.000  0.148  0.000  0.049  0.000  0.000  0.000  0.000  0.000  0.197
tot  0.000  0.591  0.000  0.197  0.000  0.000  0.000  0.000  0.000  0.788
 
band   7 # energy   -0.23766543 # occ.  1.00000000
 
ion      s     py     pz     px    dxy    dyz    dz2    dxz    dx2    tot
  1  0.000  0.000  0.106  0.000  0.000  0.000  0.000  0.000  0.000  0.106
  2  0.000  0.000  0.109  0.000  0.000  0.000  0.000  0.000  0.000  0.109
  3  0.000  0.000  0.109  0.000  0.000  0.000  0.000  0.000  0.000  0.109
  4  0.000  0.000  0.106  0.000  0.000  0.000  0.000  0.000  0.000  0.106
tot  0.000  0.000  0.431  0.000  0.000  0.000  0.000  0.000  0.000  0.431
 
band   8 # energy    0.93609988 # occ.  1.00000000
 
ion      s     py     pz     px    dxy    dyz    dz2    dxz    dx2    tot
  1  0.000  0.000  0.132  0.000  0.000  0.000  0.000  0.000  0.000  0.132
  2  0.000  0.000  0.128  0.000  0.000  0.000  0.000  0.000  0.000  0.128
  3  0.000  0.000  0.128  0.000  0.000  0.000  0.000  0.000  0.000  0.128
  4  0.000  0.000  0.132  0.000  0.000  0.000  0.000  0.000  0.000  0.132
tot  0.000  0.000  0.520  0.000  0.000  0.000  0.000  0.000  0.000  0.520
 
band   9 # energy    7.68643847 # occ.  0.00000000
 
ion      s     py     pz     px    dxy    dyz    dz2    dxz    dx2    tot
  1  0.000  0.000  0.108  0.000  0.000  0.000  0.000  0.000  0.000  0.108
  2  0.000  0.000  0.133  0.000  0.000  0.000  0.000  0.000  0.000  0.133
  3  0.000  0.000  0.133  0.000  0.000  0.000  0.000  0.000  0.000  0.133
  4  0.000  0.000  0.108  0.000  0.000  0.000  0.000  0.000  0.000  0.108
tot  0.000  0.000  0.481  0.000  0.000  0.000  0.000  0.000  0.000  0.481
 
band  10 # energy    8.41842009 # occ.  0.00000000
 
ion      s     py     pz     px    dxy    dyz    dz2    dxz    dx2    tot
  1  0.000  0.000  0.151  0.000  0.000  0.000  0.000  0.000  0.000  0.151
  2  0.000  0.000  0.127  0.000  0.000  0.000  0.000  0.000  0.000  0.127
  3  0.000  0.000  0.127  0.000  0.000  0.000  0.000  0.000  0.000  0.127
  4  0.000  0.000  0.151  0.000  0.000  0.000  0.000  0.000  0.000  0.151
tot  0.000  0.000  0.558  0.000  0.000  0.000  0.000  0.000  0.000  0.558
 
band  11 # energy   11.66011745 # occ.  0.00000000
 
ion      s     py     pz     px    dxy    dyz    dz2    dxz    dx2    tot
  1  0.084  0.008  0.000  0.024  0.000  0.000  0.000  0.000  0.000  0.117
  2  0.070  0.008  0.000  0.023  0.000  0.000  0.000  0.000  0.000  0.101
  3  0.070  0.008  0.000  0.023  0.000  0.000  0.000  0.000  0.000  0.101
  4  0.084  0.008  0.000  0.024  0.000  0.000  0.000  0.000  0.000  0.117
tot  0.309  0.032  0.000  0.095  0.000  0.000  0.000  0.000  0.000  0.435
 
band  12 # energy   11.86163980 # occ.  0.00000000
 
ion      s     py     pz     px    dxy    dyz    dz2    dxz    dx2    tot
  1  0.060  0.009  0.000  0.026  0.000  0.000  0.000  0.000  0.000  0.095
  2  0.080  0.009  0.000  0.027  0.000  0.000  0.000  0.000  0.000  0.116
  3  0.080  0.009  0.000  0.027  0.000  0.000  0.000  0.000  0.000  0.116
  4  0.060  0.009  0.000  0.026  0.000  0.000  0.000  0.000  0.000  0.095
tot  0.282  0.035  0.000  0.104  0.000  0.000  0.000  0.000  0.000  0.421
 
band  13 # energy   12.37160125 # occ.  0.00000000
 
ion      s     py     pz     px    dxy    dyz    dz2    dxz    dx2    tot
  1  0.037  0.000  0.000  0.001  0.000  0.000  0.000  0.000  0.000  0.038
  2  0.031  0.000  0.000  0.000  0.000  0.000  0.000  0.000  0.000  0.032
  3  0.031  0.000  0.000  0.000  0.000  0.000  0.000  0.000  0.000  0.032
  4  0.037  0.000  0.000  0.001  0.000  0.000  0.000  0.000  0.000  0.038
tot  0.135  0.001  0.000  0.003  0.000  0.000  0.000  0.000  0.000  0.139
 
band  14 # energy   16.67136738 # occ.  0.00000000
 
ion      s     py     pz     px    dxy    dyz    dz2    dxz    dx2    tot
  1  0.000  0.000  0.080  0.000  0.000  0.000  0.000  0.000  0.000  0.080
  2  0.000  0.000  0.065  0.000  0.000  0.000  0.000  0.000  0.000  0.065
  3  0.000  0.000  0.065  0.000  0.000  0.000  0.000  0.000  0.000  0.065
  4  0.000  0.000  0.080  0.000  0.000  0.000  0.000  0.000  0.000  0.080
tot  0.000  0.000  0.289  0.000  0.000  0.000  0.000  0.000  0.000  0.289
 

 k-point    5 :    0.50000000 0.00000000 0.00000000     weight = 0.00585938

band   1 # energy  -10.06903107 # occ.  1.00000000
 
ion      s     py     pz     px    dxy    dyz    dz2    dxz    dx2    tot
  1  0.139  0.009  0.000  0.028  0.000  0.000  0.000  0.000  0.000  0.176
  2  0.159  0.007  0.000  0.020  0.000  0.000  0.000  0.000  0.000  0.185
  3  0.159  0.007  0.000  0.020  0.000  0.000  0.000  0.000  0.000  0.185
  4  0.139  0.009  0.000  0.028  0.000  0.000  0.000  0.000  0.000  0.176
tot  0.597  0.032  0.000  0.095  0.000  0.000  0.000  0.000  0.000  0.723
 
band   2 # energy   -9.99748748 # occ.  1.00000000
 
ion      s     py     pz     px    dxy    dyz    dz2    dxz    dx2    tot
  1  0.161  0.007  0.000  0.020  0.000  0.000  0.000  0.000  0.000  0.187
  2  0.140  0.009  0.000  0.028  0.000  0.000  0.000  0.000  0.000  0.178
  3  0.140  0.009  0.000  0.028  0.000  0.000  0.000  0.000  0.000  0.178
  4  0.161  0.007  0.000  0.020  0.000  0.000  0.000  0.000  0.000  0.187
tot  0.601  0.032  0.000  0.096  0.000  0.000  0.000  0.000  0.000  0.729
 
band   3 # energy   -9.00724177 # occ.  1.00000000
 
ion      s     py     pz     px    dxy    dyz    dz2    dxz    dx2    tot
  1  0.057  0.026  0.000  0.078  0.000  0.000  0.000  0.000  0.000  0.161
  2  0.081  0.023  0.000  0.068  0.000  0.000  0.000  0.000  0.000  0.172
  3  0.081  0.023  0.000  0.068  0.000  0.000  0.000  0.000  0.000  0.172
  4  0.057  0.026  0.000  0.078  0.000  0.000  0.000  0.000  0.000  0.161
tot  0.276  0.097  0.000  0.292  0.000  0.000  0.000  0.000  0.000  0.666
 
band   4 # energy   -8.95240397 # occ.  1.00000000
 