<?xml version="1.0" encoding="ISO-8859-1"?>
<modeling>
 <generator>
  <i name="program" type="string">vasp </i>
  <i name="version" type="string">5.2.12  </i>
  <i name="subversion" type="string">11Nov11 complex                                                      parallel </i>
  <i name="platform" type="string">LinuxIFC </i>
  <i name="date" type="string">2012 10 17 </i>
  <i name="time" type="string">12:23:52 </i>
 </generator>
 <incar>
  <i type="int" name="ISTART">     0</i>
  <i type="string" name="PREC">accurate</i>
  <i type="int" name="ISPIN">     2</i>
  <i type="int" name="IBRION">     1</i>
  <i name="EDIFFG">     -0.05000000</i>
  <i type="int" name="NSW">    50</i>
  <i type="int" name="ISIF">     3</i>
  <i name="ENCUT">    450.00000000</i>
  <i type="logical" name="LREAL"> F  </i>
  <i type="int" name="ISMEAR">     1</i>
  <i name="SIGMA">      0.05000000</i>
  <i type="logical" name="LORBIT"> F  </i>
 </incar>
 <kpoints>
  <generation param="Gamma">
   <v type="int" name="divisions">       8        8        8 </v>
   <v name="usershift">      0.00000000       0.00000000       0.00000000 </v>
   <v name="genvec1">      0.12500000       0.00000000       0.00000000 </v>
   <v name="genvec2">      0.00000000       0.12500000       0.00000000 </v>
   <v name="genvec3">      0.00000000       0.00000000       0.12500000 </v>
   <v name="shift">      0.00000000       0.00000000       0.00000000 </v>
  </generation>
  <varray name="kpointlist" >
   <v>       0.00000000       0.00000000       0.00000000 </v>
   <v>       0.12500000       0.00000000       0.00000000 </v>
   <v>       0.25000000       0.00000000       0.00000000 </v>
   <v>       0.37500000       0.00000000       0.00000000 </v>
   <v>       0.50000000       0.00000000       0.00000000 </v>
   <v>       0.12500000       0.12500000       0.00000000 </v>
   <v>       0.25000000       0.12500000       0.00000000 </v>
   <v>       0.37500000       0.12500000       0.00000000 </v>
   <v>       0.25000000       0.25000000       0.00000000 </v>
   <v>       0.37500000       0.25000000       0.00000000 </v>
   <v>       0.00000000       0.00000000       0.12500000 </v>
   <v>       0.12500000       0.00000000       0.12500000 </v>
   <v>       0.25000000       0.00000000       0.12500000 </v>
   <v>       0.37500000       0.00000000       0.12500000 </v>
   <v>       0.50000000       0.00000000       0.12500000 </v>
   <v>       0.12500000       0.12500000       0.12500000 </v>
   <v>       0.25000000       0.12500000       0.12500000 </v>
   <v>       0.37500000       0.12500000       0.12500000 </v>
   <v>       0.25000000       0.25000000       0.12500000 </v>
   <v>       0.37500000       0.25000000       0.12500000 </v>
   <v>       0.00000000       0.00000000       0.25000000 </v>
   <v>       0.12500000       0.00000000       0.25000000 </v>
   <v>       0.25000000       0.00000000       0.25000000 </v>
   <v>       0.37500000       0.00000000       0.25000000 </v>
   <v>       0.50000000       0.00000000       0.25000000 </v>
   <v>       0.12500000       0.12500000       0.25000000 </v>
   <v>       0.25000000       0.12500000       0.25000000 </v>
   <v>       0.37500000       0.12500000       0.25000000 </v>
   <v>       0.25000000       0.25000000       0.25000000 </v>
   <v>       0.37500000       0.25000000       0.25000000 </v>
   <v>       0.00000000       0.00000000       0.37500000 </v>
   <v>       0.12500000       0.00000000       0.37500000 </v>
   <v>       0.25000000       0.00000000       0.37500000 </v>
   <v>       0.37500000       0.00000000       0.37500000 </v>
   <v>       0.50000000       0.00000000       0.37500000 </v>
   <v>       0.12500000       0.12500000       0.37500000 </v>
   <v>       0.25000000       0.12500000       0.37500000 </v>
   <v>       0.37500000       0.12500000       0.37500000 </v>
   <v>       0.25000000       0.25000000       0.37500000 </v>
   <v>       0.37500000       0.25000000       0.37500000 </v>
   <v>       0.00000000       0.00000000       0.50000000 </v>
   <v>       0.12500000       0.00000000       0.50000000 </v>
   <v>       0.25000000       0.00000000       0.50000000 </v>
   <v>       0.37500000       0.00000000       0.50000000 </v>
   <v>       0.50000000       0.00000000       0.50000000 </v>
   <v>       0.12500000       0.12500000       0.50000000 </v>
   <v>       0.25000000       0.12500000       0.50000000 </v>
   <v>       0.37500000       0.12500000       0.50000000 </v>
   <v>       0.25000000       0.25000000       0.50000000 </v>
   <v>       0.37500000       0.25000000       0.50000000 </v>
  </varray>
  <varray name="weights" >
   <v>       0.00195312 </v>
   <v>       0.01171875 </v>
   <v>       0.01171875 </v>
   <v>       0.01171875 </v>
   <v>       0.00585938 </v>
   <v>       0.01171875 </v>
   <v>       0.02343750 </v>
   <v>       0.02343750 </v>
   <v>       0.01171875 </v>
   <v>       0.01171875 </v>
   <v>       0.00390625 </v>
   <v>       0.02343750 </v>
   <v>       0.02343750 </v>
   <v>       0.02343750 </v>
   <v>       0.01171875 </v>
   <v>       0.02343750 </v>
   <v>       0.04687500 </v>
   <v>       0.04687500 </v>
   <v>       0.02343750 </v>
   <v>       0.02343750 </v>
   <v>       0.00390625 </v>
   <v>       0.02343750 </v>
   <v>       0.02343750 </v>
   <v>       0.02343750 </v>
   <v>       0.01171875 </v>
   <v>       0.02343750 </v>
   <v>       0.04687500 </v>
   <v>       0.04687500 </v>
   <v>       0.02343750 </v>
   <v>       0.02343750 </v>
   <v>       0.00390625 </v>
   <v>       0.02343750 </v>
   <v>       0.02343750 </v>
   <v>       0.02343750 </v>
   <v>       0.01171875 </v>
   <v>       0.02343750 </v>
   <v>       0.04687500 </v>
   <v>       0.04687500 </v>
   <v>       0.02343750 </v>
   <v>       0.02343750 </v>
   <v>       0.00195312 </v>
   <v>       0.01171875 </v>
   <v>       0.01171875 </v>
   <v>       0.01171875 </v>
   <v>       0.00585938 </v>
   <v>       0.01171875 </v>
   <v>       0.02343750 </v>
   <v>       0.02343750 </v>
   <v>       0.01171875 </v>
   <v>       0.01171875 </v>
  </varray>
 </kpoints>
 <parameters>
  <separator name="general" >
   <i type="string" name="SYSTEM">unknown system</i>
   <i type="logical" name="LCOMPAT"> F  </i>
  </separator>
  <separator name="electronic" >
   <i type="string" name="PREC">accura</i>
   <i name="ENMAX">    450.00000000</i>
   <i name="ENAUG">    644.87300000</i>
   <i name="EDIFF">      0.00010000</i>
   <i type="int" name="IALGO">    38</i>
   <i type="int" name="IWAVPR">    11</i>
   <i type="int" name="NBANDS">    14</i>
   <i name="NELECT">     16.00000000</i>
   <i type="int" name="TURBO">     0</i>
   <i type="int" name="IRESTART">     0</i>
   <i type="int" name="NREBOOT">     0</i>
   <i type="int" name="NMIN">     0</i>
   <i name="EREF">      0.00000000</i>
   <separator name="electronic smearing" >
    <i type="int" name="ISMEAR">     1</i>
    <i name="SIGMA">      0.05000000</i>
    <i name="KSPACING">      0.50000000</i>
    <i type="logical" name="KGAMMA"> T  </i>
   </separator>
   <separator name="electronic projectors" >
    <i type="logical" name="LREAL"> F  </i>
    <v name="ROPT">      0.00000000</v>
    <i type="int" name="LMAXPAW">  -100</i>
    <i type="int" name="LMAXMIX">     2</i>
    <i type="logical" name="NLSPLINE"> F  </i>
   </separator>
   <separator name="electronic startup" >
    <i type="int" name="ISTART">     0</i>
    <i type="int" name="ICHARG">     2</i>
    <i type="int" name="INIWAV">     1</i>
   </separator>
   <separator name="electronic spin" >
    <i type="int" name="ISPIN">     2</i>
    <i type="logical" name="LNONCOLLINEAR"> F  </i>
    <v name="MAGMOM">      1.00000000      1.00000000      1.00000000      1.00000000</v>
    <i name="NUPDOWN">     -1.00000000</i>
    <i type="logical" name="LSORBIT"> F  </i>
    <v name="SAXIS">      0.00000000      0.00000000      1.00000000</v>
    <i type="logical" name="LSPIRAL"> F  </i>
    <v name="QSPIRAL">      0.00000000      0.00000000      0.00000000</v>
    <i type="logical" name="LZEROZ"> F  </i>
   </separator>
   <separator name="electronic exchange-correlation" >
    <i type="logical" name="LASPH"> F  </i>
    <i type="logical" name="LMETAGGA"> F  </i>
   </separator>
   <separator name="electronic convergence" >
    <i type="int" name="NELM">    60</i>
    <i type="int" name="NELMDL">    -5</i>
    <i type="int" name="NELMIN">     2</i>
    <i name="ENINI">    450.00000000</i>
    <separator name="electronic convergence detail" >
     <i type="logical" name="LDIAG"> T  </i>
     <i type="logical" name="LSUBROT"> T  </i>
     <i name="WEIMIN">      0.00100000</i>
     <i name="EBREAK">      0.00000179</i>
     <i name="DEPER">      0.30000000</i>
     <i type="int" name="NRMM">     4</i>
     <i name="TIME">      0.40000000</i>
    </separator>
   </separator>
   <separator name="electronic mixer" >
    <i name="AMIX">      0.40000000</i>
    <i name="BMIX">      1.00000000</i>
    <i name="AMIN">      0.10000000</i>
    <i name="AMIX_MAG">      1.60000000</i>
    <i name="BMIX_MAG">      1.00000000</i>
    <separator name="electronic mixer details" >
     <i type="int" name="IMIX">     4</i>
     <i type="int" name="MAXMIX">   -45</i>
     <i name="WC">    100.00000000</i>
     <i type="int" name="INIMIX">     1</i>
     <i type="int" name="MIXPRE">     1</i>
     <i type="int" name="MREMOVE">     5</i>
    </separator>
   </separator>
   <separator name="electronic dipolcorrection" >
    <i type="logical" name="LDIPOL"> F  </i>
    <i type="logical" name="LMONO"> F  </i>
    <i type="int" name="IDIPOL">     0</i>
    <i name="EPSILON">      1.00000000</i>
    <v name="DIPOL">   -100.00000000   -100.00000000   -100.00000000</v>
    <i name="EFIELD">      0.00000000</i>
   </separator>
  </separator>
  <separator name="grids" >
   <i type="int" name="NGX">    18</i>
   <i type="int" name="NGY">    18</i>
   <i type="int" name="NGZ">    48</i>
   <i type="int" name="NGXF">    36</i>
   <i type="int" name="NGYF">    36</i>
   <i type="int" name="NGZF">    96</i>
   <i type="logical" name="ADDGRID"> F  </i>
  </separator>
  <separator name="ionic" >
   <i type="int" name="NSW">    50</i>
   <i type="int" name="IBRION">     1</i>
   <i type="int" name="ISIF">     3</i>
   <i name="PSTRESS">      0.00000000</i>
   <i name="EDIFFG">     -0.05000000</i>
   <i type="int" name="NFREE">     0</i>
   <i name="POTIM">      0.50000000</i>
   <i name="SMASS">     -3.00000000</i>
   <i name="SCALEE">      1.00000000</i>
  </separator>
  <separator name="ionic md" >
   <i name="TEBEG">      0.00010000</i>
   <i name="TEEND">      0.00010000</i>
   <i type="int" name="NBLOCK">     1</i>
   <i type="int" name="KBLOCK">    50</i>
   <i type="int" name="NPACO">   256</i>
   <i name="APACO">     16.00000000</i>
  </separator>
  <separator name="symmetry" >
   <i type="int" name="ISYM">     2</i>
   <i name="SYMPREC">      0.00001000</i>
  </separator>
  <separator name="dos" >
   <i type="logical" name="LORBIT"> F  </i>
   <v name="RWIGS">     -1.00000000</v>
   <i type="int" name="NEDOS">   301</i>
   <i name="EMIN">     10.00000000</i>
   <i name="EMAX">    -10.00000000</i>
   <i name="EFERMI">      0.00000000</i>
  </separator>
  <separator name="writing" >
   <i type="int" name="NWRITE">     2</i>
   <i type="logical" name="LWAVE"> T  </i>
   <i type="logical" name="LCHARG"> T  </i>
   <i type="logical" name="LPARD"> F  </i>
   <i type="logical" name="LVTOT"> F  </i>
   <i type="logical" name="LVHAR"> F  </i>
   <i type="logical" name="LELF"> F  </i>
   <i type="logical" name="LOPTICS"> F  </i>
   <v name="STM">      0.00000000      0.00000000      0.00000000      0.00000000      0.00000000      0.00000000      0.00000000</v>
  </separator>
  <separator name="performance" >
   <i type="int" name="NPAR">     1</i>
   <i type="int" name="NSIM">     4</i>
   <i type="int" name="NBLK">    -1</i>
   <i type="logical" name="LPLANE"> T  </i>
   <i type="logical" name="LSCALAPACK"> F  </i>
   <i type="logical" name="LSCAAWARE"> F  </i>
   <i type="logical" name="LSCALU"> F  </i>
   <i type="logical" name="LASYNC"> F  </i>
   <i type="logical" name="LORBITALREAL"> F  </i>
  </separator>
  <separator name="miscellaneous" >
   <i type="int" name="IDIOT">     3</i>
   <i type="logical" name="LMUSIC"> F  </i>
   <v name="POMASS">     12.01100000</v>
   <v name="DARWINR">      0.00000000</v>
   <v name="DARWINV">      1.00000000</v>
   <i type="logical" name="LCORR"> T  </i>
  </separator>
  <i type="logical" name="GGA_COMPAT"> T  </i>
  <i type="logical" name="LBERRY"> F  </i>
  <i type="int" name="ICORELEVEL">     0</i>
  <i type="logical" name="LDAU"> F  </i>
  <i type="int" name="I_CONSTRAINED_M">     0</i>
  <separator name="electronic exchange-correlation" >
   <i type="string" name="GGA">--</i>
   <i type="int" name="VOSKOWN">     0</i>
   <i type="logical" name="LHFCALC"> F  </i>
   <i type="string" name="PRECFOCK"></i>
   <i type="logical" name="LHFONE"> F  </i>
   <i type="logical" name="LRHFCALC"> F  </i>
   <i type="logical" name="LTHOMAS"> F  </i>
   <i type="logical" name="LMODELHF"> F  </i>
   <i name="ENCUT4O">     -1.00000000</i>
   <i type="int" name="EXXOEP">     0</i>
   <i type="int" name="FOURORBIT">     0</i>
   <i name="AEXX">      0.00000000</i>
   <i name="HFALPHA">      0.00000000</i>
   <i name="ALDAX">      1.00000000</i>
   <i name="AGGAX">      1.00000000</i>
   <i name="ALDAC">      1.00000000</i>
   <i name="AGGAC">      1.00000000</i>
   <i type="int" name="NKREDX">     1</i>
   <i type="int" name="NKREDY">     1</i>
   <i type="int" name="NKREDZ">     1</i>
   <i type="logical" name="SHIFTRED"> F  </i>
   <i type="logical" name="ODDONLY"> F  </i>
   <i type="logical" name="EVENONLY"> F  </i>
   <i type="int" name="LMAXFOCK">     0</i>
   <i type="int" name="NMAXFOCKAE">     0</i>
   <i type="logical" name="LFOCKAEDFT"> F  </i>
   <i name="HFSCREEN">      0.00000000</i>
   <i name="HFSCREENC">      0.00000000</i>
  </separator>
  <separator name="vdW DFT" >
   <i type="logical" name="LUSE_VDW"> F  </i>
   <i name="Zab_VDW">     -0.84910000</i>
   <i name="PARAM1">      0.12340000</i>
   <i name="PARAM2">      1.00000000</i>
   <i name="PARAM3">      0.00000000</i>
  </separator>
  <separator name="model GW" >
   <i type="int" name="MODEL_GW">     0</i>
   <i name="MODEL_EPS0">      5.27839982</i>
   <i name="MODEL_ALPHA">      1.00000000</i>
  </separator>
  <separator name="linear response parameters" >
   <i type="logical" name="LEPSILON"> F  </i>
   <i type="logical" name="LRPA"> F  </i>
   <i type="logical" name="LNABLA"> F  </i>
   <i type="logical" name="LVEL"> F  </i>
   <i type="int" name="KINTER">     0</i>
   <i name="CSHIFT">      0.10000000</i>
   <i name="OMEGAMAX">     -1.00000000</i>
  </separator>
  <separator name="orbital magnetization" >
   <i type="logical" name="NUCIND"> F  </i>
   <v name="MAGPOS">      0.00000000      0.00000000      0.00000000</v>
   <i type="logical" name="LNICSALL"> T  </i>
   <i type="logical" name="ORBITALMAG"> F  </i>
   <i type="logical" name="LMAGBLOCH"> F  </i>
   <i type="logical" name="LCHIMAG"> F  </i>
   <i type="logical" name="LGAUGE"> T  </i>
   <i type="int" name="MAGATOM">     0</i>
   <v name="MAGDIPOL">      0.00000000      0.00000000      0.00000000</v>
   <v name="AVECCONST">      0.00000000      0.00000000      0.00000000</v>
  </separator>
  <separator name="response functions" >
   <i type="logical" name="LADDER"> F  </i>
   <i type="logical" name="LHARTREE"> T  </i>
   <i type="int" name="IBSE">     0</i>
   <i type="logical" name="LTCTE"> F  </i>
   <i type="logical" name="LTETE"> F  </i>
   <i type="logical" name="LFXCEPS"> F  </i>
   <i type="logical" name="L2ORDER"> F  </i>
   <i type="logical" name="LUSEW"> F  </i>
   <i name="ENCUTGW">     -2.00000000</i>
   <i name="ENCUTGWSOFT">     -2.00000000</i>
   <i name="ENCUTLF">     -1.00000000</i>
   <i type="int" name="LMAXMP2">    -1</i>
   <i name="SCISSOR">      0.00000000</i>
   <i type="int" name="NOMEGA">     0</i>
   <i type="int" name="NOMEGAR">     0</i>
   <i type="int" name="NBANDSGW">    -1</i>
   <i type="int" name="NBANDSO">    -1</i>
   <i type="int" name="NBANDSV">    -1</i>
   <i name="OPTEMAX">      0.00000000</i>
   <i type="int" name="NELM">     1</i>
   <i type="int" name="DIM">     3</i>
   <i type="int" name="ANTIRES">     0</i>
   <i name="OMEGAMAX">    -30.00000000</i>
   <i name="OMEGATL">   -200.00000000</i>
   <i type="int" name="OMEGAGRID">     0</i>
   <i name="CSHIFT">     -0.10000000</i>
   <i type="logical" name="SELFENERGY"> F  </i>
   <i type="logical" name="LSPECTRAL"> F  </i>
   <i type="logical" name="ODDONLYGW"> F  </i>
   <i type="logical" name="EVENONLYGW"> F  </i>
   <i type="int" name="NKREDLFX">     1</i>
   <i type="int" name="NKREDLFY">     1</i>
   <i type="int" name="NKREDLFZ">     1</i>
   <i type="int" name="MAXMEM">  1800</i>
   <i type="int" name="TELESCOPE">     0</i>
  </separator>
 </parameters>
 <atominfo>
  <atoms>       4 </atoms>
  <types>       1 </types>
  <array name="atoms" >
   <dimension dim="1">ion</dimension>
   <field type="string">element</field>
   <field type="int">atomtype</field>
   <set>
    <rc><c>C </c><c>   1</c></rc>
    <rc><c>C </c><c>   1</c></rc>
    <rc><c>C </c><c>   1</c></rc>
    <rc><c>C </c><c>   1</c></rc>
   </set>
  </array>
  <array name="atomtypes" >
   <dimension dim="1">type</dimension>
   <field type="int">atomspertype</field>
   <field type="string">element</field>
   <field>mass</field>
   <field>valence</field>
   <field type="string">pseudopotential</field>
   <set>
    <rc><c>   4</c><c>C </c><c>     12.01100000</c><c>      4.00000000</c><c> PAW_PBE C 08Apr2002                    </c></rc>
   </set>
  </array>
 </atominfo>
 <structure name="initialpos" >
  <crystal>
   <varray name="basis" >
    <v>       2.46120000       0.00000000       0.00000000 </v>
    <v>      -1.23060000       2.13146172       0.00000000 </v>
    <v>       0.00000000       0.00000000       6.70790000 </v>
   </varray>
   <i name="volume">     35.18933212 </i>
   <varray name="rec_basis" >
    <v>       0.40630587       0.23458080       0.00000000 </v>
    <v>       0.00000000       0.46916160       0.00000000 </v>
    <v>       0.00000000       0.00000000       0.14907795 </v>
   </varray>
  </crystal>
  <varray name="positions" >
   <v>       0.00000000       0.00000000       0.00000000 </v>
   <v>       0.33333333       0.66666667       0.00000000 </v>
   <v>       0.33333333       0.66666667       0.50000000 </v>
   <v>       0.66666667       0.33333333       0.50000000 </v>
  </varray>
 </structure>
 <calculation>
  <scstep>
   <time name="dav">    7.72    7.72</time>
   <time name="total">    8.17    8.18</time>
   <energy>
    <i name="alphaZ">     37.04766603 </i>
    <i name="ewald">   -460.60042082 </i>
    <i name="hartreedc">   -148.78490797 </i>
    <i name="XCdc">     56.10990954 </i>
    <i name="pawpsdc">    150.95130483 </i>
    <i name="pawaedc">   -155.51722924 </i>
    <i name="eentropy">      0.00006799 </i>
    <i name="bandstr">    -34.06349829 </i>
    <i name="atom">    588.57751394 </i>
    <i name="e_fr_energy">     33.72040601 </i>
    <i name="e_wo_entrp">     33.72033802 </i>
    <i name="e_0_energy">     33.72038335 </i>
   </energy>
  </scstep>
  <scstep>
   <time name="dav">    9.86    9.86</time>
   <time name="total">    9.86    9.87</time>
   <energy>
    <i name="e_fr_energy">    -34.71794339 </i>
    <i name="e_wo_entrp">    -34.71797330 </i>
    <i name="e_0_energy">    -34.71795336 </i>
   </energy>
  </scstep>
  <scstep>
   <time name="dav">    9.49    9.50</time>
   <time name="total">    9.50    9.52</time>
   <energy>
    <i name="e_fr_energy">    -37.55433547 </i>
    <i name="e_wo_entrp">    -37.55453179 </i>
    <i name="e_0_energy">    -37.55440091 </i>
   </energy>
  </scstep>
  <scstep>
   <time name="dav">    8.90    8.90</time>
   <time name="total">    8.91    8.93</time>
   <energy>
    <i name="e_fr_energy">    -37.58229475 </i>
    <i name="e_wo_entrp">    -37.58239846 </i>
    <i name="e_0_energy">    -37.58232932 </i>
   </energy>
  </scstep>
  <scstep>
   <time name="dav">    9.51    9.52</time>
   <time name="total">   10.19   10.20</time>
   <energy>
    <i name="e_fr_energy">    -37.58275869 </i>
    <i name="e_wo_entrp">    -37.58295351 </i>
    <i name="e_0_energy">    -37.58282363 </i>
   </energy>
  </scstep>
  <scstep>
   <time name="dav">    8.31    8.31</time>
   <time name="total">    9.41    9.43</time>
   <energy>
    <i name="e_fr_energy">    -36.78868240 </i>
    <i name="e_wo_entrp">    -36.78876267 </i>
    <i name="e_0_energy">    -36.78870916 </i>
   </energy>
  </scstep>
  <scstep>
   <time name="dav">    8.38    8.38</time>
   <time name="total">    9.47    9.48</time>
   <energy>
    <i name="e_fr_energy">    -36.87728702 </i>
    <i name="e_wo_entrp">    -36.87746237 </i>
    <i name="e_0_energy">    -36.87734547 </i>
   </energy>
  </scstep>
  <scstep>
   <time name="dav">    8.90    8.90</time>
   <time name="total">    9.99   10.01</time>
   <energy>
    <i name="e_fr_energy">    -36.82244903 </i>
    <i name="e_wo_entrp">    -36.82262567 </i>
    <i name="e_0_energy">    -36.82250791 </i>
   </energy>
  </scstep>
  <scstep>
   <time name="dav">    8.44    8.45</time>
   <time name="total">    9.53    9.55</time>
   <energy>
    <i name="e_fr_energy">    -36.83418622 </i>
    <i name="e_wo_entrp">    -36.83435228 </i>
    <i name="e_0_energy">    -36.83424157 </i>
   </energy>
  </scstep>
  <scstep>
   <time name="dav">    9.15    9.15</time>
   <time name="total">   10.24   10.26</time>
   <energy>
    <i name="e_fr_energy">    -36.83455479 </i>
    <i name="e_wo_entrp">    -36.83473052 </i>
    <i name="e_0_energy">    -36.83461337 </i>
   </energy>
  </scstep>
  <scstep>
   <time name="dav">    8.59    8.59</time>
   <time name="total">    9.69    9.70</time>
   <energy>
    <i name="e_fr_energy">    -36.83478678 </i>
    <i name="e_wo_entrp">    -36.83496182 </i>
    <i name="e_0_energy">    -36.83484512 </i>
   </energy>
  </scstep>
  <scstep>
   <time name="dav">    7.48    7.48</time>
   <time name="total">    7.93    7.94</time>
   <energy>
    <i name="alphaZ">     37.04766603 </i>
    <i name="ewald">   -460.60042082 </i>
    <i name="hartreedc">   -183.78502396 </i>
    <i name="XCdc">     57.70932096 </i>
    <i name="pawpsdc">    280.20860155 </i>
    <i name="pawaedc">   -285.38484645 </i>
    <i name="eentropy">      0.00017464 </i>
    <i name="bandstr">    -70.60781128 </i>
    <i name="atom">    588.57751394 </i>
    <i name="e_fr_energy">    -36.83482538 </i>
    <i name="e_wo_entrp">    -36.83500002 </i>
    <i name="e_0_energy">    -36.83488360 </i>
   </energy>
  </scstep>
  <parameters_embedded>
   <separator name="dft+d2" >
    <i type="logical" name="LVDW"> F  </i>
   </separator>
  </parameters_embedded>
  <structure>
   <crystal>
    <varray name="basis" >
     <v>       2.46120000       0.00000000       0.00000000 </v>
     <v>      -1.23060000       2.13146172       0.00000000 </v>
     <v>       0.00000000       0.00000000       6.70790000 </v>
    </varray>
    <i name="volume">     35.18933212 </i>
    <varray name="rec_basis" >
     <v>       0.40630587       0.23458080       0.00000000 </v>
     <v>       0.00000000       0.46916160       0.00000000 </v>
     <v>       0.00000000       0.00000000       0.14907795 </v>
    </varray>
   </crystal>
   <varray name="positions" >
    <v>       0.00000000       0.00000000       0.00000000 </v>
    <v>       0.33333333       0.66666667       0.00000000 </v>
    <v>       0.33333333       0.66666667       0.50000000 </v>
    <v>       0.66666667       0.33333333       0.50000000 </v>
   </varray>
  </structure>
  <varray name="forces" >
   <v>       0.00000000       0.00000000       0.00000000 </v>
   <v>       0.00000000       0.00000000       0.00000000 </v>
   <v>       0.00000000       0.00000000       0.00000000 </v>
   <v>       0.00000000       0.00000000       0.00000000 </v>
  </varray>
  <varray name="stress" >
   <v>      28.98309436       0.00000000       0.00000000 </v>
   <v>       0.00000000      28.98309436       0.00000000 </v>
   <v>       0.00000000       0.00000000      28.40457198 </v>
  </varray>
  <energy>
   <i name="e_fr_energy">    -36.83482538 </i>
   <i name="e_wo_entrp">    -36.83488360 </i>
   <i name="e_0_energy">      0.00017464 </i>
  </energy>
  <time name="totalsc">  116.59  116.84</time>
 </calculation>
 <calculation>
  <scstep>
   <time name="dav">    8.09    8.09</time>
   <time name="total">    9.18    9.18</time>
   <energy>
    <i name="alphaZ">     36.21281610 </i>
    <i name="ewald">   -457.18429432 </i>
    <i name="hartreedc">   -182.37374485 </i>
    <i name="XCdc">     57.29681491 </i>
    <i name="pawpsdc">    280.13804495 </i>
    <i name="pawaedc">   -285.31415300 </i>
    <i name="eentropy">      0.00017443 </i>
    <i name="bandstr">    -74.19220356 </i>
    <i name="atom">    588.57751394 </i>
    <i name="e_fr_energy">    -36.83903140 </i>
    <i name="e_wo_entrp">    -36.83920583 </i>
    <i name="e_0_energy">    -36.83908955 </i>
   </energy>
  </scstep>
  <scstep>
   <time name="dav">    8.80    8.81</time>
   <time name="total">    9.89    9.90</time>
   <energy>
    <i name="e_fr_energy">    -36.83441475 </i>
    <i name="e_wo_entrp">    -36.83458950 </i>
    <i name="e_0_energy">    -36.83447300 </i>
   </energy>
  </scstep>
  <scstep>
   <time name="dav">    8.21    8.21</time>
   <time name="total">    9.30    9.31</time>
   <energy>
    <i name="e_fr_energy">    -36.83266677 </i>
    <i name="e_wo_entrp">    -36.83284180 </i>
    <i name="e_0_energy">    -36.83272511 </i>
   </energy>
  </scstep>
  <scstep>
   <time name="dav">    7.50    7.50</time>
   <time name="total">    7.94    7.96</time>
   <energy>
    <i name="alphaZ">     36.21281610 </i>
    <i name="ewald">   -457.18429432 </i>
    <i name="hartreedc">   -184.24885755 </i>
    <i name="XCdc">     57.42291811 </i>
    <i name="pawpsdc">    274.58441427 </i>
    <i name="pawaedc">   -279.73516914 </i>
    <i name="eentropy">      0.00017497 </i>
    <i name="bandstr">    -72.46218232 </i>
    <i name="atom">    588.57751394 </i>
    <i name="e_fr_energy">    -36.83266594 </i>
    <i name="e_wo_entrp">    -36.83284091 </i>
    <i name="e_0_energy">    -36.83272426 </i>
   </energy>
  </scstep>
  <structure>
   <crystal>
    <varray name="basis" >
     <v>       2.48009571       0.00000000       0.00000000 </v>
     <v>      -1.24004786       2.14782589       0.00000000 </v>
     <v>       0.00000000       0.00000000       6.75837153 </v>
    </varray>
    <i name="volume">     36.00058665 </i>
    <varray name="rec_basis" >
     <v>       0.40321024       0.23279354       0.00000000 </v>
     <v>       0.00000000       0.46558709       0.00000000 </v>
     <v>       0.00000000       0.00000000       0.14796464 </v>
    </varray>
   </crystal>
   <varray name="positions" >
    <v>       0.00000000       0.00000000       0.00000000 </v>
    <v>       0.33333333       0.66666667       0.00000000 </v>
    <v>       0.33333333       0.66666667       0.50000000 </v>
    <v>       0.66666667       0.33333333       0.50000000 </v>
   </varray>
  </structure>
  <varray name="forces" >
   <v>       0.00000000       0.00000000       0.00000000 </v>
   <v>       0.00000000       0.00000000       0.00000000 </v>
   <v>       0.00000000       0.00000000       0.00000000 </v>
   <v>       0.00000000       0.00000000       0.00000000 </v>
  </varray>
  <varray name="stress" >
   <v>     -65.59323288       0.00000000       0.00000000 </v>
   <v>       0.00000000     -65.59323288       0.00000000 </v>
   <v>       0.00000000       0.00000000      23.44845827 </v>
  </varray>
  <energy>
   <i name="e_fr_energy">    -36.83266594 </i>
   <i name="e_wo_entrp">    -36.83272426 </i>
   <i name="e_0_energy">      0.00017497 </i>
  </energy>
  <time name="totalsc">   39.51   39.60</time>
 </calculation>
 <calculation>
  <scstep>
   <time name="dav">    7.95    7.95</time>
   <time name="total">    9.03    9.03</time>
   <energy>
    <i name="alphaZ">     36.58136239 </i>
    <i name="ewald">   -454.84029186 </i>
    <i name="hartreedc">   -186.55903977 </i>
    <i name="XCdc">     57.61005951 </i>
    <i name="pawpsdc">    274.07659821 </i>
    <i name="pawaedc">   -279.22266241 </i>
    <i name="eentropy">      0.00017371 </i>
    <i name="bandstr">    -73.06838147 </i>
    <i name="atom">    588.57751394 </i>
    <i name="e_fr_energy">    -36.84466777 </i>
    <i name="e_wo_entrp">    -36.84484148 </i>
    <i name="e_0_energy">    -36.84472567 </i>
   </energy>
  </scstep>
  <scstep>
   <time name="dav">    9.61    9.62</time>
   <time name="total">   10.70   10.71</time>
   <energy>
    <i name="e_fr_energy">    -36.84278138 </i>
    <i name="e_wo_entrp">    -36.84295518 </i>
    <i name="e_0_energy">    -36.84283931 </i>
   </energy>
  </scstep>
  <scstep>
   <time name="dav">    8.23    8.24</time>
   <time name="total">    9.32    9.33</time>
   <energy>
    <i name="e_fr_energy">    -36.84162422 </i>
    <i name="e_wo_entrp">    -36.84179814 </i>
    <i name="e_0_energy">    -36.84168220 </i>
   </energy>
  </scstep>
  <scstep>
   <time name="dav">    7.58    7.58</time>
   <time name="total">    8.01    8.03</time>
   <energy>
    <i name="alphaZ">     36.58136239 </i>
    <i name="ewald">   -454.84029186 </i>
    <i name="hartreedc">   -187.55916582 </i>
    <i name="XCdc">     57.65029049 </i>
    <i name="pawpsdc">    279.00486192 </i>
    <i name="pawaedc">   -284.17583245 </i>
    <i name="eentropy">      0.00017389 </i>
    <i name="bandstr">    -72.08053790 </i>
    <i name="atom">    588.57751394 </i>
    <i name="e_fr_energy">    -36.84162540 </i>
    <i name="e_wo_entrp">    -36.84179929 </i>
    <i name="e_0_energy">    -36.84168337 </i>
   </energy>
  </scstep>
  <structure>
   <crystal>
    <varray name="basis" >
     <v>       2.46486721       0.00000000       0.00000000 </v>
     <v>      -1.23243360       2.13463762       0.00000000 </v>
     <v>       0.00000000       0.00000000       6.77320648 </v>
    </varray>
    <i name="volume">     35.63789151 </i>
    <varray name="rec_basis" >
     <v>       0.40570137       0.23423179       0.00000000 </v>
     <v>       0.00000000       0.46846359       0.00000000 </v>
     <v>       0.00000000       0.00000000       0.14764056 </v>
    </varray>
   </crystal>
   <varray name="positions" >
    <v>       0.00000000       0.00000000       0.00000000 </v>
    <v>       0.33333333       0.66666667       0.00000000 </v>
    <v>       0.33333333       0.66666667       0.50000000 </v>
    <v>       0.66666667       0.33333333       0.50000000 </v>
   </varray>
  </structure>
  <varray name="forces" >
   <v>       0.00000000       0.00000000       0.00000000 </v>
   <v>       0.00000000       0.00000000       0.00000000 </v>
   <v>       0.00000000       0.00000000       0.00000000 </v>
   <v>       0.00000000       0.00000000       0.00000000 </v>
  </varray>
  <varray name="stress" >
   <v>       9.40061617       0.00000000       0.00000000 </v>
   <v>       0.00000000       9.40061617       0.00000000 </v>
   <v>       0.00000000       0.00000000      20.67356258 </v>
  </varray>
  <energy>
   <i name="e_fr_energy">    -36.84162540 </i>
   <i name="e_wo_entrp">    -36.84168337 </i>
   <i name="e_0_energy">      0.00017389 </i>
  </energy>
  <time name="totalsc">   40.26   40.36</time>
 </calculation>
 <calculation>
  <scstep>
   <time name="dav">    7.82    7.83</time>
   <time name="total">    8.91    8.91</time>
   <energy>
    <i name="alphaZ">     36.28657956 </i>
    <i name="ewald">   -451.69653200 </i>
    <i name="hartreedc">   -187.84206751 </i>
    <i name="XCdc">     57.50184064 </i>
    <i name="pawpsdc">    278.86492140 </i>
    <i name="pawaedc">   -284.03408254 </i>
    <i name="eentropy">      0.00017347 </i>
    <i name="bandstr">    -74.50644655 </i>
    <i name="atom">    588.57751394 </i>
    <i name="e_fr_energy">    -36.84809958 </i>
    <i name="e_wo_entrp">    -36.84827306 </i>
    <i name="e_0_energy">    -36.84815741 </i>
   </energy>
  </scstep>
  <scstep>
   <time name="dav">    8.11    8.11</time>
   <time name="total">    9.20    9.20</time>
   <energy>
    <i name="e_fr_energy">    -36.84544537 </i>
    <i name="e_wo_entrp">    -36.84561904 </i>
    <i name="e_0_energy">    -36.84550326 </i>
   </energy>
  </scstep>
  <scstep>
   <time name="dav">    8.16    8.19</time>
   <time name="total">    9.24    9.29</time>
   <energy>
    <i name="e_fr_energy">    -36.84435067 </i>
    <i name="e_wo_entrp">    -36.84452449 </i>
    <i name="e_0_energy">    -36.84440861 </i>
   </energy>
  </scstep>
  <scstep>
   <time name="dav">    7.43    7.43</time>
   <time name="total">    7.87    7.88</time>
   <energy>
    <i name="alphaZ">     36.28657956 </i>
    <i name="ewald">   -451.69653200 </i>
    <i name="hartreedc">   -189.40791687 </i>
    <i name="XCdc">     57.59360918 </i>
    <i name="pawpsdc">    278.18643402 </i>
    <i name="pawaedc">   -283.35397925 </i>
    <i name="eentropy">      0.00017379 </i>
    <i name="bandstr">    -73.03024023 </i>
    <i name="atom">    588.57751394 </i>
    <i name="e_fr_energy">    -36.84435786 </i>
    <i name="e_wo_entrp">    -36.84453165 </i>
    <i name="e_0_energy">    -36.84441579 </i>
   </energy>
  </scstep>
  <structure>
   <crystal>
    <varray name="basis" >
     <v>       2.46816688       0.00000000       0.00000000 </v>
     <v>      -1.23408344       2.13749521       0.00000000 </v>
     <v>       0.00000000       0.00000000       6.80998529 </v>
    </varray>
    <i name="volume">     35.92740456 </i>
    <varray name="rec_basis" >
     <v>       0.40515899       0.23391865       0.00000000 </v>
     <v>       0.00000000       0.46783730       0.00000000 </v>
     <v>       0.00000000       0.00000000       0.14684320 </v>
    </varray>
   </crystal>
   <varray name="positions" >
    <v>       0.00000000       0.00000000       0.00000000 </v>
    <v>       0.33333333       0.66666667       0.00000000 </v>
    <v>       0.33333333       0.66666667       0.50000000 </v>
    <v>       0.66666667       0.33333333       0.50000000 </v>
   </varray>
  </structure>
  <varray name="forces" >
   <v>       0.00000000       0.00000000       0.00000000 </v>
   <v>       0.00000000       0.00000000       0.00000000 </v>
   <v>       0.00000000       0.00000000       0.00000000 </v>
   <v>       0.00000000       0.00000000       0.00000000 </v>
  </varray>
  <varray name="stress" >
   <v>      -7.52821953       0.00000000       0.00000000 </v>
   <v>       0.00000000      -7.52821953       0.00000000 </v>
   <v>       0.00000000       0.00000000      20.28096354 </v>
  </varray>
  <energy>
   <i name="e_fr_energy">    -36.84435786 </i>
   <i name="e_wo_entrp">    -36.84441579 </i>
   <i name="e_0_energy">      0.00017379 </i>
  </energy>
  <time name="totalsc">   38.40   38.53</time>
 </calculation>
 <calculation>
  <scstep>
   <time name="dav">    7.75    7.76</time>
   <time name="total">    8.83    8.84</time>
   <energy>
    <i name="alphaZ">     36.21950753 </i>
    <i name="ewald">   -449.54619192 </i>
    <i name="hartreedc">   -190.09187595 </i>
    <i name="XCdc">     57.55989069 </i>
    <i name="pawpsdc">    277.92339150 </i>
    <i name="pawaedc">   -283.08774103 </i>
    <i name="eentropy">      0.00017345 </i>
    <i name="bandstr">    -74.40229643 </i>
    <i name="atom">    588.57751394 </i>
    <i name="e_fr_energy">    -36.84762823 </i>
    <i name="e_wo_entrp">    -36.84780168 </i>
    <i name="e_0_energy">    -36.84768604 </i>
   </energy>
  </scstep>
  <scstep>
   <time name="dav">    8.47    8.47</time>
   <time name="total">    9.55    9.55</time>
   <energy>
    <i name="e_fr_energy">    -36.84644047 </i>
    <i name="e_wo_entrp">    -36.84661402 </i>
    <i name="e_0_energy">    -36.84649832 </i>
   </energy>
  </scstep>
  <scstep>
   <time name="dav">    8.84    8.84</time>
   <time name="total">    9.95    9.97</time>
   <energy>
    <i name="e_fr_energy">    -36.84588684 </i>
    <i name="e_wo_entrp">    -36.84606048 </i>
    <i name="e_0_energy">    -36.84594472 </i>
   </energy>
  </scstep>
  <scstep>
   <time name="dav">    7.45    7.46</time>
   <time name="total">    7.98    7.99</time>
   <energy>
    <i name="alphaZ">     36.21950753 </i>
    <i name="ewald">   -449.54619192 </i>
    <i name="hartreedc">   -191.16346234 </i>
    <i name="XCdc">     57.61842694 </i>
    <i name="pawpsdc">    278.59360702 </i>
    <i name="pawaedc">   -283.76207260 </i>
    <i name="eentropy">      0.00017362 </i>
    <i name="bandstr">    -73.38339032 </i>
    <i name="atom">    588.57751394 </i>
    <i name="e_fr_energy">    -36.84588814 </i>
    <i name="e_wo_entrp">    -36.84606176 </i>
    <i name="e_0_energy">    -36.84594601 </i>
   </energy>
  </scstep>
  <structure>
   <crystal>
    <varray name="basis" >
     <v>       2.46644210       0.00000000       0.00000000 </v>
     <v>      -1.23322105       2.13600152       0.00000000 </v>
     <v>       0.00000000       0.00000000       6.83214154 </v>
    </varray>
    <i name="volume">     35.99393567 </i>
    <varray name="rec_basis" >
     <v>       0.40544232       0.23408223       0.00000000 </v>
     <v>       0.00000000       0.46816446       0.00000000 </v>
     <v>       0.00000000       0.00000000       0.14636699 </v>
    </varray>
   </crystal>
   <varray name="positions" >
    <v>       0.00000000       0.00000000       0.00000000 </v>
    <v>       0.33333333       0.66666667       0.00000000 </v>
    <v>       0.33333333       0.66666667       0.50000000 </v>
    <v>       0.66666667       0.33333333       0.50000000 </v>
   </varray>
  </structure>
  <varray name="forces" >
   <v>       0.00000000       0.00000000       0.00000000 </v>
   <v>       0.00000000       0.00000000       0.00000000 </v>
   <v>       0.00000000       0.00000000       0.00000000 </v>
   <v>       0.00000000       0.00000000       0.00000000 </v>
  </varray>
  <varray name="stress" >
   <v>       1.10968844       0.00000000       0.00000000 </v>
   <v>       0.00000000       1.10968844       0.00000000 </v>
   <v>       0.00000000       0.00000000      17.29314011 </v>
  </varray>
  <energy>
   <i name="e_fr_energy">    -36.84588814 </i>
   <i name="e_wo_entrp">    -36.84594601 </i>
   <i name="e_0_energy">      0.00017362 </i>
  </energy>
  <time name="totalsc">   39.79   39.89</time>
 </calculation>
 <calculation>
  <scstep>
   <time name="dav">    9.17    9.17</time>
   <time name="total">   10.37   10.37</time>
   <energy>
    <i name="alphaZ">     34.97303608 </i>
    <i name="ewald">   -427.25378953 </i>
    <i name="hartreedc">   -196.33853312 </i>
    <i name="XCdc">     56.99713908 </i>
    <i name="pawpsdc">    278.43690737 </i>
    <i name="pawaedc">   -283.60309039 </i>
    <i name="eentropy">      0.00017832 </i>
    <i name="bandstr">    -88.82281113 </i>
    <i name="atom">    588.57751394 </i>
    <i name="e_fr_energy">    -37.03344937 </i>
    <i name="e_wo_entrp">    -37.03362769 </i>
    <i name="e_0_energy">    -37.03350881 </i>
   </energy>
  </scstep>
  <scstep>
   <time name="dav">    9.46    9.46</time>
   <time name="total">   10.66   10.66</time>
   <energy>
    <i name="e_fr_energy">    -36.91039600 </i>
    <i name="e_wo_entrp">    -36.91057354 </i>
    <i name="e_0_energy">    -36.91045518 </i>
   </energy>
  </scstep>
  <scstep>
   <time name="dav">    9.68    9.68</time>
   <time name="total">   10.87   10.89</time>
   <energy>
    <i name="e_fr_energy">    -36.85463083 </i>
    <i name="e_wo_entrp">    -36.85480739 </i>
    <i name="e_0_energy">    -36.85468968 </i>
   </energy>
  </scstep>
  <scstep>
   <time name="dav">    9.11    9.12</time>
   <time name="total">   10.29   10.30</time>
   <energy>
    <i name="e_fr_energy">    -36.85480802 </i>
    <i name="e_wo_entrp">    -36.85498457 </i>
    <i name="e_0_energy">    -36.85486687 </i>
   </energy>
  </scstep>
  <scstep>
   <time name="dav">    8.46    8.46</time>
   <time name="total">    9.54    9.56</time>
   <energy>
    <i name="e_fr_energy">    -36.85449383 </i>
    <i name="e_wo_entrp">    -36.85467024 </i>
    <i name="e_0_energy">    -36.85455263 </i>
   </energy>
  </scstep>
  <scstep>
   <time name="dav">    8.32    8.32</time>
   <time name="total">    8.76    8.77</time>
   <energy>
    <i name="alphaZ">     34.97303608 </i>
    <i name="ewald">   -427.25378953 </i>
    <i name="hartreedc">   -207.27999927 </i>
    <i name="XCdc">     57.58497482 </i>
    <i name="pawpsdc">    278.54162695 </i>
    <i name="pawaedc">   -283.69254058 </i>
    <i name="eentropy">      0.00017644 </i>
    <i name="bandstr">    -78.30553184 </i>
    <i name="atom">    588.57751394 </i>
    <i name="e_fr_energy">    -36.85453299 </i>
    <i name="e_wo_entrp">    -36.85470943 </i>
    <i name="e_0_energy">    -36.85459181 </i>
   </energy>
  </scstep>
  <structure>
   <crystal>
    <varray name="basis" >
     <v>       2.46647153       0.00000000       0.00000000 </v>
     <v>      -1.23323576       2.13602700       0.00000000 </v>
     <v>       0.00000000       0.00000000       7.07547656 </v>
    </varray>
    <i name="volume">     37.27679293 </i>
    <varray name="rec_basis" >
     <v>       0.40543748       0.23407944       0.00000000 </v>
     <v>       0.00000000       0.46815888       0.00000000 </v>
     <v>       0.00000000       0.00000000       0.14133324 </v>
    </varray>
   </crystal>
   <varray name="positions" >
    <v>       0.00000000       0.00000000       0.00000000 </v>
    <v>       0.33333333       0.66666667       0.00000000 </v>
    <v>       0.33333333       0.66666667       0.50000000 </v>
    <v>       0.66666667       0.33333333       0.50000000 </v>
   </varray>
  </structure>
  <varray name="forces" >
   <v>       0.00000000       0.00000000       0.00000000 </v>
   <v>       0.00000000       0.00000000       0.00000000 </v>
   <v>       0.00000000       0.00000000       0.00000000 </v>
   <v>       0.00000000       0.00000000       0.00000000 </v>
  </varray>
  <varray name="stress" >
   <v>       1.22619881       0.00000000       0.00000000 </v>
   <v>       0.00000000       1.22619881       0.00000000 </v>
   <v>       0.00000000       0.00000000       6.79295138 </v>
  </varray>
  <energy>
   <i name="e_fr_energy">    -36.85453299 </i>
   <i name="e_wo_entrp">    -36.85459181 </i>
   <i name="e_0_energy">      0.00017644 </i>
  </energy>
  <time name="totalsc">   63.55   63.78</time>
  <eigenvalues>
   <array>
    <dimension dim="1">band</dimension>
    <dimension dim="2">kpoint</dimension>
    <dimension dim="3">spin</dimension>
    <field>eigene</field>
    <field>occ</field>
    <set>
     <set comment="spin 1">
      <set comment="kpoint 1">
       <r>  -15.3675    1.0000 </r>
       <r>  -15.1711    1.0000 </r>
       <r>   -4.0721    1.0000 </r>
       <r>   -2.5850    1.0000 </r>
       <r>    1.2071    1.0000 </r>
       <r>    1.2071    1.0000 </r>
       <r>    1.2181    1.0000 </r>
       <r>    1.2181    1.0000 </r>
       <r>    8.1356    0.0000 </r>
       <r>   12.5498    0.0000 </r>
       <r>   12.5498    0.0000 </r>
       <r>   12.5832    0.0000 </r>
       <r>   12.5832    0.0000 </r>
       <r>   13.6144    0.0000 </r>
      </set>
      <set comment="kpoint 2">
       <r>  -14.9964    1.0000 </r>
       <r>  -14.8047    1.0000 </r>
       <r>   -3.6231    1.0000 </r>
       <r>   -2.1600    1.0000 </r>
       <r>   -0.1843    1.0000 </r>
       <r>   -0.1559    1.0000 </r>
       <r>    0.5010    1.0000 </r>
       <r>    0.5213    1.0000 </r>
       <r>    8.5953    0.0000 </r>
       <r>   12.5970    0.0000 </r>
       <r>   12.6805    0.0000 </r>
       <r>   13.9723    0.0000 </r>
       <r>   14.0542    0.0000 </r>
       <r>   14.0837    0.0000 </r>
      </set>
      <set comment="kpoint 3">
       <r>  -13.8929    1.0000 </r>
       <r>  -13.7150    1.0000 </r>
       <r>   -3.2087    1.0000 </r>
       <r>   -3.1473    1.0000 </r>
       <r>   -2.3017    1.0000 </r>
       <r>   -0.9194    1.0000 </r>
       <r>   -0.8109    1.0000 </r>
       <r>   -0.7816    1.0000 </r>
       <r>    9.9716    0.0000 </r>
       <r>   11.2495    0.0000 </r>
       <r>   11.7078    0.0000 </r>
       <r>   12.1944    0.0000 </r>
       <r>   12.3945    0.0000 </r>
       <r>   15.0896    0.0000 </r>
      </set>
      <set comment="kpoint 4">
       <r>  -12.0953    1.0000 </r>
       <r>  -11.9400    1.0000 </r>
       <r>   -6.5023    1.0000 </r>
       <r>   -6.4080    1.0000 </r>
       <r>   -1.8180    1.0000 </r>
       <r>   -1.7857    1.0000 </r>
       <r>   -0.2377    1.0000 </r>
       <r>    0.9361    1.0000 </r>
       <r>    7.6864    0.0000 </r>
       <r>    8.4184    0.0000 </r>
       <r>   11.6601    0.0000 </r>
       <r>   11.8616    0.0000 </r>
       <r>   12.3716    0.0000 </r>
       <r>   16.6714    0.0000 </r>
      </set>
      <set comment="kpoint 5">
       <r>  -10.0690    1.0000 </r>
       <r>   -9.9975    1.0000 </r>
       <r>   -9.0072    1.0000 </r>
       <r>   -8.9524    1.0000 </r>
       <r>   -2.1801    1.0000 </r>
       <r>   -2.1473    1.0000 </r>
       <r>    1.5802    1.0000 </r>
       <r>    2.0905    1.0000 </r>
       <r>    5.7302    0.0000 </r>
       <r>    6.2770    0.0000 </r>
       <r>   11.4778    0.0000 </r>
       <r>   11.7427    0.0000 </r>
       <r>   15.2794    0.0000 </r>
       <r>   15.4187    0.0000 </r>
      </set>
      <set comment="kpoint 6">
       <r>  -14.2591    1.0000 </r>
       <r>  -14.0767    1.0000 </r>
       <r>   -2.7365    1.0000 </r>
       <r>   -1.9883    1.0000 </r>
       <r>   -1.9620    1.0000 </r>
       <r>   -1.3246    1.0000 </r>
       <r>   -0.9017    1.0000 </r>
       <r>   -0.8836    1.0000 </r>
       <r>    9.5197    0.0000 </r>
       <r>   12.3045    0.0000 </r>
       <r>   12.5828    0.0000 </r>
       <r>   13.3972    0.0000 </r>
       <r>   13.5269    0.0000 </r>
       <r>   15.0548    0.0000 </r>
      </set>
      <set comment="kpoint 7">
       <r>  -12.8076    1.0000 </r>
       <r>  -12.6432    1.0000 </r>
       <r>   -4.7979    1.0000 </r>
       <r>   -4.7291    1.0000 </r>
       <r>   -2.4299    1.0000 </r>
       <r>   -2.3887    1.0000 </r>
       <r>   -1.0244    1.0000 </r>
       <r>    0.2589    1.0000 </r>
       <r>    9.1936    0.0000 </r>
       <r>    9.6788    0.0000 </r>
       <r>   11.3491    0.0000 </r>
       <r>   13.4124    0.0000 </r>
       <r>   13.6802    0.0000 </r>
       <r>   15.7612    0.0000 </r>
      </set>
      <set comment="kpoint 8">
       <r>  -10.7272    1.0000 </r>
       <r>  -10.5924    1.0000 </r>
       <r>   -7.8110    1.0000 </r>
       <r>   -7.7102    1.0000 </r>
       <r>   -3.2003    1.0000 </r>
       <r>   -3.1512    1.0000 </r>
       <r>    1.2216    1.0000 </r>
       <r>    2.1189    1.0000 </r>
       <r>    6.2025    0.0000 </r>
       <r>    6.8089    0.0000 </r>
       <r>   13.0345    0.0000 </r>
       <r>   13.3363    0.0000 </r>
       <r>   14.0636    0.0000 </r>
       <r>   16.7985    0.0000 </r>
      </set>
      <set comment="kpoint 9">
       <r>  -11.0570    1.0000 </r>
       <r>  -10.9152    1.0000 </r>
       <r>   -6.3060    1.0000 </r>
       <r>   -6.2584    1.0000 </r>
       <r>   -4.7168    1.0000 </r>
       <r>   -4.6815    1.0000 </r>
       <r>    0.9785    1.0000 </r>
       <r>    2.0561    1.0000 </r>
       <r>    6.8265    0.0000 </r>
       <r>    7.2593    0.0000 </r>
       <r>   13.5676    0.0000 </r>
       <r>   15.7582    0.0000 </r>
       <r>   16.1368    0.0000 </r>
       <r>   16.3483    0.0000 </r>
      </set>
      <set comment="kpoint 10">
       <r>   -9.1170    1.0000 </r>
       <r>   -9.0523    1.0000 </r>
       <r>   -8.2116    1.0000 </r>
       <r>   -8.1833    1.0000 </r>
       <r>   -5.5148    1.0000 </r>
       <r>   -5.4510    1.0000 </r>
       <r>    2.9168    1.0000 </r>
       <r>    3.4019    0.9403 </r>
       <r>    5.1936    0.0000 </r>
       <r>    5.2865    0.0000 </r>
       <r>   15.5320    0.0000 </r>
       <r>   15.6379    0.0000 </r>
       <r>   15.9179    0.0000 </r>
       <r>   16.1674    0.0000 </r>
      </set>
      <set comment="kpoint 11">
       <r>  -15.3603    1.0000 </r>
       <r>  -15.1789    1.0000 </r>
       <r>   -4.0234    1.0000 </r>
       <r>   -2.6527    1.0000 </r>
       <r>    1.2090    1.0000 </r>
       <r>    1.2090    1.0000 </r>
       <r>    1.2182    1.0000 </r>
       <r>    1.2182    1.0000 </r>
       <r>    8.2960    0.0000 </r>
       <r>   12.5524    0.0000 </r>
       <r>   12.5524    0.0000 </r>
       <r>   12.5791    0.0000 </r>
       <r>   12.5791    0.0000 </r>
       <r>   13.2677    0.0000 </r>
      </set>
      <set comment="kpoint 12">
       <r>  -14.9894    1.0000 </r>
       <r>  -14.8123    1.0000 </r>
       <r>   -3.5751    1.0000 </r>
       <r>   -2.2256    1.0000 </r>
       <r>   -0.1833    1.0000 </r>
       <r>   -0.1570    1.0000 </r>
       <r>    0.5018    1.0000 </r>
       <r>    0.5203    1.0000 </r>
       <r>    8.7534    0.0000 </r>
       <r>   12.5947    0.0000 </r>
       <r>   12.6783    0.0000 </r>
       <r>   13.6490    0.0000 </r>
       <r>   14.0554    0.0000 </r>
       <r>   14.0803    0.0000 </r>
      </set>
      <set comment="kpoint 13">
       <r>  -13.8863    1.0000 </r>
       <r>  -13.7221    1.0000 </r>
       <r>   -3.2065    1.0000 </r>
       <r>   -3.1496    1.0000 </r>
       <r>   -2.2562    1.0000 </r>
       <r>   -0.9813    1.0000 </r>
       <r>   -0.8099    1.0000 </r>
       <r>   -0.7830    1.0000 </r>
       <r>   10.1152    0.0000 </r>
       <r>   11.2729    0.0000 </r>
       <r>   11.6796    0.0000 </r>
       <r>   12.1994    0.0000 </r>
       <r>   12.3929    0.0000 </r>
       <r>   14.7952    0.0000 </r>
      </set>
      <set comment="kpoint 14">
       <r>  -12.0896    1.0000 </r>
       <r>  -11.9461    1.0000 </r>
       <r>   -6.4987    1.0000 </r>
       <r>   -6.4115    1.0000 </r>
       <r>   -1.8167    1.0000 </r>
       <r>   -1.7867    1.0000 </r>
       <r>   -0.1977    1.0000 </r>
       <r>    0.8855    1.0000 </r>
       <r>    7.7067    0.0000 </r>
       <r>    8.3853    0.0000 </r>
       <r>   11.6738    0.0000 </r>
       <r>   11.8655    0.0000 </r>
       <r>   12.4968    0.0000 </r>
       <r>   16.4410    0.0000 </r>
      </set>
      <set comment="kpoint 15">
       <r>  -10.0660    1.0000 </r>
       <r>   -9.9999    1.0000 </r>
       <r>   -9.0057    1.0000 </r>
       <r>   -8.9550    1.0000 </r>
       <r>   -2.1788    1.0000 </r>
       <r>   -2.1479    1.0000 </r>
       <r>    1.6040    1.0000 </r>
       <r>    2.0780    1.0000 </r>
       <r>    5.7333    0.0000 </r>
       <r>    6.2423    0.0000 </r>
       <r>   11.4876    0.0000 </r>
       <r>   11.7325    0.0000 </r>
       <r>   15.4038    0.0000 </r>
       <r>   15.5140    0.0000 </r>
      </set>
      <set comment="kpoint 16">
       <r>  -14.2524    1.0000 </r>
       <r>  -14.0839    1.0000 </r>
       <r>   -2.6902    1.0000 </r>
       <r>   -1.9872    1.0000 </r>
       <r>   -1.9629    1.0000 </r>
       <r>   -1.3879    1.0000 </r>
       <r>   -0.9008    1.0000 </r>
       <r>   -0.8840    1.0000 </r>
       <r>    9.6720    0.0000 </r>
       <r>   12.3121    0.0000 </r>
       <r>   12.5720    0.0000 </r>
       <r>   13.3913    0.0000 </r>
       <r>   13.5276    0.0000 </r>
       <r>   14.3739    0.0000 </r>
      </set>
      <set comment="kpoint 17">
       <r>  -12.8015    1.0000 </r>
       <r>  -12.6497    1.0000 </r>
       <r>   -4.7953    1.0000 </r>
       <r>   -4.7317    1.0000 </r>
       <r>   -2.4283    1.0000 </r>
       <r>   -2.3904    1.0000 </r>
       <r>   -0.9816    1.0000 </r>
       <r>    0.2025    1.0000 </r>
       <r>    9.2098    0.0000 </r>
       <r>    9.6582    0.0000 </r>
       <r>   11.4884    0.0000 </r>
       <r>   13.4189    0.0000 </r>
       <r>   13.6741    0.0000 </r>
       <r>   15.5352    0.0000 </r>
      </set>
      <set comment="kpoint 18">
       <r>  -10.7222    1.0000 </r>
       <r>  -10.5976    1.0000 </r>
       <r>   -7.8072    1.0000 </r>
       <r>   -7.7141    1.0000 </r>
       <r>   -3.1987    1.0000 </r>
       <r>   -3.1532    1.0000 </r>
       <r>    1.2543    1.0000 </r>
       <r>    2.0834    1.0000 </r>
       <r>    6.2161    0.0000 </r>
       <r>    6.7776    0.0000 </r>
       <r>   13.0458    0.0000 </r>
       <r>   13.3250    0.0000 </r>
       <r>   14.1685    0.0000 </r>
       <r>   16.5968    0.0000 </r>
      </set>
      <set comment="kpoint 19">
       <r>  -11.0518    1.0000 </r>
       <r>  -10.9208    1.0000 </r>
       <r>   -6.3041    1.0000 </r>
       <r>   -6.2601    1.0000 </r>
       <r>   -4.7156    1.0000 </r>
       <r>   -4.6828    1.0000 </r>
       <r>    1.0156    1.0000 </r>
       <r>    2.0109    1.0000 </r>
       <r>    6.8441    0.0000 </r>
       <r>    7.2430    0.0000 </r>
       <r>   13.6510    0.0000 </r>
       <r>   15.5798    0.0000 </r>
       <r>   16.2551    0.0000 </r>
       <r>   16.3471    0.0000 </r>
      </set>
      <set comment="kpoint 20">
       <r>   -9.1143    1.0000 </r>
       <r>   -9.0544    1.0000 </r>
       <r>   -8.2110    1.0000 </r>
       <r>   -8.1848    1.0000 </r>
       <r>   -5.5125    1.0000 </r>
       <r>   -5.4534    1.0000 </r>
       <r>    2.9399    1.0000 </r>
       <r>    3.3912    1.0042 </r>
       <r>    5.1903    0.0000 </r>
       <r>    5.2710    0.0000 </r>
       <r>   15.3346    0.0000 </r>
       <r>   15.3376    0.0000 </r>
       <r>   15.9830    0.0000 </r>
       <r>   16.4200    0.0000 </r>
      </set>
      <set comment="kpoint 21">
       <r>  -15.3398    1.0000 </r>
       <r>  -15.2010    1.0000 </r>
       <r>   -3.8823    1.0000 </r>
       <r>   -2.8370    1.0000 </r>
       <r>    1.2101    1.0000 </r>
       <r>    1.2101    1.0000 </r>
       <r>    1.2173    1.0000 </r>
       <r>    1.2173    1.0000 </r>
       <r>    8.7598    0.0000 </r>
       <r>   12.4280    0.0000 </r>
       <r>   12.5560    0.0000 </r>
       <r>   12.5560    0.0000 </r>
       <r>   12.5768    0.0000 </r>
       <r>   12.5769    0.0000 </r>
      </set>
      <set comment="kpoint 22">
       <r>  -14.9693    1.0000 </r>
       <r>  -14.8339    1.0000 </r>
       <r>   -3.4363    1.0000 </r>
       <r>   -2.4081    1.0000 </r>
       <r>   -0.1806    1.0000 </r>
       <r>   -0.1602    1.0000 </r>
       <r>    0.5038    1.0000 </r>
       <r>    0.5179    1.0000 </r>
       <r>    9.2091    0.0000 </r>
       <r>   12.5394    0.0000 </r>
       <r>   12.6695    0.0000 </r>
       <r>   12.8990    0.0000 </r>
       <r>   14.0562    0.0000 </r>
       <r>   14.0767    0.0000 </r>
      </set>
      <set comment="kpoint 23">
       <r>  -13.8677    1.0000 </r>
       <r>  -13.7420    1.0000 </r>
       <r>   -3.1998    1.0000 </r>
       <r>   -3.1565    1.0000 </r>
       <r>   -2.1240    1.0000 </r>
       <r>   -1.1528    1.0000 </r>
       <r>   -0.8060    1.0000 </r>
       <r>   -0.7858    1.0000 </r>
       <r>   10.5198    0.0000 </r>
       <r>   11.3425    0.0000 </r>
       <r>   11.6159    0.0000 </r>
       <r>   12.2107    0.0000 </r>
       <r>   12.3888    0.0000 </r>
       <r>   14.0702    0.0000 </r>
      </set>
      <set comment="kpoint 24">
       <r>  -12.0733    1.0000 </r>
       <r>  -11.9634    1.0000 </r>
       <r>   -6.4887    1.0000 </r>
       <r>   -6.4220    1.0000 </r>
       <r>   -1.8127    1.0000 </r>
       <r>   -1.7906    1.0000 </r>
       <r>   -0.0824    1.0000 </r>
       <r>    0.7453    1.0000 </r>
       <r>    7.7674    0.0000 </r>
       <r>    8.2872    0.0000 </r>
       <r>   11.7053    0.0000 </r>
       <r>   11.8579    0.0000 </r>
       <r>   12.8791    0.0000 </r>
       <r>   15.8486    0.0000 </r>
      </set>
      <set comment="kpoint 25">
       <r>  -10.0576    1.0000 </r>
       <r>  -10.0068    1.0000 </r>
       <r>   -9.0012    1.0000 </r>
       <r>   -8.9623    1.0000 </r>
       <r>   -2.1747    1.0000 </r>
       <r>   -2.1515    1.0000 </r>
       <r>    1.6681    1.0000 </r>
       <r>    2.0353    1.0000 </r>
       <r>    5.7502    0.0000 </r>
       <r>    6.1421    0.0000 </r>
       <r>   11.5156    0.0000 </r>
       <r>   11.7032    0.0000 </r>
       <r>   15.7551    0.0000 </r>
       <r>   15.7804    0.0000 </r>
      </set>
      <set comment="kpoint 26">
       <r>  -14.2333    1.0000 </r>
       <r>  -14.1044    1.0000 </r>
       <r>   -2.5557    1.0000 </r>
       <r>   -1.9845    1.0000 </r>
       <r>   -1.9656    1.0000 </r>
       <r>   -1.5640    1.0000 </r>
       <r>   -0.8992    1.0000 </r>
       <r>   -0.8862    1.0000 </r>
       <r>   10.1107    0.0000 </r>
       <r>   12.3403    0.0000 </r>
       <r>   12.5372    0.0000 </r>
       <r>   13.2908    0.0000 </r>
       <r>   13.5258    0.0000 </r>
       <r>   13.7289    0.0000 </r>
      </set>
      <set comment="kpoint 27">
       <r>  -12.7843    1.0000 </r>
       <r>  -12.6681    1.0000 </r>
       <r>   -4.7880    1.0000 </r>
       <r>   -4.7394    1.0000 </r>
       <r>   -2.4242    1.0000 </r>
       <r>   -2.3948    1.0000 </r>
       <r>   -0.8577    1.0000 </r>
       <r>    0.0447    1.0000 </r>
       <r>    9.2547    0.0000 </r>
       <r>    9.6018    0.0000 </r>
       <r>   11.8857    0.0000 </r>
       <r>   13.4328    0.0000 </r>
       <r>   13.6564    0.0000 </r>
       <r>   14.9542    0.0000 </r>
      </set>
      <set comment="kpoint 28">
       <r>  -10.7079    1.0000 </r>
       <r>  -10.6126    1.0000 </r>
       <r>   -7.7966    1.0000 </r>
       <r>   -7.7253    1.0000 </r>
       <r>   -3.1934    1.0000 </r>
       <r>   -3.1586    1.0000 </r>
       <r>    1.3481    1.0000 </r>
       <r>    1.9839    1.0000 </r>
       <r>    6.2603    0.0000 </r>
       <r>    6.6941    0.0000 </r>
       <r>   13.0780    0.0000 </r>
       <r>   13.2916    0.0000 </r>
       <r>   14.4652    0.0000 </r>
       <r>   16.2620    0.0000 </r>
      </set>
      <set comment="kpoint 29">
       <r>  -11.0368    1.0000 </r>
       <r>  -10.9366    1.0000 </r>
       <r>   -6.2988    1.0000 </r>
       <r>   -6.2652    1.0000 </r>
       <r>   -4.7123    1.0000 </r>
       <r>   -4.6873    1.0000 </r>
       <r>    1.1220    1.0000 </r>
       <r>    1.8815    1.0000 </r>
       <r>    6.8897    0.0000 </r>
       <r>    7.1950    0.0000 </r>
       <r>   13.8783    0.0000 </r>
       <r>   15.2573    0.0000 </r>
       <r>   16.3882    0.0000 </r>
       <r>   16.4117    0.0000 </r>
      </set>
      <set comment="kpoint 30">
       <r>   -9.1066    1.0000 </r>
       <r>   -9.0607    1.0000 </r>
       <r>   -8.2091    1.0000 </r>
       <r>   -8.1889    1.0000 </r>
       <r>   -5.5059    1.0000 </r>
       <r>   -5.4609    1.0000 </r>
       <r>    3.0071    1.0000 </r>
       <r>    3.3578    1.0262 </r>
       <r>    5.1793    0.0000 </r>
       <r>    5.2339    0.0000 </r>
       <r>   14.9867    0.0000 </r>
       <r>   15.0435    0.0000 </r>
       <r>   16.1488    0.0000 </r>
       <r>   16.8023    0.0000 </r>
      </set>
      <set comment="kpoint 31">
       <r>  -15.3087    1.0000 </r>
       <r>  -15.2336    1.0000 </r>
       <r>   -3.6638    1.0000 </r>
       <r>   -3.1007    1.0000 </r>
       <r>    1.2110    1.0000 </r>
       <r>    1.2110    1.0000 </r>
       <r>    1.2154    1.0000 </r>
       <r>    1.2154    1.0000 </r>
       <r>    9.4772    0.0000 </r>
       <r>   11.4031    0.0000 </r>
       <r>   12.5582    0.0000 </r>
       <r>   12.5582    0.0000 </r>
       <r>   12.5712    0.0000 </r>
       <r>   12.5712    0.0000 </r>
      </set>
      <set comment="kpoint 32">
       <r>  -14.9390    1.0000 </r>
       <r>  -14.8657    1.0000 </r>
       <r>   -3.2206    1.0000 </r>
       <r>   -2.6669    1.0000 </r>
       <r>   -0.1760    1.0000 </r>
       <r>   -0.1649    1.0000 </r>
       <r>    0.5074    1.0000 </r>
       <r>    0.5146    1.0000 </r>
       <r>    9.9140    0.0000 </r>
       <r>   11.7888    0.0000 </r>
       <r>   12.6520    0.0000 </r>
       <r>   12.6677    0.0000 </r>
       <r>   14.0612    0.0000 </r>
       <r>   14.0714    0.0000 </r>
      </set>
      <set comment="kpoint 33">
       <r>  -13.8395    1.0000 </r>
       <r>  -13.7715    1.0000 </r>
       <r>   -3.1900    1.0000 </r>
       <r>   -3.1666    1.0000 </r>
       <r>   -1.9192    1.0000 </r>
       <r>   -1.3959    1.0000 </r>
       <r>   -0.8015    1.0000 </r>
       <r>   -0.7906    1.0000 </r>
       <r>   11.0640    0.0000 </r>
       <r>   11.4832    0.0000 </r>
       <r>   11.5565    0.0000 </r>
       <r>   12.2068    0.0000 </r>
       <r>   12.3919    0.0000 </r>
       <r>   13.1870    0.0000 </r>
      </set>
      <set comment="kpoint 34">
       <r>  -12.0485    1.0000 </r>
       <r>  -11.9891    1.0000 </r>
       <r>   -6.4736    1.0000 </r>
       <r>   -6.4376    1.0000 </r>
       <r>   -1.8077    1.0000 </r>
       <r>   -1.7955    1.0000 </r>
       <r>    0.0944    1.0000 </r>
       <r>    0.5425    1.0000 </r>
       <r>    7.8697    0.0000 </r>
       <r>    8.1535    0.0000 </r>
       <r>   11.7456    0.0000 </r>
       <r>   11.8299    0.0000 </r>
       <r>   13.4861    0.0000 </r>
       <r>   15.0672    0.0000 </r>
      </set>
      <set comment="kpoint 35">
       <r>  -10.0452    1.0000 </r>
       <r>  -10.0177    1.0000 </r>
       <r>   -8.9937    1.0000 </r>
       <r>   -8.9725    1.0000 </r>
       <r>   -2.1694    1.0000 </r>
       <r>   -2.1568    1.0000 </r>
       <r>    1.7640    1.0000 </r>
       <r>    1.9644    1.0000 </r>
       <r>    5.7984    0.0000 </r>
       <r>    6.0140    0.0000 </r>
       <r>   11.5582    0.0000 </r>
       <r>   11.6596    0.0000 </r>
       <r>   16.1603    0.0000 </r>
       <r>   16.2502    0.0000 </r>
      </set>
      <set comment="kpoint 36">
       <r>  -14.2044    1.0000 </r>
       <r>  -14.1347    1.0000 </r>
       <r>   -2.3472    1.0000 </r>
       <r>   -1.9804    1.0000 </r>
       <r>   -1.9695    1.0000 </r>
       <r>   -1.8123    1.0000 </r>
       <r>   -0.8963    1.0000 </r>
       <r>   -0.8891    1.0000 </r>
       <r>   10.7886    0.0000 </r>
       <r>   12.3816    0.0000 </r>
       <r>   12.4885    0.0000 </r>
       <r>   12.5734    0.0000 </r>
       <r>   13.5226    0.0000 </r>
       <r>   13.5229    0.0000 </r>
      </set>
      <set comment="kpoint 37">
       <r>  -12.7582    1.0000 </r>
       <r>  -12.6953    1.0000 </r>
       <r>   -4.7769    1.0000 </r>
       <r>   -4.7506    1.0000 </r>
       <r>   -2.4177    1.0000 </r>
       <r>   -2.4015    1.0000 </r>
       <r>   -0.6665    1.0000 </r>
       <r>   -0.1795    1.0000 </r>
       <r>    9.3295    0.0000 </r>
       <r>    9.5194    0.0000 </r>
       <r>   12.4835    0.0000 </r>
       <r>   13.4258    0.0000 </r>
       <r>   13.6403    0.0000 </r>
       <r>   14.2154    0.0000 </r>
      </set>
      <set comment="kpoint 38">
       <r>  -10.6863    1.0000 </r>
       <r>  -10.6348    1.0000 </r>
       <r>   -7.7805    1.0000 </r>
       <r>   -7.7419    1.0000 </r>
       <r>   -3.1854    1.0000 </r>
       <r>   -3.1665    1.0000 </r>
       <r>    1.4906    1.0000 </r>
       <r>    1.8366    1.0000 </r>
       <r>    6.3397    0.0000 </r>
       <r>    6.5771    0.0000 </r>
       <r>   13.1259    0.0000 </r>
       <r>   13.2415    0.0000 </r>
       <r>   14.8986    0.0000 </r>
       <r>   15.8571    0.0000 </r>
      </set>
      <set comment="kpoint 39">
       <r>  -11.0142    1.0000 </r>
       <r>  -10.9600    1.0000 </r>
       <r>   -6.2909    1.0000 </r>
       <r>   -6.2728    1.0000 </r>
       <r>   -4.7070    1.0000 </r>
       <r>   -4.6935    1.0000 </r>
       <r>    1.2860    1.0000 </r>
       <r>    1.6961    1.0000 </r>
       <r>    6.9593    0.0000 </r>
       <r>    7.1241    0.0000 </r>
       <r>   14.1943    0.0000 </r>
       <r>   14.9040    0.0000 </r>
       <r>   16.5128    0.0000 </r>
       <r>   16.5253    0.0000 </r>
      </set>
      <set comment="kpoint 40">
       <r>   -9.0954    1.0000 </r>
       <r>   -9.0705    1.0000 </r>
       <r>   -8.2056    1.0000 </r>
       <r>   -8.1946    1.0000 </r>
       <r>   -5.4958    1.0000 </r>
       <r>   -5.4716    1.0000 </r>
       <r>    3.1016    1.0000 </r>
       <r>    3.2947    1.0003 </r>
       <r>    5.1696    0.0000 </r>
       <r>    5.1955    0.0000 </r>
       <r>   14.7780    0.0000 </r>
       <r>   14.8251    0.0000 </r>
       <r>   16.3560    0.0000 </r>
       <r>   16.6995    0.0000 </r>
      </set>
      <set comment="kpoint 41">
       <r>  -15.2715    1.0000 </r>
       <r>  -15.2715    1.0000 </r>
       <r>   -3.3917    1.0000 </r>
       <r>   -3.3917    1.0000 </r>
       <r>    1.2139    1.0000 </r>
       <r>    1.2139    1.0000 </r>
       <r>    1.2139    1.0000 </r>
       <r>    1.2139    1.0000 </r>
       <r>   10.3839    0.0000 </r>
       <r>   10.3839    0.0000 </r>
       <r>   12.5650    0.0000 </r>
       <r>   12.5650    0.0000 </r>
       <r>   12.5650    0.0000 </r>
       <r>   12.5650    0.0000 </r>
      </set>
      <set comment="kpoint 42">
       <r>  -14.9027    1.0000 </r>
       <r>  -14.9027    1.0000 </r>
       <r>   -2.9526    1.0000 </r>
       <r>   -2.9526    1.0000 </r>
       <r>   -0.1699    1.0000 </r>
       <r>   -0.1699    1.0000 </r>
       <r>    0.5109    1.0000 </r>
       <r>    0.5109    1.0000 </r>
       <r>   10.8028    0.0000 </r>
       <r>   10.8028    0.0000 </r>
       <r>   12.6546    0.0000 </r>
       <r>   12.6546    0.0000 </r>
       <r>   14.0674    0.0000 </r>
       <r>   14.0674    0.0000 </r>
      </set>
      <set comment="kpoint 43">
       <r>  -13.8058    1.0000 </r>
       <r>  -13.8058    1.0000 </r>
       <r>   -3.1782    1.0000 </r>
       <r>   -3.1782    1.0000 </r>
       <r>   -1.6660    1.0000 </r>
       <r>   -1.6660    1.0000 </r>
       <r>   -0.7960    1.0000 </r>
       <r>   -0.7960    1.0000 </r>
       <r>   11.3739    0.0000 </r>
       <r>   11.3739    0.0000 </r>
       <r>   12.0149    0.0000 </r>
       <r>   12.0149    0.0000 </r>
       <r>   12.5081    0.0000 </r>
       <r>   12.5081    0.0000 </r>
      </set>
      <set comment="kpoint 44">
       <r>  -12.0190    1.0000 </r>
       <r>  -12.0190    1.0000 </r>
       <r>   -6.4557    1.0000 </r>
       <r>   -6.4557    1.0000 </r>
       <r>   -1.8015    1.0000 </r>
       <r>   -1.8015    1.0000 </r>
       <r>    0.3125    1.0000 </r>
       <r>    0.3125    1.0000 </r>
       <r>    8.0057    0.0000 </r>
       <r>    8.0057    0.0000 </r>
       <r>   11.7895    0.0000 </r>
       <r>   11.7895    0.0000 </r>
       <r>   14.2445    0.0000 </r>
       <r>   14.2445    0.0000 </r>
      </set>
      <set comment="kpoint 45">
       <r>  -10.0312    1.0000 </r>
       <r>  -10.0312    1.0000 </r>
       <r>   -8.9837    1.0000 </r>
       <r>   -8.9837    1.0000 </r>
       <r>   -2.1634    1.0000 </r>
       <r>   -2.1634    1.0000 </r>
       <r>    1.8694    1.0000 </r>
       <r>    1.8694    1.0000 </r>
       <r>    5.8886    0.0000 </r>
       <r>    5.8886    0.0000 </r>
       <r>   11.6083    0.0000 </r>
       <r>   11.6083    0.0000 </r>
       <r>   16.4901    0.0000 </r>
       <r>   16.4901    0.0000 </r>
      </set>
      <set comment="kpoint 46">
       <r>  -14.1698    1.0000 </r>
       <r>  -14.1698    1.0000 </r>
       <r>   -2.0890    1.0000 </r>
       <r>   -2.0890    1.0000 </r>
       <r>   -1.9742    1.0000 </r>
       <r>   -1.9742    1.0000 </r>
       <r>   -0.8929    1.0000 </r>
       <r>   -0.8929    1.0000 </r>
       <r>   11.6390    0.0000 </r>
       <r>   11.6390    0.0000 </r>
       <r>   12.4335    0.0000 </r>
       <r>   12.4335    0.0000 </r>
       <r>   13.5162    0.0000 </r>
       <r>   13.5162    0.0000 </r>
      </set>
      <set comment="kpoint 47">
       <r>  -12.7269    1.0000 </r>
       <r>  -12.7269    1.0000 </r>
       <r>   -4.7638    1.0000 </r>
       <r>   -4.7638    1.0000 </r>
       <r>   -2.4097    1.0000 </r>
       <r>   -2.4097    1.0000 </r>
       <r>   -0.4302    1.0000 </r>
       <r>   -0.4302    1.0000 </r>
       <r>    9.4226    0.0000 </r>
       <r>    9.4226    0.0000 </r>
       <r>   13.1507    0.0000 </r>
       <r>   13.1507    0.0000 </r>
       <r>   13.7001    0.0000 </r>
       <r>   13.7001    0.0000 </r>
      </set>
      <set comment="kpoint 48">
       <r>  -10.6607    1.0000 </r>
       <r>  -10.6607    1.0000 </r>
       <r>   -7.7613    1.0000 </r>
       <r>   -7.7613    1.0000 </r>
       <r>   -3.1762    1.0000 </r>
       <r>   -3.1762    1.0000 </r>
       <r>    1.6622    1.0000 </r>
       <r>    1.6622    1.0000 </r>
       <r>    6.4504    0.0000 </r>
       <r>    6.4504    0.0000 </r>
       <r>   13.1827    0.0000 </r>
       <r>   13.1827    0.0000 </r>
       <r>   15.3877    0.0000 </r>
       <r>   15.3877    0.0000 </r>
      </set>
      <set comment="kpoint 49">
       <r>  -10.9872    1.0000 </r>
       <r>  -10.9872    1.0000 </r>
       <r>   -6.2817    1.0000 </r>
       <r>   -6.2817    1.0000 </r>
       <r>   -4.7002    1.0000 </r>
       <r>   -4.7002    1.0000 </r>
       <r>    1.4863    1.0000 </r>
       <r>    1.4863    1.0000 </r>
       <r>    7.0446    0.0000 </r>
       <r>    7.0446    0.0000 </r>
       <r>   14.5453    0.0000 </r>
       <r>   14.5453    0.0000 </r>
       <r>   16.5893    0.0000 </r>
       <r>   16.5893    0.0000 </r>
      </set>
      <set comment="kpoint 50">
       <r>   -9.0827    1.0000 </r>
       <r>   -9.0827    1.0000 </r>
       <r>   -8.2005    1.0000 </r>
       <r>   -8.2005    1.0000 </r>
       <r>   -5.4837    1.0000 </r>
       <r>   -5.4837    1.0000 </r>
       <r>    3.2057    1.0000 </r>
       <r>    3.2057    1.0000 </r>
       <r>    5.1742    0.0000 </r>
       <r>    5.1742    0.0000 </r>
       <r>   14.7281    0.0000 </r>
       <r>   14.7281    0.0000 </r>
       <r>   16.5490    0.0000 </r>
       <r>   16.5490    0.0000 </r>
      </set>
     </set>
     <set comment="spin 2">
      <set comment="kpoint 1">
       <r>  -15.3666    1.0000 </r>
       <r>  -15.1702    1.0000 </r>
       <r>   -4.0719    1.0000 </r>
       <r>   -2.5848    1.0000 </r>
       <r>    1.2076    1.0000 </r>
       <r>    1.2077    1.0000 </r>
       <r>    1.2186    1.0000 </r>
       <r>    1.2186    1.0000 </r>
       <r>    8.1357    0.0000 </r>
       <r>   12.5503    0.0000 </r>
       <r>   12.5503    0.0000 </r>
       <r>   12.5837    0.0000 </r>
       <r>   12.5837    0.0000 </r>
       <r>   13.6145    0.0000 </r>
      </set>
      <set comment="kpoint 2">
       <r>  -14.9955    1.0000 </r>
       <r>  -14.8038    1.0000 </r>
       <r>   -3.6229    1.0000 </r>
       <r>   -2.1597    1.0000 </r>
       <r>   -0.1837    1.0000 </r>
       <r>   -0.1553    1.0000 </r>
       <r>    0.5015    1.0000 </r>
       <r>    0.5219    1.0000 </r>
       <r>    8.5955    0.0000 </r>
       <r>   12.5976    0.0000 </r>
       <r>   12.6810    0.0000 </r>
       <r>   13.9724    0.0000 </r>
       <r>   14.0547    0.0000 </r>
       <r>   14.0842    0.0000 </r>
      </set>
      <set comment="kpoint 3">
       <r>  -13.8920    1.0000 </r>
       <r>  -13.7141    1.0000 </r>
       <r>   -3.2080    1.0000 </r>
       <r>   -3.1467    1.0000 </r>
       <r>   -2.3015    1.0000 </r>
       <r>   -0.9191    1.0000 </r>
       <r>   -0.8104    1.0000 </r>
       <r>   -0.7811    1.0000 </r>
       <r>    9.9717    0.0000 </r>
       <r>   11.2496    0.0000 </r>
       <r>   11.7079    0.0000 </r>
       <r>   12.1950    0.0000 </r>
       <r>   12.3952    0.0000 </r>
       <r>   15.0896    0.0000 </r>
      </set>
      <set comment="kpoint 4">
       <r>  -12.0945    1.0000 </r>
       <r>  -11.9391    1.0000 </r>
       <r>   -6.5016    1.0000 </r>
       <r>   -6.4073    1.0000 </r>
       <r>   -1.8174    1.0000 </r>
       <r>   -1.7851    1.0000 </r>
       <r>   -0.2374    1.0000 </r>
       <r>    0.9363    1.0000 </r>
       <r>    7.6866    0.0000 </r>
       <r>    8.4186    0.0000 </r>
       <r>   11.6608    0.0000 </r>
       <r>   11.8623    0.0000 </r>
       <r>   12.3719    0.0000 </r>
       <r>   16.6714    0.0000 </r>
      </set>
      <set comment="kpoint 5">
       <r>  -10.0681    1.0000 </r>
       <r>   -9.9966    1.0000 </r>
       <r>   -9.0066    1.0000 </r>
       <r>   -8.9517    1.0000 </r>
       <r>   -2.1795    1.0000 </r>
       <r>   -2.1468    1.0000 </r>
       <r>    1.5804    1.0000 </r>
       <r>    2.0907    1.0000 </r>
       <r>    5.7304    0.0000 </r>
       <r>    6.2772    0.0000 </r>
       <r>   11.4786    0.0000 </r>
       <r>   11.7435    0.0000 </r>
       <r>   15.2796    0.0000 </r>
       <r>   15.4188    0.0000 </r>
      </set>
      <set comment="kpoint 6">
       <r>  -14.2582    1.0000 </r>
       <r>  -14.0758    1.0000 </r>
       <r>   -2.7363    1.0000 </r>
       <r>   -1.9877    1.0000 </r>
       <r>   -1.9613    1.0000 </r>
       <r>   -1.3244    1.0000 </r>
       <r>   -0.9011    1.0000 </r>
       <r>   -0.8830    1.0000 </r>
       <r>    9.5198    0.0000 </r>
       <r>   12.3046    0.0000 </r>
       <r>   12.5830    0.0000 </r>
       <r>   13.3977    0.0000 </r>
       <r>   13.5274    0.0000 </r>
       <r>   15.0563    0.0000 </r>
      </set>
      <set comment="kpoint 7">
       <r>  -12.8067    1.0000 </r>
       <r>  -12.6423    1.0000 </r>
       <r>   -4.7972    1.0000 </r>
       <r>   -4.7284    1.0000 </r>
       <r>   -2.4293    1.0000 </r>
       <r>   -2.3881    1.0000 </r>
       <r>   -1.0242    1.0000 </r>
       <r>    0.2592    1.0000 </r>
       <r>    9.1938    0.0000 </r>
       <r>    9.6790    0.0000 </r>
       <r>   11.3492    0.0000 </r>
       <r>   13.4131    0.0000 </r>
       <r>   13.6809    0.0000 </r>
       <r>   15.7612    0.0000 </r>
      </set>
      <set comment="kpoint 8">
       <r>  -10.7263    1.0000 </r>
       <r>  -10.5915    1.0000 </r>
       <r>   -7.8102    1.0000 </r>
       <r>   -7.7094    1.0000 </r>
       <r>   -3.1998    1.0000 </r>
       <r>   -3.1506    1.0000 </r>
       <r>    1.2218    1.0000 </r>
       <r>    2.1191    1.0000 </r>
       <r>    6.2027    0.0000 </r>
       <r>    6.8092    0.0000 </r>
       <r>   13.0352    0.0000 </r>
       <r>   13.3370    0.0000 </r>
       <r>   14.0637    0.0000 </r>
       <r>   16.7987    0.0000 </r>
      </set>
      <set comment="kpoint 9">
       <r>  -11.0562    1.0000 </r>
       <r>  -10.9144    1.0000 </r>
       <r>   -6.3052    1.0000 </r>
       <r>   -6.2576    1.0000 </r>
       <r>   -4.7163    1.0000 </r>
       <r>   -4.6809    1.0000 </r>
       <r>    0.9787    1.0000 </r>
       <r>    2.0564    1.0000 </r>
       <r>    6.8267    0.0000 </r>
       <r>    7.2595    0.0000 </r>
       <r>   13.5677    0.0000 </r>
       <r>   15.7583    0.0000 </r>
       <r>   16.1372    0.0000 </r>
       <r>   16.3489    0.0000 </r>
      </set>
      <set comment="kpoint 10">
       <r>   -9.1162    1.0000 </r>
       <r>   -9.0514    1.0000 </r>
       <r>   -8.2109    1.0000 </r>
       <r>   -8.1825    1.0000 </r>
       <r>   -5.5142    1.0000 </r>
       <r>   -5.4504    1.0000 </r>
       <r>    2.9170    1.0000 </r>
       <r>    3.4022    0.9384 </r>
       <r>    5.1938    0.0000 </r>
       <r>    5.2867    0.0000 </r>
       <r>   15.5321    0.0000 </r>
       <r>   15.6380    0.0000 </r>
       <r>   15.9184    0.0000 </r>
       <r>   16.1677    0.0000 </r>
      </set>
      <set comment="kpoint 11">
       <r>  -15.3594    1.0000 </r>
       <r>  -15.1780    1.0000 </r>
       <r>   -4.0232    1.0000 </r>
       <r>   -2.6525    1.0000 </r>
       <r>    1.2095    1.0000 </r>
       <r>    1.2095    1.0000 </r>
       <r>    1.2187    1.0000 </r>
       <r>    1.2187    1.0000 </r>
       <r>    8.2962    0.0000 </r>
       <r>   12.5529    0.0000 </r>
       <r>   12.5529    0.0000 </r>
       <r>   12.5796    0.0000 </r>
       <r>   12.5796    0.0000 </r>
       <r>   13.2678    0.0000 </r>
      </set>
      <set comment="kpoint 12">
       <r>  -14.9885    1.0000 </r>
       <r>  -14.8114    1.0000 </r>
       <r>   -3.5749    1.0000 </r>
       <r>   -2.2254    1.0000 </r>
       <r>   -0.1827    1.0000 </r>
       <r>   -0.1564    1.0000 </r>
       <r>    0.5023    1.0000 </r>
       <r>    0.5208    1.0000 </r>
       <r>    8.7535    0.0000 </r>
       <r>   12.5952    0.0000 </r>
       <r>   12.6788    0.0000 </r>
       <r>   13.6490    0.0000 </r>
       <r>   14.0559    0.0000 </r>
       <r>   14.0808    0.0000 </r>
      </set>
      <set comment="kpoint 13">
       <r>  -13.8855    1.0000 </r>
       <r>  -13.7212    1.0000 </r>
       <r>   -3.2058    1.0000 </r>
       <r>   -3.1490    1.0000 </r>
       <r>   -2.2560    1.0000 </r>
       <r>   -0.9811    1.0000 </r>
       <r>   -0.8094    1.0000 </r>
       <r>   -0.7825    1.0000 </r>
       <r>   10.1153    0.0000 </r>
       <r>   11.2731    0.0000 </r>
       <r>   11.6798    0.0000 </r>
       <r>   12.2001    0.0000 </r>
       <r>   12.3936    0.0000 </r>
       <r>   14.7953    0.0000 </r>
      </set>
      <set comment="kpoint 14">
       <r>  -12.0888    1.0000 </r>
       <r>  -11.9452    1.0000 </r>
       <r>   -6.4980    1.0000 </r>
       <r>   -6.4108    1.0000 </r>
       <r>   -1.8162    1.0000 </r>
       <r>   -1.7862    1.0000 </r>
       <r>   -0.1975    1.0000 </r>
       <r>    0.8858    1.0000 </r>
       <r>    7.7069    0.0000 </r>
       <r>    8.3855    0.0000 </r>
       <r>   11.6745    0.0000 </r>
       <r>   11.8662    0.0000 </r>
       <r>   12.4970    0.0000 </r>
       <r>   16.4410    0.0000 </r>
      </set>
      <set comment="kpoint 15">
       <r>  -10.0651    1.0000 </r>
       <r>   -9.9990    1.0000 </r>
       <r>   -9.0050    1.0000 </r>
       <r>   -8.9543    1.0000 </r>
       <r>   -2.1782    1.0000 </r>
       <r>   -2.1473    1.0000 </r>
       <r>    1.6042    1.0000 </r>
       <r>    2.0782    1.0000 </r>
       <r>    5.7334    0.0000 </r>
       <r>    6.2425    0.0000 </r>
       <r>   11.4884    0.0000 </r>
       <r>   11.7333    0.0000 </r>
       <r>   15.4040    0.0000 </r>
       <r>   15.5141    0.0000 </r>
      </set>
      <set comment="kpoint 16">
       <r>  -14.2516    1.0000 </r>
       <r>  -14.0830    1.0000 </r>
       <r>   -2.6900    1.0000 </r>
       <r>   -1.9866    1.0000 </r>
       <r>   -1.9623    1.0000 </r>
       <r>   -1.3877    1.0000 </r>
       <r>   -0.9003    1.0000 </r>
       <r>   -0.8835    1.0000 </r>
       <r>    9.6721    0.0000 </r>
       <r>   12.3123    0.0000 </r>
       <r>   12.5722    0.0000 </r>
       <r>   13.3918    0.0000 </r>
       <r>   13.5281    0.0000 </r>
       <r>   14.3738    0.0000 </r>
      </set>
      <set comment="kpoint 17">
       <r>  -12.8007    1.0000 </r>
       <r>  -12.6488    1.0000 </r>
       <r>   -4.7946    1.0000 </r>
       <r>   -4.7310    1.0000 </r>
       <r>   -2.4278    1.0000 </r>
       <r>   -2.3898    1.0000 </r>
       <r>   -0.9814    1.0000 </r>
       <r>    0.2028    1.0000 </r>
       <r>    9.2100    0.0000 </r>
       <r>    9.6584    0.0000 </r>
       <r>   11.4885    0.0000 </r>
       <r>   13.4195    0.0000 </r>
       <r>   13.6748    0.0000 </r>
       <r>   15.5353    0.0000 </r>
      </set>
      <set comment="kpoint 18">
       <r>  -10.7213    1.0000 </r>
       <r>  -10.5968    1.0000 </r>
[...]
       </set>
       <set comment="band 10">
        <r>  0.0002  0.0001  0.0320  0.0003  0.0000  0.0000  0.0000  0.0000  0.0000 </r>
        <r>  0.0000  0.0000  0.0318  0.0003  0.0000  0.0000  0.0000  0.0000  0.0000 </r>
        <r>  0.0000  0.0000  0.2520  0.0000  0.0000  0.0000  0.0000  0.0000  0.0000 </r>
        <r>  0.0000  0.0000  0.2540  0.0000  0.0000  0.0000  0.0000  0.0000  0.0000 </r>
       </set>
       <set comment="band 11">
        <r>  0.0086  0.0103  0.0143  0.0253  0.0000  0.0000  0.0000  0.0000  0.0000 </r>
        <r>  0.0126  0.0131  0.0194  0.0263  0.0000  0.0000  0.0000  0.0000  0.0000 </r>
        <r>  0.0103  0.0107  0.0239  0.0214  0.0000  0.0000  0.0000  0.0000  0.0000 </r>
        <r>  0.0070  0.0084  0.0176  0.0206  0.0000  0.0000  0.0000  0.0000  0.0000 </r>
       </set>
       <set comment="band 12">
        <r>  0.0070  0.0084  0.0176  0.0206  0.0000  0.0000  0.0000  0.0000  0.0000 </r>
        <r>  0.0103  0.0107  0.0239  0.0214  0.0000  0.0000  0.0000  0.0000  0.0000 </r>
        <r>  0.0126  0.0131  0.0194  0.0263  0.0000  0.0000  0.0000  0.0000  0.0000 </r>
        <r>  0.0086  0.0103  0.0143  0.0253  0.0000  0.0000  0.0000  0.0000  0.0000 </r>
       </set>
       <set comment="band 13">
        <r>  0.0516  0.0103  0.0116  0.0241  0.0000  0.0000  0.0000  0.0000  0.0000 </r>
        <r>  0.0479  0.0084  0.0071  0.0240  0.0000  0.0000  0.0000  0.0000  0.0000 </r>
        <r>  0.0565  0.0099  0.0060  0.0283  0.0000  0.0000  0.0000  0.0000  0.0000 </r>
        <r>  0.0609  0.0121  0.0098  0.0284  0.0000  0.0000  0.0000  0.0000  0.0000 </r>
       </set>
       <set comment="band 14">
        <r>  0.0609  0.0121  0.0098  0.0284  0.0000  0.0000  0.0000  0.0000  0.0000 </r>
        <r>  0.0565  0.0099  0.0060  0.0283  0.0000  0.0000  0.0000  0.0000  0.0000 </r>
        <r>  0.0479  0.0084  0.0071  0.0240  0.0000  0.0000  0.0000  0.0000  0.0000 </r>
        <r>  0.0516  0.0103  0.0116  0.0241  0.0000  0.0000  0.0000  0.0000  0.0000 </r>
       </set>
      </set>
      <set comment="kpoint 48">
       <set comment="band 1">
        <r>  0.0322  0.0051  0.0000  0.0053  0.0000  0.0000  0.0000  0.0000  0.0000 </r>
        <r>  0.0323  0.0051  0.0000  0.0053  0.0000  0.0000  0.0000  0.0000  0.0000 </r>
        <r>  0.2326  0.0365  0.0000  0.0384  0.0000  0.0000  0.0000  0.0000  0.0000 </r>
        <r>  0.2320  0.0365  0.0000  0.0385  0.0000  0.0000  0.0000  0.0000  0.0000 </r>
       </set>
       <set comment="band 2">
        <r>  0.2320  0.0365  0.0000  0.0385  0.0000  0.0000  0.0000  0.0000  0.0000 </r>
        <r>  0.2326  0.0365  0.0000  0.0384  0.0000  0.0000  0.0000  0.0000  0.0000 </r>
        <r>  0.0323  0.0051  0.0000  0.0053  0.0000  0.0000  0.0000  0.0000  0.0000 </r>
        <r>  0.0322  0.0051  0.0000  0.0053  0.0000  0.0000  0.0000  0.0000  0.0000 </r>
       </set>
       <set comment="band 3">
        <r>  0.0458  0.0080  0.0000  0.0418  0.0000  0.0000  0.0000  0.0000  0.0000 </r>
        <r>  0.0457  0.0080  0.0000  0.0419  0.0000  0.0000  0.0000  0.0000  0.0000 </r>
        <r>  0.1231  0.0216  0.0000  0.1129  0.0000  0.0000  0.0000  0.0000  0.0000 </r>
        <r>  0.1234  0.0215  0.0000  0.1127  0.0000  0.0000  0.0000  0.0000  0.0000 </r>
       </set>
       <set comment="band 4">
        <r>  0.1234  0.0215  0.0000  0.1127  0.0000  0.0000  0.0000  0.0000  0.0000 </r>
        <r>  0.1231  0.0216  0.0000  0.1129  0.0000  0.0000  0.0000  0.0000  0.0000 </r>
        <r>  0.0457  0.0080  0.0000  0.0419  0.0000  0.0000  0.0000  0.0000  0.0000 </r>
        <r>  0.0458  0.0080  0.0000  0.0418  0.0000  0.0000  0.0000  0.0000  0.0000 </r>
       </set>
       <set comment="band 5">
        <r>  0.0248  0.2338  0.0000  0.0800  0.0000  0.0000  0.0000  0.0000  0.0000 </r>
        <r>  0.0248  0.2340  0.0000  0.0801  0.0000  0.0000  0.0000  0.0000  0.0000 </r>
        <r>  0.0027  0.0255  0.0000  0.0087  0.0000  0.0000  0.0000  0.0000  0.0000 </r>
        <r>  0.0027  0.0255  0.0000  0.0087  0.0000  0.0000  0.0000  0.0000  0.0000 </r>
       </set>
       <set comment="band 6">
        <r>  0.0027  0.0255  0.0000  0.0087  0.0000  0.0000  0.0000  0.0000  0.0000 </r>
        <r>  0.0027  0.0255  0.0000  0.0087  0.0000  0.0000  0.0000  0.0000  0.0000 </r>
        <r>  0.0248  0.2340  0.0000  0.0801  0.0000  0.0000  0.0000  0.0000  0.0000 </r>
        <r>  0.0248  0.2338  0.0000  0.0800  0.0000  0.0000  0.0000  0.0000  0.0000 </r>
       </set>
       <set comment="band 7">
        <r>  0.0000  0.0000  0.2457  0.0000  0.0000  0.0000  0.0000  0.0000  0.0000 </r>
        <r>  0.0000  0.0000  0.2470  0.0000  0.0000  0.0000  0.0000  0.0000  0.0000 </r>
        <r>  0.0004  0.0001  0.0002  0.0001  0.0000  0.0000  0.0000  0.0000  0.0000 </r>
        <r>  0.0001  0.0002  0.0002  0.0003  0.0000  0.0000  0.0000  0.0000  0.0000 </r>
       </set>
       <set comment="band 8">
        <r>  0.0001  0.0002  0.0002  0.0003  0.0000  0.0000  0.0000  0.0000  0.0000 </r>
        <r>  0.0004  0.0001  0.0002  0.0001  0.0000  0.0000  0.0000  0.0000  0.0000 </r>
        <r>  0.0000  0.0000  0.2470  0.0000  0.0000  0.0000  0.0000  0.0000  0.0000 </r>
        <r>  0.0000  0.0000  0.2457  0.0000  0.0000  0.0000  0.0000  0.0000  0.0000 </r>
       </set>
       <set comment="band 9">
        <r>  0.0001  0.0000  0.2031  0.0000  0.0000  0.0000  0.0000  0.0000  0.0000 </r>
        <r>  0.0000  0.0000  0.2017  0.0001  0.0000  0.0000  0.0000  0.0000  0.0000 </r>
        <r>  0.0001  0.0001  0.0434  0.0003  0.0000  0.0000  0.0000  0.0000  0.0000 </r>
        <r>  0.0004  0.0000  0.0437  0.0002  0.0000  0.0000  0.0000  0.0000  0.0000 </r>
       </set>
       <set comment="band 10">
        <r>  0.0004  0.0000  0.0437  0.0002  0.0000  0.0000  0.0000  0.0000  0.0000 </r>
        <r>  0.0001  0.0001  0.0434  0.0003  0.0000  0.0000  0.0000  0.0000  0.0000 </r>
        <r>  0.0000  0.0000  0.2017  0.0001  0.0000  0.0000  0.0000  0.0000  0.0000 </r>
        <r>  0.0001  0.0000  0.2031  0.0000  0.0000  0.0000  0.0000  0.0000  0.0000 </r>
       </set>
       <set comment="band 11">
        <r>  0.0337  0.0097  0.0000  0.0134  0.0000  0.0000  0.0000  0.0000  0.0000 </r>
        <r>  0.0345  0.0102  0.0003  0.0139  0.0000  0.0000  0.0000  0.0000  0.0000 </r>
        <r>  0.1094  0.0323  0.0001  0.0440  0.0000  0.0000  0.0000  0.0000  0.0000 </r>
        <r>  0.1067  0.0306  0.0000  0.0424  0.0000  0.0000  0.0000  0.0000  0.0000 </r>
       </set>
       <set comment="band 12">
        <r>  0.1067  0.0306  0.0000  0.0424  0.0000  0.0000  0.0000  0.0000  0.0000 </r>
        <r>  0.1094  0.0323  0.0001  0.0440  0.0000  0.0000  0.0000  0.0000  0.0000 </r>
        <r>  0.0345  0.0102  0.0003  0.0139  0.0000  0.0000  0.0000  0.0000  0.0000 </r>
        <r>  0.0337  0.0097  0.0000  0.0134  0.0000  0.0000  0.0000  0.0000  0.0000 </r>
       </set>
       <set comment="band 13">
        <r>  0.0142  0.0109  0.0002  0.0037  0.0000  0.0000  0.0000  0.0000  0.0000 </r>
        <r>  0.0070  0.0108  0.0002  0.0094  0.0000  0.0000  0.0000  0.0000  0.0000 </r>
        <r>  0.0000  0.0000  0.0603  0.0000  0.0000  0.0000  0.0000  0.0000  0.0000 </r>
        <r>  0.0000  0.0000  0.0563  0.0000  0.0000  0.0000  0.0000  0.0000  0.0000 </r>
       </set>
       <set comment="band 14">
        <r>  0.0000  0.0000  0.0563  0.0000  0.0000  0.0000  0.0000  0.0000  0.0000 </r>
        <r>  0.0000  0.0000  0.0603  0.0000  0.0000  0.0000  0.0000  0.0000  0.0000 </r>
        <r>  0.0070  0.0108  0.0002  0.0094  0.0000  0.0000  0.0000  0.0000  0.0000 </r>
        <r>  0.0142  0.0109  0.0002  0.0037  0.0000  0.0000  0.0000  0.0000  0.0000 </r>
       </set>
      </set>
      <set comment="kpoint 49">
       <set comment="band 1">
        <r>  0.2347  0.0565  0.0000  0.0198  0.0000  0.0000  0.0000  0.0000  0.0000 </r>
        <r>  0.2351  0.0565  0.0000  0.0198  0.0000  0.0000  0.0000  0.0000  0.0000 </r>
        <r>  0.0268  0.0064  0.0000  0.0023  0.0000  0.0000  0.0000  0.0000  0.0000 </r>
        <r>  0.0267  0.0064  0.0000  0.0023  0.0000  0.0000  0.0000  0.0000  0.0000 </r>
       </set>
       <set comment="band 2">
        <r>  0.0267  0.0064  0.0000  0.0023  0.0000  0.0000  0.0000  0.0000  0.0000 </r>
        <r>  0.0268  0.0064  0.0000  0.0023  0.0000  0.0000  0.0000  0.0000  0.0000 </r>
        <r>  0.2351  0.0565  0.0000  0.0198  0.0000  0.0000  0.0000  0.0000  0.0000 </r>
        <r>  0.2347  0.0565  0.0000  0.0198  0.0000  0.0000  0.0000  0.0000  0.0000 </r>
       </set>
       <set comment="band 3">
        <r>  0.0237  0.0137  0.0000  0.0092  0.0000  0.0000  0.0000  0.0000  0.0000 </r>
        <r>  0.0237  0.0138  0.0000  0.0092  0.0000  0.0000  0.0000  0.0000  0.0000 </r>
        <r>  0.1685  0.0979  0.0000  0.0652  0.0000  0.0000  0.0000  0.0000  0.0000 </r>
        <r>  0.1687  0.0977  0.0000  0.0652  0.0000  0.0000  0.0000  0.0000  0.0000 </r>
       </set>
       <set comment="band 4">
        <r>  0.1687  0.0977  0.0000  0.0652  0.0000  0.0000  0.0000  0.0000  0.0000 </r>
        <r>  0.1685  0.0979  0.0000  0.0652  0.0000  0.0000  0.0000  0.0000  0.0000 </r>
        <r>  0.0237  0.0138  0.0000  0.0092  0.0000  0.0000  0.0000  0.0000  0.0000 </r>
        <r>  0.0237  0.0137  0.0000  0.0092  0.0000  0.0000  0.0000  0.0000  0.0000 </r>
       </set>
       <set comment="band 5">
        <r>  0.0135  0.0635  0.0000  0.1109  0.0000  0.0000  0.0000  0.0000  0.0000 </r>
        <r>  0.0134  0.0635  0.0000  0.1110  0.0000  0.0000  0.0000  0.0000  0.0000 </r>
        <r>  0.0113  0.0532  0.0000  0.0930  0.0000  0.0000  0.0000  0.0000  0.0000 </r>
        <r>  0.0113  0.0532  0.0000  0.0929  0.0000  0.0000  0.0000  0.0000  0.0000 </r>
       </set>
       <set comment="band 6">
        <r>  0.0113  0.0532  0.0000  0.0929  0.0000  0.0000  0.0000  0.0000  0.0000 </r>
        <r>  0.0113  0.0532  0.0000  0.0930  0.0000  0.0000  0.0000  0.0000  0.0000 </r>
        <r>  0.0134  0.0635  0.0000  0.1110  0.0000  0.0000  0.0000  0.0000  0.0000 </r>
        <r>  0.0135  0.0635  0.0000  0.1109  0.0000  0.0000  0.0000  0.0000  0.0000 </r>
       </set>
       <set comment="band 7">
        <r>  0.0001  0.0001  0.1571  0.0000  0.0000  0.0000  0.0000  0.0000  0.0000 </r>
        <r>  0.0002  0.0000  0.1578  0.0000  0.0000  0.0000  0.0000  0.0000  0.0000 </r>
        <r>  0.0003  0.0001  0.0835  0.0000  0.0000  0.0000  0.0000  0.0000  0.0000 </r>
        <r>  0.0002  0.0002  0.0831  0.0001  0.0000  0.0000  0.0000  0.0000  0.0000 </r>
       </set>
       <set comment="band 8">
        <r>  0.0002  0.0002  0.0831  0.0001  0.0000  0.0000  0.0000  0.0000  0.0000 </r>
        <r>  0.0003  0.0001  0.0835  0.0000  0.0000  0.0000  0.0000  0.0000  0.0000 </r>
        <r>  0.0002  0.0000  0.1578  0.0000  0.0000  0.0000  0.0000  0.0000  0.0000 </r>
        <r>  0.0001  0.0001  0.1571  0.0000  0.0000  0.0000  0.0000  0.0000  0.0000 </r>
       </set>
       <set comment="band 9">
        <r>  0.0000  0.0001  0.0711  0.0003  0.0000  0.0000  0.0000  0.0000  0.0000 </r>
        <r>  0.0000  0.0001  0.0707  0.0001  0.0000  0.0000  0.0000  0.0000  0.0000 </r>
        <r>  0.0000  0.0000  0.2032  0.0000  0.0000  0.0000  0.0000  0.0000  0.0000 </r>
        <r>  0.0000  0.0000  0.2044  0.0001  0.0000  0.0000  0.0000  0.0000  0.0000 </r>
       </set>
       <set comment="band 10">
        <r>  0.0000  0.0000  0.2044  0.0001  0.0000  0.0000  0.0000  0.0000  0.0000 </r>
        <r>  0.0000  0.0000  0.2032  0.0000  0.0000  0.0000  0.0000  0.0000  0.0000 </r>
        <r>  0.0000  0.0001  0.0707  0.0001  0.0000  0.0000  0.0000  0.0000  0.0000 </r>
        <r>  0.0000  0.0001  0.0711  0.0003  0.0000  0.0000  0.0000  0.0000  0.0000 </r>
       </set>
       <set comment="band 11">
        <r>  0.0002  0.0025  0.0249  0.0014  0.0000  0.0000  0.0000  0.0000  0.0000 </r>
        <r>  0.0014  0.0082  0.0280  0.0058  0.0000  0.0000  0.0000  0.0000  0.0000 </r>
        <r>  0.0031  0.0185  0.0124  0.0131  0.0000  0.0000  0.0000  0.0000  0.0000 </r>
        <r>  0.0005  0.0057  0.0110  0.0032  0.0000  0.0000  0.0000  0.0000  0.0000 </r>
       </set>
       <set comment="band 12">
        <r>  0.0005  0.0057  0.0110  0.0032  0.0000  0.0000  0.0000  0.0000  0.0000 </r>
        <r>  0.0031  0.0185  0.0124  0.0131  0.0000  0.0000  0.0000  0.0000  0.0000 </r>
        <r>  0.0014  0.0082  0.0280  0.0058  0.0000  0.0000  0.0000  0.0000  0.0000 </r>
        <r>  0.0002  0.0025  0.0249  0.0014  0.0000  0.0000  0.0000  0.0000  0.0000 </r>
       </set>
       <set comment="band 13">
        <r>  0.0016  0.0045  0.0086  0.0091  0.0000  0.0000  0.0000  0.0000  0.0000 </r>
        <r>  0.0043  0.0020  0.0000  0.0048  0.0000  0.0000  0.0000  0.0000  0.0000 </r>
        <r>  0.0652  0.0299  0.0000  0.0733  0.0000  0.0000  0.0000  0.0000  0.0000 </r>
        <r>  0.0239  0.0681  0.0006  0.1388  0.0000  0.0000  0.0000  0.0000  0.0000 </r>
       </set>
       <set comment="band 14">
        <r>  0.0239  0.0681  0.0006  0.1388  0.0000  0.0000  0.0000  0.0000  0.0000 </r>
        <r>  0.0652  0.0299  0.0000  0.0733  0.0000  0.0000  0.0000  0.0000  0.0000 </r>
        <r>  0.0043  0.0020  0.0000  0.0048  0.0000  0.0000  0.0000  0.0000  0.0000 </r>
        <r>  0.0016  0.0045  0.0086  0.0091  0.0000  0.0000  0.0000  0.0000  0.0000 </r>
       </set>
      </set>
      <set comment="kpoint 50">
       <set comment="band 1">
        <r>  0.2692  0.0415  0.0000  0.0552  0.0000  0.0000  0.0000  0.0000  0.0000 </r>
        <r>  0.2712  0.0412  0.0000  0.0546  0.0000  0.0000  0.0000  0.0000  0.0000 </r>
        <r>  0.0010  0.0002  0.0000  0.0002  0.0000  0.0000  0.0000  0.0000  0.0000 </r>
        <r>  0.0010  0.0002  0.0000  0.0002  0.0000  0.0000  0.0000  0.0000  0.0000 </r>
       </set>
       <set comment="band 2">
        <r>  0.0010  0.0002  0.0000  0.0002  0.0000  0.0000  0.0000  0.0000  0.0000 </r>
        <r>  0.0010  0.0002  0.0000  0.0002  0.0000  0.0000  0.0000  0.0000  0.0000 </r>
        <r>  0.2712  0.0412  0.0000  0.0546  0.0000  0.0000  0.0000  0.0000  0.0000 </r>
        <r>  0.2692  0.0415  0.0000  0.0552  0.0000  0.0000  0.0000  0.0000  0.0000 </r>
       </set>
       <set comment="band 3">
        <r>  0.0034  0.0008  0.0000  0.0024  0.0000  0.0000  0.0000  0.0000  0.0000 </r>
        <r>  0.0034  0.0008  0.0000  0.0024  0.0000  0.0000  0.0000  0.0000  0.0000 </r>
        <r>  0.1769  0.0435  0.0000  0.1264  0.0000  0.0000  0.0000  0.0000  0.0000 </r>
        <r>  0.1786  0.0432  0.0000  0.1256  0.0000  0.0000  0.0000  0.0000  0.0000 </r>
       </set>
       <set comment="band 4">
        <r>  0.1786  0.0432  0.0000  0.1256  0.0000  0.0000  0.0000  0.0000  0.0000 </r>
        <r>  0.1769  0.0435  0.0000  0.1264  0.0000  0.0000  0.0000  0.0000  0.0000 </r>
        <r>  0.0034  0.0008  0.0000  0.0024  0.0000  0.0000  0.0000  0.0000  0.0000 </r>
        <r>  0.0034  0.0008  0.0000  0.0024  0.0000  0.0000  0.0000  0.0000  0.0000 </r>
       </set>
       <set comment="band 5">
        <r>  0.0308  0.1539  0.0000  0.0717  0.0000  0.0000  0.0000  0.0000  0.0000 </r>
        <r>  0.0308  0.1541  0.0000  0.0718  0.0000  0.0000  0.0000  0.0000  0.0000 </r>
        <r>  0.0104  0.0521  0.0000  0.0243  0.0000  0.0000  0.0000  0.0000  0.0000 </r>
        <r>  0.0104  0.0520  0.0000  0.0243  0.0000  0.0000  0.0000  0.0000  0.0000 </r>
       </set>
       <set comment="band 6">
        <r>  0.0104  0.0520  0.0000  0.0243  0.0000  0.0000  0.0000  0.0000  0.0000 </r>
        <r>  0.0104  0.0521  0.0000  0.0243  0.0000  0.0000  0.0000  0.0000  0.0000 </r>
        <r>  0.0308  0.1541  0.0000  0.0718  0.0000  0.0000  0.0000  0.0000  0.0000 </r>
        <r>  0.0308  0.1539  0.0000  0.0717  0.0000  0.0000  0.0000  0.0000  0.0000 </r>
       </set>
       <set comment="band 7">
        <r>  0.0000  0.0000  0.1597  0.0001  0.0000  0.0000  0.0000  0.0000  0.0000 </r>
        <r>  0.0001  0.0000  0.1618  0.0000  0.0000  0.0000  0.0000  0.0000  0.0000 </r>
        <r>  0.0002  0.0000  0.0979  0.0001  0.0000  0.0000  0.0000  0.0000  0.0000 </r>
        <r>  0.0000  0.0001  0.0966  0.0002  0.0000  0.0000  0.0000  0.0000  0.0000 </r>
       </set>
       <set comment="band 8">
        <r>  0.0000  0.0001  0.0966  0.0002  0.0000  0.0000  0.0000  0.0000  0.0000 </r>
        <r>  0.0002  0.0000  0.0979  0.0001  0.0000  0.0000  0.0000  0.0000  0.0000 </r>
        <r>  0.0001  0.0000  0.1618  0.0000  0.0000  0.0000  0.0000  0.0000  0.0000 </r>
        <r>  0.0000  0.0000  0.1597  0.0001  0.0000  0.0000  0.0000  0.0000  0.0000 </r>
       </set>
       <set comment="band 9">
        <r>  0.0000  0.0001  0.1380  0.0001  0.0000  0.0000  0.0000  0.0000  0.0000 </r>
        <r>  0.0001  0.0000  0.1360  0.0001  0.0000  0.0000  0.0000  0.0000  0.0000 </r>
        <r>  0.0001  0.0000  0.1203  0.0001  0.0000  0.0000  0.0000  0.0000  0.0000 </r>
        <r>  0.0001  0.0002  0.1221  0.0001  0.0000  0.0000  0.0000  0.0000  0.0000 </r>
       </set>
       <set comment="band 10">
        <r>  0.0001  0.0002  0.1221  0.0001  0.0000  0.0000  0.0000  0.0000  0.0000 </r>
        <r>  0.0001  0.0000  0.1203  0.0001  0.0000  0.0000  0.0000  0.0000  0.0000 </r>
        <r>  0.0001  0.0000  0.1360  0.0001  0.0000  0.0000  0.0000  0.0000  0.0000 </r>
        <r>  0.0000  0.0001  0.1380  0.0001  0.0000  0.0000  0.0000  0.0000  0.0000 </r>
       </set>
       <set comment="band 11">
        <r>  0.0004  0.0004  0.0025  0.0002  0.0000  0.0000  0.0000  0.0000  0.0000 </r>
        <r>  0.0024  0.0192  0.0025  0.0207  0.0000  0.0000  0.0000  0.0000  0.0000 </r>
        <r>  0.0007  0.0053  0.0092  0.0057  0.0000  0.0000  0.0000  0.0000  0.0000 </r>
        <r>  0.0001  0.0001  0.0090  0.0001  0.0000  0.0000  0.0000  0.0000  0.0000 </r>
       </set>
       <set comment="band 12">
        <r>  0.0001  0.0001  0.0090  0.0001  0.0000  0.0000  0.0000  0.0000  0.0000 </r>
        <r>  0.0007  0.0053  0.0092  0.0057  0.0000  0.0000  0.0000  0.0000  0.0000 </r>
        <r>  0.0024  0.0192  0.0025  0.0207  0.0000  0.0000  0.0000  0.0000  0.0000 </r>
        <r>  0.0004  0.0004  0.0025  0.0002  0.0000  0.0000  0.0000  0.0000  0.0000 </r>
       </set>
       <set comment="band 13">
        <r>  0.0352  0.0598  0.0017  0.0388  0.0000  0.0000  0.0000  0.0000  0.0000 </r>
        <r>  0.0358  0.0324  0.0048  0.0168  0.0000  0.0000  0.0000  0.0000  0.0000 </r>
        <r>  0.0448  0.0405  0.0039  0.0210  0.0000  0.0000  0.0000  0.0000  0.0000 </r>
        <r>  0.0440  0.0747  0.0013  0.0484  0.0000  0.0000  0.0000  0.0000  0.0000 </r>
       </set>
       <set comment="band 14">
        <r>  0.0440  0.0747  0.0013  0.0484  0.0000  0.0000  0.0000  0.0000  0.0000 </r>
        <r>  0.0448  0.0405  0.0039  0.0210  0.0000  0.0000  0.0000  0.0000  0.0000 </r>
        <r>  0.0358  0.0324  0.0048  0.0168  0.0000  0.0000  0.0000  0.0000  0.0000 </r>
        <r>  0.0352  0.0598  0.0017  0.0388  0.0000  0.0000  0.0000  0.0000  0.0000 </r>
       </set>
      </set>
     </set>
    </set>
   </array>
  </projected>
 </calculation>
 <structure name="finalpos" >
  <crystal>
   <varray name="basis" >
    <v>       2.46647153       0.00000000       0.00000000 </v>
    <v>      -1.23323576       2.13602700       0.00000000 </v>
    <v>       0.00000000       0.00000000       7.07547656 </v>
   </varray>
   <i name="volume">     37.27679293 </i>
   <varray name="rec_basis" >
    <v>       0.40543748       0.23407944       0.00000000 </v>
    <v>       0.00000000       0.46815888       0.00000000 </v>
    <v>       0.00000000       0.00000000       0.14133324 </v>
   </varray>
  </crystal>
  <varray name="positions" >
   <v>       0.00000000       0.00000000       0.00000000 </v>
   <v>       0.33333333       0.66666667       0.00000000 </v>
   <v>       0.33333333       0.66666667       0.50000000 </v>
   <v>       0.66666667       0.33333333       0.50000000 </v>
  </varray>
 </structure>
</modeling>
