   3   3   0   0
  0.3333333E+03  0.1000000E-08  0.1000000E-08  0.1000000E-08  0.5000000E-15
  1.000000000000000E-004
  CAR 
 unknown system                          
      2.07242046    -30.42015409  301     -8.80866486      1.00000000
    -30.420  0.0000E+00  0.0000E+00
    -30.312  0.0000E+00  0.0000E+00
    -30.204  0.0000E+00  0.0000E+00
    -30.095  0.0000E+00  0.0000E+00
    -29.987  0.0000E+00  0.0000E+00
    -29.879  0.0000E+00  0.0000E+00
    -29.770  0.0000E+00  0.0000E+00
    -29.662  0.0000E+00  0.0000E+00
    -29.554  0.0000E+00  0.0000E+00
    -29.445 -0.8194E-42 -0.8875E-43
    -29.337 -0.4640E-25 -0.5025E-26
    -29.229 -0.1979E-12 -0.2143E-13
    -29.120 -0.5956E-04 -0.6451E-05
    -29.012 -0.6006E+00 -0.6506E-01
    -28.904  0.1882E+02  0.1974E+01
    -28.796  0.2454E+00  0.2000E+01
    -28.687 -0.2227E-02  0.2000E+01
    -28.579 -0.1058E-09  0.2000E+01
    -28.471  0.0000E+00  0.2000E+01
    -28.362 -0.6583E-31  0.2000E+01
    -28.254 -0.1039E-16  0.2000E+01
    -28.146 -0.1164E-06  0.2000E+01
    -28.037 -0.7425E-01  0.1992E+01
    -27.929  0.8826E+01  0.2948E+01
    -27.821  0.9807E+01  0.4010E+01
    -27.712 -0.9305E-01  0.4000E+01
    -27.604 -0.1954E-06  0.4000E+01
    -27.496  0.0000E+00  0.4000E+01
    -27.388  0.0000E+00  0.4000E+01
    -27.279  0.0000E+00  0.4000E+01
    -27.171  0.0000E+00  0.4000E+01
    -27.063  0.0000E+00  0.4000E+01
    -26.954  0.0000E+00  0.4000E+01
    -26.846  0.0000E+00  0.4000E+01
    -26.738  0.0000E+00  0.4000E+01
    -26.629  0.0000E+00  0.4000E+01
    -26.521  0.0000E+00  0.4000E+01
    -26.413  0.0000E+00  0.4000E+01
    -26.304  0.0000E+00  0.4000E+01
    -26.196  0.0000E+00  0.4000E+01
    -26.088  0.0000E+00  0.4000E+01
    -25.980  0.0000E+00  0.4000E+01
    -25.871  0.0000E+00  0.4000E+01
    -25.763  0.0000E+00  0.4000E+01
    -25.655  0.0000E+00  0.4000E+01
    -25.546  0.0000E+00  0.4000E+01
    -25.438  0.0000E+00  0.4000E+01
    -25.330  0.0000E+00  0.4000E+01
    -25.221  0.0000E+00  0.4000E+01
    -25.113  0.0000E+00  0.4000E+01
    -25.005  0.0000E+00  0.4000E+01
    -24.896  0.0000E+00  0.4000E+01
    -24.788  0.0000E+00  0.4000E+01
    -24.680  0.0000E+00  0.4000E+01
    -24.571  0.0000E+00  0.4000E+01
    -24.463  0.0000E+00  0.4000E+01
    -24.355  0.0000E+00  0.4000E+01
    -24.247  0.0000E+00  0.4000E+01
    -24.138  0.0000E+00  0.4000E+01
    -24.030  0.0000E+00  0.4000E+01
    -23.922  0.0000E+00  0.4000E+01
    -23.813  0.0000E+00  0.4000E+01
    -23.705  0.0000E+00  0.4000E+01
    -23.597  0.0000E+00  0.4000E+01
    -23.488  0.0000E+00  0.4000E+01
    -23.380  0.0000E+00  0.4000E+01
    -23.272  0.0000E+00  0.4000E+01
    -23.163  0.0000E+00  0.4000E+01
    -23.055  0.0000E+00  0.4000E+01
    -22.947  0.0000E+00  0.4000E+01
    -22.839  0.0000E+00  0.4000E+01
    -22.730  0.0000E+00  0.4000E+01
    -22.622  0.0000E+00  0.4000E+01
    -22.514  0.0000E+00  0.4000E+01
    -22.405  0.0000E+00  0.4000E+01
    -22.297  0.0000E+00  0.4000E+01
    -22.189  0.0000E+00  0.4000E+01
    -22.080  0.0000E+00  0.4000E+01
    -21.972  0.0000E+00  0.4000E+01
    -21.864  0.0000E+00  0.4000E+01
    -21.755  0.0000E+00  0.4000E+01
    -21.647  0.0000E+00  0.4000E+01
    -21.539  0.0000E+00  0.4000E+01
    -21.431  0.0000E+00  0.4000E+01
    -21.322  0.0000E+00  0.4000E+01
    -21.214  0.0000E+00  0.4000E+01
    -21.106  0.0000E+00  0.4000E+01
    -20.997  0.0000E+00  0.4000E+01
    -20.889  0.0000E+00  0.4000E+01
    -20.781  0.0000E+00  0.4000E+01
    -20.672  0.0000E+00  0.4000E+01
    -20.564  0.0000E+00  0.4000E+01
    -20.456  0.0000E+00  0.4000E+01
    -20.347  0.0000E+00  0.4000E+01
    -20.239  0.0000E+00  0.4000E+01
    -20.131  0.0000E+00  0.4000E+01
    -20.023  0.0000E+00  0.4000E+01
    -19.914  0.0000E+00  0.4000E+01
    -19.806  0.0000E+00  0.4000E+01
    -19.698  0.0000E+00  0.4000E+01
    -19.589  0.0000E+00  0.4000E+01
    -19.481  0.0000E+00  0.4000E+01
    -19.373  0.0000E+00  0.4000E+01
    -19.264  0.0000E+00  0.4000E+01
    -19.156  0.0000E+00  0.4000E+01
    -19.048  0.0000E+00  0.4000E+01
    -18.939  0.0000E+00  0.4000E+01
    -18.831  0.0000E+00  0.4000E+01
    -18.723  0.0000E+00  0.4000E+01
    -18.615  0.0000E+00  0.4000E+01
    -18.506  0.0000E+00  0.4000E+01
    -18.398  0.0000E+00  0.4000E+01
    -18.290  0.0000E+00  0.4000E+01
    -18.181  0.0000E+00  0.4000E+01
    -18.073  0.0000E+00  0.4000E+01
    -17.965  0.0000E+00  0.4000E+01
    -17.856  0.0000E+00  0.4000E+01
    -17.748  0.0000E+00  0.4000E+01
    -17.640  0.0000E+00  0.4000E+01
    -17.531  0.0000E+00  0.4000E+01
    -17.423  0.0000E+00  0.4000E+01
    -17.315  0.0000E+00  0.4000E+01
    -17.207  0.0000E+00  0.4000E+01
    -17.098  0.0000E+00  0.4000E+01
    -16.990  0.0000E+00  0.4000E+01
    -16.882  0.0000E+00  0.4000E+01
    -16.773  0.0000E+00  0.4000E+01
    -16.665  0.0000E+00  0.4000E+01
    -16.557  0.0000E+00  0.4000E+01
    -16.448  0.0000E+00  0.4000E+01
    -16.340  0.0000E+00  0.4000E+01
    -16.232  0.0000E+00  0.4000E+01
    -16.123  0.0000E+00  0.4000E+01
    -16.015  0.0000E+00  0.4000E+01
    -15.907  0.0000E+00  0.4000E+01
    -15.798  0.0000E+00  0.4000E+01
    -15.690  0.0000E+00  0.4000E+01
    -15.582  0.0000E+00  0.4000E+01
    -15.474  0.0000E+00  0.4000E+01
    -15.365  0.0000E+00  0.4000E+01
    -15.257  0.0000E+00  0.4000E+01
    -15.149  0.0000E+00  0.4000E+01
    -15.040  0.0000E+00  0.4000E+01
    -14.932  0.0000E+00  0.4000E+01
    -14.824  0.0000E+00  0.4000E+01
    -14.715  0.0000E+00  0.4000E+01
    -14.607  0.0000E+00  0.4000E+01
    -14.499  0.0000E+00  0.4000E+01
    -14.390  0.0000E+00  0.4000E+01
    -14.282  0.0000E+00  0.4000E+01
    -14.174  0.0000E+00  0.4000E+01
    -14.066 -0.8212E-42  0.4000E+01
    -13.957 -0.4648E-25  0.4000E+01
    -13.849 -0.1981E-12  0.4000E+01
    -13.741 -0.5961E-04  0.4000E+01
    -13.632 -0.6007E+00  0.3935E+01
    -13.524  0.1882E+02  0.5974E+01
    -13.416  0.2448E+00  0.6000E+01
    -13.307 -0.2225E-02  0.6000E+01
    -13.199 -0.1057E-09  0.6000E+01
    -13.091  0.0000E+00  0.6000E+01
    -12.982  0.0000E+00  0.6000E+01
    -12.874 -0.8217E-34  0.6000E+01
    -12.766 -0.8022E-19  0.6000E+01
    -12.658 -0.5684E-08  0.6000E+01
    -12.549 -0.2537E-01  0.5997E+01
    -12.441  0.5335E+01  0.6575E+01
    -12.333  0.5046E+02  0.1204E+02
    -12.224 -0.3736E+00  0.1200E+02
    -12.116 -0.2329E-02  0.1200E+02
    -12.008 -0.1139E-09  0.1200E+02
    -11.899  0.0000E+00  0.1200E+02
    -11.791  0.0000E+00  0.1200E+02
    -11.683  0.0000E+00  0.1200E+02
    -11.574  0.0000E+00  0.1200E+02
    -11.466  0.0000E+00  0.1200E+02
    -11.358  0.0000E+00  0.1200E+02
    -11.250  0.0000E+00  0.1200E+02
    -11.141  0.0000E+00  0.1200E+02
    -11.033  0.0000E+00  0.1200E+02
    -10.925  0.0000E+00  0.1200E+02
    -10.816  0.0000E+00  0.1200E+02
    -10.708  0.0000E+00  0.1200E+02
    -10.600  0.0000E+00  0.1200E+02
    -10.491  0.0000E+00  0.1200E+02
    -10.383  0.0000E+00  0.1200E+02
    -10.275  0.0000E+00  0.1200E+02
    -10.166  0.0000E+00  0.1200E+02
    -10.058  0.0000E+00  0.1200E+02
     -9.950  0.0000E+00  0.1200E+02
     -9.842  0.0000E+00  0.1200E+02
     -9.733  0.0000E+00  0.1200E+02
     -9.625  0.0000E+00  0.1200E+02
     -9.517  0.0000E+00  0.1200E+02
     -9.408  0.0000E+00  0.1200E+02
     -9.300 -0.8223E-33  0.1200E+02
     -9.192 -0.4589E-18  0.1200E+02
     -9.083 -0.1847E-07  0.1200E+02
     -8.975 -0.4553E-01  0.1200E+02
     -8.867  0.9062E+01  0.1298E+02
     -8.758  0.2838E+02  0.1605E+02
     -8.650 -0.4695E+00  0.1600E+02
     -8.542 -0.3996E-05  0.1600E+02
     -8.434  0.0000E+00  0.1600E+02
     -8.325  0.0000E+00  0.1600E+02
     -8.217  0.0000E+00  0.1600E+02
     -8.109  0.0000E+00  0.1600E+02
     -8.000  0.0000E+00  0.1600E+02
     -7.892  0.0000E+00  0.1600E+02
     -7.784  0.0000E+00  0.1600E+02
     -7.675  0.0000E+00  0.1600E+02
     -7.567  0.0000E+00  0.1600E+02
     -7.459  0.0000E+00  0.1600E+02
     -7.350  0.0000E+00  0.1600E+02
     -7.242  0.0000E+00  0.1600E+02
     -7.134  0.0000E+00  0.1600E+02
     -7.026  0.0000E+00  0.1600E+02
     -6.917  0.0000E+00  0.1600E+02
     -6.809  0.0000E+00  0.1600E+02
     -6.701  0.0000E+00  0.1600E+02
     -6.592  0.0000E+00  0.1600E+02
     -6.484  0.0000E+00  0.1600E+02
     -6.376  0.0000E+00  0.1600E+02
     -6.267  0.0000E+00  0.1600E+02
     -6.159  0.0000E+00  0.1600E+02
     -6.051  0.0000E+00  0.1600E+02
     -5.942  0.0000E+00  0.1600E+02
     -5.834  0.0000E+00  0.1600E+02
     -5.726  0.0000E+00  0.1600E+02
     -5.617  0.0000E+00  0.1600E+02
     -5.509  0.0000E+00  0.1600E+02
     -5.401  0.0000E+00  0.1600E+02
     -5.293  0.0000E+00  0.1600E+02
     -5.184  0.0000E+00  0.1600E+02
     -5.076  0.0000E+00  0.1600E+02
     -4.968  0.0000E+00  0.1600E+02
     -4.859  0.0000E+00  0.1600E+02
     -4.751  0.0000E+00  0.1600E+02
     -4.643  0.0000E+00  0.1600E+02
     -4.534  0.0000E+00  0.1600E+02
     -4.426  0.0000E+00  0.1600E+02
     -4.318  0.0000E+00  0.1600E+02
     -4.209  0.0000E+00  0.1600E+02
     -4.101  0.0000E+00  0.1600E+02
     -3.993  0.0000E+00  0.1600E+02
     -3.885  0.0000E+00  0.1600E+02
     -3.776  0.0000E+00  0.1600E+02
     -3.668  0.0000E+00  0.1600E+02
     -3.560  0.0000E+00  0.1600E+02
     -3.451  0.0000E+00  0.1600E+02
     -3.343  0.0000E+00  0.1600E+02
     -3.235  0.0000E+00  0.1600E+02
     -3.126  0.0000E+00  0.1600E+02
     -3.018  0.0000E+00  0.1600E+02
     -2.910  0.0000E+00  0.1600E+02
     -2.801  0.0000E+00  0.1600E+02
     -2.693  0.0000E+00  0.1600E+02
     -2.585  0.0000E+00  0.1600E+02
     -2.477  0.0000E+00  0.1600E+02
     -2.368  0.0000E+00  0.1600E+02
     -2.260  0.0000E+00  0.1600E+02
     -2.152  0.0000E+00  0.1600E+02
     -2.043  0.0000E+00  0.1600E+02
     -1.935  0.0000E+00  0.1600E+02
     -1.827  0.0000E+00  0.1600E+02
     -1.718  0.0000E+00  0.1600E+02
     -1.610  0.0000E+00  0.1600E+02
     -1.502  0.0000E+00  0.1600E+02
     -1.393 -0.1063E-40  0.1600E+02
     -1.285 -0.3429E-24  0.1600E+02
     -1.177 -0.8298E-12  0.1600E+02
     -1.069 -0.1401E-03  0.1600E+02
     -0.960 -0.6529E+00  0.1593E+02
     -0.852  0.1938E+02  0.1803E+02
     -0.744 -0.2610E+00  0.1800E+02
     -0.635 -0.1077E-02  0.1800E+02
     -0.527 -0.4009E-01  0.1800E+02
     -0.419  0.8319E+01  0.1890E+02
     -0.310  0.2916E+02  0.2206E+02
     -0.202 -0.5078E+00  0.2200E+02
     -0.094 -0.4978E-05  0.2200E+02
      0.015  0.0000E+00  0.2200E+02
      0.123 -0.7747E-37  0.2200E+02
      0.231 -0.3335E-21  0.2200E+02
      0.339 -0.1058E-09  0.2200E+02
      0.448 -0.2227E-02  0.2200E+02
      0.556  0.2454E+00  0.2203E+02
      0.664  0.1882E+02  0.2407E+02
      0.773 -0.6006E+00  0.2400E+02
      0.881 -0.5956E-04  0.2400E+02
      0.989 -0.1968E-12  0.2400E+02
      1.098  0.0000E+00  0.2400E+02
      1.206  0.0000E+00  0.2400E+02
      1.314  0.0000E+00  0.2400E+02
      1.423  0.0000E+00  0.2400E+02
      1.531  0.0000E+00  0.2400E+02
      1.639  0.0000E+00  0.2400E+02
      1.747  0.0000E+00  0.2400E+02
      1.856  0.0000E+00  0.2400E+02
      1.964  0.0000E+00  0.2400E+02
      2.072  0.0000E+00  0.2400E+02
