    3    3    1    1
  0.3333333E+03  0.1000000E-08  0.1000000E-08  0.1000000E-08  0.5000000E-15
  1.000000000000000E-004
  CAR 
 unknown system                          
   16    1   12
 
  0.0000000E+00  0.0000000E+00  0.0000000E+00  0.1000000E+01
   1      -28.943219
   2      -27.927517
   3      -13.563406
   4      -12.418539
   5      -12.418539
   6      -12.371639
   7       -8.850759
   8       -8.850759
   9       -0.897750
  10       -0.401266
  11       -0.401265
  12        0.595485
