       N       E                     dE             d eps       ncg     rms          rms(c)
DAV:   1     0.966621546463E+02    0.96662E+02   -0.49083E+03    40   0.720E+02
DAV:   2     0.177446654390E+01   -0.94888E+02   -0.89980E+02    40   0.183E+02
DAV:   3    -0.226409383340E+02   -0.24415E+02   -0.24358E+02    32   0.719E+01
DAV:   4    -0.246616735365E+02   -0.20207E+01   -0.20223E+01    32   0.196E+01
DAV:   5    -0.246784747702E+02   -0.16801E-01   -0.16696E-01    32   0.238E+00    0.841E+00
DAV:   6    -0.231152835261E+02    0.15632E+01   -0.48286E+00    28   0.207E+01    0.340E+00
DAV:   7    -0.229922429636E+02    0.12304E+00   -0.28967E-01    24   0.504E+00    0.195E+00
DAV:   8    -0.229354852498E+02    0.56758E-01   -0.23444E-01    28   0.368E+00    0.410E-01
DAV:   9    -0.229321756294E+02    0.33096E-02   -0.26000E-02    28   0.149E+00    0.262E-01
DAV:  10    -0.229327986774E+02   -0.62305E-03   -0.31747E-03    28   0.602E-01    0.554E-02
DAV:  11    -0.229361953955E+02   -0.33967E-02   -0.65162E-04    28   0.183E-01    0.218E-02
DAV:  12    -0.229378502509E+02   -0.16549E-02   -0.16355E-04    20   0.820E-02    0.211E-02
DAV:  13    -0.229399595882E+02   -0.21093E-02   -0.41540E-04    28   0.111E-01    0.121E-02
DAV:  14    -0.229403606129E+02   -0.40102E-03   -0.25298E-05    20   0.402E-02    0.631E-03
DAV:  15    -0.229407200182E+02   -0.35941E-03   -0.34087E-05    20   0.354E-02    0.314E-03
DAV:  16    -0.229407992294E+02   -0.79211E-04   -0.90361E-06    20   0.186E-02
   1 F= -.22940799E+02 E0= -.22942732E+02  d E =0.579791E-02
