 vasp.5.2.12 11Nov11 complex                                                    
  
 executed on             LinuxIFC date 2012.10.12  08:26:00
 running on    1 nodes
 distr:  one band on    1 nodes,    1 groups


--------------------------------------------------------------------------------------------------------


 INCAR:
 POTCAR:   PAW_PBE C 08Apr2002                    
 POTCAR:   PAW_PBE O 08Apr2002                    
 POTCAR:   PAW_PBE C 08Apr2002                    
   VRHFIN =C: s2p2                                                              
   LEXCH  = PE                                                                  
   EATOM  =   147.1560 eV,   10.8157 Ry                                         
                                                                                
   TITEL  = PAW_PBE C 08Apr2002                                                 
   LULTRA =        F    use ultrasoft PP ?                                      
   IUNSCR =        0    unscreen: 0-lin 1-nonlin 2-no                           
   RPACOR =     .000    partial core radius                                     
   POMASS =   12.011; ZVAL   =    4.000    mass and valenz                      
   RCORE  =    1.500    outmost cutoff radius                                   
   RWIGS  =    1.630; RWIGS  =     .863    wigner-seitz radius (au A)           
   ENMAX  =  400.000; ENMIN  =  300.000 eV                                      
   ICORE  =        2    local potential                                         
   LCOR   =        T    correct aug charges                                     
   LPAW   =        T    paw PP                                                  
   EAUG   =  644.873                                                            
   DEXC   =     .000                                                            
   RMAX   =    2.266    core radius for proj-oper                               
   RAUG   =    1.300    factor for augmentation sphere                          
   RDEP   =    1.501    radius for radial grids                                 
   RDEPT  =    1.300    core radius for aug-charge                              
   QCUT   =   -5.516; QGAM   =   11.032    optimization parameters              
                                                                                
   Description                                                                  
     l     E      TYP  RCUT    TYP  RCUT                                        
     0   .000     23  1.200                                                     
     0   .000     23  1.200                                                     
     1   .000     23  1.500                                                     
     1  2.500     23  1.500                                                     
     2   .000      7  1.500                                                     
  local pseudopotential read in
  atomic valenz-charges read in
  non local Contribution for L=           0  read in
    real space projection operators read in
  non local Contribution for L=           0  read in
    real space projection operators read in
  non local Contribution for L=           1  read in
    real space projection operators read in
  non local Contribution for L=           1  read in
    real space projection operators read in
    PAW grid and wavefunctions read in
 
   number of l-projection  operators is LMAX  =           4
   number of lm-projection operators is LMMAX =           8
 
 POTCAR:   PAW_PBE O 08Apr2002                    
   VRHFIN =O: s2p4                                                              
   LEXCH  = PE                                                                  
   EATOM  =   432.3788 eV,   31.7789 Ry                                         
                                                                                
   TITEL  = PAW_PBE O 08Apr2002                                                 
   LULTRA =        F    use ultrasoft PP ?                                      
   IUNSCR =        0    unscreen: 0-lin 1-nonlin 2-no                           
   RPACOR =     .000    partial core radius                                     
   POMASS =   16.000; ZVAL   =    6.000    mass and valenz                      
   RCORE  =    1.520    outmost cutoff radius                                   
   RWIGS  =    1.550; RWIGS  =     .820    wigner-seitz radius (au A)           
   ENMAX  =  400.000; ENMIN  =  300.000 eV                                      
   ICORE  =        2    local potential                                         
   LCOR   =        T    correct aug charges                                     
   LPAW   =        T    paw PP                                                  
   EAUG   =  605.392                                                            
   DEXC   =     .000                                                            
   RMAX   =    2.264    core radius for proj-oper                               
   RAUG   =    1.300    factor for augmentation sphere                          
   RDEP   =    1.550    radius for radial grids                                 
   QCUT   =   -5.520; QGAM   =   11.041    optimization parameters              
                                                                                
   Description                                                                  
     l     E      TYP  RCUT    TYP  RCUT                                        
     0   .000     23  1.200                                                     
     0  -.700     23  1.200                                                     
     1   .000     23  1.520                                                     
     1   .600     23  1.520                                                     
     2   .000      7  1.500                                                     
  local pseudopotential read in
  atomic valenz-charges read in
  non local Contribution for L=           0  read in
    real space projection operators read in
  non local Contribution for L=           0  read in
    real space projection operators read in
  non local Contribution for L=           1  read in
    real space projection operators read in
  non local Contribution for L=           1  read in
    real space projection operators read in
    PAW grid and wavefunctions read in
 
   number of l-projection  operators is LMAX  =           4
   number of lm-projection operators is LMMAX =           8
 
 PAW_PBE C 08Apr2002                    :
 energy of atom  1       EATOM= -147.1560
 kinetic energy error for atom=    0.0076 (will be added to EATOM!!)
 PAW_PBE O 08Apr2002                    :
 energy of atom  2       EATOM= -432.3788
 kinetic energy error for atom=    0.0224 (will be added to EATOM!!)
 
 
 POSCAR:  C  O                                   
  positions in cartesian coordinates
  No initial velocities read in
 exchange correlation table for  LEXCH =        8
   RHO(1)=    0.500       N(1)  =     2000
   RHO(2)=  100.500       N(2)  =     4000
 


--------------------------------------------------------------------------------------------------------


 ion  position               nearest neighbor table
   1  0.500  0.500  0.500-   2 1.18   3 1.18
   2  0.382  0.500  0.500-   1 1.18
   3  0.618  0.500  0.500-   1 1.18
 
  LATTYP: Found a simple cubic cell.
 ALAT       =    10.0000000000
  
  Lattice vectors:
  
 A1 = (  10.0000000000,   0.0000000000,   0.0000000000)
 A2 = (   0.0000000000,  10.0000000000,   0.0000000000)
 A3 = (   0.0000000000,   0.0000000000,  10.0000000000)
 Subroutine PRICEL returns:
 Original cell was already a primitive cell.
 

Analysis of symmetry for initial positions (statically):

 Routine SETGRP: Setting up the symmetry group for a 
 simple cubic supercell.


 Subroutine GETGRP returns: Found 16 space group operations
 (whereof 16 operations were pure point group operations)
 out of a pool of 48 trial point group operations.


The static configuration has the point symmetry D_4h.

Analysis of symmetry for dynamics (positions and initial velocities):

 Subroutine DYNSYM returns: Found 16 space group operations
 (whereof 16 operations were pure point group operations)
 out of a pool of 16 trial space group operations
 (whereof 16 operations were pure point group operations)
 and found also     1 'primitive' translations


The dynamic configuration has the point symmetry D_4h.
 
 
 KPOINTS: KPOINTS created by Atomic Simulation Env

Automatic generation of k-mesh.
 
 Subroutine IBZKPT returns following result:
 ===========================================
 
 Found      1 irreducible k-points:
 
 Following reciprocal coordinates:
            Coordinates               Weight
  0.000000  0.000000  0.000000      1.000000
 
 Following cartesian coordinates:
            Coordinates               Weight
  0.000000  0.000000  0.000000      1.000000
 


--------------------------------------------------------------------------------------------------------




 Dimension of arrays:
   k-points           NKPTS =      1   k-points in BZ     NKDIM =      1   number of bands    NBANDS=     12
   number of dos      NEDOS =    301   number of ions     NIONS =      3
   non local maximal  LDIM  =      4   non local SUM 2l+1 LMDIM =      8
   total plane-waves  NPLWV = 512000
   max r-space proj   IRMAX =      1   max aug-charges    IRDMAX=   6841
   dimension x,y,z NGX =    80 NGY =   80 NGZ =   80
   dimension x,y,z NGXF=   160 NGYF=  160 NGZF=  160
   support grid    NGXF=   160 NGYF=  160 NGZF=  160
   ions per type =               1   2
 NGX,Y,Z   is equivalent  to a cutoff of  13.30, 13.30, 13.30 a.u.
 NGXF,Y,Z  is equivalent  to a cutoff of  26.60, 26.60, 26.60 a.u.


 I would recommend the setting:
   dimension x,y,z NGX =    73 NGY =   73 NGZ =   73
 SYSTEM =  unknown system                          
 POSCAR =   C  O                                   

 Startparameter for this run:
   NWRITE =      2    write-flag & timer
   PREC   = accura    normal or accurate (medium, high low for compatibility)
   ISTART =      0    job   : 0-new  1-cont  2-samecut
   ICHARG =      2    charge: 1-file 2-atom 10-const
   ISPIN  =      1    spin polarized calculation?
   LNONCOLLINEAR =      F non collinear calculations
   LSORBIT =      F    spin-orbit coupling
   INIWAV =      1    electr: 0-lowe 1-rand  2-diag
   LASPH  =      F    aspherical Exc in radial PAW
   METAGGA=      F    non-selfconsistent MetaGGA calc.

 Electronic Relaxation 1
   ENCUT  =  500.0 eV  36.75 Ry    6.06 a.u.  18.23 18.23 18.23*2*pi/ulx,y,z
   ENINI  =  500.0     initial cutoff
   ENAUG  =  644.9 eV  augmentation charge cutoff
   NELM   =     60;   NELMIN=  2; NELMDL= -5     # of ELM steps 
   EDIFF  = 0.1E-03   stopping-criterion for ELM
   LREAL  =      F    real-space projection
   NLSPLINE    = F    spline interpolate recip. space projectors
   LCOMPAT=      F    compatible to vasp.4.4
   GGA_COMPAT  = T    GGA compatible to vasp.4.4-vasp.4.6
   LMAXPAW     = -100 max onsite density
   LMAXMIX     =    2 max onsite mixed and CHGCAR
   VOSKOWN=      0    Vosko Wilk Nusair interpolation
   ROPT   =    0.00000   0.00000
 Ionic relaxation
   EDIFFG = 0.1E-02   stopping-criterion for IOM
   NSW    =      0    number of steps for IOM
   NBLOCK =      1;   KBLOCK =      1    inner block; outer block 
   IBRION =     -1    ionic relax: 0-MD 1-quasi-New 2-CG
   NFREE  =      0    steps in history (QN), initial steepest desc. (CG)
   ISIF   =      2    stress and relaxation
   IWAVPR =     10    prediction:  0-non 1-charg 2-wave 3-comb
   ISYM   =      2    0-nonsym 1-usesym 2-fastsym
   LCORR  =      T    Harris-Foulkes like correction to forces

   POTIM  = 0.5000    time-step for ionic-motion
   TEIN   =    0.0    initial temperature
   TEBEG  =    0.0;   TEEND  =   0.0 temperature during run
   SMASS  =  -3.00    Nose mass-parameter (am)
   estimated Nose-frequenzy (Omega)   =  0.10E-29 period in steps =****** mass=  -0.229E-26a.u.
   SCALEE = 1.0000    scale energy and forces
   NPACO  =    256;   APACO  = 16.0  distance and # of slots for P.C.
   PSTRESS=    0.0 pullay stress

  Mass of Ions in am
   POMASS =  12.01 16.00
  Ionic Valenz
   ZVAL   =   4.00  6.00
  Atomic Wigner-Seitz radii
   RWIGS  =  -1.00 -1.00
  virtual crystal weights 
   VCA    =   1.00  1.00
   NELECT =      16.0000    total number of electrons
   NUPDOWN=      -1.0000    fix difference up-down

 DOS related values:
   EMIN   =  10.00;   EMAX   =-10.00  energy-range for DOS
   EFERMI =   0.00
   ISMEAR =     1;   SIGMA  =   0.05  broadening in eV -4-tet -1-fermi 0-gaus

 Electronic relaxation 2 (details)
   IALGO  =     38    algorithm
   LDIAG  =      T    sub-space diagonalisation (order eigenvalues)
   LSUBROT=      T    optimize rotation matrix (better conditioning)
   TURBO    =      0    0=normal 1=particle mesh
   IRESTART =      0    0=no restart 2=restart with 2 vectors
   NREBOOT  =      0    no. of reboots
   NMIN     =      0    reboot dimension
   EREF     =   0.00    reference energy to select bands
   IMIX   =      4    mixing-type and parameters
     AMIX     =   0.40;   BMIX     =  1.00
     AMIX_MAG =   1.60;   BMIX_MAG =  1.00
     AMIN     =   0.10
     WC   =   100.;   INIMIX=   1;  MIXPRE=   1

 Intra band minimization:
   WEIMIN = 0.0000     energy-eigenvalue tresh-hold
   EBREAK =  0.21E-05  absolut break condition
   DEPER  =   0.30     relativ break condition  

   TIME   =   0.40     timestep for ELM

  volume/ion in A,a.u.               =     333.33      2249.44
  Fermi-wavevector in a.u.,A,eV,Ry     =   0.412523  0.779555  2.315374  0.170175
  Thomas-Fermi vector in A             =   1.369550
 
 Write flags
   LWAVE  =      T    write WAVECAR
   LCHARG =      T    write CHGCAR
   LVTOT  =      F    write LOCPOT, total local potential
   LVHAR  =      F    write LOCPOT, Hartree potential only
   LELF   =      F    write electronic localiz. function (ELF)
   LORBIT =      0    0 simple, 1 ext, 2 COOP (PROOUT)


 Dipole corrections
   LMONO  =      F    monopole corrections only (constant potential shift)
   LDIPOL =      F    correct potential (dipole corrections)
   IDIPOL =      0    1-x, 2-y, 3-z, 4-all directions 
   EPSILON=  1.0000000 bulk dielectric constant

 Exchange correlation treatment:
   GGA     =    --    GGA type
   LEXCH   =     8    internal setting for exchange type
   VOSKOWN=      0    Vosko Wilk Nusair interpolation
   LHFCALC =     F    Hartree Fock is set to
   LHFONE  =     F    Hartree Fock one center treatment
   AEXX    =    0.0000 exact exchange contribution

 Linear response parameters
   LEPSILON=     F    determine dielectric tensor
   LRPA    =     F    only Hartree local field effects (RPA)
   LNABLA  =     F    use nabla operator in PAW spheres
   LVEL    =     F    velocity operator in full k-point grid
   LINTERFAST=   F  fast interpolation
   KINTER  =     0    interpolate to denser k-point grid
   CSHIFT  =0.1000    complex shift for real part using Kramers Kronig
   OMEGAMAX=  -1.0    maximum frequency
   RTIME   =    0.100 relaxation time in fs

 Orbital magnetization related:
   ORBITALMAG=     F  switch on orbital magnetization
   LCHIMAG   =     F  perturbation theory with respect to B field
   DQ        =  0.001000  dq finite difference perturbation B field



--------------------------------------------------------------------------------------------------------


 Static calculation
 charge density and potential will be updated during run
 non-spin polarized calculation
 Variant of blocked Davidson
 Davidson routine will perform the subspace rotation
 perform sub-space diagonalisation
    after iterative eigenvector-optimisation
 modified Broyden-mixing scheme, WC =      100.0
 initial mixing is a Kerker type mixing with AMIX =  0.4000 and BMIX =      1.0000
 Hartree-type preconditioning will be used
 using additional bands            4
 reciprocal scheme for non local part
 calculate Harris-corrections to forces 
   (improved forces if not selfconsistent)
 use gradient corrections 
 use of overlap-Matrix (Vanderbilt PP)
 Methfessel and Paxton  Order N= 1 SIGMA  =   0.05


--------------------------------------------------------------------------------------------------------


  energy-cutoff  :      500.00
  volume of cell :     1000.00
      direct lattice vectors                 reciprocal lattice vectors
    10.000000000  0.000000000  0.000000000     0.100000000  0.000000000  0.000000000
     0.000000000 10.000000000  0.000000000     0.000000000  0.100000000  0.000000000
     0.000000000  0.000000000 10.000000000     0.000000000  0.000000000  0.100000000

  length of vectors
    10.000000000 10.000000000 10.000000000     0.100000000  0.100000000  0.100000000


 
 k-points in units of 2pi/SCALE and weight: KPOINTS created by Atomic Simulation Env
   0.00000000  0.00000000  0.00000000       1.000
 
 k-points in reciprocal lattice and weights: KPOINTS created by Atomic Simulation Env
   0.00000000  0.00000000  0.00000000       1.000
 
 position of ions in fractional coordinates (direct lattice) 
   0.50000000  0.50000000  0.50000000
   0.38233100  0.50000000  0.50000000
   0.61766900  0.50000000  0.50000000
 
 position of ions in cartesian coordinates  (Angst):
   5.00000000  5.00000000  5.00000000
   3.82331002  5.00000000  5.00000000
   6.17668998  5.00000000  5.00000000
 


--------------------------------------------------------------------------------------------------------


 k-point  1 :  0.00000.00000.0000  plane waves:   25413

 maximum and minimum number of plane-waves per node :     25413    25413

 maximum number of plane-waves:     25413
 maximum index in each direction: 
   IXMAX=   18   IYMAX=   18   IZMAX=   18
   IXMIN=  -18   IYMIN=  -18   IZMIN=  -18

 NGX is ok and might be reduce to  74
 NGY is ok and might be reduce to  74
 NGZ is ok and might be reduce to  74

 serial   3D FFT for wavefunctions
 parallel 3D FFT for charge:
    minimum data exchange during FFTs selected (reduces bandwidth)


 total amount of memory used by VASP on root node   432470. kBytes
========================================================================

   base      :      30000. kBytes
   nonl-proj :       4472. kBytes
   fftplans  :     141100. kBytes
   grid      :     252006. kBytes
   one-center:          9. kBytes
   wavefun   :       4883. kBytes
 
 Broyden mixing: mesh for mixing (old mesh)
   NGX = 37   NGY = 37   NGZ = 37
  (NGX  =160   NGY  =160   NGZ  =160)
  gives a total of  50653 points

 initial charge density was supplied:
 charge density of overlapping atoms calculated
 number of electron      16.0000000 magnetization 
 keeping initial charge density in first step


--------------------------------------------------------------------------------------------------------


 Maximum index for augmentation-charges         6455 (set IRDMAX)


--------------------------------------------------------------------------------------------------------


 First call to EWALD:  gamma=   0.177
 Maximum number of real-space cells 3x 3x 3
 Maximum number of reciprocal cells 3x 3x 3

    FEWALD:  cpu time    0.00: real time    0.00


----------------------------------------- Iteration    1(   1)  ---------------------------------------


    POTLOK:  cpu time    9.49: real time   11.48
    SETDIJ:  cpu time    0.01: real time    0.01
     EDDAV:  cpu time    8.40: real time    9.93
       DOS:  cpu time    0.00: real time    0.00
    --------------------------------------------
      LOOP:  cpu time   17.90: real time   21.63

 eigenvalue-minimisations  :    40
 total energy-change (2. order) : 0.9666215E+02  (-0.4908322E+03)
 number of electron      16.0000000 magnetization 
 augmentation part       16.0000000 magnetization 

 Free energy of the ion-electron system (eV)
  ---------------------------------------------------
  alpha Z        PSCENC =         1.06689490
  Ewald energy   TEWEN  =       293.27422487
  -1/2 Hartree   DENC   =     -1104.65589037
  -exchange  EXHF       =         0.00000000
  -V(xc)+E(xc)   XCENC  =        68.22305869
  PAW double counting   =       529.82824833     -534.67809926
  entropy T*S    EENTRO =         0.00289895
  eigenvalues    EBANDS =      -168.26047233
  atomic energy  EATOM  =      1011.86129086
  ---------------------------------------------------
  free energy    TOTEN  =        96.66215465 eV

  energy without entropy =       96.65925569  energy(sigma->0) =       96.66118833


--------------------------------------------------------------------------------------------------------




----------------------------------------- Iteration    1(   2)  ---------------------------------------


     EDDAV:  cpu time    9.15: real time   10.38
       DOS:  cpu time    0.00: real time    0.00
    --------------------------------------------
      LOOP:  cpu time    9.15: real time   10.40

 eigenvalue-minimisations  :    40
 total energy-change (2. order) :-0.9488769E+02  (-0.8997997E+02)
 number of electron      16.0000000 magnetization 
 augmentation part       16.0000000 magnetization 

 Free energy of the ion-electron system (eV)
  ---------------------------------------------------
  alpha Z        PSCENC =         1.06689490
  Ewald energy   TEWEN  =       293.27422487
  -1/2 Hartree   DENC   =     -1104.65589037
  -exchange  EXHF       =         0.00000000
  -V(xc)+E(xc)   XCENC  =        68.22305869
  PAW double counting   =       529.82824833     -534.67809926
  entropy T*S    EENTRO =         0.00289895
  eigenvalues    EBANDS =      -263.14816043
  atomic energy  EATOM  =      1011.86129086
  ---------------------------------------------------
  free energy    TOTEN  =         1.77446654 eV

  energy without entropy =        1.77156759  energy(sigma->0) =        1.77350023


--------------------------------------------------------------------------------------------------------




----------------------------------------- Iteration    1(   3)  ---------------------------------------


     EDDAV:  cpu time    8.06: real time    8.53
       DOS:  cpu time    0.00: real time    0.00
    --------------------------------------------
      LOOP:  cpu time    8.06: real time    8.57

 eigenvalue-minimisations  :    32
 total energy-change (2. order) :-0.2441540E+02  (-0.2435753E+02)
 number of electron      16.0000000 magnetization 
 augmentation part       16.0000000 magnetization 

 Free energy of the ion-electron system (eV)
  ---------------------------------------------------
  alpha Z        PSCENC =         1.06689490
  Ewald energy   TEWEN  =       293.27422487
  -1/2 Hartree   DENC   =     -1104.65589037
  -exchange  EXHF       =         0.00000000
  -V(xc)+E(xc)   XCENC  =        68.22305869
  PAW double counting   =       529.82824833     -534.67809926
  entropy T*S    EENTRO =         0.00289895
  eigenvalues    EBANDS =      -287.56356531
  atomic energy  EATOM  =      1011.86129086
  ---------------------------------------------------
  free energy    TOTEN  =       -22.64093833 eV

  energy without entropy =      -22.64383729  energy(sigma->0) =      -22.64190465


--------------------------------------------------------------------------------------------------------




----------------------------------------- Iteration    1(   4)  ---------------------------------------


     EDDAV:  cpu time    6.83: real time    8.16
       DOS:  cpu time    0.00: real time    0.00
    --------------------------------------------
      LOOP:  cpu time    6.83: real time    8.18

 eigenvalue-minimisations  :    32
 total energy-change (2. order) :-0.2020735E+01  (-0.2022344E+01)
 number of electron      16.0000000 magnetization 
 augmentation part       16.0000000 magnetization 

 Free energy of the ion-electron system (eV)
  ---------------------------------------------------
  alpha Z        PSCENC =         1.06689490
  Ewald energy   TEWEN  =       293.27422487
  -1/2 Hartree   DENC   =     -1104.65589037
  -exchange  EXHF       =         0.00000000
  -V(xc)+E(xc)   XCENC  =        68.22305869
  PAW double counting   =       529.82824833     -534.67809926
  entropy T*S    EENTRO =         0.00587154
  eigenvalues    EBANDS =      -289.58727310
  atomic energy  EATOM  =      1011.86129086
  ---------------------------------------------------
  free energy    TOTEN  =       -24.66167354 eV

  energy without entropy =      -24.66754508  energy(sigma->0) =      -24.66363072


--------------------------------------------------------------------------------------------------------




----------------------------------------- Iteration    1(   5)  ---------------------------------------


     EDDAV:  cpu time    7.54: real time    9.28
       DOS:  cpu time    0.00: real time    0.00
    CHARGE:  cpu time    1.64: real time    1.95
    MIXING:  cpu time    0.25: real time    0.25
    --------------------------------------------
      LOOP:  cpu time    9.43: real time   11.57

 eigenvalue-minimisations  :    32
 total energy-change (2. order) :-0.1680123E-01  (-0.1669623E-01)
 number of electron      16.0000001 magnetization 
 augmentation part        1.5172473 magnetization 

 Broyden mixing:
  rms(total) = 0.84059E+00    rms(broyden)= 0.83968E+00
  rms(prec ) = 0.10806E+01
  weight for this iteration     100.00

 Free energy of the ion-electron system (eV)
  ---------------------------------------------------
  alpha Z        PSCENC =         1.06689490
  Ewald energy   TEWEN  =       293.27422487
  -1/2 Hartree   DENC   =     -1104.65589037
  -exchange  EXHF       =         0.00000000
  -V(xc)+E(xc)   XCENC  =        68.22305869
  PAW double counting   =       529.82824833     -534.67809926
  entropy T*S    EENTRO =         0.00579795
  eigenvalues    EBANDS =      -289.60400075
  atomic energy  EATOM  =      1011.86129086
  ---------------------------------------------------
  free energy    TOTEN  =       -24.67847477 eV

  energy without entropy =      -24.68427272  energy(sigma->0) =      -24.68040742


--------------------------------------------------------------------------------------------------------




----------------------------------------- Iteration    1(   6)  ---------------------------------------


    POTLOK:  cpu time    9.20: real time   11.29
    SETDIJ:  cpu time    0.01: real time    0.01
     EDDAV:  cpu time    6.83: real time    8.20
       DOS:  cpu time    0.00: real time    0.00
    CHARGE:  cpu time    1.64: real time    2.04
    MIXING:  cpu time    0.28: real time    0.28
    --------------------------------------------
      LOOP:  cpu time   17.97: real time   21.86

 eigenvalue-minimisations  :    28
 total energy-change (2. order) : 0.1563191E+01  (-0.4828567E+00)
 number of electron      16.0000001 magnetization 
 augmentation part        1.3312968 magnetization 

 Broyden mixing:
  rms(total) = 0.33986E+00    rms(broyden)= 0.33963E+00
  rms(prec ) = 0.39847E+00
  weight for this iteration     100.00

 eigenvalues of (default mixing * dielectric matrix)
  average eigenvalue GAMMA=   0.9376
  0.9376

 Free energy of the ion-electron system (eV)
  ---------------------------------------------------
  alpha Z        PSCENC =         1.06689490
  Ewald energy   TEWEN  =       293.27422487
  -1/2 Hartree   DENC   =     -1130.75412564
  -exchange  EXHF       =         0.00000000
  -V(xc)+E(xc)   XCENC  =        69.79864390
  PAW double counting   =       618.74278158     -624.02322504
  entropy T*S    EENTRO =         0.00579791
  eigenvalues    EBANDS =      -263.08756686
  atomic energy  EATOM  =      1011.86129086
  ---------------------------------------------------
  free energy    TOTEN  =       -23.11528353 eV

  energy without entropy =      -23.12108143  energy(sigma->0) =      -23.11721616


--------------------------------------------------------------------------------------------------------




----------------------------------------- Iteration    1(   7)  ---------------------------------------


    POTLOK:  cpu time    9.68: real time   11.81
    SETDIJ:  cpu time    0.01: real time    0.01
     EDDAV:  cpu time    5.68: real time    6.18
       DOS:  cpu time    0.00: real time    0.00
    CHARGE:  cpu time    1.82: real time    1.82
    MIXING:  cpu time    0.24: real time    0.25
    --------------------------------------------
      LOOP:  cpu time   17.43: real time   20.13

 eigenvalue-minimisations  :    24
 total energy-change (2. order) : 0.1230406E+00  (-0.2896689E-01)
 number of electron      16.0000001 magnetization 
 augmentation part        1.3462175 magnetization 

 Broyden mixing:
  rms(total) = 0.19460E+00    rms(broyden)= 0.19460E+00
  rms(prec ) = 0.22975E+00
  weight for this iteration     100.00

 eigenvalues of (default mixing * dielectric matrix)
  average eigenvalue GAMMA=   1.6113
  0.9322  2.2905

 Free energy of the ion-electron system (eV)
  ---------------------------------------------------
  alpha Z        PSCENC =         1.06689490
  Ewald energy   TEWEN  =       293.27422487
  -1/2 Hartree   DENC   =     -1135.23706219
  -exchange  EXHF       =         0.00000000
  -V(xc)+E(xc)   XCENC  =        69.97745518
  PAW double counting   =       646.06686204     -651.30246580
  entropy T*S    EENTRO =         0.00579791
  eigenvalues    EBANDS =      -258.70524072
  atomic energy  EATOM  =      1011.86129086
  ---------------------------------------------------
  free energy    TOTEN  =       -22.99224296 eV

  energy without entropy =      -22.99804087  energy(sigma->0) =      -22.99417560


--------------------------------------------------------------------------------------------------------




----------------------------------------- Iteration    1(   8)  ---------------------------------------


    POTLOK:  cpu time   10.20: real time   12.71
    SETDIJ:  cpu time    0.03: real time    0.04
     EDDAV:  cpu time    6.04: real time    7.18
       DOS:  cpu time    0.00: real time    0.00
    CHARGE:  cpu time    1.89: real time    2.06
    MIXING:  cpu time    0.25: real time    0.25
    --------------------------------------------
      LOOP:  cpu time   18.42: real time   22.28

 eigenvalue-minimisations  :    28
 total energy-change (2. order) : 0.5675771E-01  (-0.2344384E-01)
 number of electron      16.0000001 magnetization 
 augmentation part        1.3400189 magnetization 

 Broyden mixing:
  rms(total) = 0.41022E-01    rms(broyden)= 0.40997E-01
  rms(prec ) = 0.60741E-01
  weight for this iteration     100.00

 eigenvalues of (default mixing * dielectric matrix)
  average eigenvalue GAMMA=   1.4365
  2.1002  0.9416  1.2676

 Free energy of the ion-electron system (eV)
  ---------------------------------------------------
  alpha Z        PSCENC =         1.06689490
  Ewald energy   TEWEN  =       293.27422487
  -1/2 Hartree   DENC   =     -1143.02373138
  -exchange  EXHF       =         0.00000000
  -V(xc)+E(xc)   XCENC  =        70.36704351
  PAW double counting   =       692.03403765     -697.27745582
  entropy T*S    EENTRO =         0.00579791
  eigenvalues    EBANDS =      -251.24358775
  atomic energy  EATOM  =      1011.86129086
  ---------------------------------------------------
  free energy    TOTEN  =       -22.93548525 eV

  energy without entropy =      -22.94128316  energy(sigma->0) =      -22.93741788


--------------------------------------------------------------------------------------------------------




----------------------------------------- Iteration    1(   9)  ---------------------------------------


    POTLOK:  cpu time    9.25: real time   10.32
    SETDIJ:  cpu time    0.01: real time    0.01
     EDDAV:  cpu time    6.56: real time    7.60
       DOS:  cpu time    0.00: real time    0.00
    CHARGE:  cpu time    1.74: real time    2.49
    MIXING:  cpu time    0.25: real time    0.30
    --------------------------------------------
      LOOP:  cpu time   17.82: real time   20.73

 eigenvalue-minimisations  :    28
 total energy-change (2. order) : 0.3309620E-02  (-0.2600006E-02)
 number of electron      16.0000001 magnetization 
 augmentation part        1.3325126 magnetization 

 Broyden mixing:
  rms(total) = 0.26184E-01    rms(broyden)= 0.26179E-01
  rms(prec ) = 0.34759E-01
  weight for this iteration     100.00

 eigenvalues of (default mixing * dielectric matrix)
  average eigenvalue GAMMA=   1.4781
  2.4636  1.4172  1.0159  1.0159

 Free energy of the ion-electron system (eV)
  ---------------------------------------------------
  alpha Z        PSCENC =         1.06689490
  Ewald energy   TEWEN  =       293.27422487
  -1/2 Hartree   DENC   =     -1142.36826048
  -exchange  EXHF       =         0.00000000
  -V(xc)+E(xc)   XCENC  =        70.33722594
  PAW double counting   =       690.20514173     -695.42453892
  entropy T*S    EENTRO =         0.00579791
  eigenvalues    EBANDS =      -251.88995244
  atomic energy  EATOM  =      1011.86129086
  ---------------------------------------------------
  free energy    TOTEN  =       -22.93217563 eV

  energy without entropy =      -22.93797353  energy(sigma->0) =      -22.93410826


--------------------------------------------------------------------------------------------------------




----------------------------------------- Iteration    1(  10)  ---------------------------------------


    POTLOK:  cpu time    8.47: real time   10.70
    SETDIJ:  cpu time    0.01: real time    0.01
     EDDAV:  cpu time    6.08: real time    6.72
       DOS:  cpu time    0.00: real time    0.00
    CHARGE:  cpu time    1.61: real time    2.06
    MIXING:  cpu time    0.26: real time    0.27
    --------------------------------------------
      LOOP:  cpu time   16.43: real time   19.80

 eigenvalue-minimisations  :    28
 total energy-change (2. order) :-0.6230480E-03  (-0.3174679E-03)
 number of electron      16.0000001 magnetization 
 augmentation part        1.3357796 magnetization 

 Broyden mixing:
  rms(total) = 0.55365E-02    rms(broyden)= 0.55342E-02
  rms(prec ) = 0.13737E-01
  weight for this iteration     100.00

 eigenvalues of (default mixing * dielectric matrix)
  average eigenvalue GAMMA=   1.5557
  2.3081  2.0190  0.9639  0.9639  1.5235

 Free energy of the ion-electron system (eV)
  ---------------------------------------------------
  alpha Z        PSCENC =         1.06689490
  Ewald energy   TEWEN  =       293.27422487
  -1/2 Hartree   DENC   =     -1142.78835483
  -exchange  EXHF       =         0.00000000
  -V(xc)+E(xc)   XCENC  =        70.34644420
  PAW double counting   =       693.10221688     -698.29870252
  entropy T*S    EENTRO =         0.00579791
  eigenvalues    EBANDS =      -251.50261094
  atomic energy  EATOM  =      1011.86129086
  ---------------------------------------------------
  free energy    TOTEN  =       -22.93279868 eV

  energy without entropy =      -22.93859658  energy(sigma->0) =      -22.93473131


--------------------------------------------------------------------------------------------------------




----------------------------------------- Iteration    1(  11)  ---------------------------------------


    POTLOK:  cpu time    9.12: real time   10.63
    SETDIJ:  cpu time    0.01: real time    0.01
     EDDAV:  cpu time    7.05: real time    7.13
       DOS:  cpu time    0.00: real time    0.00
    CHARGE:  cpu time    1.66: real time    1.66
    MIXING:  cpu time    0.42: real time    0.45
    --------------------------------------------
      LOOP:  cpu time   18.27: real time   19.91

 eigenvalue-minimisations  :    28
 total energy-change (2. order) :-0.3396718E-02  (-0.6516207E-04)
 number of electron      16.0000001 magnetization 
 augmentation part        1.3350782 magnetization 

 Broyden mixing:
  rms(total) = 0.21773E-02    rms(broyden)= 0.21769E-02
  rms(prec ) = 0.73743E-02
  weight for this iteration     100.00

 eigenvalues of (default mixing * dielectric matrix)
  average eigenvalue GAMMA=   1.6584
  3.0753  2.4871  1.4958  0.9659  0.9659  0.9602

 Free energy of the ion-electron system (eV)
  ---------------------------------------------------
  alpha Z        PSCENC =         1.06689490
  Ewald energy   TEWEN  =       293.27422487
  -1/2 Hartree   DENC   =     -1143.31930425
  -exchange  EXHF       =         0.00000000
  -V(xc)+E(xc)   XCENC  =        70.35963703
  PAW double counting   =       691.98498353     -697.17316729
  entropy T*S    EENTRO =         0.00579791
  eigenvalues    EBANDS =      -250.99655296
  atomic energy  EATOM  =      1011.86129086
  ---------------------------------------------------
  free energy    TOTEN  =       -22.93619540 eV

  energy without entropy =      -22.94199330  energy(sigma->0) =      -22.93812803


--------------------------------------------------------------------------------------------------------




----------------------------------------- Iteration    1(  12)  ---------------------------------------


    POTLOK:  cpu time    9.15: real time   10.68
    SETDIJ:  cpu time    0.01: real time    0.01
     EDDAV:  cpu time    4.78: real time    5.48
       DOS:  cpu time    0.00: real time    0.00
    CHARGE:  cpu time    1.84: real time    2.02
    MIXING:  cpu time    0.26: real time    0.35
    --------------------------------------------
      LOOP:  cpu time   16.04: real time   18.57

 eigenvalue-minimisations  :    20
 total energy-change (2. order) :-0.1654855E-02  (-0.1635502E-04)
 number of electron      16.0000001 magnetization 
 augmentation part        1.3350721 magnetization 

 Broyden mixing:
  rms(total) = 0.21148E-02    rms(broyden)= 0.21148E-02
  rms(prec ) = 0.50843E-02
  weight for this iteration     100.00

 eigenvalues of (default mixing * dielectric matrix)
  average eigenvalue GAMMA=   1.9015
  3.9003  2.4833  2.4833  1.5321  0.9649  0.9649  0.9817

 Free energy of the ion-electron system (eV)
  ---------------------------------------------------
  alpha Z        PSCENC =         1.06689490
  Ewald energy   TEWEN  =       293.27422487
  -1/2 Hartree   DENC   =     -1143.54158613
  -exchange  EXHF       =         0.00000000
  -V(xc)+E(xc)   XCENC  =        70.36307073
  PAW double counting   =       691.67548809     -696.86013908
  entropy T*S    EENTRO =         0.00579791
  eigenvalues    EBANDS =      -250.78289238
  atomic energy  EATOM  =      1011.86129086
  ---------------------------------------------------
  free energy    TOTEN  =       -22.93785025 eV

  energy without entropy =      -22.94364816  energy(sigma->0) =      -22.93978289


--------------------------------------------------------------------------------------------------------




----------------------------------------- Iteration    1(  13)  ---------------------------------------


    POTLOK:  cpu time    8.25: real time    9.41
    SETDIJ:  cpu time    0.01: real time    0.01
     EDDAV:  cpu time    6.28: real time    7.37
       DOS:  cpu time    0.00: real time    0.00
    CHARGE:  cpu time    1.92: real time    2.11
    MIXING:  cpu time    0.31: real time    0.31
    --------------------------------------------
      LOOP:  cpu time   16.77: real time   19.24

 eigenvalue-minimisations  :    28
 total energy-change (2. order) :-0.2109337E-02  (-0.4154013E-04)
 number of electron      16.0000001 magnetization 
 augmentation part        1.3350849 magnetization 

 Broyden mixing:
  rms(total) = 0.12131E-02    rms(broyden)= 0.12130E-02
  rms(prec ) = 0.20511E-02
  weight for this iteration     100.00

 eigenvalues of (default mixing * dielectric matrix)
  average eigenvalue GAMMA=   2.0653
  5.5506  2.8020  2.2875  1.4768  1.4768  0.9621  0.9621  1.0049

 Free energy of the ion-electron system (eV)
  ---------------------------------------------------
  alpha Z        PSCENC =         1.06689490
  Ewald energy   TEWEN  =       293.27422487
  -1/2 Hartree   DENC   =     -1143.65213218
  -exchange  EXHF       =         0.00000000
  -V(xc)+E(xc)   XCENC  =        70.36112238
  PAW double counting   =       692.01414959     -697.20286994
  entropy T*S    EENTRO =         0.00579791
  eigenvalues    EBANDS =      -250.66843797
  atomic energy  EATOM  =      1011.86129086
  ---------------------------------------------------
  free energy    TOTEN  =       -22.93995959 eV

  energy without entropy =      -22.94575749  energy(sigma->0) =      -22.94189222


--------------------------------------------------------------------------------------------------------




----------------------------------------- Iteration    1(  14)  ---------------------------------------


    POTLOK:  cpu time    9.29: real time   10.73
    SETDIJ:  cpu time    0.01: real time    0.01
     EDDAV:  cpu time    5.12: real time    6.02
       DOS:  cpu time    0.00: real time    0.00
    CHARGE:  cpu time    1.74: real time    2.22
    MIXING:  cpu time    0.33: real time    0.43
    --------------------------------------------
      LOOP:  cpu time   16.49: real time   19.43

 eigenvalue-minimisations  :    20
 total energy-change (2. order) :-0.4010247E-03  (-0.2529846E-05)
 number of electron      16.0000001 magnetization 
 augmentation part        1.3350830 magnetization 

 Broyden mixing:
  rms(total) = 0.63088E-03    rms(broyden)= 0.63083E-03
  rms(prec ) = 0.11842E-02
  weight for this iteration     100.00

 eigenvalues of (default mixing * dielectric matrix)
  average eigenvalue GAMMA=   2.2879
  7.0080  3.3418  2.4103  2.4103  1.4987  0.9631  0.9631  0.9982  0.9982

 Free energy of the ion-electron system (eV)
  ---------------------------------------------------
  alpha Z        PSCENC =         1.06689490
  Ewald energy   TEWEN  =       293.27422487
  -1/2 Hartree   DENC   =     -1143.67554911
  -exchange  EXHF       =         0.00000000
  -V(xc)+E(xc)   XCENC  =        70.36066870
  PAW double counting   =       691.82122730     -697.00943784
  entropy T*S    EENTRO =         0.00579791
  eigenvalues    EBANDS =      -250.64547820
  atomic energy  EATOM  =      1011.86129086
  ---------------------------------------------------
  free energy    TOTEN  =       -22.94036061 eV

  energy without entropy =      -22.94615852  energy(sigma->0) =      -22.94229325


--------------------------------------------------------------------------------------------------------




----------------------------------------- Iteration    1(  15)  ---------------------------------------


    POTLOK:  cpu time    9.74: real time   10.40
    SETDIJ:  cpu time    0.01: real time    0.01
     EDDAV:  cpu time    5.47: real time    6.33
       DOS:  cpu time    0.00: real time    0.00
    CHARGE:  cpu time    1.82: real time    1.98
    MIXING:  cpu time    0.27: real time    0.27
    --------------------------------------------
      LOOP:  cpu time   17.32: real time   19.18

 eigenvalue-minimisations  :    20
 total energy-change (2. order) :-0.3594053E-03  (-0.3408702E-05)
 number of electron      16.0000001 magnetization 
 augmentation part        1.3350235 magnetization 

 Broyden mixing:
  rms(total) = 0.31357E-03    rms(broyden)= 0.31351E-03
  rms(prec ) = 0.50860E-03
  weight for this iteration     100.00

 eigenvalues of (default mixing * dielectric matrix)
  average eigenvalue GAMMA=   2.3307
  7.6044  3.6036  2.6176  2.0302  2.0302  1.5419  0.9650  0.9650  1.0186  0.9300

 Free energy of the ion-electron system (eV)
  ---------------------------------------------------
  alpha Z        PSCENC =         1.06689490
  Ewald energy   TEWEN  =       293.27422487
  -1/2 Hartree   DENC   =     -1143.64543966
  -exchange  EXHF       =         0.00000000
  -V(xc)+E(xc)   XCENC  =        70.35917508
  PAW double counting   =       691.92158261     -697.10892937
  entropy T*S    EENTRO =         0.00579791
  eigenvalues    EBANDS =      -250.67531722
  atomic energy  EATOM  =      1011.86129086
  ---------------------------------------------------
  free energy    TOTEN  =       -22.94072002 eV

  energy without entropy =      -22.94651792  energy(sigma->0) =      -22.94265265


--------------------------------------------------------------------------------------------------------




----------------------------------------- Iteration    1(  16)  ---------------------------------------


    POTLOK:  cpu time    7.55: real time    8.89
    SETDIJ:  cpu time    0.01: real time    0.01
     EDDAV:  cpu time    4.95: real time    4.96
       DOS:  cpu time    0.00: real time    0.00
    --------------------------------------------
      LOOP:  cpu time   12.51: real time   13.88

 eigenvalue-minimisations  :    20
 total energy-change (2. order) :-0.7921116E-04  (-0.9036130E-06)
 number of electron      16.0000001 magnetization 
 augmentation part        1.3350235 magnetization 

 Free energy of the ion-electron system (eV)
  ---------------------------------------------------
  alpha Z        PSCENC =         1.06689490
  Ewald energy   TEWEN  =       293.27422487
  -1/2 Hartree   DENC   =     -1143.63135751
  -exchange  EXHF       =         0.00000000
  -V(xc)+E(xc)   XCENC  =        70.35872849
  PAW double counting   =       691.93277178     -697.12039620
  entropy T*S    EENTRO =         0.00579791
  eigenvalues    EBANDS =      -250.68875431
  atomic energy  EATOM  =      1011.86129086
  ---------------------------------------------------
  free energy    TOTEN  =       -22.94079923 eV

  energy without entropy =      -22.94659713  energy(sigma->0) =      -22.94273186


--------------------------------------------------------------------------------------------------------




 average (electrostatic) potential at core
  the test charge radii are     0.6991  0.7215
  (the norm of the test charge is              1.0000)
       1 -63.4425       2 -82.4754       3 -82.4754
 
 
 
 E-fermi :  -8.8087     XC(G=0):  -0.7428     alpha+bet : -0.2502


 k-point   1 :       0.0000    0.0000    0.0000
  band No.  band energies     occupation 
      1     -28.9432      2.00000
      2     -27.9275      2.00000
      3     -13.5634      2.00000
      4     -12.4185      2.00000
      5     -12.4185      2.00000
      6     -12.3716      2.00000
      7      -8.8508      2.00000
      8      -8.8508      2.00000
      9      -0.8977      0.00000
     10      -0.4013      0.00000
     11      -0.4013      0.00000
     12       0.5955      0.00000


--------------------------------------------------------------------------------------------------------


 soft charge-density along one line, spin component           1
         0         1         2         3         4         5         6         7         8         9
 total charge-density along one line
 
 pseudopotential strength for first ion, spin component:           1
 10.549   0.029   0.000   0.000   0.000   0.000   0.000   0.000
  0.029  -0.001   0.000   0.000   0.000   0.000   0.000   0.000
  0.000   0.000  -4.608   0.000   0.000  -0.018   0.000   0.000
  0.000   0.000   0.000  -4.608   0.000   0.000  -0.018   0.000
  0.000   0.000   0.000   0.000  -4.657   0.000   0.000  -0.028
  0.000   0.000  -0.018   0.000   0.000  -0.778   0.000   0.000
  0.000   0.000   0.000  -0.018   0.000   0.000  -0.778   0.000
  0.000   0.000   0.000   0.000  -0.028   0.000   0.000  -0.780
 total augmentation occupancy for first ion, spin component:           1
  1.573  -1.268   0.000   0.000   0.000   0.000   0.000   0.000
 -1.268   1.952   0.000   0.000   0.000   0.000   0.000   0.000
  0.000   0.000   0.934   0.000   0.000   0.114   0.000   0.000
  0.000   0.000   0.000   0.934   0.000   0.000   0.114   0.000
  0.000   0.000   0.000   0.000   1.479   0.000   0.000   0.373
  0.000   0.000   0.114   0.000   0.000   0.014   0.000   0.000
  0.000   0.000   0.000   0.114   0.000   0.000   0.014   0.000
  0.000   0.000   0.000   0.000   0.373   0.000   0.000   0.134


------------------------ aborting loop because EDIFF is reached ----------------------------------------


    CHARGE:  cpu time    1.72: real time    1.95
    FORLOC:  cpu time    0.63: real time    0.63
    FORNL :  cpu time    0.32: real time    0.43
    STRESS:  cpu time    1.43: real time    1.61
    FORHAR:  cpu time    2.99: real time    3.17
    MIXING:  cpu time    0.32: real time    0.32

  FORCE on cell =-STRESS in cart. coord.  units (eV):
  Direction    XX          YY          ZZ          XY          YZ          ZX
  --------------------------------------------------------------------------------------
  Alpha Z     1.06689     1.06689     1.06689
  Ewald     649.00502  -177.86548  -177.86548     0.00000     0.00000     0.00000
  Hartree   653.49797   245.06499   245.06499     0.00000     0.00000     0.00000
  E(xc)     -72.60795   -74.78524   -74.78524     0.00000     0.00000     0.00000
  Local   -1465.25437  -301.71808  -301.71808     0.00000     0.00000     0.00000
  n-local   -54.43104   -48.50470   -48.50470     0.00000     0.00000     0.00000
  augment    10.55660    13.27909    13.27909     0.00000     0.00000     0.00000
  Kinetic   278.06909   343.37343   343.37343     0.00000     0.00000     0.00000
  Fock        0.00000     0.00000     0.00000     0.00000     0.00000     0.00000
  -------------------------------------------------------------------------------------
  Total      -0.09779    -0.08909    -0.08909     0.00000     0.00000     0.00000
  in kB      -0.15668    -0.14275    -0.14275     0.00000     0.00000     0.00000
  external pressure =       -0.15 kB  Pullay stress =        0.00 kB


 VOLUME and BASIS-vectors are now :
 -----------------------------------------------------------------------------
  energy-cutoff  :      500.00
  volume of cell :     1000.00
      direct lattice vectors                 reciprocal lattice vectors
    10.000000000  0.000000000  0.000000000     0.100000000  0.000000000  0.000000000
     0.000000000 10.000000000  0.000000000     0.000000000  0.100000000  0.000000000
     0.000000000  0.000000000 10.000000000     0.000000000  0.000000000  0.100000000

  length of vectors
    10.000000000 10.000000000 10.000000000     0.100000000  0.100000000  0.100000000


 FORCES acting on ions
    electron-ion (+dipol)            ewald-force                    non-local-force                 convergence-correction
 -----------------------------------------------------------------------------------------------
   -.316E-13 -.465E-12 -.856E-12   -.372E-13 0.732E-17 -.391E-16   0.000E+00 0.000E+00 0.000E+00   0.459E-14 0.137E-13 0.208E-13
   0.272E+03 -.102E-11 0.374E-06   -.335E+03 0.160E-17 -.186E-16   0.639E+02 -.124E-23 0.000E+00   -.817E-02 0.309E-13 0.222E-14
   -.272E+03 -.213E-12 -.374E-06   0.335E+03 -.325E-17 0.544E-16   -.639E+02 0.165E-23 0.827E-24   0.817E-02 0.853E-14 0.664E-13
 -----------------------------------------------------------------------------------------------
   0.341E-12 -.170E-11 0.406E-11   -.568E-13 0.568E-17 -.334E-17   -.711E-14 0.414E-24 0.827E-24   0.517E-13 0.532E-13 0.894E-13
 
 
 POSITION                                       TOTAL-FORCE (eV/Angst)
 -----------------------------------------------------------------------------------
      5.00000      5.00000      5.00000         0.000000      0.000000      0.000000
      3.82331      5.00000      5.00000         0.002724      0.000000      0.000000
      6.17669      5.00000      5.00000        -0.002724      0.000000      0.000000
 -----------------------------------------------------------------------------------
    total drift:                                0.000000      0.000000      0.000000


--------------------------------------------------------------------------------------------------------



  FREE ENERGIE OF THE ION-ELECTRON SYSTEM (eV)
  ---------------------------------------------------
  free  energy   TOTEN  =       -22.940799 eV

  energy  without entropy=      -22.946597  energy(sigma->0) =      -22.942732
 


--------------------------------------------------------------------------------------------------------


    POTLOK:  cpu time    9.29: real time   11.19


--------------------------------------------------------------------------------------------------------


 writing wavefunctions
     LOOP+:  cpu time  261.74: real time  306.80
    4ORBIT:  cpu time    0.00: real time    0.00

 total amount of memory used by VASP on root node   432470. kBytes
========================================================================

   base      :      30000. kBytes
   nonl-proj :       4472. kBytes
   fftplans  :     141100. kBytes
   grid      :     252006. kBytes
   one-center:          9. kBytes
   wavefun   :       4883. kBytes
 
  
  
 General timing and accounting informations for this job:
 ========================================================
  
                  Total CPU time used (sec):      277.330
                            User time (sec):      273.457
                          System time (sec):        3.872
                         Elapsed time (sec):      330.037
  
                   Maximum memory used (kb):           0.
                   Average memory used (kb):           0.
  
                          Minor page faults:       787825
                          Major page faults:           52
                 Voluntary context switches:         2902
