<?xml version="1.0" encoding="ISO-8859-1"?>
<modeling>
 <generator>
  <i name="program" type="string">vasp </i>
  <i name="version" type="string">5.2.12  </i>
  <i name="subversion" type="string">11Nov11 complex                                                      parallel </i>
  <i name="platform" type="string">LinuxIFC </i>
  <i name="date" type="string">2012 10 12 </i>
  <i name="time" type="string">08:26:00 </i>
 </generator>
 <incar>
  <i type="string" name="PREC">accurate</i>
  <i name="ENCUT">    500.00000000</i>
  <i type="logical" name="LREAL"> F  </i>
  <i type="int" name="ISMEAR">     1</i>
  <i name="SIGMA">      0.05000000</i>
 </incar>
 <kpoints>
  <generation param="Monkhorst-Pack">
   <v type="int" name="divisions">       1        1        1 </v>
   <v name="usershift">      0.00000000       0.00000000       0.00000000 </v>
   <v name="genvec1">      1.00000000       0.00000000       0.00000000 </v>
   <v name="genvec2">      0.00000000       1.00000000       0.00000000 </v>
   <v name="genvec3">      0.00000000       0.00000000       1.00000000 </v>
   <v name="shift">      0.00000000       0.00000000       0.00000000 </v>
  </generation>
  <varray name="kpointlist" >
   <v>       0.00000000       0.00000000       0.00000000 </v>
  </varray>
  <varray name="weights" >
   <v>       1.00000000 </v>
  </varray>
 </kpoints>
 <parameters>
  <separator name="general" >
   <i type="string" name="SYSTEM">unknown system</i>
   <i type="logical" name="LCOMPAT"> F  </i>
  </separator>
  <separator name="electronic" >
   <i type="string" name="PREC">accura</i>
   <i name="ENMAX">    500.00000000</i>
   <i name="ENAUG">    644.87300000</i>
   <i name="EDIFF">      0.00010000</i>
   <i type="int" name="IALGO">    38</i>
   <i type="int" name="IWAVPR">    10</i>
   <i type="int" name="NBANDS">    12</i>
   <i name="NELECT">     16.00000000</i>
   <i type="int" name="TURBO">     0</i>
   <i type="int" name="IRESTART">     0</i>
   <i type="int" name="NREBOOT">     0</i>
   <i type="int" name="NMIN">     0</i>
   <i name="EREF">      0.00000000</i>
   <separator name="electronic smearing" >
    <i type="int" name="ISMEAR">     1</i>
    <i name="SIGMA">      0.05000000</i>
    <i name="KSPACING">      0.50000000</i>
    <i type="logical" name="KGAMMA"> T  </i>
   </separator>
   <separator name="electronic projectors" >
    <i type="logical" name="LREAL"> F  </i>
    <v name="ROPT">      0.00000000      0.00000000</v>
    <i type="int" name="LMAXPAW">  -100</i>
    <i type="int" name="LMAXMIX">     2</i>
    <i type="logical" name="NLSPLINE"> F  </i>
   </separator>
   <separator name="electronic startup" >
    <i type="int" name="ISTART">     0</i>
    <i type="int" name="ICHARG">     2</i>
    <i type="int" name="INIWAV">     1</i>
   </separator>
   <separator name="electronic spin" >
    <i type="int" name="ISPIN">     1</i>
    <i type="logical" name="LNONCOLLINEAR"> F  </i>
    <v name="MAGMOM">      1.00000000      1.00000000      1.00000000</v>
    <i name="NUPDOWN">     -1.00000000</i>
    <i type="logical" name="LSORBIT"> F  </i>
    <v name="SAXIS">      0.00000000      0.00000000      1.00000000</v>
    <i type="logical" name="LSPIRAL"> F  </i>
    <v name="QSPIRAL">      0.00000000      0.00000000      0.00000000</v>
    <i type="logical" name="LZEROZ"> F  </i>
   </separator>
   <separator name="electronic exchange-correlation" >
    <i type="logical" name="LASPH"> F  </i>
    <i type="logical" name="LMETAGGA"> F  </i>
   </separator>
   <separator name="electronic convergence" >
    <i type="int" name="NELM">    60</i>
    <i type="int" name="NELMDL">    -5</i>
    <i type="int" name="NELMIN">     2</i>
    <i name="ENINI">    500.00000000</i>
    <separator name="electronic convergence detail" >
     <i type="logical" name="LDIAG"> T  </i>
     <i type="logical" name="LSUBROT"> T  </i>
     <i name="WEIMIN">      0.00000000</i>
     <i name="EBREAK">      0.00000208</i>
     <i name="DEPER">      0.30000000</i>
     <i type="int" name="NRMM">     4</i>
     <i name="TIME">      0.40000000</i>
    </separator>
   </separator>
   <separator name="electronic mixer" >
    <i name="AMIX">      0.40000000</i>
    <i name="BMIX">      1.00000000</i>
    <i name="AMIN">      0.10000000</i>
    <i name="AMIX_MAG">      1.60000000</i>
    <i name="BMIX_MAG">      1.00000000</i>
    <separator name="electronic mixer details" >
     <i type="int" name="IMIX">     4</i>
     <i type="int" name="MAXMIX">   -45</i>
     <i name="WC">    100.00000000</i>
     <i type="int" name="INIMIX">     1</i>
     <i type="int" name="MIXPRE">     1</i>
     <i type="int" name="MREMOVE">     5</i>
    </separator>
   </separator>
   <separator name="electronic dipolcorrection" >
    <i type="logical" name="LDIPOL"> F  </i>
    <i type="logical" name="LMONO"> F  </i>
    <i type="int" name="IDIPOL">     0</i>
    <i name="EPSILON">      1.00000000</i>
    <v name="DIPOL">   -100.00000000   -100.00000000   -100.00000000</v>
    <i name="EFIELD">      0.00000000</i>
   </separator>
  </separator>
  <separator name="grids" >
   <i type="int" name="NGX">    80</i>
   <i type="int" name="NGY">    80</i>
   <i type="int" name="NGZ">    80</i>
   <i type="int" name="NGXF">   160</i>
   <i type="int" name="NGYF">   160</i>
   <i type="int" name="NGZF">   160</i>
   <i type="logical" name="ADDGRID"> F  </i>
  </separator>
  <separator name="ionic" >
   <i type="int" name="NSW">     0</i>
   <i type="int" name="IBRION">    -1</i>
   <i type="int" name="ISIF">     2</i>
   <i name="PSTRESS">      0.00000000</i>
   <i name="EDIFFG">      0.00100000</i>
   <i type="int" name="NFREE">     0</i>
   <i name="POTIM">      0.50000000</i>
   <i name="SMASS">     -3.00000000</i>
   <i name="SCALEE">      1.00000000</i>
  </separator>
  <separator name="ionic md" >
   <i name="TEBEG">      0.00010000</i>
   <i name="TEEND">      0.00010000</i>
   <i type="int" name="NBLOCK">     1</i>
   <i type="int" name="KBLOCK">     1</i>
   <i type="int" name="NPACO">   256</i>
   <i name="APACO">     16.00000000</i>
  </separator>
  <separator name="symmetry" >
   <i type="int" name="ISYM">     2</i>
   <i name="SYMPREC">      0.00001000</i>
  </separator>
  <separator name="dos" >
   <i type="logical" name="LORBIT"> F  </i>
   <v name="RWIGS">     -1.00000000     -1.00000000</v>
   <i type="int" name="NEDOS">   301</i>
   <i name="EMIN">     10.00000000</i>
   <i name="EMAX">    -10.00000000</i>
   <i name="EFERMI">      0.00000000</i>
  </separator>
  <separator name="writing" >
   <i type="int" name="NWRITE">     2</i>
   <i type="logical" name="LWAVE"> T  </i>
   <i type="logical" name="LCHARG"> T  </i>
   <i type="logical" name="LPARD"> F  </i>
   <i type="logical" name="LVTOT"> F  </i>
   <i type="logical" name="LVHAR"> F  </i>
   <i type="logical" name="LELF"> F  </i>
   <i type="logical" name="LOPTICS"> F  </i>
   <v name="STM">      0.00000000      0.00000000      0.00000000      0.00000000      0.00000000      0.00000000      0.00000000</v>
  </separator>
  <separator name="performance" >
   <i type="int" name="NPAR">     1</i>
   <i type="int" name="NSIM">     4</i>
   <i type="int" name="NBLK">    -1</i>
   <i type="logical" name="LPLANE"> T  </i>
   <i type="logical" name="LSCALAPACK"> F  </i>
   <i type="logical" name="LSCAAWARE"> F  </i>
   <i type="logical" name="LSCALU"> F  </i>
   <i type="logical" name="LASYNC"> F  </i>
   <i type="logical" name="LORBITALREAL"> F  </i>
  </separator>
  <separator name="miscellaneous" >
   <i type="int" name="IDIOT">     3</i>
   <i type="logical" name="LMUSIC"> F  </i>
   <v name="POMASS">     12.01100000     16.00000000</v>
   <v name="DARWINR">      0.00000000      0.00000000</v>
   <v name="DARWINV">      1.00000000      1.00000000</v>
   <i type="logical" name="LCORR"> T  </i>
  </separator>
  <i type="logical" name="GGA_COMPAT"> T  </i>
  <i type="logical" name="LBERRY"> F  </i>
  <i type="int" name="ICORELEVEL">     0</i>
  <i type="logical" name="LDAU"> F  </i>
  <i type="int" name="I_CONSTRAINED_M">     0</i>
  <separator name="electronic exchange-correlation" >
   <i type="string" name="GGA">--</i>
   <i type="int" name="VOSKOWN">     0</i>
   <i type="logical" name="LHFCALC"> F  </i>
   <i type="string" name="PRECFOCK"></i>
   <i type="logical" name="LHFONE"> F  </i>
   <i type="logical" name="LRHFCALC"> F  </i>
   <i type="logical" name="LTHOMAS"> F  </i>
   <i type="logical" name="LMODELHF"> F  </i>
   <i name="ENCUT4O">     -1.00000000</i>
   <i type="int" name="EXXOEP">     0</i>
   <i type="int" name="FOURORBIT">     0</i>
   <i name="AEXX">      0.00000000</i>
   <i name="HFALPHA">      0.00000000</i>
   <i name="ALDAX">      1.00000000</i>
   <i name="AGGAX">      1.00000000</i>
   <i name="ALDAC">      1.00000000</i>
   <i name="AGGAC">      1.00000000</i>
   <i type="int" name="NKREDX">     1</i>
   <i type="int" name="NKREDY">     1</i>
   <i type="int" name="NKREDZ">     1</i>
   <i type="logical" name="SHIFTRED"> F  </i>
   <i type="logical" name="ODDONLY"> F  </i>
   <i type="logical" name="EVENONLY"> F  </i>
   <i type="int" name="LMAXFOCK">     0</i>
   <i type="int" name="NMAXFOCKAE">     0</i>
   <i type="logical" name="LFOCKAEDFT"> F  </i>
   <i name="HFSCREEN">      0.00000000</i>
   <i name="HFSCREENC">      0.00000000</i>
  </separator>
  <separator name="vdW DFT" >
   <i type="logical" name="LUSE_VDW"> F  </i>
   <i name="Zab_VDW">     -0.84910000</i>
   <i name="PARAM1">      0.12340000</i>
   <i name="PARAM2">      1.00000000</i>
   <i name="PARAM3">      0.00000000</i>
  </separator>
  <separator name="model GW" >
   <i type="int" name="MODEL_GW">     0</i>
   <i name="MODEL_EPS0">    200.00000000</i>
   <i name="MODEL_ALPHA">      1.00000000</i>
  </separator>
  <separator name="linear response parameters" >
   <i type="logical" name="LEPSILON"> F  </i>
   <i type="logical" name="LRPA"> F  </i>
   <i type="logical" name="LNABLA"> F  </i>
   <i type="logical" name="LVEL"> F  </i>
   <i type="int" name="KINTER">     0</i>
   <i name="CSHIFT">      0.10000000</i>
   <i name="OMEGAMAX">     -1.00000000</i>
  </separator>
  <separator name="orbital magnetization" >
   <i type="logical" name="NUCIND"> F  </i>
   <v name="MAGPOS">      0.00000000      0.00000000      0.00000000</v>
   <i type="logical" name="LNICSALL"> T  </i>
   <i type="logical" name="ORBITALMAG"> F  </i>
   <i type="logical" name="LMAGBLOCH"> F  </i>
   <i type="logical" name="LCHIMAG"> F  </i>
   <i type="logical" name="LGAUGE"> T  </i>
   <i type="int" name="MAGATOM">     0</i>
   <v name="MAGDIPOL">      0.00000000      0.00000000      0.00000000</v>
   <v name="AVECCONST">      0.00000000      0.00000000      0.00000000</v>
  </separator>
  <separator name="response functions" >
   <i type="logical" name="LADDER"> F  </i>
   <i type="logical" name="LHARTREE"> T  </i>
   <i type="int" name="IBSE">     0</i>
   <i type="logical" name="LTCTE"> F  </i>
   <i type="logical" name="LTETE"> F  </i>
   <i type="logical" name="LFXCEPS"> F  </i>
   <i type="logical" name="L2ORDER"> F  </i>
   <i type="logical" name="LUSEW"> F  </i>
   <i name="ENCUTGW">     -2.00000000</i>
   <i name="ENCUTGWSOFT">     -2.00000000</i>
   <i name="ENCUTLF">     -1.00000000</i>
   <i type="int" name="LMAXMP2">    -1</i>
   <i name="SCISSOR">      0.00000000</i>
   <i type="int" name="NOMEGA">     0</i>
   <i type="int" name="NOMEGAR">     0</i>
   <i type="int" name="NBANDSGW">    -1</i>
   <i type="int" name="NBANDSO">    -1</i>
   <i type="int" name="NBANDSV">    -1</i>
   <i name="OPTEMAX">      0.00000000</i>
   <i type="int" name="NELM">     1</i>
   <i type="int" name="DIM">     3</i>
   <i type="int" name="ANTIRES">     0</i>
   <i name="OMEGAMAX">    -30.00000000</i>
   <i name="OMEGATL">   -200.00000000</i>
   <i type="int" name="OMEGAGRID">     0</i>
   <i name="CSHIFT">     -0.10000000</i>
   <i type="logical" name="SELFENERGY"> F  </i>
   <i type="logical" name="LSPECTRAL"> F  </i>
   <i type="logical" name="ODDONLYGW"> F  </i>
   <i type="logical" name="EVENONLYGW"> F  </i>
   <i type="int" name="NKREDLFX">     1</i>
   <i type="int" name="NKREDLFY">     1</i>
   <i type="int" name="NKREDLFZ">     1</i>
   <i type="int" name="MAXMEM">  1800</i>
   <i type="int" name="TELESCOPE">     0</i>
  </separator>
 </parameters>
 <atominfo>
  <atoms>       3 </atoms>
  <types>       2 </types>
  <array name="atoms" >
   <dimension dim="1">ion</dimension>
   <field type="string">element</field>
   <field type="int">atomtype</field>
   <set>
    <rc><c>C </c><c>   1</c></rc>
    <rc><c>O </c><c>   2</c></rc>
    <rc><c>O </c><c>   2</c></rc>
   </set>
  </array>
  <array name="atomtypes" >
   <dimension dim="1">type</dimension>
   <field type="int">atomspertype</field>
   <field type="string">element</field>
   <field>mass</field>
   <field>valence</field>
   <field type="string">pseudopotential</field>
   <set>
    <rc><c>   1</c><c>C </c><c>     12.01100000</c><c>      4.00000000</c><c> PAW_PBE C 08Apr2002                    </c></rc>
    <rc><c>   2</c><c>O </c><c>     16.00000000</c><c>      6.00000000</c><c> PAW_PBE O 08Apr2002                    </c></rc>
   </set>
  </array>
 </atominfo>
 <structure name="initialpos" >
  <crystal>
   <varray name="basis" >
    <v>      10.00000000       0.00000000       0.00000000 </v>
    <v>       0.00000000      10.00000000       0.00000000 </v>
    <v>       0.00000000       0.00000000      10.00000000 </v>
   </varray>
   <i name="volume">   1000.00000000 </i>
   <varray name="rec_basis" >
    <v>       0.10000000       0.00000000       0.00000000 </v>
    <v>       0.00000000       0.10000000       0.00000000 </v>
    <v>       0.00000000       0.00000000       0.10000000 </v>
   </varray>
  </crystal>
  <varray name="positions" >
   <v>       0.50000000       0.50000000       0.50000000 </v>
   <v>       0.38233100       0.50000000       0.50000000 </v>
   <v>       0.61766900       0.50000000       0.50000000 </v>
  </varray>
 </structure>
 <calculation>
  <scstep>
   <time name="dav">    8.40    9.93</time>
   <time name="total">   17.90   21.63</time>
   <energy>
    <i name="alphaZ">      1.06689490 </i>
    <i name="ewald">    293.27422487 </i>
    <i name="hartreedc">  -1104.65589037 </i>
    <i name="XCdc">     68.22305869 </i>
    <i name="pawpsdc">    529.82824833 </i>
    <i name="pawaedc">   -534.67809926 </i>
    <i name="eentropy">      0.00289895 </i>
    <i name="bandstr">   -168.26047233 </i>
    <i name="atom">   1011.86129086 </i>
    <i name="e_fr_energy">     96.66215465 </i>
    <i name="e_wo_entrp">     96.65925569 </i>
    <i name="e_0_energy">     96.66118833 </i>
   </energy>
  </scstep>
  <scstep>
   <time name="dav">    9.15   10.38</time>
   <time name="total">    9.15   10.40</time>
   <energy>
    <i name="e_fr_energy">      1.77446654 </i>
    <i name="e_wo_entrp">      1.77156759 </i>
    <i name="e_0_energy">      1.77350023 </i>
   </energy>
  </scstep>
  <scstep>
   <time name="dav">    8.06    8.53</time>
   <time name="total">    8.06    8.57</time>
   <energy>
    <i name="e_fr_energy">    -22.64093833 </i>
    <i name="e_wo_entrp">    -22.64383729 </i>
    <i name="e_0_energy">    -22.64190465 </i>
   </energy>
  </scstep>
  <scstep>
   <time name="dav">    6.83    8.16</time>
   <time name="total">    6.83    8.18</time>
   <energy>
    <i name="e_fr_energy">    -24.66167354 </i>
    <i name="e_wo_entrp">    -24.66754508 </i>
    <i name="e_0_energy">    -24.66363072 </i>
   </energy>
  </scstep>
  <scstep>
   <time name="dav">    7.54    9.28</time>
   <time name="total">    9.43   11.57</time>
   <energy>
    <i name="e_fr_energy">    -24.67847477 </i>
    <i name="e_wo_entrp">    -24.68427272 </i>
    <i name="e_0_energy">    -24.68040742 </i>
   </energy>
  </scstep>
  <scstep>
   <time name="dav">    6.83    8.20</time>
   <time name="total">   17.97   21.86</time>
   <energy>
    <i name="e_fr_energy">    -23.11528353 </i>
    <i name="e_wo_entrp">    -23.12108143 </i>
    <i name="e_0_energy">    -23.11721616 </i>
   </energy>
  </scstep>
  <scstep>
   <time name="dav">    5.68    6.18</time>
   <time name="total">   17.43   20.13</time>
   <energy>
    <i name="e_fr_energy">    -22.99224296 </i>
    <i name="e_wo_entrp">    -22.99804087 </i>
    <i name="e_0_energy">    -22.99417560 </i>
   </energy>
  </scstep>
  <scstep>
   <time name="dav">    6.04    7.18</time>
   <time name="total">   18.42   22.28</time>
   <energy>
    <i name="e_fr_energy">    -22.93548525 </i>
    <i name="e_wo_entrp">    -22.94128316 </i>
    <i name="e_0_energy">    -22.93741788 </i>
   </energy>
  </scstep>
  <scstep>
   <time name="dav">    6.56    7.60</time>
   <time name="total">   17.82   20.73</time>
   <energy>
    <i name="e_fr_energy">    -22.93217563 </i>
    <i name="e_wo_entrp">    -22.93797353 </i>
    <i name="e_0_energy">    -22.93410826 </i>
   </energy>
  </scstep>
  <scstep>
   <time name="dav">    6.08    6.72</time>
   <time name="total">   16.43   19.80</time>
   <energy>
    <i name="e_fr_energy">    -22.93279868 </i>
    <i name="e_wo_entrp">    -22.93859658 </i>
    <i name="e_0_energy">    -22.93473131 </i>
   </energy>
  </scstep>
  <scstep>
   <time name="dav">    7.05    7.13</time>
   <time name="total">   18.27   19.91</time>
   <energy>
    <i name="e_fr_energy">    -22.93619540 </i>
    <i name="e_wo_entrp">    -22.94199330 </i>
    <i name="e_0_energy">    -22.93812803 </i>
   </energy>
  </scstep>
  <scstep>
   <time name="dav">    4.78    5.48</time>
   <time name="total">   16.04   18.57</time>
   <energy>
    <i name="e_fr_energy">    -22.93785025 </i>
    <i name="e_wo_entrp">    -22.94364816 </i>
    <i name="e_0_energy">    -22.93978289 </i>
   </energy>
  </scstep>
  <scstep>
   <time name="dav">    6.28    7.37</time>
   <time name="total">   16.77   19.24</time>
   <energy>
    <i name="e_fr_energy">    -22.93995959 </i>
    <i name="e_wo_entrp">    -22.94575749 </i>
    <i name="e_0_energy">    -22.94189222 </i>
   </energy>
  </scstep>
  <scstep>
   <time name="dav">    5.12    6.02</time>
   <time name="total">   16.49   19.43</time>
   <energy>
    <i name="e_fr_energy">    -22.94036061 </i>
    <i name="e_wo_entrp">    -22.94615852 </i>
    <i name="e_0_energy">    -22.94229325 </i>
   </energy>
  </scstep>
  <scstep>
   <time name="dav">    5.47    6.33</time>
   <time name="total">   17.32   19.18</time>
   <energy>
    <i name="e_fr_energy">    -22.94072002 </i>
    <i name="e_wo_entrp">    -22.94651792 </i>
    <i name="e_0_energy">    -22.94265265 </i>
   </energy>
  </scstep>
  <scstep>
   <time name="dav">    4.95    4.96</time>
   <time name="total">   12.51   13.88</time>
   <energy>
    <i name="alphaZ">      1.06689490 </i>
    <i name="ewald">    293.27422487 </i>
    <i name="hartreedc">  -1143.63135751 </i>
    <i name="XCdc">     70.35872849 </i>
    <i name="pawpsdc">    691.93277178 </i>
    <i name="pawaedc">   -697.12039620 </i>
    <i name="eentropy">      0.00579791 </i>
    <i name="bandstr">   -250.68875431 </i>
    <i name="atom">   1011.86129086 </i>
    <i name="e_fr_energy">    -22.94079923 </i>
    <i name="e_wo_entrp">    -22.94659713 </i>
    <i name="e_0_energy">    -22.94273186 </i>
   </energy>
  </scstep>
  <parameters_embedded>
   <separator name="dft+d2" >
    <i type="logical" name="LVDW"> F  </i>
   </separator>
  </parameters_embedded>
  <structure>
   <crystal>
    <varray name="basis" >
     <v>      10.00000000       0.00000000       0.00000000 </v>
     <v>       0.00000000      10.00000000       0.00000000 </v>
     <v>       0.00000000       0.00000000      10.00000000 </v>
    </varray>
    <i name="volume">   1000.00000000 </i>
    <varray name="rec_basis" >
     <v>       0.10000000       0.00000000       0.00000000 </v>
     <v>       0.00000000       0.10000000       0.00000000 </v>
     <v>       0.00000000       0.00000000       0.10000000 </v>
    </varray>
   </crystal>
   <varray name="positions" >
    <v>       0.50000000       0.50000000       0.50000000 </v>
    <v>       0.38233100       0.50000000       0.50000000 </v>
    <v>       0.61766900       0.50000000       0.50000000 </v>
   </varray>
  </structure>
  <varray name="forces" >
   <v>       0.00000000       0.00000000       0.00000000 </v>
   <v>       0.00272445       0.00000000       0.00000000 </v>
   <v>      -0.00272445       0.00000000       0.00000000 </v>
  </varray>
  <varray name="stress" >
   <v>      -0.15667728       0.00000000       0.00000000 </v>
   <v>       0.00000000      -0.14274513       0.00000000 </v>
   <v>       0.00000000       0.00000000      -0.14274513 </v>
  </varray>
  <energy>
   <i name="e_fr_energy">    -22.94079923 </i>
   <i name="e_wo_entrp">    -22.94273186 </i>
   <i name="e_0_energy">      0.00579791 </i>
  </energy>
  <time name="totalsc">  261.74  306.80</time>
  <eigenvalues>
   <array>
    <dimension dim="1">band</dimension>
    <dimension dim="2">kpoint</dimension>
    <dimension dim="3">spin</dimension>
    <field>eigene</field>
    <field>occ</field>
    <set>
     <set comment="spin 1">
      <set comment="kpoint 1">
       <r>  -28.9432    1.0000 </r>
       <r>  -27.9275    1.0000 </r>
       <r>  -13.5634    1.0000 </r>
       <r>  -12.4185    1.0000 </r>
       <r>  -12.4185    1.0000 </r>
       <r>  -12.3716    1.0000 </r>
       <r>   -8.8508    1.0000 </r>
       <r>   -8.8508    1.0000 </r>
       <r>   -0.8977    0.0000 </r>
       <r>   -0.4013    0.0000 </r>
       <r>   -0.4013    0.0000 </r>
       <r>    0.5955    0.0000 </r>
      </set>
     </set>
    </set>
   </array>
  </eigenvalues>
  <separator name="orbital magnetization" >
   <v name="MAGDIPOLOUT">      0.00000000      0.00000000      0.00000000</v>
  </separator>
  <dos>
   <i name="efermi">     -8.80866486 </i>
   <total>
    <array>
     <dimension dim="1">gridpoints</dimension>
     <dimension dim="2">spin</dimension>
     <field>energy</field>
     <field>total</field>
     <field>integrated</field>
     <set>
      <set comment="spin 1">
       <r>   -30.4202     0.0000     0.0000 </r>
       <r>   -30.3118     0.0000     0.0000 </r>
       <r>   -30.2035     0.0000     0.0000 </r>
       <r>   -30.0952     0.0000     0.0000 </r>
       <r>   -29.9869     0.0000     0.0000 </r>
       <r>   -29.8786     0.0000     0.0000 </r>
       <r>   -29.7703     0.0000     0.0000 </r>
       <r>   -29.6620     0.0000     0.0000 </r>
       <r>   -29.5537     0.0000     0.0000 </r>
       <r>   -29.4454     0.0000     0.0000 </r>
       <r>   -29.3371     0.0000     0.0000 </r>
       <r>   -29.2288     0.0000     0.0000 </r>
       <r>   -29.1205    -0.0001     0.0000 </r>
       <r>   -29.0121    -0.6006    -0.0651 </r>
       <r>   -28.9038    18.8233     1.9737 </r>
       <r>   -28.7955     0.2454     2.0002 </r>
       <r>   -28.6872    -0.0022     2.0000 </r>
       <r>   -28.5789     0.0000     2.0000 </r>
       <r>   -28.4706     0.0000     2.0000 </r>
       <r>   -28.3623     0.0000     2.0000 </r>
       <r>   -28.2540     0.0000     2.0000 </r>
       <r>   -28.1457     0.0000     2.0000 </r>
       <r>   -28.0374    -0.0743     1.9920 </r>
       <r>   -27.9291     8.8261     2.9479 </r>
       <r>   -27.8207     9.8070     4.0101 </r>
       <r>   -27.7124    -0.0930     4.0000 </r>
       <r>   -27.6041     0.0000     4.0000 </r>
       <r>   -27.4958     0.0000     4.0000 </r>
       <r>   -27.3875     0.0000     4.0000 </r>
       <r>   -27.2792     0.0000     4.0000 </r>
       <r>   -27.1709     0.0000     4.0000 </r>
       <r>   -27.0626     0.0000     4.0000 </r>
       <r>   -26.9543     0.0000     4.0000 </r>
       <r>   -26.8460     0.0000     4.0000 </r>
       <r>   -26.7377     0.0000     4.0000 </r>
       <r>   -26.6294     0.0000     4.0000 </r>
       <r>   -26.5210     0.0000     4.0000 </r>
       <r>   -26.4127     0.0000     4.0000 </r>
       <r>   -26.3044     0.0000     4.0000 </r>
       <r>   -26.1961     0.0000     4.0000 </r>
       <r>   -26.0878     0.0000     4.0000 </r>
       <r>   -25.9795     0.0000     4.0000 </r>
       <r>   -25.8712     0.0000     4.0000 </r>
       <r>   -25.7629     0.0000     4.0000 </r>
       <r>   -25.6546     0.0000     4.0000 </r>
       <r>   -25.5463     0.0000     4.0000 </r>
       <r>   -25.4380     0.0000     4.0000 </r>
       <r>   -25.3297     0.0000     4.0000 </r>
       <r>   -25.2213     0.0000     4.0000 </r>
       <r>   -25.1130     0.0000     4.0000 </r>
       <r>   -25.0047     0.0000     4.0000 </r>
       <r>   -24.8964     0.0000     4.0000 </r>
       <r>   -24.7881     0.0000     4.0000 </r>
       <r>   -24.6798     0.0000     4.0000 </r>
       <r>   -24.5715     0.0000     4.0000 </r>
       <r>   -24.4632     0.0000     4.0000 </r>
       <r>   -24.3549     0.0000     4.0000 </r>
       <r>   -24.2466     0.0000     4.0000 </r>
       <r>   -24.1383     0.0000     4.0000 </r>
       <r>   -24.0299     0.0000     4.0000 </r>
       <r>   -23.9216     0.0000     4.0000 </r>
       <r>   -23.8133     0.0000     4.0000 </r>
       <r>   -23.7050     0.0000     4.0000 </r>
       <r>   -23.5967     0.0000     4.0000 </r>
       <r>   -23.4884     0.0000     4.0000 </r>
       <r>   -23.3801     0.0000     4.0000 </r>
       <r>   -23.2718     0.0000     4.0000 </r>
       <r>   -23.1635     0.0000     4.0000 </r>
       <r>   -23.0552     0.0000     4.0000 </r>
       <r>   -22.9469     0.0000     4.0000 </r>
       <r>   -22.8386     0.0000     4.0000 </r>
       <r>   -22.7302     0.0000     4.0000 </r>
       <r>   -22.6219     0.0000     4.0000 </r>
       <r>   -22.5136     0.0000     4.0000 </r>
       <r>   -22.4053     0.0000     4.0000 </r>
       <r>   -22.2970     0.0000     4.0000 </r>
       <r>   -22.1887     0.0000     4.0000 </r>
       <r>   -22.0804     0.0000     4.0000 </r>
       <r>   -21.9721     0.0000     4.0000 </r>
       <r>   -21.8638     0.0000     4.0000 </r>
       <r>   -21.7555     0.0000     4.0000 </r>
       <r>   -21.6472     0.0000     4.0000 </r>
       <r>   -21.5389     0.0000     4.0000 </r>
       <r>   -21.4305     0.0000     4.0000 </r>
       <r>   -21.3222     0.0000     4.0000 </r>
       <r>   -21.2139     0.0000     4.0000 </r>
       <r>   -21.1056     0.0000     4.0000 </r>
       <r>   -20.9973     0.0000     4.0000 </r>
       <r>   -20.8890     0.0000     4.0000 </r>
       <r>   -20.7807     0.0000     4.0000 </r>
       <r>   -20.6724     0.0000     4.0000 </r>
       <r>   -20.5641     0.0000     4.0000 </r>
       <r>   -20.4558     0.0000     4.0000 </r>
       <r>   -20.3475     0.0000     4.0000 </r>
       <r>   -20.2391     0.0000     4.0000 </r>
       <r>   -20.1308     0.0000     4.0000 </r>
       <r>   -20.0225     0.0000     4.0000 </r>
       <r>   -19.9142     0.0000     4.0000 </r>
       <r>   -19.8059     0.0000     4.0000 </r>
       <r>   -19.6976     0.0000     4.0000 </r>
       <r>   -19.5893     0.0000     4.0000 </r>
       <r>   -19.4810     0.0000     4.0000 </r>
       <r>   -19.3727     0.0000     4.0000 </r>
       <r>   -19.2644     0.0000     4.0000 </r>
       <r>   -19.1561     0.0000     4.0000 </r>
       <r>   -19.0478     0.0000     4.0000 </r>
       <r>   -18.9394     0.0000     4.0000 </r>
       <r>   -18.8311     0.0000     4.0000 </r>
       <r>   -18.7228     0.0000     4.0000 </r>
       <r>   -18.6145     0.0000     4.0000 </r>
       <r>   -18.5062     0.0000     4.0000 </r>
       <r>   -18.3979     0.0000     4.0000 </r>
       <r>   -18.2896     0.0000     4.0000 </r>
       <r>   -18.1813     0.0000     4.0000 </r>
       <r>   -18.0730     0.0000     4.0000 </r>
       <r>   -17.9647     0.0000     4.0000 </r>
       <r>   -17.8564     0.0000     4.0000 </r>
       <r>   -17.7481     0.0000     4.0000 </r>
       <r>   -17.6397     0.0000     4.0000 </r>
       <r>   -17.5314     0.0000     4.0000 </r>
       <r>   -17.4231     0.0000     4.0000 </r>
       <r>   -17.3148     0.0000     4.0000 </r>
       <r>   -17.2065     0.0000     4.0000 </r>
       <r>   -17.0982     0.0000     4.0000 </r>
       <r>   -16.9899     0.0000     4.0000 </r>
       <r>   -16.8816     0.0000     4.0000 </r>
       <r>   -16.7733     0.0000     4.0000 </r>
       <r>   -16.6650     0.0000     4.0000 </r>
       <r>   -16.5567     0.0000     4.0000 </r>
       <r>   -16.4483     0.0000     4.0000 </r>
       <r>   -16.3400     0.0000     4.0000 </r>
       <r>   -16.2317     0.0000     4.0000 </r>
       <r>   -16.1234     0.0000     4.0000 </r>
       <r>   -16.0151     0.0000     4.0000 </r>
       <r>   -15.9068     0.0000     4.0000 </r>
       <r>   -15.7985     0.0000     4.0000 </r>
       <r>   -15.6902     0.0000     4.0000 </r>
       <r>   -15.5819     0.0000     4.0000 </r>
       <r>   -15.4736     0.0000     4.0000 </r>
       <r>   -15.3653     0.0000     4.0000 </r>
       <r>   -15.2570     0.0000     4.0000 </r>
       <r>   -15.1486     0.0000     4.0000 </r>
       <r>   -15.0403     0.0000     4.0000 </r>
       <r>   -14.9320     0.0000     4.0000 </r>
       <r>   -14.8237     0.0000     4.0000 </r>
       <r>   -14.7154     0.0000     4.0000 </r>
       <r>   -14.6071     0.0000     4.0000 </r>
       <r>   -14.4988     0.0000     4.0000 </r>
       <r>   -14.3905     0.0000     4.0000 </r>
       <r>   -14.2822     0.0000     4.0000 </r>
       <r>   -14.1739     0.0000     4.0000 </r>
       <r>   -14.0656     0.0000     4.0000 </r>
       <r>   -13.9572     0.0000     4.0000 </r>
       <r>   -13.8489     0.0000     4.0000 </r>
       <r>   -13.7406    -0.0001     4.0000 </r>
       <r>   -13.6323    -0.6007     3.9349 </r>
       <r>   -13.5240    18.8239     5.9737 </r>
       <r>   -13.4157     0.2448     6.0002 </r>
       <r>   -13.3074    -0.0022     6.0000 </r>
       <r>   -13.1991     0.0000     6.0000 </r>
       <r>   -13.0908     0.0000     6.0000 </r>
       <r>   -12.9825     0.0000     6.0000 </r>
       <r>   -12.8742     0.0000     6.0000 </r>
       <r>   -12.7659     0.0000     6.0000 </r>
       <r>   -12.6575     0.0000     6.0000 </r>
       <r>   -12.5492    -0.0254     5.9973 </r>
       <r>   -12.4409     5.3348     6.5751 </r>
       <r>   -12.3326    50.4638    12.0407 </r>
       <r>   -12.2243    -0.3736    12.0003 </r>
       <r>   -12.1160    -0.0023    12.0000 </r>
       <r>   -12.0077     0.0000    12.0000 </r>
       <r>   -11.8994     0.0000    12.0000 </r>
       <r>   -11.7911     0.0000    12.0000 </r>
       <r>   -11.6828     0.0000    12.0000 </r>
       <r>   -11.5745     0.0000    12.0000 </r>
       <r>   -11.4662     0.0000    12.0000 </r>
       <r>   -11.3578     0.0000    12.0000 </r>
       <r>   -11.2495     0.0000    12.0000 </r>
       <r>   -11.1412     0.0000    12.0000 </r>
       <r>   -11.0329     0.0000    12.0000 </r>
       <r>   -10.9246     0.0000    12.0000 </r>
       <r>   -10.8163     0.0000    12.0000 </r>
       <r>   -10.7080     0.0000    12.0000 </r>
       <r>   -10.5997     0.0000    12.0000 </r>
       <r>   -10.4914     0.0000    12.0000 </r>
       <r>   -10.3831     0.0000    12.0000 </r>
       <r>   -10.2748     0.0000    12.0000 </r>
       <r>   -10.1664     0.0000    12.0000 </r>
       <r>   -10.0581     0.0000    12.0000 </r>
       <r>    -9.9498     0.0000    12.0000 </r>
       <r>    -9.8415     0.0000    12.0000 </r>
       <r>    -9.7332     0.0000    12.0000 </r>
       <r>    -9.6249     0.0000    12.0000 </r>
       <r>    -9.5166     0.0000    12.0000 </r>
       <r>    -9.4083     0.0000    12.0000 </r>
       <r>    -9.3000     0.0000    12.0000 </r>
       <r>    -9.1917     0.0000    12.0000 </r>
       <r>    -9.0834     0.0000    12.0000 </r>
       <r>    -8.9751    -0.0455    11.9951 </r>
       <r>    -8.8667     9.0617    12.9765 </r>
       <r>    -8.7584    28.3848    16.0508 </r>
       <r>    -8.6501    -0.4695    16.0000 </r>
       <r>    -8.5418     0.0000    16.0000 </r>
       <r>    -8.4335     0.0000    16.0000 </r>
       <r>    -8.3252     0.0000    16.0000 </r>
       <r>    -8.2169     0.0000    16.0000 </r>
       <r>    -8.1086     0.0000    16.0000 </r>
       <r>    -8.0003     0.0000    16.0000 </r>
       <r>    -7.8920     0.0000    16.0000 </r>
       <r>    -7.7837     0.0000    16.0000 </r>
       <r>    -7.6754     0.0000    16.0000 </r>
       <r>    -7.5670     0.0000    16.0000 </r>
       <r>    -7.4587     0.0000    16.0000 </r>
       <r>    -7.3504     0.0000    16.0000 </r>
       <r>    -7.2421     0.0000    16.0000 </r>
       <r>    -7.1338     0.0000    16.0000 </r>
       <r>    -7.0255     0.0000    16.0000 </r>
       <r>    -6.9172     0.0000    16.0000 </r>
       <r>    -6.8089     0.0000    16.0000 </r>
       <r>    -6.7006     0.0000    16.0000 </r>
       <r>    -6.5923     0.0000    16.0000 </r>
       <r>    -6.4840     0.0000    16.0000 </r>
       <r>    -6.3756     0.0000    16.0000 </r>
       <r>    -6.2673     0.0000    16.0000 </r>
       <r>    -6.1590     0.0000    16.0000 </r>
       <r>    -6.0507     0.0000    16.0000 </r>
       <r>    -5.9424     0.0000    16.0000 </r>
       <r>    -5.8341     0.0000    16.0000 </r>
       <r>    -5.7258     0.0000    16.0000 </r>
       <r>    -5.6175     0.0000    16.0000 </r>
       <r>    -5.5092     0.0000    16.0000 </r>
       <r>    -5.4009     0.0000    16.0000 </r>
       <r>    -5.2926     0.0000    16.0000 </r>
       <r>    -5.1843     0.0000    16.0000 </r>
       <r>    -5.0759     0.0000    16.0000 </r>
       <r>    -4.9676     0.0000    16.0000 </r>
       <r>    -4.8593     0.0000    16.0000 </r>
       <r>    -4.7510     0.0000    16.0000 </r>
       <r>    -4.6427     0.0000    16.0000 </r>
       <r>    -4.5344     0.0000    16.0000 </r>
       <r>    -4.4261     0.0000    16.0000 </r>
       <r>    -4.3178     0.0000    16.0000 </r>
       <r>    -4.2095     0.0000    16.0000 </r>
       <r>    -4.1012     0.0000    16.0000 </r>
       <r>    -3.9929     0.0000    16.0000 </r>
       <r>    -3.8846     0.0000    16.0000 </r>
       <r>    -3.7762     0.0000    16.0000 </r>
       <r>    -3.6679     0.0000    16.0000 </r>
       <r>    -3.5596     0.0000    16.0000 </r>
       <r>    -3.4513     0.0000    16.0000 </r>
       <r>    -3.3430     0.0000    16.0000 </r>
       <r>    -3.2347     0.0000    16.0000 </r>
       <r>    -3.1264     0.0000    16.0000 </r>
       <r>    -3.0181     0.0000    16.0000 </r>
       <r>    -2.9098     0.0000    16.0000 </r>
       <r>    -2.8015     0.0000    16.0000 </r>
       <r>    -2.6932     0.0000    16.0000 </r>
       <r>    -2.5848     0.0000    16.0000 </r>
       <r>    -2.4765     0.0000    16.0000 </r>
       <r>    -2.3682     0.0000    16.0000 </r>
       <r>    -2.2599     0.0000    16.0000 </r>
       <r>    -2.1516     0.0000    16.0000 </r>
       <r>    -2.0433     0.0000    16.0000 </r>
       <r>    -1.9350     0.0000    16.0000 </r>
       <r>    -1.8267     0.0000    16.0000 </r>
       <r>    -1.7184     0.0000    16.0000 </r>
       <r>    -1.6101     0.0000    16.0000 </r>
       <r>    -1.5018     0.0000    16.0000 </r>
       <r>    -1.3935     0.0000    16.0000 </r>
       <r>    -1.2851     0.0000    16.0000 </r>
       <r>    -1.1768     0.0000    16.0000 </r>
       <r>    -1.0685    -0.0001    16.0000 </r>
       <r>    -0.9602    -0.6529    15.9293 </r>
       <r>    -0.8519    19.3810    18.0284 </r>
       <r>    -0.7436    -0.2610    18.0001 </r>
       <r>    -0.6353    -0.0011    18.0000 </r>
       <r>    -0.5270    -0.0401    17.9957 </r>
       <r>    -0.4187     8.3195    18.8967 </r>
       <r>    -0.3104    29.1600    22.0550 </r>
       <r>    -0.2021    -0.5078    22.0000 </r>
       <r>    -0.0938     0.0000    22.0000 </r>
       <r>     0.0146     0.0000    22.0000 </r>
       <r>     0.1229     0.0000    22.0000 </r>
       <r>     0.2312     0.0000    22.0000 </r>
       <r>     0.3395     0.0000    22.0000 </r>
       <r>     0.4478    -0.0022    21.9998 </r>
       <r>     0.5561     0.2454    22.0263 </r>
       <r>     0.6644    18.8233    24.0651 </r>
       <r>     0.7727    -0.6006    24.0000 </r>
       <r>     0.8810    -0.0001    24.0000 </r>
       <r>     0.9893     0.0000    24.0000 </r>
       <r>     1.0976     0.0000    24.0000 </r>
       <r>     1.2060     0.0000    24.0000 </r>
       <r>     1.3143     0.0000    24.0000 </r>
       <r>     1.4226     0.0000    24.0000 </r>
       <r>     1.5309     0.0000    24.0000 </r>
       <r>     1.6392     0.0000    24.0000 </r>
       <r>     1.7475     0.0000    24.0000 </r>
       <r>     1.8558     0.0000    24.0000 </r>
       <r>     1.9641     0.0000    24.0000 </r>
       <r>     2.0724     0.0000    24.0000 </r>
      </set>
     </set>
    </array>
   </total>
  </dos>
 </calculation>
 <structure name="finalpos" >
  <crystal>
   <varray name="basis" >
    <v>      10.00000000       0.00000000       0.00000000 </v>
    <v>       0.00000000      10.00000000       0.00000000 </v>
    <v>       0.00000000       0.00000000      10.00000000 </v>
   </varray>
   <i name="volume">   1000.00000000 </i>
   <varray name="rec_basis" >
    <v>       0.10000000       0.00000000       0.00000000 </v>
    <v>       0.00000000       0.10000000       0.00000000 </v>
    <v>       0.00000000       0.00000000       0.10000000 </v>
   </varray>
  </crystal>
  <varray name="positions" >
   <v>       0.50000000       0.50000000       0.50000000 </v>
   <v>       0.38233100       0.50000000       0.50000000 </v>
   <v>       0.61766900       0.50000000       0.50000000 </v>
  </varray>
 </structure>
</modeling>
