unknown system                          
           1
    10.000000    0.000000    0.000000
     0.000000   10.000000    0.000000
     0.000000    0.000000   10.000000
   C    O 
   1   2
Direct configuration=     1
   0.50000000  0.50000000  0.50000000
   0.38233100  0.50000000  0.50000000
   0.61766900  0.50000000  0.50000000
