   1   1   1   0
  0.1946362E+02  0.3019346E-09  0.3019346E-09  0.3019346E-09  0.5000000E-15
  1.000000000000000E-004
  CAR 
 unknown system                          
     23.45013802     -3.59300838  301      5.45998743      1.00000000
     -3.593  0.0000E+00  0.0000E+00  0.0000E+00  0.0000E+00
     -3.503  0.0000E+00  0.0000E+00  0.0000E+00  0.0000E+00
     -3.413  0.0000E+00  0.0000E+00  0.0000E+00  0.0000E+00
     -3.323  0.0000E+00  0.0000E+00  0.0000E+00  0.0000E+00
     -3.232  0.0000E+00  0.0000E+00  0.0000E+00  0.0000E+00
     -3.142  0.0000E+00  0.0000E+00  0.0000E+00  0.0000E+00
     -3.052  0.0000E+00  0.0000E+00  0.0000E+00  0.0000E+00
     -2.962  0.0000E+00  0.0000E+00  0.0000E+00  0.0000E+00
     -2.872  0.0000E+00  0.0000E+00  0.0000E+00  0.0000E+00
     -2.782 -0.4629E-31 -0.3430E-40 -0.4173E-32 -0.3092E-41
     -2.692 -0.1729E-19 -0.9398E-27 -0.1559E-20 -0.8471E-28
     -2.601 -0.8583E-11 -0.3658E-16 -0.7737E-12 -0.3298E-17
     -2.511 -0.5333E-05 -0.1831E-08 -0.4808E-06 -0.1651E-09
     -2.421 -0.1487E-02 -0.1040E-03 -0.1345E-03 -0.9376E-05
     -2.331  0.4237E-01  0.5122E-02  0.3685E-02  0.4523E-03
     -2.241  0.2513E-02  0.3984E-01  0.3912E-02  0.4043E-02
     -2.151 -0.6128E-04 -0.1517E-02  0.3906E-02  0.3906E-02
     -2.061 -0.2930E-02 -0.3990E-04  0.3642E-02  0.3903E-02
     -1.970  0.8860E-01 -0.3056E-02  0.1163E-01  0.3627E-02
     -1.880  0.4539E-01  0.1323E+00  0.1572E-01  0.1555E-01
     -1.790 -0.1058E-02  0.8872E-03  0.1562E-01  0.1563E-01
     -1.700 -0.2602E-02 -0.1157E-03  0.1539E-01  0.1562E-01
     -1.610  0.8244E-01 -0.3725E-02  0.2282E-01  0.1529E-01
     -1.520  0.5143E-01  0.1311E+00  0.2746E-01  0.2711E-01
     -1.430 -0.1266E-02  0.2758E-02  0.2734E-01  0.2735E-01
     -1.339 -0.3766E-02 -0.2563E-03  0.2700E-01  0.2733E-01
     -1.249  0.1199E+00  0.1942E-02  0.3781E-01  0.2751E-01
     -1.159  0.5873E-01  0.1686E+00  0.4310E-01  0.4270E-01
     -1.069 -0.1562E-02  0.3096E-02  0.4296E-01  0.4298E-01
     -0.979 -0.7422E-02 -0.1127E-02  0.4229E-01  0.4288E-01
     -0.889  0.2623E+00  0.4875E-01  0.6594E-01  0.4727E-01
     -0.799  0.5395E-02  0.2206E+00  0.6642E-01  0.6716E-01
     -0.708 -0.4678E-02 -0.8640E-02  0.6600E-01  0.6638E-01
     -0.618  0.1272E+00  0.1615E-01  0.7747E-01  0.6783E-01
     -0.528  0.7466E-02  0.1187E+00  0.7814E-01  0.7853E-01
     -0.438 -0.2684E-03 -0.4529E-02  0.7812E-01  0.7813E-01
     -0.348 -0.4514E-02 -0.1274E-02  0.7771E-01  0.7801E-01
     -0.258  0.2567E+00  0.5632E-01  0.1009E+00  0.8309E-01
     -0.168  0.9896E-02  0.2114E+00  0.1017E+00  0.1021E+00
     -0.077  0.1249E+00  0.4174E-01  0.1130E+00  0.1059E+00
      0.013  0.1868E+00  0.8104E-01  0.1298E+00  0.1132E+00
      0.103  0.7687E-01  0.2633E+00  0.1368E+00  0.1369E+00
      0.193  0.4963E-01 -0.7670E-02  0.1412E+00  0.1363E+00
      0.283  0.1276E+00  0.1419E+00  0.1527E+00  0.1490E+00
      0.373 -0.4439E-02  0.3738E-01  0.1523E+00  0.1524E+00
      0.463 -0.7919E-02 -0.9538E-03  0.1516E+00  0.1523E+00
      0.554  0.2295E+00 -0.4371E-02  0.1723E+00  0.1519E+00
      0.644  0.3014E+00  0.4151E+00  0.1995E+00  0.1894E+00
      0.734  0.2481E+00  0.1580E+00  0.2219E+00  0.2036E+00
      0.824  0.8494E-02  0.2198E+00  0.2226E+00  0.2234E+00
      0.914  0.2108E-01 -0.1306E-01  0.2245E+00  0.2222E+00
      1.004  0.4026E+00  0.1568E+00  0.2608E+00  0.2364E+00
      1.094  0.1273E+00  0.2808E+00  0.2723E+00  0.2617E+00
      1.185  0.2776E+00  0.3041E+00  0.2973E+00  0.2891E+00
      1.275  0.1259E+00  0.8737E-01  0.3087E+00  0.2970E+00
      1.365  0.6941E+00  0.3419E+00  0.3712E+00  0.3278E+00
      1.455  0.4394E+00  0.6809E+00  0.4108E+00  0.3892E+00
      1.545  0.2933E+00  0.4079E+00  0.4373E+00  0.4259E+00
      1.635  0.1984E+00  0.1332E+00  0.4552E+00  0.4379E+00
      1.725  0.6319E+00  0.3935E+00  0.5121E+00  0.4734E+00
      1.816  0.3514E+00  0.6006E+00  0.5438E+00  0.5276E+00
      1.906  0.2929E+00  0.2955E+00  0.5702E+00  0.5542E+00
      1.996  0.3183E+00  0.3156E+00  0.5989E+00  0.5826E+00
      2.086  0.6355E+00  0.3164E+00  0.6562E+00  0.6112E+00
      2.176  0.1903E+00  0.5568E+00  0.6733E+00  0.6614E+00
      2.266  0.3348E+00  0.2699E+00  0.7035E+00  0.6857E+00
      2.356  0.5436E+00  0.2845E+00  0.7525E+00  0.7113E+00
      2.447  0.7431E+00  0.7654E+00  0.8195E+00  0.7803E+00
      2.537  0.3436E+00  0.6418E+00  0.8505E+00  0.8382E+00
      2.627  0.3375E+00  0.2427E+00  0.8809E+00  0.8601E+00
      2.717  0.2151E+00  0.3623E+00  0.9003E+00  0.8927E+00
      2.807  0.6216E+00  0.1684E+00  0.9563E+00  0.9079E+00
      2.897  0.4679E+00  0.7713E+00  0.9985E+00  0.9774E+00
      2.987  0.5184E+00  0.4284E+00  0.1045E+01  0.1016E+01
      3.078  0.6678E+00  0.7126E+00  0.1105E+01  0.1080E+01
      3.168  0.4640E+00  0.3561E+00  0.1147E+01  0.1112E+01
      3.258  0.2577E+00  0.4436E+00  0.1170E+01  0.1152E+01
      3.348  0.3419E+00  0.4681E+00  0.1201E+01  0.1195E+01
      3.438  0.4246E+00  0.2258E+00  0.1240E+01  0.1215E+01
      3.528  0.6568E+00  0.4575E+00  0.1299E+01  0.1256E+01
      3.618  0.7857E+00  0.8321E+00  0.1370E+01  0.1331E+01
      3.709  0.2058E+00  0.5999E+00  0.1388E+01  0.1385E+01
      3.799  0.5839E+00  0.2460E+00  0.1441E+01  0.1407E+01
      3.889  0.9065E+00  0.7287E+00  0.1523E+01  0.1473E+01
      3.979  0.4186E+00  0.7374E+00  0.1560E+01  0.1540E+01
      4.069  0.1282E+00  0.2538E+00  0.1572E+01  0.1562E+01
      4.159  0.3827E+00  0.2886E+00  0.1606E+01  0.1588E+01
      4.250  0.6874E+00  0.4949E+00  0.1668E+01  0.1633E+01
      4.340  0.9946E+00  0.7789E+00  0.1758E+01  0.1703E+01
      4.430  0.4339E+00  0.9271E+00  0.1797E+01  0.1787E+01
      4.520  0.3964E+00  0.1545E+00  0.1833E+01  0.1801E+01
      4.610  0.5787E+00  0.5289E+00  0.1885E+01  0.1848E+01
      4.700  0.5758E+00  0.6380E+00  0.1937E+01  0.1906E+01
      4.790  0.1302E+01  0.8168E+00  0.2054E+01  0.1980E+01
      4.881  0.5771E+00  0.1129E+01  0.2106E+01  0.2081E+01
      4.971  0.8265E+00  0.4124E+00  0.2181E+01  0.2119E+01
      5.061  0.4211E+00  0.1017E+01  0.2219E+01  0.2210E+01
      5.151  0.4962E+00  0.2309E+00  0.2263E+01  0.2231E+01
      5.241  0.1510E+01  0.9838E+00  0.2399E+01  0.2320E+01
      5.331  0.3852E+00  0.1103E+01  0.2434E+01  0.2419E+01
      5.421  0.6551E+00  0.2692E+00  0.2493E+01  0.2443E+01
      5.512  0.4913E+00  0.9213E+00  0.2538E+01  0.2527E+01
      5.602  0.4551E+00  0.2518E+00  0.2579E+01  0.2549E+01
      5.692  0.5563E+00  0.6017E+00  0.2629E+01  0.2603E+01
      5.782  0.9883E+00  0.5540E+00  0.2718E+01  0.2653E+01
      5.872  0.5288E+00  0.1084E+01  0.2765E+01  0.2751E+01
      5.962  0.5113E+00  0.2413E+00  0.2812E+01  0.2773E+01
      6.052  0.3352E+00  0.6500E+00  0.2842E+01  0.2831E+01
      6.143  0.1024E+01  0.4385E+00  0.2934E+01  0.2871E+01
      6.233  0.3157E+00  0.9230E+00  0.2963E+01  0.2954E+01
      6.323  0.8353E+00  0.2741E+00  0.3038E+01  0.2979E+01
      6.413  0.5797E+00  0.9943E+00  0.3090E+01  0.3069E+01
      6.503  0.5502E+00  0.4355E+00  0.3140E+01  0.3108E+01
      6.593  0.4245E+00  0.4896E+00  0.3178E+01  0.3152E+01
      6.683  0.5545E+00  0.5759E+00  0.3228E+01  0.3204E+01
      6.774  0.1592E+00  0.3271E+00  0.3242E+01  0.3233E+01
      6.864  0.7150E+00  0.3691E+00  0.3307E+01  0.3267E+01
      6.954  0.2561E+00  0.5855E+00  0.3330E+01  0.3319E+01
      7.044  0.3921E+00  0.1225E+00  0.3365E+01  0.3330E+01
      7.134  0.5204E+00  0.7257E+00  0.3412E+01  0.3396E+01
      7.224  0.6722E+00  0.4408E+00  0.3473E+01  0.3436E+01
      7.314  0.1247E+00  0.5334E+00  0.3484E+01  0.3484E+01
      7.405  0.2668E+00  0.3975E-01  0.3508E+01  0.3487E+01
      7.495  0.4515E+00  0.3356E+00  0.3549E+01  0.3517E+01
      7.585  0.7849E+00  0.6222E+00  0.3619E+01  0.3574E+01
      7.675  0.6244E+00  0.7836E+00  0.3676E+01  0.3644E+01
      7.765  0.6410E+00  0.6135E+00  0.3733E+01  0.3700E+01
      7.855  0.8700E+00  0.5969E+00  0.3812E+01  0.3753E+01
      7.945  0.2627E+00  0.9064E+00  0.3836E+01  0.3835E+01
      8.036  0.3793E+00  0.7623E-01  0.3870E+01  0.3842E+01
      8.126  0.5709E+00  0.4665E+00  0.3921E+01  0.3884E+01
      8.216  0.2918E+00  0.5290E+00  0.3948E+01  0.3932E+01
      8.306  0.6176E-01  0.2422E+00  0.3953E+01  0.3953E+01
      8.396  0.7669E-01 -0.1519E-01  0.3960E+01  0.3952E+01
      8.486  0.4865E+00  0.3232E+00  0.4004E+01  0.3981E+01
      8.576  0.7942E+00  0.4160E+00  0.4075E+01  0.4019E+01
      8.667  0.8831E+00  0.1128E+01  0.4155E+01  0.4120E+01
      8.757  0.2684E+00  0.4329E+00  0.4179E+01  0.4159E+01
      8.847  0.5301E+00  0.4907E+00  0.4227E+01  0.4204E+01
      8.937 -0.1174E-01  0.2618E+00  0.4226E+01  0.4227E+01
      9.027  0.1813E+00  0.5370E-03  0.4242E+01  0.4227E+01
      9.117  0.2594E+00  0.2473E+00  0.4266E+01  0.4250E+01
      9.207  0.4468E+00  0.3894E+00  0.4306E+01  0.4285E+01
      9.298  0.1581E+00  0.3123E+00  0.4320E+01  0.4313E+01
      9.388  0.3291E+00  0.1739E+00  0.4350E+01  0.4329E+01
      9.478  0.1360E+00  0.3540E+00  0.4362E+01  0.4360E+01
      9.568  0.5851E+00  0.8041E-01  0.4415E+01  0.4368E+01
      9.658  0.1027E+01  0.1191E+01  0.4508E+01  0.4475E+01
      9.748  0.4622E+00  0.5562E+00  0.4549E+01  0.4525E+01
      9.838  0.7535E+00  0.5815E+00  0.4617E+01  0.4578E+01
      9.929  0.1851E+00  0.5904E+00  0.4634E+01  0.4631E+01
     10.019  0.2788E+00  0.1429E+00  0.4659E+01  0.4644E+01
     10.109  0.9977E-01  0.2421E+00  0.4668E+01  0.4666E+01
     10.199  0.1529E+00  0.1795E-01  0.4682E+01  0.4667E+01
     10.289  0.4572E+00  0.3945E+00  0.4723E+01  0.4703E+01
     10.379  0.4048E+00  0.4324E+00  0.4759E+01  0.4742E+01
     10.469  0.5754E+00  0.4060E+00  0.4811E+01  0.4778E+01
     10.560  0.1599E+01  0.9629E+00  0.4955E+01  0.4865E+01
     10.650  0.5689E+00  0.1489E+01  0.5007E+01  0.4999E+01
     10.740  0.9591E+00  0.3272E+00  0.5093E+01  0.5029E+01
     10.830  0.5814E+00  0.1098E+01  0.5146E+01  0.5128E+01
     10.920  0.2545E+00  0.3249E+00  0.5169E+01  0.5157E+01
     11.010  0.1823E+00  0.2105E+00  0.5185E+01  0.5176E+01
     11.100  0.6064E+00  0.4620E+00  0.5240E+01  0.5218E+01
     11.191  0.4141E+00  0.3567E+00  0.5277E+01  0.5250E+01
     11.281  0.4287E+00  0.5937E+00  0.5316E+01  0.5303E+01
     11.371  0.7966E+00  0.5267E+00  0.5387E+01  0.5351E+01
     11.461  0.6273E+00  0.7175E+00  0.5444E+01  0.5416E+01
     11.551  0.5918E-01  0.3884E+00  0.5449E+01  0.5451E+01
     11.641 -0.1989E-02 -0.1467E-01  0.5449E+01  0.5449E+01
     11.731  0.1993E-01 -0.6248E-02  0.5451E+01  0.5449E+01
     11.822  0.3387E+00  0.1904E+00  0.5481E+01  0.5466E+01
     11.912  0.4583E+00  0.2396E+00  0.5523E+01  0.5487E+01
     12.002  0.3579E+00  0.7084E+00  0.5555E+01  0.5551E+01
     12.092  0.2454E+00  0.2987E-01  0.5577E+01  0.5554E+01
     12.182  0.6212E+00  0.5956E+00  0.5633E+01  0.5608E+01
     12.272  0.5197E+00  0.4389E+00  0.5680E+01  0.5647E+01
     12.362  0.1737E+00  0.5366E+00  0.5696E+01  0.5696E+01
     12.453  0.2619E-01 -0.1082E-01  0.5698E+01  0.5695E+01
     12.543  0.4378E+00  0.2112E+00  0.5738E+01  0.5714E+01
     12.633  0.4530E+00  0.5310E+00  0.5778E+01  0.5762E+01
     12.723  0.3123E-01  0.1722E+00  0.5781E+01  0.5777E+01
     12.813  0.2563E+00  0.2161E+00  0.5804E+01  0.5797E+01
     12.903  0.4426E+00  0.2608E+00  0.5844E+01  0.5820E+01
     12.993  0.2977E+00  0.3945E+00  0.5871E+01  0.5856E+01
     13.084  0.1784E+00  0.1603E+00  0.5887E+01  0.5870E+01
     13.174  0.3542E+00  0.4843E+00  0.5919E+01  0.5914E+01
     13.264 -0.6864E-02  0.4682E-01  0.5918E+01  0.5918E+01
     13.354  0.1294E+00  0.5561E-01  0.5930E+01  0.5923E+01
     13.444 -0.4171E-02  0.7715E-01  0.5930E+01  0.5930E+01
     13.534 -0.2521E-04 -0.2336E-02  0.5930E+01  0.5930E+01
     13.624 -0.7008E-02 -0.2495E-03  0.5929E+01  0.5930E+01
     13.715  0.1848E+00  0.6760E-02  0.5946E+01  0.5930E+01
     13.805  0.4520E+00  0.2747E+00  0.5986E+01  0.5955E+01
     13.895  0.2876E+00  0.6078E+00  0.6012E+01  0.6010E+01
     13.985  0.5509E-01  0.1361E-01  0.6017E+01  0.6011E+01
     14.075  0.2312E+00  0.2129E+00  0.6038E+01  0.6030E+01
     14.165  0.2303E+00  0.2106E+00  0.6059E+01  0.6049E+01
     14.255  0.1701E+00  0.1346E+00  0.6074E+01  0.6061E+01
     14.346  0.2240E+00  0.3099E+00  0.6094E+01  0.6089E+01
     14.436  0.8248E-02  0.4696E-01  0.6095E+01  0.6094E+01
     14.526  0.2715E+00  0.1237E+00  0.6120E+01  0.6105E+01
     14.616  0.5041E+00  0.3614E+00  0.6165E+01  0.6137E+01
     14.706  0.1544E+00  0.3876E+00  0.6179E+01  0.6172E+01
     14.796  0.6069E+00  0.2219E+00  0.6234E+01  0.6192E+01
     14.886  0.2602E+00  0.6632E+00  0.6257E+01  0.6252E+01
     14.977  0.2498E+00  0.1161E+00  0.6280E+01  0.6262E+01
     15.067  0.1300E+00  0.2090E+00  0.6291E+01  0.6281E+01
     15.157  0.1949E+00  0.2480E+00  0.6309E+01  0.6304E+01
     15.247  0.7639E-01  0.1274E+00  0.6316E+01  0.6315E+01
     15.337  0.4977E+00  0.8864E-01  0.6361E+01  0.6323E+01
     15.427  0.6318E-01  0.5058E+00  0.6366E+01  0.6369E+01
     15.517  0.2957E+00 -0.2532E-01  0.6393E+01  0.6366E+01
     15.608  0.3596E+00  0.5339E+00  0.6426E+01  0.6415E+01
     15.698  0.2332E-01  0.1252E+00  0.6428E+01  0.6426E+01
     15.788  0.2613E+00  0.9592E-01  0.6451E+01  0.6434E+01
     15.878  0.6374E+00  0.5131E+00  0.6509E+01  0.6481E+01
     15.968 -0.9255E-02  0.3107E+00  0.6508E+01  0.6509E+01
     16.058 -0.9398E-02 -0.1083E-01  0.6507E+01  0.6508E+01
     16.148  0.2425E+00  0.2630E-01  0.6529E+01  0.6510E+01
     16.239  0.3880E-01  0.2375E+00  0.6532E+01  0.6532E+01
     16.329  0.3808E+00  0.1932E+00  0.6567E+01  0.6549E+01
     16.419  0.1801E+00  0.2033E+00  0.6583E+01  0.6567E+01
     16.509  0.5321E+00  0.4015E+00  0.6631E+01  0.6603E+01
     16.599  0.5283E-01  0.3756E+00  0.6636E+01  0.6637E+01
     16.689  0.3823E+00  0.7472E-02  0.6670E+01  0.6638E+01
     16.779  0.3876E+00  0.5002E+00  0.6705E+01  0.6683E+01
     16.870  0.3683E+00  0.4922E+00  0.6738E+01  0.6727E+01
     16.960  0.3610E+00  0.2748E+00  0.6771E+01  0.6752E+01
     17.050 -0.1372E-01  0.1974E+00  0.6770E+01  0.6770E+01
     17.140 -0.3453E-04 -0.5557E-02  0.6770E+01  0.6770E+01
     17.230 -0.8442E-04 -0.1118E-05  0.6770E+01  0.6770E+01
     17.320 -0.5372E-02 -0.2743E-02  0.6769E+01  0.6769E+01
     17.411  0.2561E+00  0.1086E+00  0.6792E+01  0.6779E+01
     17.501  0.2433E+00  0.1835E+00  0.6814E+01  0.6796E+01
     17.591  0.2261E-01  0.2398E+00  0.6816E+01  0.6817E+01
     17.681  0.1332E+00 -0.2849E-01  0.6828E+01  0.6815E+01
     17.771  0.1255E+01  0.7223E+00  0.6941E+01  0.6880E+01
     17.861  0.1630E+00  0.7745E+00  0.6956E+01  0.6950E+01
     17.951  0.2947E+00  0.1624E+00  0.6983E+01  0.6964E+01
     18.042  0.2586E+00  0.2652E+00  0.7006E+01  0.6988E+01
     18.132  0.2543E+00  0.2419E+00  0.7029E+01  0.7010E+01
     18.222  0.1839E+00  0.3099E+00  0.7045E+01  0.7038E+01
     18.312  0.1323E+00  0.1318E+00  0.7057E+01  0.7050E+01
     18.402  0.3949E+00  0.2563E+00  0.7093E+01  0.7073E+01
     18.492  0.2932E+00  0.2758E+00  0.7119E+01  0.7098E+01
     18.582  0.4964E+00  0.5261E+00  0.7164E+01  0.7145E+01
     18.673  0.1557E+00  0.2486E+00  0.7178E+01  0.7168E+01
     18.763  0.3388E+00  0.2871E+00  0.7209E+01  0.7193E+01
     18.853  0.6399E+01  0.1933E+01  0.7785E+01  0.7368E+01
     18.943  0.4789E+01  0.9426E+01  0.8217E+01  0.8217E+01
     19.033  0.2705E+00  0.4955E-01  0.8242E+01  0.8222E+01
     19.123  0.1602E+00  0.3164E+00  0.8256E+01  0.8250E+01
     19.213  0.6058E-01  0.1247E+00  0.8261E+01  0.8262E+01
     19.304  0.1143E+00 -0.4729E-03  0.8272E+01  0.8262E+01
     19.394  0.4438E+00  0.3202E+00  0.8312E+01  0.8290E+01
     19.484  0.9738E+00  0.6213E+00  0.8400E+01  0.8346E+01
     19.574  0.4934E+00  0.7567E+00  0.8444E+01  0.8415E+01
     19.664  0.3524E+00  0.4604E+00  0.8476E+01  0.8456E+01
     19.754  0.2719E+00  0.2955E+00  0.8500E+01  0.8483E+01
     19.844  0.4919E+00  0.5716E+00  0.8545E+01  0.8534E+01
     19.935  0.3799E+00  0.2986E+00  0.8579E+01  0.8561E+01
     20.025 -0.8609E-02  0.1932E+00  0.8578E+01  0.8579E+01
     20.115  0.3018E-02 -0.1073E-01  0.8578E+01  0.8578E+01
     20.205  0.3973E+00  0.1889E+00  0.8614E+01  0.8595E+01
     20.295  0.1148E+00  0.3664E+00  0.8625E+01  0.8628E+01
     20.385  0.2370E+00  0.2554E+00  0.8646E+01  0.8651E+01
     20.475  0.4175E+00  0.3638E+00  0.8684E+01  0.8684E+01
     20.566  0.4776E+00  0.5629E+00  0.8727E+01  0.8734E+01
     20.656  0.3526E+00  0.1768E+00  0.8758E+01  0.8750E+01
     20.746  0.1718E+00  0.2490E+00  0.8774E+01  0.8773E+01
     20.836  0.1811E-01  0.3520E-02  0.8775E+01  0.8773E+01
     20.926  0.2755E+00  0.1657E+00  0.8800E+01  0.8788E+01
     21.016  0.3400E+00  0.2842E+00  0.8831E+01  0.8814E+01
     21.106  0.1805E+00  0.2165E+00  0.8847E+01  0.8833E+01
     21.197  0.2135E+00  0.2532E+00  0.8867E+01  0.8856E+01
     21.287  0.1422E+00  0.2405E+00  0.8879E+01  0.8878E+01
     21.377 -0.1234E-01  0.1544E-01  0.8878E+01  0.8879E+01
     21.467  0.2450E+00 -0.1049E-01  0.8900E+01  0.8878E+01
     21.557  0.1747E+00  0.5261E+00  0.8916E+01  0.8925E+01
     21.647  0.1019E+00  0.9753E-01  0.8925E+01  0.8934E+01
     21.737  0.2868E+00  0.8641E-01  0.8951E+01  0.8942E+01
     21.828  0.2319E-01  0.2636E+00  0.8953E+01  0.8966E+01
     21.918 -0.5119E-03 -0.1005E-01  0.8953E+01  0.8965E+01
     22.008 -0.3660E-04 -0.1130E-04  0.8953E+01  0.8965E+01
     22.098 -0.1231E-01 -0.1162E-02  0.8952E+01  0.8965E+01
     22.188  0.3824E+00  0.5179E-01  0.8986E+01  0.8969E+01
     22.278  0.1545E+00  0.3518E+00  0.9000E+01  0.9001E+01
     22.368 -0.4631E-02 -0.1235E-01  0.9000E+01  0.9000E+01
     22.459 -0.1647E-05 -0.3370E-04  0.9000E+01  0.9000E+01
     22.549 -0.5981E-12 -0.5215E-10  0.9000E+01  0.9000E+01
     22.639  0.0000E+00  0.0000E+00  0.9000E+01  0.9000E+01
     22.729  0.0000E+00  0.0000E+00  0.9000E+01  0.9000E+01
     22.819  0.0000E+00  0.0000E+00  0.9000E+01  0.9000E+01
     22.909  0.0000E+00  0.0000E+00  0.9000E+01  0.9000E+01
     22.999  0.0000E+00  0.0000E+00  0.9000E+01  0.9000E+01
     23.090  0.0000E+00  0.0000E+00  0.9000E+01  0.9000E+01
     23.180  0.0000E+00  0.0000E+00  0.9000E+01  0.9000E+01
     23.270  0.0000E+00  0.0000E+00  0.9000E+01  0.9000E+01
     23.360  0.0000E+00  0.0000E+00  0.9000E+01  0.9000E+01
     23.450  0.0000E+00  0.0000E+00  0.9000E+01  0.9000E+01
     23.45013802     -3.59300838  301      5.45998743      1.00000000
     -3.593  0.0000E+00  0.0000E+00  0.0000E+00  0.0000E+00  0.0000E+00  0.0000E+00  0.0000E+00  0.0000E+00  0.0000E+00  0.0000E+00  0.0000E+00  0.0000E+00  0.0000E+00  0.0000E+00  0.0000E+00  0.0000E+00  0.0000E+00  0.0000E+00
     -3.503  0.0000E+00  0.0000E+00  0.0000E+00  0.0000E+00  0.0000E+00  0.0000E+00  0.0000E+00  0.0000E+00  0.0000E+00  0.0000E+00  0.0000E+00  0.0000E+00  0.0000E+00  0.0000E+00  0.0000E+00  0.0000E+00  0.0000E+00  0.0000E+00
     -3.413  0.0000E+00  0.0000E+00  0.0000E+00  0.0000E+00  0.0000E+00  0.0000E+00  0.0000E+00  0.0000E+00  0.0000E+00  0.0000E+00  0.0000E+00  0.0000E+00  0.0000E+00  0.0000E+00  0.0000E+00  0.0000E+00  0.0000E+00  0.0000E+00
     -3.323  0.0000E+00  0.0000E+00  0.0000E+00  0.0000E+00  0.0000E+00  0.0000E+00  0.0000E+00  0.0000E+00  0.0000E+00  0.0000E+00  0.0000E+00  0.0000E+00  0.0000E+00  0.0000E+00  0.0000E+00  0.0000E+00  0.0000E+00  0.0000E+00
     -3.232  0.0000E+00  0.0000E+00  0.0000E+00  0.0000E+00  0.0000E+00  0.0000E+00  0.0000E+00  0.0000E+00  0.0000E+00  0.0000E+00  0.0000E+00  0.0000E+00  0.0000E+00  0.0000E+00  0.0000E+00  0.0000E+00  0.0000E+00  0.0000E+00
     -3.142  0.0000E+00  0.0000E+00  0.0000E+00  0.0000E+00  0.0000E+00  0.0000E+00  0.0000E+00  0.0000E+00  0.0000E+00  0.0000E+00  0.0000E+00  0.0000E+00  0.0000E+00  0.0000E+00  0.0000E+00  0.0000E+00  0.0000E+00  0.0000E+00
     -3.052  0.0000E+00  0.0000E+00  0.0000E+00  0.0000E+00  0.0000E+00  0.0000E+00  0.0000E+00  0.0000E+00  0.0000E+00  0.0000E+00  0.0000E+00  0.0000E+00  0.0000E+00  0.0000E+00  0.0000E+00  0.0000E+00  0.0000E+00  0.0000E+00
     -2.962  0.0000E+00  0.0000E+00  0.0000E+00  0.0000E+00  0.0000E+00  0.0000E+00  0.0000E+00  0.0000E+00  0.0000E+00  0.0000E+00  0.0000E+00  0.0000E+00  0.0000E+00  0.0000E+00  0.0000E+00  0.0000E+00  0.0000E+00  0.0000E+00
     -2.872  0.0000E+00  0.0000E+00  0.0000E+00  0.0000E+00  0.0000E+00  0.0000E+00  0.0000E+00  0.0000E+00  0.0000E+00  0.0000E+00  0.0000E+00  0.0000E+00  0.0000E+00  0.0000E+00  0.0000E+00  0.0000E+00  0.0000E+00  0.0000E+00
     -2.782 -0.3646E-31 -0.2698E-40 -0.1652E-33 -0.1224E-42 -0.1652E-33 -0.1224E-42 -0.1652E-33 -0.1224E-42 -0.3376E-35 -0.2500E-44 -0.3376E-35 -0.2500E-44 -0.8602E-48 -0.4355E-56 -0.3376E-35 -0.2500E-44 -0.1436E-47 -0.1697E-56
     -2.692 -0.1362E-19 -0.7392E-27 -0.6173E-22 -0.3354E-29 -0.6173E-22 -0.3354E-29 -0.6173E-22 -0.3354E-29 -0.1261E-23 -0.6850E-31 -0.1261E-23 -0.6850E-31 -0.3213E-36 -0.1193E-42 -0.1261E-23 -0.6850E-31 -0.5366E-36 -0.4651E-43
     -2.601 -0.6761E-11 -0.2878E-16 -0.3064E-13 -0.1306E-18 -0.3064E-13 -0.1306E-18 -0.3064E-13 -0.1306E-18 -0.6260E-15 -0.2667E-20 -0.6260E-15 -0.2667E-20 -0.1595E-27 -0.4645E-32 -0.6260E-15 -0.2667E-20 -0.2663E-27 -0.1810E-32
     -2.511 -0.4201E-05 -0.1441E-08 -0.1904E-07 -0.6536E-11 -0.1904E-07 -0.6536E-11 -0.1904E-07 -0.6536E-11 -0.3890E-09 -0.1335E-12 -0.3890E-09 -0.1335E-12 -0.9910E-22 -0.2326E-24 -0.3890E-09 -0.1335E-12 -0.1655E-21 -0.9064E-25
     -2.421 -0.1171E-02 -0.8181E-04 -0.5307E-05 -0.3712E-06 -0.5307E-05 -0.3712E-06 -0.5307E-05 -0.3712E-06 -0.1084E-06 -0.7581E-08 -0.1084E-06 -0.7581E-08 -0.2763E-19 -0.1321E-19 -0.1084E-06 -0.7581E-08 -0.4613E-19 -0.5147E-20
     -2.331  0.3338E-01  0.4029E-02  0.1513E-03  0.1828E-04  0.1513E-03  0.1828E-04  0.1513E-03  0.1828E-04  0.3091E-05  0.3733E-06  0.3091E-05  0.3733E-06  0.7874E-18  0.6504E-18  0.3091E-05  0.3733E-06  0.1315E-17  0.2535E-18
     -2.241  0.1979E-02  0.3133E-01  0.8970E-05  0.1422E-03  0.8970E-05  0.1422E-03  0.8970E-05  0.1422E-03  0.1833E-06  0.2904E-05  0.1833E-06  0.2904E-05 -0.5862E-16  0.5058E-17  0.1833E-06  0.2904E-05 -0.1759E-15  0.1971E-17
     -2.151 -0.4825E-04 -0.1193E-02 -0.2185E-06 -0.5415E-05 -0.2185E-06 -0.5415E-05 -0.2465E-06 -0.5415E-05 -0.5031E-08 -0.1106E-06 -0.4490E-08 -0.1106E-06 -0.2093E-09 -0.2320E-13 -0.5031E-08 -0.1106E-06 -0.6278E-09 -0.6959E-13
     -2.061 -0.2241E-02 -0.3053E-04 -0.9827E-05 -0.1344E-06 -0.9827E-05 -0.1344E-06 -0.9213E-04 -0.1183E-05 -0.1866E-05 -0.2395E-07 -0.2737E-06 -0.3671E-08 -0.6159E-06 -0.7849E-08 -0.1866E-05 -0.2395E-07 -0.1848E-05 -0.2355E-07
     -1.970  0.6775E-01 -0.2334E-02  0.2971E-03 -0.1025E-04  0.2971E-03 -0.1025E-04  0.2785E-02 -0.9607E-04  0.5643E-04 -0.1946E-05  0.8274E-05 -0.2852E-06  0.1862E-04 -0.6426E-06  0.5642E-04 -0.1946E-05  0.5586E-04 -0.1928E-05
     -1.880  0.3471E-01  0.1010E+00  0.1522E-03  0.4436E-03  0.1522E-03  0.4436E-03  0.1427E-02  0.4159E-02  0.2891E-04  0.8422E-04  0.4239E-05  0.1235E-04  0.9540E-05  0.2782E-04  0.2891E-04  0.8422E-04  0.2862E-04  0.8345E-04
     -1.790 -0.8093E-03  0.6775E-03 -0.3567E-05  0.2975E-05 -0.3567E-05  0.2975E-05 -0.3325E-04  0.2789E-04 -0.6741E-06  0.5648E-06 -0.1026E-06  0.8279E-07 -0.2224E-06  0.1866E-06 -0.6741E-06  0.5648E-06 -0.6672E-06  0.5597E-06
     -1.700 -0.1930E-02 -0.8769E-04 -0.7689E-04 -0.1129E-05 -0.7689E-04 -0.1129E-05 -0.7935E-05 -0.2833E-05 -0.2127E-05 -0.7876E-07 -0.1455E-04 -0.1663E-06 -0.4442E-06 -0.2321E-07 -0.2127E-05 -0.7876E-07 -0.1333E-05 -0.6963E-07
     -1.610  0.6115E-01 -0.2759E-02  0.2436E-02 -0.1101E-03  0.2436E-02 -0.1101E-03  0.2513E-03 -0.1136E-04  0.6740E-04 -0.3045E-05  0.4608E-03 -0.2081E-04  0.1407E-04 -0.6366E-06  0.6740E-04 -0.3045E-05  0.4222E-04 -0.1910E-05
     -1.520  0.3815E-01  0.9711E-01  0.1520E-02  0.3874E-02  0.1520E-02  0.3874E-02  0.1568E-03  0.3997E-03  0.4204E-04  0.1072E-03  0.2874E-03  0.7325E-03  0.8779E-05  0.2240E-04  0.4204E-04  0.1072E-03  0.2634E-04  0.6721E-04
     -1.430 -0.9388E-03  0.2043E-02 -0.3737E-04  0.8149E-04 -0.3741E-04  0.8149E-04 -0.4010E-05  0.8408E-05 -0.1075E-05  0.2254E-05 -0.7083E-05  0.1541E-04 -0.2193E-06  0.4712E-06 -0.1076E-05  0.2254E-05 -0.6447E-06  0.1414E-05
     -1.339 -0.2698E-02 -0.1864E-03 -0.4537E-04 -0.6641E-05 -0.2314E-03 -0.8426E-05 -0.4537E-04 -0.3669E-05 -0.1063E-04 -0.9667E-06 -0.1409E-04 -0.1535E-05 -0.2037E-04 -0.2148E-06 -0.1409E-04 -0.9999E-06 -0.5427E-10 -0.5750E-07
     -1.249  0.8590E-01  0.1401E-02  0.1377E-02  0.1501E-03  0.7526E-02 -0.1789E-03  0.1377E-02  0.1501E-03  0.3185E-03  0.4278E-04  0.4328E-03  0.3666E-04  0.6734E-03 -0.3605E-04  0.4328E-03  0.3666E-04  0.2959E-15 -0.4044E-12
     -1.159  0.4204E-01  0.1206E+00  0.2214E-03  0.1427E-02  0.4753E-02  0.1178E-01  0.2214E-03  0.1427E-02  0.2266E-04  0.2979E-03  0.1069E-03  0.4902E-03  0.4962E-03  0.1134E-02  0.1069E-03  0.4902E-03 -0.4159E-12 -0.2447E-17
     -1.069 -0.1117E-02  0.2209E-02 -0.7208E-05 -0.2615E-04 -0.1218E-03  0.3396E-03 -0.1016E-04 -0.2615E-04 -0.1422E-05 -0.9941E-05 -0.2824E-05 -0.3147E-05 -0.1286E-04  0.4007E-04 -0.2869E-05 -0.3147E-05 -0.1717E-06 -0.8317E-10
     -0.979 -0.5147E-02 -0.7833E-03 -0.1943E-03 -0.2631E-04 -0.1854E-04 -0.1390E-04 -0.5791E-03 -0.7750E-04 -0.1080E-03 -0.1440E-04 -0.9864E-05 -0.1552E-05 -0.2049E-04 -0.3930E-05 -0.1575E-04 -0.2333E-05 -0.2235E-04 -0.2975E-05
     -0.889  0.1819E+00  0.3375E-01  0.6866E-02  0.1276E-02  0.6547E-03  0.1217E-03  0.2047E-01  0.3804E-02  0.3816E-02  0.7090E-03  0.3486E-03  0.6479E-04  0.7240E-03  0.1347E-03  0.5564E-03  0.1034E-03  0.7898E-03  0.1469E-03
     -0.799  0.3742E-02  0.1527E+00  0.1413E-03  0.5774E-02  0.1316E-04  0.5507E-03  0.4211E-03  0.1721E-01  0.7841E-04  0.3208E-02  0.7006E-05  0.2931E-03  0.1492E-04  0.6095E-03  0.1118E-04  0.4678E-03  0.1626E-04  0.6645E-03
     -0.708 -0.3131E-02 -0.5974E-02 -0.1026E-03 -0.2248E-03 -0.9735E-04 -0.2785E-04 -0.3304E-03 -0.6716E-03 -0.8614E-04 -0.1270E-03 -0.5154E-04 -0.1481E-04 -0.4165E-05 -0.2323E-04 -0.8337E-04 -0.2371E-04 -0.1132E-04 -0.2583E-04
     -0.618  0.8497E-01  0.1077E-01  0.2763E-02  0.3509E-03  0.2763E-02  0.3511E-03  0.8935E-02  0.1135E-02  0.2367E-02  0.3005E-03  0.1463E-02  0.1858E-03  0.1013E-03  0.1286E-04  0.2367E-02  0.3006E-03  0.3040E-03  0.3863E-04
     -0.528  0.4988E-02  0.7917E-01  0.1622E-03  0.2580E-02  0.1622E-03  0.2580E-02  0.5245E-03  0.8340E-02  0.1389E-03  0.2209E-02  0.8588E-04  0.1365E-02  0.5949E-05  0.9466E-04  0.1389E-03  0.2209E-02  0.1785E-04  0.2840E-03
     -0.438 -0.1772E-03 -0.3021E-02 -0.9255E-05 -0.9843E-04 -0.1091E-04 -0.9843E-04 -0.1279E-04 -0.3182E-03 -0.3617E-05 -0.8427E-04 -0.5102E-05 -0.5210E-04 -0.7451E-06 -0.3612E-05 -0.3644E-05 -0.8427E-04 -0.6864E-06 -0.1084E-04
     -0.348 -0.2852E-02 -0.8184E-03 -0.6516E-05 -0.7013E-04 -0.6556E-03 -0.1075E-03 -0.1156E-04 -0.2842E-05 -0.1140E-05 -0.3708E-05 -0.9300E-05 -0.3990E-04 -0.2028E-03 -0.1282E-04 -0.1196E-04 -0.4332E-05  0.2496E-06 -0.3367E-05
     -0.258  0.1642E+00  0.3616E-01  0.9485E-02  0.3049E-02  0.2704E-01  0.4845E-02  0.5343E-03  0.1046E-03  0.4973E-03  0.1559E-03  0.5505E-02  0.1736E-02  0.5635E-02  0.6101E-03  0.7900E-03  0.1858E-03  0.4426E-03  0.1458E-03
     -0.168  0.6185E-02  0.1347E+00 -0.5212E-04  0.6497E-02  0.1461E-02  0.2378E-01  0.4878E-04  0.4441E-03  0.4769E-04  0.3175E-03  0.1459E-04  0.3796E-02  0.4708E-03  0.5503E-02  0.7292E-04  0.6056E-03 -0.6187E-05  0.3006E-03
     -0.077  0.7689E-01  0.2548E-01  0.7237E-02  0.2551E-02  0.6446E-02  0.1888E-02  0.1848E-02  0.6822E-03  0.3836E-02  0.1436E-02  0.6231E-02  0.2268E-02 -0.1683E-03 -0.1869E-03  0.3830E-02  0.1425E-02  0.1856E-03  0.6014E-04
      0.013  0.1144E+00  0.4981E-01  0.4048E-02  0.4660E-02  0.2592E-01  0.4270E-02  0.2972E-03  0.1187E-02  0.4103E-03  0.2462E-02  0.4482E-02  0.4016E-02  0.6357E-02 -0.7346E-04  0.5804E-03  0.2459E-02  0.2653E-04  0.1194E-03
      0.103  0.4711E-01  0.1610E+00  0.1717E-02  0.5779E-02  0.1058E-01  0.3635E-01  0.1205E-03  0.4453E-03  0.1755E-03  0.6352E-03  0.1863E-02  0.6368E-02  0.2584E-02  0.8894E-02  0.2360E-03  0.8728E-03  0.1284E-04  0.4026E-04
      0.193  0.2885E-01 -0.4524E-02  0.9016E-03 -0.1548E-03  0.5437E-02 -0.8913E-03  0.9371E-03 -0.1052E-03  0.1500E-02 -0.1717E-03  0.1865E-02 -0.2633E-03  0.9970E-03 -0.1831E-03  0.1901E-02 -0.2128E-03 -0.2855E-06 -0.4028E-06
      0.283  0.7371E-01  0.8219E-01  0.2722E-02  0.2785E-02  0.1238E-01  0.1484E-01  0.2722E-02  0.2788E-02  0.4673E-02  0.4616E-02  0.5493E-02  0.5638E-02  0.2152E-02  0.2687E-02  0.5493E-02  0.5641E-02 -0.1497E-10 -0.2012E-07
      0.373 -0.2561E-02  0.2144E-01 -0.9730E-04  0.8775E-03 -0.4197E-03  0.3276E-02 -0.9760E-04  0.8775E-03 -0.1686E-03  0.1562E-02 -0.1957E-03  0.1766E-02 -0.7193E-04  0.5348E-03 -0.1957E-03  0.1766E-02 -0.3719E-07 -0.6624E-11
      0.463 -0.4490E-02 -0.5454E-03 -0.4496E-03 -0.2828E-04 -0.8511E-05 -0.6772E-04 -0.9605E-03 -0.3832E-04 -0.5587E-03 -0.4551E-04 -0.8064E-04 -0.3997E-04 -0.7304E-04 -0.1224E-04 -0.7125E-04 -0.3982E-04 -0.6400E-04 -0.1273E-05
      0.554  0.1298E+00 -0.2324E-02  0.1284E-01 -0.1657E-03  0.2878E-03 -0.2670E-04  0.2758E-01 -0.4178E-03  0.1634E-01 -0.3669E-03  0.2804E-02 -0.2402E-03  0.2066E-02 -0.2157E-04  0.2493E-02 -0.2189E-03  0.1831E-02 -0.2505E-04
      0.644  0.1636E+00  0.2306E+00  0.1308E-01  0.2122E-01  0.8987E-03  0.9645E-03  0.3123E-01  0.4718E-01  0.2441E-01  0.3103E-01  0.1303E-01  0.9912E-02  0.1351E-02  0.3190E-02  0.1181E-01  0.8946E-02  0.1938E-02  0.3064E-02
      0.734  0.1198E+00  0.8183E-01  0.1769E-02  0.4493E-02  0.2512E-01  0.6356E-02  0.6676E-02  0.1159E-01  0.1308E-01  0.1112E-01  0.1379E-01  0.8024E-02  0.2174E-01  0.5618E-02  0.1376E-01  0.7461E-02  0.2745E-03  0.6763E-03
      0.824  0.4110E-02  0.1060E+00  0.1160E-03  0.1911E-02  0.2535E-03  0.1999E-01  0.4899E-03  0.6950E-02  0.8116E-03  0.1290E-01  0.8129E-03  0.1329E-01  0.1369E-03  0.1706E-01  0.8141E-03  0.1323E-01  0.2214E-04  0.3023E-03
      0.914  0.7519E-02 -0.5964E-02  0.3315E-03 -0.1670E-03 -0.1034E-02 -0.9411E-03  0.7191E-04 -0.2879E-03  0.4819E-02 -0.1138E-02  0.4915E-02 -0.1207E-02 -0.1198E-02 -0.7280E-03  0.4839E-02 -0.1144E-02  0.7970E-05 -0.1381E-04