    1    1    1    2
  0.1946362E+02  0.3019346E-09  0.3019346E-09  0.3019346E-09  0.5000000E-15
  1.000000000000000E-004
  CAR 
 unknown system                          
    5   60    9
 
  0.6250000E-01  0.6250000E-01  0.6250000E-01  0.3906250E-02
   1       -2.363774     -2.304680
   2        5.761654      5.813339
   3        5.962456      6.013924
   4        5.962456      6.013924
   5        8.653613      8.711950
   6        8.653613      8.711950
   7       18.124385     18.180575
   8       18.846760     18.875750
   9       21.701785     21.757837
 
  0.1875000E+00  0.6250000E-01  0.6250000E-01  0.1171875E-01
   1       -1.616656     -1.557796
   2        5.199339      5.251571
   3        6.250287      6.302112
   4        6.283751      6.334960
   5        8.116506      8.175126
   6        8.775934      8.833326
   7       18.844629     18.873612
   8       19.432908     19.487493
   9       20.164056     20.213557
 
  0.3125000E+00  0.6250000E-01  0.6250000E-01  0.1171875E-01
   1       -0.128188     -0.069700
   2        4.661638      4.714245
   3        6.128273      6.182831
   4        6.341085      6.395769
   5        8.453708      8.507750
   6        9.530549      9.583562
   7       17.678186     17.725962
   8       18.847745     18.876885
   9       21.185865     21.235951
 
  0.4375000E+00  0.6250000E-01  0.6250000E-01  0.1171875E-01
   1        0.939564      0.997593
   2        5.203373      5.256264
   3        5.720827      5.776787
   4        5.915410      5.972168
   5        9.959694     10.008932
   6       10.850464     10.898800
   7       15.780510     15.828240
   8       18.548033     18.598568
   9       18.855733     18.885437
 
 -0.4375000E+00  0.6250000E-01  0.6250000E-01  0.1171875E-01
   1        1.112006      1.169797
   2        5.357579      5.413489
   3        5.805792      5.862692
   4        5.989481      6.042799
   5       10.946933     10.993650
   6       11.050754     11.098120
   7       14.845883     14.894429
   8       17.736496     17.786841
   9       18.849193     18.878292
 
 -0.3125000E+00  0.6250000E-01  0.6250000E-01  0.1171875E-01
   1        0.701898      0.760099
   2        4.868808      4.921456
   3        5.786265      5.842597
   4        6.092971      6.148827
   5        9.636585      9.687205
   6       10.265661     10.315553
   7       16.398906     16.446252
   8       18.842860     18.872108
   9       19.404857     19.455785
 
 -0.1875000E+00  0.6250000E-01  0.6250000E-01  0.1171875E-01
   1       -0.651112     -0.592512
   2        4.732255      4.784813
   3        6.277843      6.331722
   4        6.418923      6.471992
   5        8.210326      8.265686
   6        9.104435      9.159705
   7       18.367301     18.415624
   8       18.850423     18.879822
   9       21.212155     21.262942
 
 -0.6250000E-01  0.6250000E-01  0.6250000E-01  0.1171875E-01
   1       -1.980004     -1.921038
   2        5.402667      5.454677
   3        6.166385      6.217698
   4        6.177864      6.229211
   5        8.186415      8.245071
   6        8.814747      8.872812
   7       18.845959     18.874958
   8       18.902297     18.957887
   9       20.939108     20.989834
 
  0.1875000E+00  0.1875000E+00  0.6250000E-01  0.1171875E-01
   1       -1.253693     -1.194997
   2        4.790488      4.842947
   3        6.535820      6.587698
   4        6.606391      6.657500
   5        7.477156      7.535231
   6        9.121827      9.179333
   7       18.844960     18.873937
   8       20.242384     20.295978
   9       20.669704     20.717277
 
  0.3125000E+00  0.1875000E+00  0.6250000E-01  0.2343750E-01
   1        0.000113      0.058345
   2        4.175307      4.228196
   3        5.949209      6.005724
   4        7.143183      7.195427
   5        7.833770      7.887186
   6        9.808393      9.862443
   7       18.839276     18.868297
   8       19.435319     19.481664
   9       22.169665     22.220904
 
  0.4375000E+00  0.1875000E+00  0.6250000E-01  0.2343750E-01
   1        1.374183      1.431818
   2        4.185181      4.238469
   3        5.168589      5.224950
   4        6.812707      6.868327
   5        9.585840      9.636247
   6       11.139965     11.188592
   7       16.670141     16.720420
   8       18.849161     18.878301
   9       20.152424     20.202425
 
 -0.4375000E+00  0.1875000E+00  0.6250000E-01  0.2343750E-01
   1        1.849872      1.907009
   2        4.355416      4.410885
   3        5.526985      5.580403
   4        6.486945      6.543782
   5       10.700727     10.747642
   6       12.162400     12.211176
   7       14.275497     14.326673
   8       18.848123     18.877207
   9       19.347266     19.395274
 
 -0.3125000E+00  0.1875000E+00  0.6250000E-01  0.2343750E-01
   1        1.690874      1.748317
   2        4.509760      4.563921
   3        5.077813      5.132678
   4        6.576426      6.633364
   5        9.570453      9.619526
   6       11.895277     11.942720
   7       15.801488     15.853290
   8       18.848846     18.877956
   9       19.776857     19.825908
 
 -0.1875000E+00  0.1875000E+00  0.6250000E-01  0.2343750E-01
   1        0.537598      0.595725
   2        4.270591      4.323527
   3        5.596062      5.651728
   4        7.036397      7.091824
   5        7.860579      7.913115
   6       10.526140     10.577093
   7       18.486487     18.532557
   8       18.860851     18.891009
   9       21.707546     21.759969
 
 -0.6250000E-01  0.1875000E+00  0.6250000E-01  0.2343750E-01
   1       -0.926857     -0.868229
   2        4.745221      4.797782
   3        6.307705      6.360975
   4        6.633345      6.684665
   5        7.707607      7.765150
   6        9.182440      9.238366
   7       18.842037     18.871034
   8       19.459113     19.507057
   9       20.864730     20.917691
 
  0.3125000E+00  0.3125000E+00  0.6250000E-01  0.1171875E-01
   1        0.693027      0.750701
   2        3.457656      3.510864
   3        5.794683      5.853798
   4        8.062965      8.113292
   5        8.417295      8.466919
   6       10.036988     10.092333
   7       18.842450     18.871419
   8       20.421468     20.472273
   9       22.201452     21.519160
 
  0.4375000E+00  0.3125000E+00  0.6250000E-01  0.2343750E-01
   1        1.617373      1.674448
   2        3.143363      3.196755
   3        5.415783      5.473542
   4        8.575343      8.629238
   5        9.681876      9.731093
   6       11.204877     11.253746
   7       17.472852     17.529117
   8       18.850365     18.879606
   9       19.656469     19.713133
 
 -0.4375000E+00  0.3125000E+00  0.6250000E-01  0.2343750E-01
   1        2.391923      2.448438
   2        3.392848      3.446839
   3        5.207101      5.262052
   4        8.000599      8.057268
   5       10.797861     10.843649
   6       13.090638     13.141124
   7       14.001150     14.055269
   8       18.844011     18.873120
   9       19.559757     19.614409
 
 -0.3125000E+00  0.3125000E+00  0.6250000E-01  0.2343750E-01
   1        3.006624      3.062955
   2        3.575210      3.630391
   3        4.758250      4.811568
   4        7.559854      7.618404
   5        9.786504      9.832205
   6       12.254912     12.308521
   7       16.271698     16.322601
   8       18.355090     18.404534
   9       18.851508     18.880827
 
 -0.1875000E+00  0.3125000E+00  0.6250000E-01  0.2343750E-01
   1        2.045103      2.102377
   2        4.230762      4.284104
   3        4.585361      4.641117
   4        7.167341      7.225602
   5        8.733452      8.781862
   6       12.098324     12.145600
   7       16.792941     16.848301
   8       18.850441     18.879609
   9       20.369329     20.418344
 
 -0.6250000E-01  0.3125000E+00  0.6250000E-01  0.2343750E-01
   1        0.581860      0.640058
   2        4.488894      4.541663
   3        5.711167      5.767130
   4        6.450940      6.506331
   5        8.790767      8.842709
   6       10.350434     10.401214
   7       17.368534     17.415896
   8       18.847996     18.877150
   9       20.518582     20.570252
 
  0.4375000E+00  0.4375000E+00  0.6250000E-01  0.1171875E-01
   1        1.418841      1.475960
   2        2.559652      2.613243
   3        6.823392      6.881842
   4        9.979959     10.031248
   5       10.762918     10.808697
   6       11.019019     11.067923
   7       16.896647     16.955590
   8       17.854424     17.913792
   9       18.822538     18.852737
 
 -0.4375000E+00  0.4375000E+00  0.6250000E-01  0.2343750E-01
   1        1.675721      1.732668
   2        2.632916      2.686495
   3        6.870717      6.926150
   4        9.752802      9.809781
   5       11.358368     11.399763
   6       12.744906     12.789874
   7       14.727401     14.788408
   8       16.900591     16.961554
   9       18.697324     18.744170
 
 -0.3125000E+00  0.4375000E+00  0.6250000E-01  0.2343750E-01
   1        2.409204      2.465760
   2        3.259472      3.313147
   3        5.605466      5.659412
   4        8.413081      8.471287
   5       10.736185     10.779557
   6       12.881644     12.940770
   7       14.783058     14.829961
   8       18.111910     18.163802
   9       18.855278     18.884364
 
 -0.1875000E+00  0.4375000E+00  0.6250000E-01  0.2343750E-01
   1        2.469465      2.526051
   2        3.849980      3.905377
   3        5.170805      5.224088
   4        7.045493      7.102793
   5       10.293469     10.340176
   6       12.573240     12.625122
   7       14.577726     14.628161
   8       18.847056     18.876131
   9       19.886051     19.934329
 
 -0.6250000E-01  0.4375000E+00  0.6250000E-01  0.2343750E-01
   1        1.322878      1.380536
   2        4.950479      5.005504
   3        5.657765      5.711814
   4        6.081317      6.138089
   5       10.444709     10.492788
   6       11.440480     11.487963
   7       15.070444     15.119943
   8       18.530125     18.580081
   9       18.850010     18.879201
 
 -0.4375000E+00 -0.4375000E+00  0.6250000E-01  0.1171875E-01
   1        1.356963      1.414111
   2        2.369819      2.423480
   3        7.703631      7.761294
   4       10.584948     10.639893
   5       11.436787     11.478478
   6       11.781735     11.824128
   7       15.576015     15.637939
   8       16.675032     16.737494
   9       17.746703     17.803473
 
 -0.3125000E+00 -0.4375000E+00  0.6250000E-01  0.2343750E-01
   1        1.743421      1.800351
   2        2.806399      2.859921
   3        6.108726      6.165473
   4        9.340655      9.396020
   5       10.723673     10.769697
   6       11.937419     11.983772
   7       15.832018     15.891082
   8       18.007911     18.066704
   9       18.844837     18.874022
 
 -0.1875000E+00 -0.4375000E+00  0.6250000E-01  0.2343750E-01
   1        2.060432      2.117313
   2        3.747709      3.801775
   3        4.955459      5.011179
   4        7.373161      7.429055
   5       10.503084     10.551546
   6       11.895959     11.943871
   7       15.309655     15.363460
   8       18.847764     18.876854
   9       20.492366     20.539478
 
 -0.3125000E+00 -0.3125000E+00  0.6250000E-01  0.1171875E-01
   1        1.306352      1.363557
   2        2.929717      2.983161
   3        5.949185      6.008293
   4        9.022905      9.072988
   5        9.532678      9.580737
   6       10.543070     10.596338
   7       18.733023     18.780145
   8       18.883507     18.921737
   9       19.604027     19.661070
 
 -0.1875000E+00 -0.3125000E+00  0.6250000E-01  0.2343750E-01
   1        0.970490      1.028128
   2        3.615759      3.668932
   3        5.421918      5.479693
   4        7.791770      7.844859
   5        8.619149      8.670098
   6       10.508566     10.560292
   7       18.810391     18.842055
   8       19.026331     19.074472
   9       21.460304     21.514708
 
 -0.1875000E+00 -0.1875000E+00  0.6250000E-01  0.1171875E-01
   1       -0.287627     -0.229366
   2        4.102048      4.154927
   3        6.303170      6.361219
   4        7.241005      7.291755
   5        7.547769      7.599271
   6        9.544392      9.601032
   7       18.844128     18.873099
   8       20.650485     20.695577
   9       22.149324     22.201906
 
  0.1875000E+00  0.1875000E+00  0.1875000E+00  0.3906250E-02
   1       -1.283702     -1.224918
   2        5.054557      5.106902
   3        6.297470      6.349622
   4        6.297470      6.349622
   5        8.487537      8.544720
   6        8.487537      8.544720
   7       18.788710     18.830285
   8       18.873384     18.911812
   9       20.466932     20.518360
 
  0.3125000E+00  0.1875000E+00  0.1875000E+00  0.1171875E-01
   1       -0.305733     -0.247270
   2        4.576727      4.629464
   3        6.059862      6.114036
   4        6.792143      6.844659
   5        7.632896      7.689712
   6        9.705999      9.759257
   7       18.781067     18.818252
   8       18.898328     18.936730
   9       21.581226     21.633478
 
  0.4375000E+00  0.1875000E+00  0.1875000E+00  0.1171875E-01
   1        1.251568      1.309424
   2        4.310608      4.363632
   3        5.175922      5.231435
   4        6.930382      6.988383
   5        8.109463      8.159471
   6       11.409392     11.457967
   7       17.692546     17.743293
   8       18.852669     18.881967
   9       20.979174     21.031496
 
 -0.4375000E+00  0.1875000E+00  0.1875000E+00  0.1171875E-01
   1        2.051981      2.109066
   2        4.320761      4.376032
   3        5.198474      5.251955
   4        6.646774      6.704109
   5        9.864094      9.911865
   6       12.254530     12.303224
   7       15.166741     15.218494
   8       18.848402     18.877492
   9       19.886083     19.932571
 
 -0.3125000E+00  0.1875000E+00  0.1875000E+00  0.1171875E-01
   1        1.929224      1.986264
   2        4.085825      4.140726
   3        5.283618      5.337990
   4        6.800132      6.856417
   5       11.046334     11.092660
   6       11.750020     11.800132
   7       14.542494     14.594162
   8       18.847895     18.876978
   9       19.767842     19.815465
 
 -0.1875000E+00  0.1875000E+00  0.1875000E+00  0.1171875E-01
   1        1.118308      1.175978
   2        3.818147      3.871309
   3        5.321739      5.378996
   4        7.202659      7.256723
   5        9.412464      9.463173
   6       10.533843     10.584589
   7       17.782430     17.832049
   8       18.851970     18.881256
   9       20.981665     21.030871
 
  0.3125000E+00  0.3125000E+00  0.1875000E+00  0.1171875E-01
   1        0.203233      0.261483
   2        4.291437      4.344261
   3        5.863954      5.920357
   4        6.714620      6.768306
   5        8.509266      8.561634
   6        9.832001      9.885131
   7       18.281059     18.327958
   8       18.852323     18.881760
   9       21.460755     21.511634
 
  0.4375000E+00  0.3125000E+00  0.1875000E+00  0.2343750E-01
   1        1.463350      1.520880
   2        3.901217      3.954367
   3        4.973590      5.030254
   4        7.477892      7.534269
   5        8.609373      8.659390
   6       11.362724     11.411374
   7       17.714991     17.767668
   8       18.853073     18.882399
   9       21.096549     21.145520
 
 -0.4375000E+00  0.3125000E+00  0.1875000E+00  0.2343750E-01
   1        2.779262      2.835518
   2        3.847036      3.902349
   3        4.287498      4.341729
   4        7.628078      7.686339
   5        9.600849      9.647513
   6       12.476376     12.525292
   7       16.120735     16.176455
   8       18.844678     18.874363
   9       18.965156     19.016039
 
 -0.3125000E+00  0.3125000E+00  0.1875000E+00  0.2343750E-01
   1        2.898508      2.954557
   2        3.495684      3.550856
   3        4.865317      4.918870
   4        7.519549      7.577377
   5       10.417665     10.463793
   6       13.700250     13.751565
   7       13.817410     13.870163
   8       18.844441     18.873556
   9       19.523568     19.577525
 
 -0.1875000E+00  0.3125000E+00  0.1875000E+00  0.2343750E-01
   1        2.170588      2.227348
   2        3.541357      3.594752
   3        4.703653      4.760381
   4        8.093119      8.150076
   5        9.596421      9.644349
   6       12.086552     12.133585
   7       16.445602     16.502890
   8       18.848880     18.878026
   9       19.445088     19.499515
 
  0.4375000E+00  0.4375000E+00  0.1875000E+00  0.1171875E-01
   1        1.785246      1.842271
   2        3.373190      3.426703
   3        5.220973      5.278018
   4        7.861812      7.916232
   5       10.702616     10.752358
   6       11.046902     11.094977
   7       16.286401     16.340599
   8       18.848267     18.877376
   9       20.441083     20.501240
 
 -0.4375000E+00  0.4375000E+00  0.1875000E+00  0.2343750E-01
   1        2.327509      2.383987
   2        3.270288      3.323746
   3        5.141229      5.196990
   4        8.552097      8.609906
   5       10.568604     10.613409
   6       12.836443     12.883992
   7       15.316058     15.374471
   8       17.917667     17.974276
   9       18.848934     18.878112
 
 -0.3125000E+00  0.4375000E+00  0.1875000E+00  0.2343750E-01
   1        2.791713      2.847511
   2        3.817572      3.871095
   3        4.732673      4.786342
   4        7.591879      7.651684
   5       11.298137     11.339707
   6       14.102955     14.159415
   7       14.943412     14.996855
   8       16.496584     16.552274
   9       18.849361     18.878515
 
 -0.1875000E+00  0.4375000E+00  0.1875000E+00  0.2343750E-01
   1        2.979248      3.034949
   2        3.745120      3.799508
   3        4.361962      4.416431
   4        7.812041      7.870737
   5       10.515029     10.559436
   6       13.095820     13.148182
   7       15.504967     15.559431
   8       17.712325     17.766162
   9       18.849790     18.878969
 
 -0.4375000E+00 -0.4375000E+00  0.1875000E+00  0.1171875E-01
   1        1.929551      1.986378
   2        2.872941      2.926516
   3        6.388259      6.442980
   4        9.252276      9.309184
   5       11.053787     11.096306
   6       13.299412     13.358508
   7       13.789961     13.837190
   8       18.454616     18.504376
   9       18.715388     18.897749
 
 -0.3125000E+00 -0.4375000E+00  0.1875000E+00  0.2343750E-01
   1        2.236898      2.293386
   2        3.135596      3.189056
   3        5.777140      5.831333
   4        8.544561      8.603272
   5       11.311322     11.352808
   6       13.788911     13.837636
   7       14.467462     14.526357
   8       16.772098     16.830673
   9       18.846705     18.875887
 
 -0.3125000E+00 -0.3125000E+00  0.1875000E+00  0.1171875E-01
   1        1.972287      2.029093
   2        3.038698      3.092298
   3        5.758565      5.814570
   4        8.616858      8.671988
   5       11.209450     11.254802
   6       12.210692     12.259935
   7       14.639961     14.696561
   8       18.843515     18.872588
   9       19.279503     19.340541
 
  0.3125000E+00  0.3125000E+00  0.3125000E+00  0.3906250E-02
   1        0.215025      0.273467
   2        4.798500      4.851010
   3        6.094613      6.150081
   4        6.094613      6.150081
   5        9.385432      9.437466
   6        9.385432      9.437466
   7       16.822641     16.870278
   8       18.845463     18.874556
   9       20.359151     20.409065
 
  0.4375000E+00  0.3125000E+00  0.3125000E+00  0.1171875E-01
   1        1.092472      1.150427
   2        4.658639      4.711479
   3        5.429876      5.485619
   4        6.341384      6.398185
   5        9.006511      9.057020
   6       11.189272     11.237921
   7       16.685230     16.734035
   8       18.848063     18.877214
   9       19.748289     19.800201
 
 -0.4375000E+00  0.3125000E+00  0.3125000E+00  0.1171875E-01
   1        2.576842      2.633668
   2        4.068429      4.123829
   3        4.597002      4.650396
   4        7.203035      7.261692
   5        9.131875      9.179001
   6       12.283200     12.332550
   7       16.423516     16.477874
   8       18.848831     18.877964
   9       19.341295     19.389718
 
 -0.3125000E+00  0.3125000E+00  0.3125000E+00  0.1171875E-01
   1        2.710523      2.767104
   2        3.450398      3.504572
   3        5.248057      5.301635
   4        7.996658      8.054826
   5       10.196481     10.241094
   6       12.131543     12.188946
   7       15.839688     15.887032
   8       18.194419     18.243435
   9       18.853429     18.882822
 
  0.4375000E+00  0.4375000E+00  0.3125000E+00  0.1171875E-01
   1        1.296368      1.354074
   2        4.630945      4.684842
   3        5.427094      5.482610
   4        6.335858      6.391940
   5       10.468455     10.518252
   6       10.890378     10.938126
   7       15.717595     15.766768
   8       18.845998     18.875288
   9       19.123641     19.173827
 
 -0.4375000E+00  0.4375000E+00  0.3125000E+00  0.2343750E-01
   1        2.330025      2.386723
   2        3.952378      4.007658
   3        4.958319      5.012184
   4        7.054777      7.111815
   5       10.208371     10.255855
   6       12.530629     12.579110
   7       14.781635     14.834809
   8       18.847757     18.876838
   9       20.624883     20.304045
 
 -0.3125000E+00  0.4375000E+00  0.3125000E+00  0.2343750E-01
   1        3.018484      3.074536
   2        3.526751      3.581150
   3        4.788467      4.841851
   4        7.712884      7.771887
   5       10.559048     10.603106
   6       12.949037     13.005324
   7       15.522251     15.572389
   8       17.723384     17.775814
   9       18.851052     18.880285
 
 -0.4375000E+00 -0.4375000E+00  0.3125000E+00  0.1171875E-01
   1        2.462740      2.519279
   2        3.626861      3.681645
   3        5.239287      5.293179
   4        7.420627      7.477432
   5       10.705965     10.751642
   6       12.588632     12.643864
   7       14.220491     14.269196
   8       18.845836     18.874905
   9       19.777559     19.824996
 
  0.4375000E+00  0.4375000E+00  0.4375000E+00  0.3906250E-02
   1        0.926223      0.984205
   2        5.732349      5.789194
   3        5.732349      5.789194
   4        5.742513      5.794942
   5       10.696373     10.743968
   6       10.696373     10.743968
   7       15.265409     15.312951
   8       17.731689     17.782500
   9       18.850072     18.879205
 
 -0.4375000E+00  0.4375000E+00  0.4375000E+00  0.1171875E-01
   1        1.503250      1.560715
   2        4.801684      4.857217
   3        5.770946      5.824311
   4        6.125415      6.182403
   5       10.603255     10.650345
   6       11.798092     11.845940
   7       14.580220     14.630364
   8       18.634976     18.684095
   9       18.848579     18.877675
