       N       E                     dE             d eps       ncg     rms          rms(c)
DAV:   1     0.974212992996E+01    0.97421E+01   -0.21419E+03  2208   0.407E+02
DAV:   2    -0.147030554622E+01   -0.11212E+02   -0.10117E+02  3016   0.625E+01
DAV:   3    -0.167182588728E+01   -0.20152E+00   -0.19764E+00  2509   0.748E+00
DAV:   4    -0.167224148454E+01   -0.41560E-03   -0.41554E-03  2879   0.299E-01
DAV:   5    -0.167224221915E+01   -0.73461E-06   -0.73382E-06  2504   0.838E-03    0.618E+00
DAV:   6    -0.110282542163E+02   -0.93560E+01   -0.26125E+00  2320   0.514E+00    0.477E+00
DAV:   7    -0.108989305856E+02    0.12932E+00   -0.22587E-01  2517   0.260E+00    0.628E+00
DAV:   8    -0.111894560750E+02   -0.29053E+00   -0.66789E-01  2351   0.524E+00    0.394E+00
DAV:   9    -0.115231019870E+02   -0.33365E+00   -0.30832E-01  2474   0.324E+00    0.128E+00
DAV:  10    -0.115632712878E+02   -0.40169E-01   -0.16994E-02  2976   0.559E-01    0.940E-01
DAV:  11    -0.115740978204E+02   -0.10827E-01   -0.55376E-04  2431   0.119E-01    0.783E-01
DAV:  12    -0.115937092571E+02   -0.19611E-01   -0.20507E-02  2437   0.765E-01    0.312E-01
DAV:  13    -0.115950781775E+02   -0.13689E-02   -0.14582E-02  2334   0.593E-01    0.586E-02
DAV:  14    -0.115949131452E+02    0.16503E-03   -0.25817E-04  2430   0.103E-01    0.531E-02
DAV:  15    -0.115947920347E+02    0.12111E-03   -0.23501E-05  1142   0.280E-02    0.607E-02
DAV:  16    -0.115947269484E+02    0.65086E-04   -0.11480E-04  1271   0.559E-02
   1 F= -.11594727E+02 E0= -.11594671E+02  d E =-.166396E-03  mag=     0.0548
