 vasp.5.2.12 11Nov11 complex                                                    
  
 executed on             LinuxIFC date 2012.10.17  11:06:50
 running on    1 nodes
 distr:  one band on    1 nodes,    1 groups


--------------------------------------------------------------------------------------------------------


 INCAR:
 POTCAR:    PAW_PBE Ta 17Jan2003                  
 POTCAR:    PAW_PBE Ta 17Jan2003                  
   VRHFIN =Ta:  6s5d                                                            
   LEXCH  = PE                                                                  
   EATOM  =   130.6506 eV,    9.6025 Ry                                         
                                                                                
   TITEL  = PAW_PBE Ta 17Jan2003                                                
   LULTRA =        F    use ultrasoft PP ?                                      
   IUNSCR =        1    unscreen: 0-lin 1-nonlin 2-no                           
   RPACOR =    2.330    partial core radius                                     
   POMASS =  180.948; ZVAL   =    5.000    mass and valenz                      
   RCORE  =    2.900    outmost cutoff radius                                   
   RWIGS  =    2.840; RWIGS  =    1.503    wigner-seitz radius (au A)           
   ENMAX  =  223.667; ENMIN  =  167.750 eV                                      
   RCLOC  =    2.205    cutoff for local pot                                    
   LCOR   =        T    correct aug charges                                     
   LPAW   =        T    paw PP                                                  
   EAUG   =  332.075                                                            
   DEXC   =    -.049                                                            
   RMAX   =    3.083    core radius for proj-oper                               
   RAUG   =    1.300    factor for augmentation sphere                          
   RDEP   =    3.060    radius for radial grids                                 
   QCUT   =   -4.055; QGAM   =    8.109    optimization parameters              
                                                                                
   Description                                                                  
     l     E      TYP  RCUT    TYP  RCUT                                        
     2   .000     23  2.500                                                     
     2   .000     23  2.500                                                     
     0   .000     23  2.500                                                     
     0   .000     23  2.500                                                     
     1   .000     23  2.900                                                     
     1  2.000     23  2.900                                                     
     3   .000      7   .000                                                     
  local pseudopotential read in
  partial core-charges read in
  atomic valenz-charges read in
  non local Contribution for L=           2  read in
    real space projection operators read in
  non local Contribution for L=           2  read in
    real space projection operators read in
  non local Contribution for L=           0  read in
    real space projection operators read in
  non local Contribution for L=           0  read in
    real space projection operators read in
  non local Contribution for L=           1  read in
    real space projection operators read in
  non local Contribution for L=           1  read in
    real space projection operators read in
    PAW grid and wavefunctions read in
 
   number of l-projection  operators is LMAX  =           6
   number of lm-projection operators is LMMAX =          18
 
  PAW_PBE Ta 17Jan2003                  :
 energy of atom  1       EATOM= -130.6506
 kinetic energy error for atom=    0.0018 (will be added to EATOM!!)
 
 
 POSCAR: Ta                                      
  positions in cartesian coordinates
  No initial velocities read in
 exchange correlation table for  LEXCH =        8
   RHO(1)=    0.500       N(1)  =     2000
   RHO(2)=  100.500       N(2)  =     4000
 


--------------------------------------------------------------------------------------------------------


 ion  position               nearest neighbor table
   1  0.000  0.000  0.000-
 
  LATTYP: Found a face centered cubic cell.
 ALAT       =     4.2700000000
  
  Lattice vectors:
  
 A1 = (   0.0000000000,   2.1350000000,   2.1350000000)
 A2 = (   2.1350000000,   0.0000000000,   2.1350000000)
 A3 = (   2.1350000000,   2.1350000000,   0.0000000000)
 Subroutine PRICEL returns:
 Original cell was already a primitive cell.
 

Analysis of symmetry for initial positions (statically):

 Routine SETGRP: Setting up the symmetry group for a 
 face centered cubic supercell.


 Subroutine GETGRP returns: Found 48 space group operations
 (whereof 48 operations were pure point group operations)
 out of a pool of 48 trial point group operations.


The static configuration has the point symmetry O_h .

Analysis of symmetry for dynamics (positions and initial velocities):

 Subroutine DYNSYM returns: Found 48 space group operations
 (whereof 48 operations were pure point group operations)
 out of a pool of 48 trial space group operations
 (whereof 48 operations were pure point group operations)
 and found also     1 'primitive' translations


The dynamic configuration has the point symmetry O_h .

Analysis of magnetic symmetry:

 Subroutine MAGSYM returns: Found 48 space group operations
 (whereof 48 operations were pure point group operations)
 out of a pool of 48 trial space group operations
 (whereof 48 operations were pure point group operations)
 and found also     1 'primitive' translations


The magnetic configuration has the point symmetry O_h .
 
 
 KPOINTS: KPOINTS created by Atomic Simulation Env

Automatic generation of k-mesh.
 
 Subroutine IBZKPT returns following result:
 ===========================================
 
 Found     60 irreducible k-points:
 
 Following reciprocal coordinates:
            Coordinates               Weight
  0.062500  0.062500  0.062500     96.000000
  0.187500  0.062500  0.062500    288.000000
  0.312500  0.062500  0.062500    288.000000
  0.437500  0.062500  0.062500    288.000000
 -0.437500  0.062500  0.062500    288.000000
 -0.312500  0.062500  0.062500    288.000000
 -0.187500  0.062500  0.062500    288.000000
 -0.062500  0.062500  0.062500    288.000000
  0.187500  0.187500  0.062500    288.000000
  0.312500  0.187500  0.062500    576.000000
  0.437500  0.187500  0.062500    576.000000
 -0.437500  0.187500  0.062500    576.000000
 -0.312500  0.187500  0.062500    576.000000
 -0.187500  0.187500  0.062500    576.000000
 -0.062500  0.187500  0.062500    576.000000
  0.312500  0.312500  0.062500    288.000000
  0.437500  0.312500  0.062500    576.000000
 -0.437500  0.312500  0.062500    576.000000
 -0.312500  0.312500  0.062500    576.000000
 -0.187500  0.312500  0.062500    576.000000
 -0.062500  0.312500  0.062500    576.000000
  0.437500  0.437500  0.062500    288.000000
 -0.437500  0.437500  0.062500    576.000000
 -0.312500  0.437500  0.062500    576.000000
 -0.187500  0.437500  0.062500    576.000000
 -0.062500  0.437500  0.062500    576.000000
 -0.437500 -0.437500  0.062500    288.000000
 -0.312500 -0.437500  0.062500    576.000000
 -0.187500 -0.437500  0.062500    576.000000
 -0.312500 -0.312500  0.062500    288.000000
 -0.187500 -0.312500  0.062500    576.000000
 -0.187500 -0.187500  0.062500    288.000000
  0.187500  0.187500  0.187500     96.000000
  0.312500  0.187500  0.187500    288.000000
  0.437500  0.187500  0.187500    288.000000
 -0.437500  0.187500  0.187500    288.000000
 -0.312500  0.187500  0.187500    288.000000
 -0.187500  0.187500  0.187500    288.000000
  0.312500  0.312500  0.187500    288.000000
  0.437500  0.312500  0.187500    576.000000
 -0.437500  0.312500  0.187500    576.000000
 -0.312500  0.312500  0.187500    576.000000
 -0.187500  0.312500  0.187500    576.000000
  0.437500  0.437500  0.187500    288.000000
 -0.437500  0.437500  0.187500    576.000000
 -0.312500  0.437500  0.187500    576.000000
 -0.187500  0.437500  0.187500    576.000000
 -0.437500 -0.437500  0.187500    288.000000
 -0.312500 -0.437500  0.187500    576.000000
 -0.312500 -0.312500  0.187500    288.000000
  0.312500  0.312500  0.312500     96.000000
  0.437500  0.312500  0.312500    288.000000
 -0.437500  0.312500  0.312500    288.000000
 -0.312500  0.312500  0.312500    288.000000
  0.437500  0.437500  0.312500    288.000000
 -0.437500  0.437500  0.312500    576.000000
 -0.312500  0.437500  0.312500    576.000000
 -0.437500 -0.437500  0.312500    288.000000
  0.437500  0.437500  0.437500     96.000000
 -0.437500  0.437500  0.437500    288.000000
 
 Following cartesian coordinates:
            Coordinates               Weight
  0.014637  0.014637  0.014637     96.000000
 -0.014637  0.043911  0.043911    288.000000
 -0.043911  0.073185  0.073185    288.000000
 -0.073185  0.102459  0.102459    288.000000
  0.131733 -0.102459 -0.102459    288.000000
  0.102459 -0.073185 -0.073185    288.000000
  0.073185 -0.043911 -0.043911    288.000000
  0.043911 -0.014637 -0.014637    288.000000
  0.014637  0.014637  0.073185    288.000000
 -0.014637  0.043911  0.102459    576.000000
 -0.043911  0.073185  0.131733    576.000000
  0.161007 -0.131733 -0.073185    576.000000
  0.131733 -0.102459 -0.043911    576.000000
  0.102459 -0.073185 -0.014637    576.000000
  0.073185 -0.043911  0.014637    576.000000
  0.014637  0.014637  0.131733    288.000000
 -0.014637  0.043911  0.161007    576.000000
  0.190281 -0.161007 -0.043911    576.000000
  0.161007 -0.131733 -0.014637    576.000000
  0.131733 -0.102459  0.014637    576.000000
  0.102459 -0.073185  0.043911    576.000000
  0.014637  0.014637  0.190281    288.000000
  0.219555 -0.190281 -0.014637    576.000000
  0.190281 -0.161007  0.014637    576.000000
  0.161007 -0.131733  0.043911    576.000000
  0.131733 -0.102459  0.073185    576.000000
  0.014637  0.014637 -0.219555    288.000000
 -0.014637  0.043911 -0.190281    576.000000
 -0.043911  0.073185 -0.161007    576.000000
  0.014637  0.014637 -0.161007    288.000000
 -0.014637  0.043911 -0.131733    576.000000
  0.014637  0.014637 -0.102459    288.000000
  0.043911  0.043911  0.043911     96.000000
  0.014637  0.073185  0.073185    288.000000
 -0.014637  0.102459  0.102459    288.000000
  0.190281 -0.102459 -0.102459    288.000000
  0.161007 -0.073185 -0.073185    288.000000
  0.131733 -0.043911 -0.043911    288.000000
  0.043911  0.043911  0.102459    288.000000
  0.014637  0.073185  0.131733    576.000000
  0.219555 -0.131733 -0.073185    576.000000
  0.190281 -0.102459 -0.043911    576.000000
  0.161007 -0.073185 -0.014637    576.000000
  0.043911  0.043911  0.161007    288.000000
  0.248829 -0.161007 -0.043911    576.000000
  0.219555 -0.131733 -0.014637    576.000000
  0.190281 -0.102459  0.014637    576.000000
  0.043911  0.043911 -0.248829    288.000000
  0.014637  0.073185 -0.219555    576.000000
  0.043911  0.043911 -0.190281    288.000000
  0.073185  0.073185  0.073185     96.000000
  0.043911  0.102459  0.102459    288.000000
  0.248829 -0.102459 -0.102459    288.000000
  0.219555 -0.073185 -0.073185    288.000000
  0.073185  0.073185  0.131733    288.000000
  0.278103 -0.131733 -0.073185    576.000000
  0.248829 -0.102459 -0.043911    576.000000
  0.073185  0.073185 -0.278103    288.000000
  0.102459  0.102459  0.102459     96.000000
  0.307377 -0.102459 -0.102459    288.000000
 


--------------------------------------------------------------------------------------------------------




 Dimension of arrays:
   k-points           NKPTS =     60   k-points in BZ     NKDIM =     60   number of bands    NBANDS=      9
   number of dos      NEDOS =    301   number of ions     NIONS =      1
   non local maximal  LDIM  =      6   non local SUM 2l+1 LMDIM =     18
   total plane-waves  NPLWV =   8000
   max r-space proj   IRMAX =      1   max aug-charges    IRDMAX=  28175
   dimension x,y,z NGX =    20 NGY =   20 NGZ =   20
   dimension x,y,z NGXF=    40 NGYF=   40 NGZF=   40
   support grid    NGXF=    40 NGYF=   40 NGZF=   40
   ions per type =               1
 NGX,Y,Z   is equivalent  to a cutoff of  11.01, 11.01, 11.01 a.u.
 NGXF,Y,Z  is equivalent  to a cutoff of  22.02, 22.02, 22.02 a.u.


 I would recommend the setting:
   dimension x,y,z NGX =    20 NGY =   20 NGZ =   20
 SYSTEM =  unknown system                          
 POSCAR =  Ta                                      

 Startparameter for this run:
   NWRITE =      2    write-flag & timer
   PREC   = accura    normal or accurate (medium, high low for compatibility)
   ISTART =      0    job   : 0-new  1-cont  2-samecut
   ICHARG =      2    charge: 1-file 2-atom 10-const
   ISPIN  =      2    spin polarized calculation?
   LNONCOLLINEAR =      F non collinear calculations
   LSORBIT =      F    spin-orbit coupling
   INIWAV =      1    electr: 0-lowe 1-rand  2-diag
   LASPH  =      F    aspherical Exc in radial PAW
   METAGGA=      F    non-selfconsistent MetaGGA calc.

 Electronic Relaxation 1
   ENCUT  =  400.0 eV  29.40 Ry    5.42 a.u.   4.92  4.92  4.92*2*pi/ulx,y,z
   ENINI  =  400.0     initial cutoff
   ENAUG  =  332.1 eV  augmentation charge cutoff
   NELM   =     60;   NELMIN=  2; NELMDL= -5     # of ELM steps 
   EDIFF  = 0.1E-03   stopping-criterion for ELM
   LREAL  =      F    real-space projection
   NLSPLINE    = F    spline interpolate recip. space projectors
   LCOMPAT=      F    compatible to vasp.4.4
   GGA_COMPAT  = T    GGA compatible to vasp.4.4-vasp.4.6
   LMAXPAW     = -100 max onsite density
   LMAXMIX     =    2 max onsite mixed and CHGCAR
   VOSKOWN=      0    Vosko Wilk Nusair interpolation
   ROPT   =    0.00000
 Ionic relaxation
   EDIFFG = 0.1E-02   stopping-criterion for IOM
   NSW    =      0    number of steps for IOM
   NBLOCK =      1;   KBLOCK =      1    inner block; outer block 
   IBRION =     -1    ionic relax: 0-MD 1-quasi-New 2-CG
   NFREE  =      0    steps in history (QN), initial steepest desc. (CG)
   ISIF   =      2    stress and relaxation
   IWAVPR =     10    prediction:  0-non 1-charg 2-wave 3-comb
   ISYM   =      2    0-nonsym 1-usesym 2-fastsym
   LCORR  =      T    Harris-Foulkes like correction to forces

   POTIM  = 0.5000    time-step for ionic-motion
   TEIN   =    0.0    initial temperature
   TEBEG  =    0.0;   TEEND  =   0.0 temperature during run
   SMASS  =  -3.00    Nose mass-parameter (am)
   estimated Nose-frequenzy (Omega)   =  0.10E-29 period in steps =****** mass=  -0.208E-27a.u.
   SCALEE = 1.0000    scale energy and forces
   NPACO  =    256;   APACO  = 16.0  distance and # of slots for P.C.
   PSTRESS=    0.0 pullay stress

  Mass of Ions in am
   POMASS = 180.95
  Ionic Valenz
   ZVAL   =   5.00
  Atomic Wigner-Seitz radii
   RWIGS  =  -1.00
  virtual crystal weights 
   VCA    =   1.00
   NELECT =       5.0000    total number of electrons
   NUPDOWN=      -1.0000    fix difference up-down

 DOS related values:
   EMIN   =  10.00;   EMAX   =-10.00  energy-range for DOS
   EFERMI =   0.00
   ISMEAR =     1;   SIGMA  =   0.05  broadening in eV -4-tet -1-fermi 0-gaus

 Electronic relaxation 2 (details)
   IALGO  =     38    algorithm
   LDIAG  =      T    sub-space diagonalisation (order eigenvalues)
   LSUBROT=      T    optimize rotation matrix (better conditioning)
   TURBO    =      0    0=normal 1=particle mesh
   IRESTART =      0    0=no restart 2=restart with 2 vectors
   NREBOOT  =      0    no. of reboots
   NMIN     =      0    reboot dimension
   EREF     =   0.00    reference energy to select bands
   IMIX   =      4    mixing-type and parameters
     AMIX     =   0.40;   BMIX     =  1.00
     AMIX_MAG =   1.60;   BMIX_MAG =  1.00
     AMIN     =   0.10
     WC   =   100.;   INIMIX=   1;  MIXPRE=   1

 Intra band minimization:
   WEIMIN = 0.0000     energy-eigenvalue tresh-hold
   EBREAK =  0.28E-05  absolut break condition
   DEPER  =   0.30     relativ break condition  

   TIME   =   0.40     timestep for ELM

  volume/ion in A,a.u.               =      19.46       131.35
  Fermi-wavevector in a.u.,A,eV,Ry     =   1.040695  1.966629 14.735747  1.083047
  Thomas-Fermi vector in A             =   2.175283
 
 Write flags
   LWAVE  =      T    write WAVECAR
   LCHARG =      T    write CHGCAR
   LVTOT  =      F    write LOCPOT, total local potential
   LVHAR  =      F    write LOCPOT, Hartree potential only
   LELF   =      F    write electronic localiz. function (ELF)
   LORBIT =     11    0 simple, 1 ext, 2 COOP (PROOUT)


 Dipole corrections
   LMONO  =      F    monopole corrections only (constant potential shift)
   LDIPOL =      F    correct potential (dipole corrections)
   IDIPOL =      0    1-x, 2-y, 3-z, 4-all directions 
   EPSILON=  1.0000000 bulk dielectric constant

 Exchange correlation treatment:
   GGA     =    --    GGA type
   LEXCH   =     8    internal setting for exchange type
   VOSKOWN=      0    Vosko Wilk Nusair interpolation
   LHFCALC =     F    Hartree Fock is set to
   LHFONE  =     F    Hartree Fock one center treatment
   AEXX    =    0.0000 exact exchange contribution

 Linear response parameters
   LEPSILON=     F    determine dielectric tensor
   LRPA    =     F    only Hartree local field effects (RPA)
   LNABLA  =     F    use nabla operator in PAW spheres
   LVEL    =     F    velocity operator in full k-point grid
   LINTERFAST=   F  fast interpolation
   KINTER  =     0    interpolate to denser k-point grid
   CSHIFT  =0.1000    complex shift for real part using Kramers Kronig
   OMEGAMAX=  -1.0    maximum frequency
   RTIME   =    0.100 relaxation time in fs

 Orbital magnetization related:
   ORBITALMAG=     F  switch on orbital magnetization
   LCHIMAG   =     F  perturbation theory with respect to B field
   DQ        =  0.001000  dq finite difference perturbation B field



--------------------------------------------------------------------------------------------------------


 Static calculation
 charge density and potential will be updated during run
 spin polarized calculation
 Variant of blocked Davidson
 Davidson routine will perform the subspace rotation
 perform sub-space diagonalisation
    after iterative eigenvector-optimisation
 modified Broyden-mixing scheme, WC =      100.0
 initial mixing is a Kerker type mixing with AMIX =  0.4000 and BMIX =      1.0000
 Hartree-type preconditioning will be used
 using additional bands            6
 reciprocal scheme for non local part
 use partial core corrections
 calculate Harris-corrections to forces 
   (improved forces if not selfconsistent)
 use gradient corrections 
 use of overlap-Matrix (Vanderbilt PP)
 Methfessel and Paxton  Order N= 1 SIGMA  =   0.05


--------------------------------------------------------------------------------------------------------


  energy-cutoff  :      400.00
  volume of cell :       19.46
      direct lattice vectors                 reciprocal lattice vectors
     0.000000000  2.135000000  2.135000000    -0.234192037  0.234192037  0.234192037
     2.135000000  0.000000000  2.135000000     0.234192037 -0.234192037  0.234192037
     2.135000000  2.135000000  0.000000000     0.234192037  0.234192037 -0.234192037

  length of vectors
     3.019345956  3.019345956  3.019345956     0.405632508  0.405632508  0.405632508


 
 k-points in units of 2pi/SCALE and weight: KPOINTS created by Atomic Simulation Env
   0.01463700  0.01463700  0.01463700       0.004
  -0.01463700  0.04391101  0.04391101       0.012
  -0.04391101  0.07318501  0.07318501       0.012
  -0.07318501  0.10245902  0.10245902       0.012
   0.13173302 -0.10245902 -0.10245902       0.012
   0.10245902 -0.07318501 -0.07318501       0.012
   0.07318501 -0.04391101 -0.04391101       0.012
   0.04391101 -0.01463700 -0.01463700       0.012
   0.01463700  0.01463700  0.07318501       0.012
  -0.01463700  0.04391101  0.10245902       0.023
  -0.04391101  0.07318501  0.13173302       0.023
   0.16100703 -0.13173302 -0.07318501       0.023
   0.13173302 -0.10245902 -0.04391101       0.023
   0.10245902 -0.07318501 -0.01463700       0.023
   0.07318501 -0.04391101  0.01463700       0.023
   0.01463700  0.01463700  0.13173302       0.012
  -0.01463700  0.04391101  0.16100703       0.023
   0.19028103 -0.16100703 -0.04391101       0.023
   0.16100703 -0.13173302 -0.01463700       0.023
   0.13173302 -0.10245902  0.01463700       0.023
   0.10245902 -0.07318501  0.04391101       0.023
   0.01463700  0.01463700  0.19028103       0.012
   0.21955504 -0.19028103 -0.01463700       0.023
   0.19028103 -0.16100703  0.01463700       0.023
   0.16100703 -0.13173302  0.04391101       0.023
   0.13173302 -0.10245902  0.07318501       0.023
   0.01463700  0.01463700 -0.21955504       0.012
  -0.01463700  0.04391101 -0.19028103       0.023
  -0.04391101  0.07318501 -0.16100703       0.023
   0.01463700  0.01463700 -0.16100703       0.012
  -0.01463700  0.04391101 -0.13173302       0.023
   0.01463700  0.01463700 -0.10245902       0.012
   0.04391101  0.04391101  0.04391101       0.004
   0.01463700  0.07318501  0.07318501       0.012
  -0.01463700  0.10245902  0.10245902       0.012
   0.19028103 -0.10245902 -0.10245902       0.012
   0.16100703 -0.07318501 -0.07318501       0.012
   0.13173302 -0.04391101 -0.04391101       0.012
   0.04391101  0.04391101  0.10245902       0.012
   0.01463700  0.07318501  0.13173302       0.023
   0.21955504 -0.13173302 -0.07318501       0.023
   0.19028103 -0.10245902 -0.04391101       0.023
   0.16100703 -0.07318501 -0.01463700       0.023
   0.04391101  0.04391101  0.16100703       0.012
   0.24882904 -0.16100703 -0.04391101       0.023
   0.21955504 -0.13173302 -0.01463700       0.023
   0.19028103 -0.10245902  0.01463700       0.023
   0.04391101  0.04391101 -0.24882904       0.012
   0.01463700  0.07318501 -0.21955504       0.023
   0.04391101  0.04391101 -0.19028103       0.012
   0.07318501  0.07318501  0.07318501       0.004
   0.04391101  0.10245902  0.10245902       0.012
   0.24882904 -0.10245902 -0.10245902       0.012
   0.21955504 -0.07318501 -0.07318501       0.012
   0.07318501  0.07318501  0.13173302       0.012
   0.27810304 -0.13173302 -0.07318501       0.023
   0.24882904 -0.10245902 -0.04391101       0.023
   0.07318501  0.07318501 -0.27810304       0.012
   0.10245902  0.10245902  0.10245902       0.004
   0.30737705 -0.10245902 -0.10245902       0.012
 
 k-points in reciprocal lattice and weights: KPOINTS created by Atomic Simulation Env
   0.06250000  0.06250000  0.06250000       0.004
   0.18750000  0.06250000  0.06250000       0.012
   0.31250000  0.06250000  0.06250000       0.012
   0.43750000  0.06250000  0.06250000       0.012
  -0.43750000  0.06250000  0.06250000       0.012
  -0.31250000  0.06250000  0.06250000       0.012
  -0.18750000  0.06250000  0.06250000       0.012
  -0.06250000  0.06250000  0.06250000       0.012
   0.18750000  0.18750000  0.06250000       0.012
   0.31250000  0.18750000  0.06250000       0.023
   0.43750000  0.18750000  0.06250000       0.023
  -0.43750000  0.18750000  0.06250000       0.023
  -0.31250000  0.18750000  0.06250000       0.023
  -0.18750000  0.18750000  0.06250000       0.023
  -0.06250000  0.18750000  0.06250000       0.023
   0.31250000  0.31250000  0.06250000       0.012
   0.43750000  0.31250000  0.06250000       0.023
  -0.43750000  0.31250000  0.06250000       0.023
  -0.31250000  0.31250000  0.06250000       0.023
  -0.18750000  0.31250000  0.06250000       0.023
  -0.06250000  0.31250000  0.06250000       0.023
   0.43750000  0.43750000  0.06250000       0.012
  -0.43750000  0.43750000  0.06250000       0.023
  -0.31250000  0.43750000  0.06250000       0.023
  -0.18750000  0.43750000  0.06250000       0.023
  -0.06250000  0.43750000  0.06250000       0.023
  -0.43750000 -0.43750000  0.06250000       0.012
  -0.31250000 -0.43750000  0.06250000       0.023
  -0.18750000 -0.43750000  0.06250000       0.023
  -0.31250000 -0.31250000  0.06250000       0.012
  -0.18750000 -0.31250000  0.06250000       0.023
  -0.18750000 -0.18750000  0.06250000       0.012
   0.18750000  0.18750000  0.18750000       0.004
   0.31250000  0.18750000  0.18750000       0.012
   0.43750000  0.18750000  0.18750000       0.012
  -0.43750000  0.18750000  0.18750000       0.012
  -0.31250000  0.18750000  0.18750000       0.012
  -0.18750000  0.18750000  0.18750000       0.012
   0.31250000  0.31250000  0.18750000       0.012
   0.43750000  0.31250000  0.18750000       0.023
  -0.43750000  0.31250000  0.18750000       0.023
  -0.31250000  0.31250000  0.18750000       0.023
  -0.18750000  0.31250000  0.18750000       0.023
   0.43750000  0.43750000  0.18750000       0.012
  -0.43750000  0.43750000  0.18750000       0.023
  -0.31250000  0.43750000  0.18750000       0.023
  -0.18750000  0.43750000  0.18750000       0.023
  -0.43750000 -0.43750000  0.18750000       0.012
  -0.31250000 -0.43750000  0.18750000       0.023
  -0.31250000 -0.31250000  0.18750000       0.012
   0.31250000  0.31250000  0.31250000       0.004
   0.43750000  0.31250000  0.31250000       0.012
  -0.43750000  0.31250000  0.31250000       0.012
  -0.31250000  0.31250000  0.31250000       0.012
   0.43750000  0.43750000  0.31250000       0.012
  -0.43750000  0.43750000  0.31250000       0.023
  -0.31250000  0.43750000  0.31250000       0.023
  -0.43750000 -0.43750000  0.31250000       0.012
   0.43750000  0.43750000  0.43750000       0.004
  -0.43750000  0.43750000  0.43750000       0.012
 
 position of ions in fractional coordinates (direct lattice) 
   0.00000000  0.00000000  0.00000000
 
 position of ions in cartesian coordinates  (Angst):
   0.00000000  0.00000000  0.00000000
 


--------------------------------------------------------------------------------------------------------


 k-point  1 :  0.06250.06250.0625  plane waves:     335
 k-point  2 :  0.18750.06250.0625  plane waves:     345
 k-point  3 :  0.31250.06250.0625  plane waves:     350
 k-point  4 :  0.43750.06250.0625  plane waves:     352
 k-point  5 :  -.43750.06250.0625  plane waves:     354
 k-point  6 :  -.31250.06250.0625  plane waves:     353
 k-point  7 :  -.18750.06250.0625  plane waves:     353
 k-point  8 :  -.06250.06250.0625  plane waves:     340
 k-point  9 :  0.18750.18750.0625  plane waves:     347
 k-point 10 :  0.31250.18750.0625  plane waves:     350
 k-point 11 :  0.43750.18750.0625  plane waves:     353
 k-point 12 :  -.43750.18750.0625  plane waves:     358
 k-point 13 :  -.31250.18750.0625  plane waves:     354
 k-point 14 :  -.18750.18750.0625  plane waves:     350
 k-point 15 :  -.06250.18750.0625  plane waves:     349
 k-point 16 :  0.31250.31250.0625  plane waves:     346
 k-point 17 :  0.43750.31250.0625  plane waves:     344
 k-point 18 :  -.43750.31250.0625  plane waves:     355
 k-point 19 :  -.31250.31250.0625  plane waves:     358
 k-point 20 :  -.18750.31250.0625  plane waves:     351
 k-point 21 :  -.06250.31250.0625  plane waves:     352
 k-point 22 :  0.43750.43750.0625  plane waves:     349
 k-point 23 :  -.43750.43750.0625  plane waves:     356
 k-point 24 :  -.31250.43750.0625  plane waves:     357
 k-point 25 :  -.18750.43750.0625  plane waves:     362
 k-point 26 :  -.06250.43750.0625  plane waves:     356
 k-point 27 :  -.4375-.43750.0625  plane waves:     349
 k-point 28 :  -.3125-.43750.0625  plane waves:     353
 k-point 29 :  -.1875-.43750.0625  plane waves:     358
 k-point 30 :  -.3125-.31250.0625  plane waves:     349
 k-point 31 :  -.1875-.31250.0625  plane waves:     350
 k-point 32 :  -.1875-.18750.0625  plane waves:     349
 k-point 33 :  0.18750.18750.1875  plane waves:     356
 k-point 34 :  0.31250.18750.1875  plane waves:     349
 k-point 35 :  0.43750.18750.1875  plane waves:     353
 k-point 36 :  -.43750.18750.1875  plane waves:     356
 k-point 37 :  -.31250.18750.1875  plane waves:     356
 k-point 38 :  -.18750.18750.1875  plane waves:     349
 k-point 39 :  0.31250.31250.1875  plane waves:     347
 k-point 40 :  0.43750.31250.1875  plane waves:     351
 k-point 41 :  -.43750.31250.1875  plane waves:     355
 k-point 42 :  -.31250.31250.1875  plane waves:     358
 k-point 43 :  -.18750.31250.1875  plane waves:     351
 k-point 44 :  0.43750.43750.1875  plane waves:     351
 k-point 45 :  -.43750.43750.1875  plane waves:     351
 k-point 46 :  -.31250.43750.1875  plane waves:     363
 k-point 47 :  -.18750.43750.1875  plane waves:     359
 k-point 48 :  -.4375-.43750.1875  plane waves:     360
 k-point 49 :  -.3125-.43750.1875  plane waves:     358
 k-point 50 :  -.3125-.31250.1875  plane waves:     352
 k-point 51 :  0.31250.31250.3125  plane waves:     353
 k-point 52 :  0.43750.31250.3125  plane waves:     352
 k-point 53 :  -.43750.31250.3125  plane waves:     355
 k-point 54 :  -.31250.31250.3125  plane waves:     360
 k-point 55 :  0.43750.43750.3125  plane waves:     352
 k-point 56 :  -.43750.43750.3125  plane waves:     358
 k-point 57 :  -.31250.43750.3125  plane waves:     362
 k-point 58 :  -.4375-.43750.3125  plane waves:     362
 k-point 59 :  0.43750.43750.4375  plane waves:     356
 k-point 60 :  -.43750.43750.4375  plane waves:     359

 maximum and minimum number of plane-waves per node :       363      335

 maximum number of plane-waves:       363
 maximum index in each direction: 
   IXMAX=    5   IYMAX=    5   IZMAX=    4
   IXMIN=   -5   IYMIN=   -5   IZMIN=   -5

 WARNING: aliasing errors must be expected set NGX to  22 to avoid them
 WARNING: aliasing errors must be expected set NGY to  22 to avoid them
 NGZ is ok and might be reduce to  20
 aliasing errors are usually negligible using standard VASP settings
 and one can safely disregard these warnings

 serial   3D FFT for wavefunctions
 parallel 3D FFT for charge:
    minimum data exchange during FFTs selected (reduces bandwidth)


 total amount of memory used by VASP on root node    47480. kBytes
========================================================================

   base      :      30000. kBytes
   nonl-proj :       3142. kBytes
   fftplans  :       2284. kBytes
   grid      :       5440. kBytes
   one-center:         31. kBytes
   wavefun   :       6583. kBytes
 
 Broyden mixing: mesh for mixing (old mesh)
   NGX =  9   NGY =  9   NGZ =  9
  (NGX  = 40   NGY  = 40   NGZ  = 40)
  gives a total of    729 points

 initial charge density was supplied:
 charge density of overlapping atoms calculated
 number of electron       5.0000000 magnetization       6.0000000
 keeping initial charge density in first step


--------------------------------------------------------------------------------------------------------


 Maximum index for augmentation-charges        27115 (set IRDMAX)


--------------------------------------------------------------------------------------------------------


 First call to EWALD:  gamma=   0.659
 Maximum number of real-space cells 3x 3x 3
 Maximum number of reciprocal cells 3x 3x 3

    FEWALD:  cpu time    0.00: real time    0.00


----------------------------------------- Iteration    1(   1)  ---------------------------------------


    POTLOK:  cpu time    0.20: real time    0.20
    SETDIJ:  cpu time    0.04: real time    0.04
     EDDAV:  cpu time    3.04: real time    3.04
       DOS:  cpu time    0.01: real time    0.01
    --------------------------------------------
      LOOP:  cpu time    3.29: real time    3.30

 eigenvalue-minimisations  :  2208
 total energy-change (2. order) : 0.9742130E+01  (-0.2141881E+03)
 number of electron       5.0000000 magnetization       6.0000000
 augmentation part        5.0000000 magnetization       6.0000000

 Free energy of the ion-electron system (eV)
  ---------------------------------------------------
  alpha Z        PSCENC =        28.49149740
  Ewald energy   TEWEN  =      -193.27001770
  -1/2 Hartree   DENC   =        -2.97429397
  -exchange  EXHF       =         0.00000000
  -V(xc)+E(xc)   XCENC  =       -60.70936640
  PAW double counting   =       143.51874798      -69.33493833
  entropy T*S    EENTRO =        -0.00039722
  eigenvalues    EBANDS =        33.37205681
  atomic energy  EATOM  =       130.64884137
  ---------------------------------------------------
  free energy    TOTEN  =         9.74212993 eV

  energy without entropy =        9.74252715  energy(sigma->0) =        9.74226234


--------------------------------------------------------------------------------------------------------




----------------------------------------- Iteration    1(   2)  ---------------------------------------


     EDDAV:  cpu time    3.84: real time    3.84
       DOS:  cpu time    0.01: real time    0.01
    --------------------------------------------
      LOOP:  cpu time    3.85: real time    3.85

 eigenvalue-minimisations  :  3016
 total energy-change (2. order) :-0.1121244E+02  (-0.1011737E+02)
 number of electron       5.0000000 magnetization       6.0000000
 augmentation part        5.0000000 magnetization       6.0000000

 Free energy of the ion-electron system (eV)
  ---------------------------------------------------
  alpha Z        PSCENC =        28.49149740
  Ewald energy   TEWEN  =      -193.27001770
  -1/2 Hartree   DENC   =        -2.97429397
  -exchange  EXHF       =         0.00000000
  -V(xc)+E(xc)   XCENC  =       -60.70936640
  PAW double counting   =       143.51874798      -69.33493833
  entropy T*S    EENTRO =        -0.00045076
  eigenvalues    EBANDS =        22.15967488
  atomic energy  EATOM  =       130.64884137
  ---------------------------------------------------
  free energy    TOTEN  =        -1.47030555 eV

  energy without entropy =       -1.46985478  energy(sigma->0) =       -1.47015529


--------------------------------------------------------------------------------------------------------




----------------------------------------- Iteration    1(   3)  ---------------------------------------


     EDDAV:  cpu time    3.31: real time    3.31
       DOS:  cpu time    0.01: real time    0.01
    --------------------------------------------
      LOOP:  cpu time    3.32: real time    3.35

 eigenvalue-minimisations  :  2509
 total energy-change (2. order) :-0.2015203E+00  (-0.1976402E+00)
 number of electron       5.0000000 magnetization       6.0000000
 augmentation part        5.0000000 magnetization       6.0000000

 Free energy of the ion-electron system (eV)
  ---------------------------------------------------
  alpha Z        PSCENC =        28.49149740
  Ewald energy   TEWEN  =      -193.27001770
  -1/2 Hartree   DENC   =        -2.97429397
  -exchange  EXHF       =         0.00000000
  -V(xc)+E(xc)   XCENC  =       -60.70936640
  PAW double counting   =       143.51874798      -69.33493833
  entropy T*S    EENTRO =        -0.00016300
  eigenvalues    EBANDS =        21.95786678
  atomic energy  EATOM  =       130.64884137
  ---------------------------------------------------
  free energy    TOTEN  =        -1.67182589 eV

  energy without entropy =       -1.67166288  energy(sigma->0) =       -1.67177155


--------------------------------------------------------------------------------------------------------




----------------------------------------- Iteration    1(   4)  ---------------------------------------


     EDDAV:  cpu time    3.70: real time    3.70
       DOS:  cpu time    0.01: real time    0.01
    --------------------------------------------
      LOOP:  cpu time    3.71: real time    3.72

 eigenvalue-minimisations  :  2879
 total energy-change (2. order) :-0.4155973E-03  (-0.4155364E-03)
 number of electron       5.0000000 magnetization       6.0000000
 augmentation part        5.0000000 magnetization       6.0000000

 Free energy of the ion-electron system (eV)
  ---------------------------------------------------
  alpha Z        PSCENC =        28.49149740
  Ewald energy   TEWEN  =      -193.27001770
  -1/2 Hartree   DENC   =        -2.97429397
  -exchange  EXHF       =         0.00000000
  -V(xc)+E(xc)   XCENC  =       -60.70936640
  PAW double counting   =       143.51874798      -69.33493833
  entropy T*S    EENTRO =        -0.00016352
  eigenvalues    EBANDS =        21.95745169
  atomic energy  EATOM  =       130.64884137
  ---------------------------------------------------
  free energy    TOTEN  =        -1.67224148 eV

  energy without entropy =       -1.67207797  energy(sigma->0) =       -1.67218698


--------------------------------------------------------------------------------------------------------




----------------------------------------- Iteration    1(   5)  ---------------------------------------


     EDDAV:  cpu time    3.23: real time    3.23
       DOS:  cpu time    0.01: real time    0.01
    CHARGE:  cpu time    0.20: real time    0.20
    MIXING:  cpu time    0.00: real time    0.00
    --------------------------------------------
      LOOP:  cpu time    3.45: real time    3.46

 eigenvalue-minimisations  :  2504
 total energy-change (2. order) :-0.7346112E-06  (-0.7338203E-06)
 number of electron       5.0000000 magnetization       2.7909941
 augmentation part        0.4570074 magnetization      -0.5198597

 Broyden mixing:
  rms(total) = 0.61844E+00    rms(broyden)= 0.61841E+00
  rms(prec ) = 0.82391E+00
  weight for this iteration     100.00

 Free energy of the ion-electron system (eV)
  ---------------------------------------------------
  alpha Z        PSCENC =        28.49149740
  Ewald energy   TEWEN  =      -193.27001770
  -1/2 Hartree   DENC   =        -2.97429397
  -exchange  EXHF       =         0.00000000
  -V(xc)+E(xc)   XCENC  =       -60.70936640
  PAW double counting   =       143.51874798      -69.33493833
  entropy T*S    EENTRO =        -0.00016350
  eigenvalues    EBANDS =        21.95745095
  atomic energy  EATOM  =       130.64884137
  ---------------------------------------------------
  free energy    TOTEN  =        -1.67224222 eV

  energy without entropy =       -1.67207872  energy(sigma->0) =       -1.67218772


--------------------------------------------------------------------------------------------------------




----------------------------------------- Iteration    1(   6)  ---------------------------------------


    POTLOK:  cpu time    0.20: real time    0.20
    SETDIJ:  cpu time    0.04: real time    0.04
     EDDAV:  cpu time    3.08: real time    3.08
       DOS:  cpu time    0.01: real time    0.01
    CHARGE:  cpu time    0.21: real time    0.21
    MIXING:  cpu time    0.00: real time    0.00
    --------------------------------------------
      LOOP:  cpu time    3.54: real time    3.59

 eigenvalue-minimisations  :  2320
 total energy-change (2. order) :-0.9356012E+01  (-0.2612550E+00)
 number of electron       5.0000000 magnetization       3.6117107
 augmentation part        0.3610116 magnetization       2.5548428

 Broyden mixing:
  rms(total) = 0.47749E+00    rms(broyden)= 0.47746E+00
  rms(prec ) = 0.11717E+01
  weight for this iteration     100.00

 eigenvalues of (default mixing * dielectric matrix)
  average eigenvalue GAMMA=   1.6901
  1.6901

 Free energy of the ion-electron system (eV)
  ---------------------------------------------------
  alpha Z        PSCENC =        28.49149740
  Ewald energy   TEWEN  =      -193.27001770
  -1/2 Hartree   DENC   =        -2.45968446
  -exchange  EXHF       =         0.00000000
  -V(xc)+E(xc)   XCENC  =       -65.92108424
  PAW double counting   =       160.00277441      -86.03006398
  entropy T*S    EENTRO =        -0.00000082
  eigenvalues    EBANDS =        17.50948380
  atomic energy  EATOM  =       130.64884137
  ---------------------------------------------------
  free energy    TOTEN  =       -11.02825422 eV

  energy without entropy =      -11.02825340  energy(sigma->0) =      -11.02825394


--------------------------------------------------------------------------------------------------------




----------------------------------------- Iteration    1(   7)  ---------------------------------------


    POTLOK:  cpu time    0.20: real time    0.20
    SETDIJ:  cpu time    0.04: real time    0.04
     EDDAV:  cpu time    3.27: real time    3.27
       DOS:  cpu time    0.01: real time    0.01
    CHARGE:  cpu time    0.19: real time    0.19
    MIXING:  cpu time    0.00: real time    0.00
    --------------------------------------------
      LOOP:  cpu time    3.72: real time    4.24

 eigenvalue-minimisations  :  2517
 total energy-change (2. order) : 0.1293236E+00  (-0.2258698E-01)
 number of electron       5.0000000 magnetization       2.3035577
 augmentation part        0.3634649 magnetization       1.0537672

 Broyden mixing:
  rms(total) = 0.62848E+00    rms(broyden)= 0.62847E+00
  rms(prec ) = 0.13823E+01
  weight for this iteration     100.00

 eigenvalues of (default mixing * dielectric matrix)
  average eigenvalue GAMMA=   0.9805
  0.9805  0.9805

 Free energy of the ion-electron system (eV)
  ---------------------------------------------------
  alpha Z        PSCENC =        28.49149740
  Ewald energy   TEWEN  =      -193.27001770
  -1/2 Hartree   DENC   =        -2.82834895
  -exchange  EXHF       =         0.00000000
  -V(xc)+E(xc)   XCENC  =       -65.35788710
  PAW double counting   =       154.64697434      -80.67636259
  entropy T*S    EENTRO =        -0.00016902
  eigenvalues    EBANDS =        17.44654166
  atomic energy  EATOM  =       130.64884137
  ---------------------------------------------------
  free energy    TOTEN  =       -10.89893059 eV

  energy without entropy =      -10.89876156  energy(sigma->0) =      -10.89887424


--------------------------------------------------------------------------------------------------------




----------------------------------------- Iteration    1(   8)  ---------------------------------------


    POTLOK:  cpu time    0.20: real time    0.20
    SETDIJ:  cpu time    0.04: real time    0.04
     EDDAV:  cpu time    3.09: real time    3.09
       DOS:  cpu time    0.01: real time    0.01
    CHARGE:  cpu time    0.20: real time    0.20
    MIXING:  cpu time    0.00: real time    0.00
    --------------------------------------------
      LOOP:  cpu time    3.55: real time    3.56

 eigenvalue-minimisations  :  2351
 total energy-change (2. order) :-0.2905255E+00  (-0.6678925E-01)
 number of electron       5.0000000 magnetization       0.8070387
 augmentation part        0.3713851 magnetization       0.0240146

 Broyden mixing:
  rms(total) = 0.39407E+00    rms(broyden)= 0.39407E+00
  rms(prec ) = 0.71999E+00
  weight for this iteration     100.00

 eigenvalues of (default mixing * dielectric matrix)
  average eigenvalue GAMMA=   1.1704
  1.4352  1.4352  0.6410

 Free energy of the ion-electron system (eV)
  ---------------------------------------------------
  alpha Z        PSCENC =        28.49149740
  Ewald energy   TEWEN  =      -193.27001770
  -1/2 Hartree   DENC   =        -1.52778950
  -exchange  EXHF       =         0.00000000
  -V(xc)+E(xc)   XCENC  =       -65.90597414
  PAW double counting   =       151.36357078      -77.65984213
  entropy T*S    EENTRO =         0.00009720
  eigenvalues    EBANDS =        16.67016064
  atomic energy  EATOM  =       130.64884137
  ---------------------------------------------------
  free energy    TOTEN  =       -11.18945607 eV

  energy without entropy =      -11.18955327  energy(sigma->0) =      -11.18948847


--------------------------------------------------------------------------------------------------------




----------------------------------------- Iteration    1(   9)  ---------------------------------------


    POTLOK:  cpu time    0.20: real time    0.20
    SETDIJ:  cpu time    0.04: real time    0.04
     EDDAV:  cpu time    3.22: real time    3.22
       DOS:  cpu time    0.01: real time    0.01
    CHARGE:  cpu time    0.21: real time    0.21
    MIXING:  cpu time    0.00: real time    0.01
    --------------------------------------------
      LOOP:  cpu time    3.68: real time    3.69

 eigenvalue-minimisations  :  2474
 total energy-change (2. order) :-0.3336459E+00  (-0.3083203E-01)
 number of electron       5.0000000 magnetization       0.5435248
 augmentation part        0.3835682 magnetization       0.2590257

 Broyden mixing:
  rms(total) = 0.12828E+00    rms(broyden)= 0.12827E+00
  rms(prec ) = 0.20666E+00
  weight for this iteration     100.00

 eigenvalues of (default mixing * dielectric matrix)
  average eigenvalue GAMMA=   1.2133
  2.3109  1.0992  0.7215  0.7215

 Free energy of the ion-electron system (eV)
  ---------------------------------------------------
  alpha Z        PSCENC =        28.49149740
  Ewald energy   TEWEN  =      -193.27001770
  -1/2 Hartree   DENC   =        -0.87938763
  -exchange  EXHF       =         0.00000000
  -V(xc)+E(xc)   XCENC  =       -66.12833712
  PAW double counting   =       159.56509996      -86.05192223
  entropy T*S    EENTRO =        -0.00078449
  eigenvalues    EBANDS =        16.10190846
  atomic energy  EATOM  =       130.64884137
  ---------------------------------------------------
  free energy    TOTEN  =       -11.52310199 eV

  energy without entropy =      -11.52231749  energy(sigma->0) =      -11.52284049


--------------------------------------------------------------------------------------------------------




----------------------------------------- Iteration    1(  10)  ---------------------------------------


    POTLOK:  cpu time    0.20: real time    0.20
    SETDIJ:  cpu time    0.04: real time    0.04
     EDDAV:  cpu time    3.72: real time    3.72
       DOS:  cpu time    0.01: real time    0.01
    CHARGE:  cpu time    0.20: real time    0.21
    MIXING:  cpu time    0.00: real time    0.00
    --------------------------------------------
      LOOP:  cpu time    4.18: real time    4.25

 eigenvalue-minimisations  :  2976
 total energy-change (2. order) :-0.4016930E-01  (-0.1699415E-02)
 number of electron       5.0000000 magnetization       0.4502993
 augmentation part        0.3860963 magnetization       0.2910516

 Broyden mixing:
  rms(total) = 0.93992E-01    rms(broyden)= 0.93991E-01
  rms(prec ) = 0.14006E+00
  weight for this iteration     100.00

 eigenvalues of (default mixing * dielectric matrix)
  average eigenvalue GAMMA=   1.0432
  2.4103  0.9568  0.7703  0.7703  0.3086

 Free energy of the ion-electron system (eV)
  ---------------------------------------------------
  alpha Z        PSCENC =        28.49149740
  Ewald energy   TEWEN  =      -193.27001770
  -1/2 Hartree   DENC   =        -0.81685603
  -exchange  EXHF       =         0.00000000
  -V(xc)+E(xc)   XCENC  =       -66.12449353
  PAW double counting   =       162.59996311      -89.10991560
  entropy T*S    EENTRO =         0.00000447
  eigenvalues    EBANDS =        16.01770522
  atomic energy  EATOM  =       130.64884137
  ---------------------------------------------------
  free energy    TOTEN  =       -11.56327129 eV

  energy without entropy =      -11.56327576  energy(sigma->0) =      -11.56327278


--------------------------------------------------------------------------------------------------------




----------------------------------------- Iteration    1(  11)  ---------------------------------------


    POTLOK:  cpu time    0.20: real time    0.20
    SETDIJ:  cpu time    0.04: real time    0.04
     EDDAV:  cpu time    3.19: real time    3.19
       DOS:  cpu time    0.01: real time    0.01
    CHARGE:  cpu time    0.20: real time    0.20
    MIXING:  cpu time    0.00: real time    0.00
    --------------------------------------------
      LOOP:  cpu time    3.64: real time    3.66

 eigenvalue-minimisations  :  2431
 total energy-change (2. order) :-0.1082653E-01  (-0.5537646E-04)
 number of electron       5.0000000 magnetization       0.0497841
 augmentation part        0.3862239 magnetization      -0.0857035

 Broyden mixing:
  rms(total) = 0.78340E-01    rms(broyden)= 0.78340E-01
  rms(prec ) = 0.12489E+00
  weight for this iteration     100.00

 eigenvalues of (default mixing * dielectric matrix)
  average eigenvalue GAMMA=   1.3822
  2.5501  2.5501  0.9295  0.9295  0.7151  0.6190

 Free energy of the ion-electron system (eV)
  ---------------------------------------------------
  alpha Z        PSCENC =        28.49149740
  Ewald energy   TEWEN  =      -193.27001770
  -1/2 Hartree   DENC   =        -0.81603871
  -exchange  EXHF       =         0.00000000
  -V(xc)+E(xc)   XCENC  =       -66.12875207
  PAW double counting   =       164.34237269      -90.85391454
  entropy T*S    EENTRO =         0.00000084
  eigenvalues    EBANDS =        16.01191290
  atomic energy  EATOM  =       130.64884137
  ---------------------------------------------------
  free energy    TOTEN  =       -11.57409782 eV

  energy without entropy =      -11.57409867  energy(sigma->0) =      -11.57409810


--------------------------------------------------------------------------------------------------------




----------------------------------------- Iteration    1(  12)  ---------------------------------------


    POTLOK:  cpu time    0.20: real time    0.20
    SETDIJ:  cpu time    0.04: real time    0.05
     EDDAV:  cpu time    3.26: real time    3.26
       DOS:  cpu time    0.01: real time    0.01
    CHARGE:  cpu time    0.20: real time    0.20
    MIXING:  cpu time    0.00: real time    0.00
    --------------------------------------------
      LOOP:  cpu time    3.72: real time    3.72

 eigenvalue-minimisations  :  2437
 total energy-change (2. order) :-0.1961144E-01  (-0.2050694E-02)
 number of electron       5.0000000 magnetization       0.0095451
 augmentation part        0.3858870 magnetization      -0.0231462

 Broyden mixing:
  rms(total) = 0.31153E-01    rms(broyden)= 0.31153E-01
  rms(prec ) = 0.94263E-01
  weight for this iteration     100.00

 eigenvalues of (default mixing * dielectric matrix)
  average eigenvalue GAMMA=   1.1403
  2.2348  1.2232  1.2232  1.1516  0.7521  0.7521  0.6447

 Free energy of the ion-electron system (eV)
  ---------------------------------------------------
  alpha Z        PSCENC =        28.49149740
  Ewald energy   TEWEN  =      -193.27001770
  -1/2 Hartree   DENC   =        -0.87144905
  -exchange  EXHF       =         0.00000000
  -V(xc)+E(xc)   XCENC  =       -66.13437928
  PAW double counting   =       183.97913783     -110.48830145
  entropy T*S    EENTRO =        -0.00045239
  eigenvalues    EBANDS =        16.05141401
  atomic energy  EATOM  =       130.64884137
  ---------------------------------------------------
  free energy    TOTEN  =       -11.59370926 eV

  energy without entropy =      -11.59325687  energy(sigma->0) =      -11.59355846


--------------------------------------------------------------------------------------------------------




----------------------------------------- Iteration    1(  13)  ---------------------------------------


    POTLOK:  cpu time    0.20: real time    0.20
    SETDIJ:  cpu time    0.04: real time    0.04
     EDDAV:  cpu time    3.11: real time    3.13
       DOS:  cpu time    0.01: real time    0.01
    CHARGE:  cpu time    0.20: real time    0.20
    MIXING:  cpu time    0.00: real time    0.00
    --------------------------------------------
      LOOP:  cpu time    3.56: real time    3.60

 eigenvalue-minimisations  :  2334
 total energy-change (2. order) :-0.1368920E-02  (-0.1458221E-02)
 number of electron       5.0000000 magnetization       0.0388879
 augmentation part        0.3897628 magnetization       0.0250741

 Broyden mixing:
  rms(total) = 0.58608E-02    rms(broyden)= 0.58595E-02
  rms(prec ) = 0.12072E-01
  weight for this iteration     100.00

 eigenvalues of (default mixing * dielectric matrix)
  average eigenvalue GAMMA=   1.1976
  2.2987  1.6465  1.6465  1.0036  1.0036  0.7440  0.6190  0.6190

 Free energy of the ion-electron system (eV)
  ---------------------------------------------------
  alpha Z        PSCENC =        28.49149740
  Ewald energy   TEWEN  =      -193.27001770
  -1/2 Hartree   DENC   =        -0.76295294
  -exchange  EXHF       =         0.00000000
  -V(xc)+E(xc)   XCENC  =       -66.09272001
  PAW double counting   =       176.97479310     -103.51422060
  entropy T*S    EENTRO =        -0.00082193
  eigenvalues    EBANDS =        15.93052313
  atomic energy  EATOM  =       130.64884137
  ---------------------------------------------------
  free energy    TOTEN  =       -11.59507818 eV

  energy without entropy =      -11.59425625  energy(sigma->0) =      -11.59480420


--------------------------------------------------------------------------------------------------------




----------------------------------------- Iteration    1(  14)  ---------------------------------------


    POTLOK:  cpu time    0.20: real time    0.20
    SETDIJ:  cpu time    0.05: real time    0.05
     EDDAV:  cpu time    3.13: real time    3.14
       DOS:  cpu time    0.01: real time    0.01
    CHARGE:  cpu time    0.19: real time    0.20
    MIXING:  cpu time    0.00: real time    0.01
    --------------------------------------------
      LOOP:  cpu time    3.59: real time    3.62

 eigenvalue-minimisations  :  2430
 total energy-change (2. order) : 0.1650323E-03  (-0.2581713E-04)
 number of electron       5.0000000 magnetization       0.0687233
 augmentation part        0.3897748 magnetization       0.0412989

 Broyden mixing:
  rms(total) = 0.53146E-02    rms(broyden)= 0.53145E-02
  rms(prec ) = 0.12052E-01
  weight for this iteration     100.00

 eigenvalues of (default mixing * dielectric matrix)
  average eigenvalue GAMMA=   1.1574
  2.0350  1.8355  1.8355  1.1130  0.6962  0.6962  0.7928  0.7928  0.6199

 Free energy of the ion-electron system (eV)
  ---------------------------------------------------
  alpha Z        PSCENC =        28.49149740
  Ewald energy   TEWEN  =      -193.27001770
  -1/2 Hartree   DENC   =        -0.76204136
  -exchange  EXHF       =         0.00000000
  -V(xc)+E(xc)   XCENC  =       -66.09477119
  PAW double counting   =       176.74501172     -103.28220823
  entropy T*S    EENTRO =        -0.00067775
  eigenvalues    EBANDS =        15.92945261
  atomic energy  EATOM  =       130.64884137
  ---------------------------------------------------
  free energy    TOTEN  =       -11.59491315 eV

  energy without entropy =      -11.59423540  energy(sigma->0) =      -11.59468723


--------------------------------------------------------------------------------------------------------




----------------------------------------- Iteration    1(  15)  ---------------------------------------


    POTLOK:  cpu time    0.20: real time    0.20
    SETDIJ:  cpu time    0.04: real time    0.04
     EDDAV:  cpu time    1.97: real time    1.97
       DOS:  cpu time    0.01: real time    0.01
    CHARGE:  cpu time    0.20: real time    0.20
    MIXING:  cpu time    0.00: real time    0.01
    --------------------------------------------
      LOOP:  cpu time    2.42: real time    2.45

 eigenvalue-minimisations  :  1142
 total energy-change (2. order) : 0.1211105E-03  (-0.2350129E-05)
 number of electron       5.0000000 magnetization       0.0865108
 augmentation part        0.3896803 magnetization       0.0419277

 Broyden mixing:
  rms(total) = 0.60728E-02    rms(broyden)= 0.60727E-02
  rms(prec ) = 0.10775E-01
  weight for this iteration     100.00

 eigenvalues of (default mixing * dielectric matrix)
  average eigenvalue GAMMA=   1.2712
  2.2909  2.2909  2.0064  1.3948  1.0181  1.0181  0.7361  0.7361  0.6105  0.6105

 Free energy of the ion-electron system (eV)
  ---------------------------------------------------
  alpha Z        PSCENC =        28.49149740
  Ewald energy   TEWEN  =      -193.27001770
  -1/2 Hartree   DENC   =        -0.76482809
  -exchange  EXHF       =         0.00000000
  -V(xc)+E(xc)   XCENC  =       -66.09629050
  PAW double counting   =       177.33459539     -103.86985900
  entropy T*S    EENTRO =        -0.00035881
  eigenvalues    EBANDS =        15.93162790
  atomic energy  EATOM  =       130.64884137
  ---------------------------------------------------
  free energy    TOTEN  =       -11.59479203 eV

  energy without entropy =      -11.59443323  energy(sigma->0) =      -11.59467243


--------------------------------------------------------------------------------------------------------




----------------------------------------- Iteration    1(  16)  ---------------------------------------


    POTLOK:  cpu time    0.19: real time    0.19
    SETDIJ:  cpu time    0.04: real time    0.04
     EDDAV:  cpu time    2.08: real time    2.08
       DOS:  cpu time    0.01: real time    0.01
    --------------------------------------------
      LOOP:  cpu time    2.32: real time    2.34

 eigenvalue-minimisations  :  1271
 total energy-change (2. order) : 0.6508635E-04  (-0.1147958E-04)
 number of electron       5.0000000 magnetization       0.0865108
 augmentation part        0.3896803 magnetization       0.0419277

 Free energy of the ion-electron system (eV)
  ---------------------------------------------------
  alpha Z        PSCENC =        28.49149740
  Ewald energy   TEWEN  =      -193.27001770
  -1/2 Hartree   DENC   =        -0.76920707
  -exchange  EXHF       =         0.00000000
  -V(xc)+E(xc)   XCENC  =       -66.09615960
  PAW double counting   =       179.64327546     -106.17641433
  entropy T*S    EENTRO =        -0.00016640
  eigenvalues    EBANDS =        15.93362392
  atomic energy  EATOM  =       130.64884137
  ---------------------------------------------------
  free energy    TOTEN  =       -11.59472695 eV

  energy without entropy =      -11.59456055  energy(sigma->0) =      -11.59467148


--------------------------------------------------------------------------------------------------------




 average (electrostatic) potential at core
  the test charge radii are     1.2538
  (the norm of the test charge is              1.0000)
       1 -35.9470
 
 
 
 E-fermi :   5.4600     XC(G=0): -12.0337     alpha+bet :-12.5799


 spin component 1

 k-point   1 :       0.0625    0.0625    0.0625
  band No.  band energies     occupation 
      1      -2.3638      1.00000
      2       5.7617      0.00000
      3       5.9625      0.00000
      4       5.9625      0.00000
      5       8.6536      0.00000
      6       8.6536      0.00000
      7      18.1244      0.00000
      8      18.8468      0.00000
      9      21.7018      0.00000

 k-point   2 :       0.1875    0.0625    0.0625
  band No.  band energies     occupation 
      1      -1.6167      1.00000
      2       5.1993      1.00000
      3       6.2503      0.00000
      4       6.2838      0.00000
      5       8.1165      0.00000
      6       8.7759      0.00000
      7      18.8446      0.00000
      8      19.4329      0.00000
      9      20.1641      0.00000

 k-point   3 :       0.3125    0.0625    0.0625
  band No.  band energies     occupation 
      1      -0.1282      1.00000
      2       4.6616      1.00000
      3       6.1283      0.00000
      4       6.3411      0.00000
      5       8.4537      0.00000
      6       9.5305      0.00000
      7      17.6782      0.00000
      8      18.8477      0.00000
      9      21.1859      0.00000

 k-point   4 :       0.4375    0.0625    0.0625
  band No.  band energies     occupation 
      1       0.9396      1.00000
      2       5.2034      1.00000
      3       5.7208      0.00000
      4       5.9154      0.00000
      5       9.9597      0.00000
      6      10.8505      0.00000
      7      15.7805      0.00000
      8      18.5480      0.00000
      9      18.8557      0.00000

 k-point   5 :      -0.4375    0.0625    0.0625
  band No.  band energies     occupation 
      1       1.1120      1.00000
      2       5.3576      1.00682
      3       5.8058      0.00000
      4       5.9895      0.00000
      5      10.9469      0.00000
      6      11.0508      0.00000
      7      14.8459      0.00000
      8      17.7365      0.00000
      9      18.8492      0.00000

 k-point   6 :      -0.3125    0.0625    0.0625
  band No.  band energies     occupation 
      1       0.7019      1.00000
      2       4.8688      1.00000
      3       5.7863      0.00000
      4       6.0930      0.00000
      5       9.6366      0.00000
      6      10.2657      0.00000
      7      16.3989      0.00000
      8      18.8429      0.00000
      9      19.4049      0.00000

 k-point   7 :      -0.1875    0.0625    0.0625
  band No.  band energies     occupation 
      1      -0.6511      1.00000
      2       4.7323      1.00000
      3       6.2778      0.00000
      4       6.4189      0.00000
      5       8.2103      0.00000
      6       9.1044      0.00000
      7      18.3673      0.00000
      8      18.8504      0.00000
      9      21.2122      0.00000

 k-point   8 :      -0.0625    0.0625    0.0625
  band No.  band energies     occupation 
      1      -1.9800      1.00000
      2       5.4027      1.03441
      3       6.1664      0.00000
      4       6.1779      0.00000
      5       8.1864      0.00000
      6       8.8147      0.00000
      7      18.8460      0.00000
      8      18.9023      0.00000
      9      20.9391      0.00000

 k-point   9 :       0.1875    0.1875    0.0625
  band No.  band energies     occupation 
      1      -1.2537      1.00000
      2       4.7905      1.00000
      3       6.5358      0.00000
      4       6.6064      0.00000
      5       7.4772      0.00000
      6       9.1218      0.00000
      7      18.8450      0.00000
      8      20.2424      0.00000
      9      20.6697      0.00000

 k-point  10 :       0.3125    0.1875    0.0625
  band No.  band energies     occupation 
      1       0.0001      1.00000
      2       4.1753      1.00000
      3       5.9492      0.00000
      4       7.1432      0.00000
      5       7.8338      0.00000
      6       9.8084      0.00000
      7      18.8393      0.00000
      8      19.4353      0.00000
      9      22.1697      0.00000

 k-point  11 :       0.4375    0.1875    0.0625
  band No.  band energies     occupation 
      1       1.3742      1.00000
      2       4.1852      1.00000
      3       5.1686      1.00000
      4       6.8127      0.00000
      5       9.5858      0.00000
      6      11.1400      0.00000
      7      16.6701      0.00000
      8      18.8492      0.00000
      9      20.1524      0.00000

 k-point  12 :      -0.4375    0.1875    0.0625
  band No.  band energies     occupation 
      1       1.8499      1.00000
      2       4.3554      1.00000
      3       5.5270     -0.03372
      4       6.4869      0.00000
      5      10.7007      0.00000
      6      12.1624      0.00000
      7      14.2755      0.00000
      8      18.8481      0.00000
      9      19.3473      0.00000

 k-point  13 :      -0.3125    0.1875    0.0625
  band No.  band energies     occupation 
      1       1.6909      1.00000
      2       4.5098      1.00000
      3       5.0778      1.00000
      4       6.5764      0.00000
      5       9.5705      0.00000
      6      11.8953      0.00000
      7      15.8015      0.00000
      8      18.8488      0.00000
      9      19.7769      0.00000

 k-point  14 :      -0.1875    0.1875    0.0625
  band No.  band energies     occupation 
      1       0.5376      1.00000
      2       4.2706      1.00000
      3       5.5961     -0.00041
      4       7.0364      0.00000
      5       7.8606      0.00000
      6      10.5261      0.00000
      7      18.4865      0.00000
      8      18.8609      0.00000
      9      21.7075      0.00000

 k-point  15 :      -0.0625    0.1875    0.0625
  band No.  band energies     occupation 
      1      -0.9269      1.00000
      2       4.7452      1.00000
      3       6.3077      0.00000
      4       6.6333      0.00000
      5       7.7076      0.00000
      6       9.1824      0.00000
      7      18.8420      0.00000
      8      19.4591      0.00000
      9      20.8647      0.00000

 k-point  16 :       0.3125    0.3125    0.0625
  band No.  band energies     occupation 
      1       0.6930      1.00000
      2       3.4577      1.00000
      3       5.7947      0.00000
      4       8.0630      0.00000
      5       8.4173      0.00000
      6      10.0370      0.00000
      7      18.8425      0.00000
      8      20.4215      0.00000
      9      22.2015      0.00000

 k-point  17 :       0.4375    0.3125    0.0625
  band No.  band energies     occupation 
      1       1.6174      1.00000
      2       3.1434      1.00000
      3       5.4158      1.00855
      4       8.5753      0.00000
      5       9.6819      0.00000
      6      11.2049      0.00000
      7      17.4729      0.00000
      8      18.8504      0.00000
      9      19.6565      0.00000

 k-point  18 :      -0.4375    0.3125    0.0625
  band No.  band energies     occupation 
      1       2.3919      1.00000
      2       3.3928      1.00000
      3       5.2071      1.00000
      4       8.0006      0.00000
      5      10.7979      0.00000
      6      13.0906      0.00000
      7      14.0011      0.00000
      8      18.8440      0.00000
      9      19.5598      0.00000

 k-point  19 :      -0.3125    0.3125    0.0625
  band No.  band energies     occupation 
      1       3.0066      1.00000
      2       3.5752      1.00000
      3       4.7582      1.00000
      4       7.5599      0.00000
      5       9.7865      0.00000
      6      12.2549      0.00000
      7      16.2717      0.00000
      8      18.3551      0.00000
      9      18.8515      0.00000

 k-point  20 :      -0.1875    0.3125    0.0625
  band No.  band energies     occupation 
      1       2.0451      1.00000
      2       4.2308      1.00000
      3       4.5854      1.00000
      4       7.1673      0.00000
      5       8.7335      0.00000
      6      12.0983      0.00000
      7      16.7929      0.00000
      8      18.8504      0.00000
      9      20.3693      0.00000

 k-point  21 :      -0.0625    0.3125    0.0625
  band No.  band energies     occupation 
      1       0.5819      1.00000
      2       4.4889      1.00000
      3       5.7112      0.00000
      4       6.4509      0.00000
      5       8.7908      0.00000
      6      10.3504      0.00000
      7      17.3685      0.00000
      8      18.8480      0.00000
      9      20.5186      0.00000

 k-point  22 :       0.4375    0.4375    0.0625
  band No.  band energies     occupation 
      1       1.4188      1.00000
      2       2.5597      1.00000
      3       6.8234      0.00000
      4       9.9800      0.00000
      5      10.7629      0.00000
      6      11.0190      0.00000
      7      16.8966      0.00000
      8      17.8544      0.00000
      9      18.8225      0.00000

 k-point  23 :      -0.4375    0.4375    0.0625
  band No.  band energies     occupation 
      1       1.6757      1.00000
      2       2.6329      1.00000
      3       6.8707      0.00000
      4       9.7528      0.00000
      5      11.3584      0.00000
      6      12.7449      0.00000
      7      14.7274      0.00000
      8      16.9006      0.00000
      9      18.6973      0.00000

 k-point  24 :      -0.3125    0.4375    0.0625
  band No.  band energies     occupation 
      1       2.4092      1.00000
      2       3.2595      1.00000
      3       5.6055     -0.00015
      4       8.4131      0.00000
      5      10.7362      0.00000
      6      12.8816      0.00000
      7      14.7831      0.00000
      8      18.1119      0.00000
      9      18.8553      0.00000

 k-point  25 :      -0.1875    0.4375    0.0625
  band No.  band energies     occupation 
      1       2.4695      1.00000
      2       3.8500      1.00000
      3       5.1708      1.00000
      4       7.0455      0.00000
      5      10.2935      0.00000
      6      12.5732      0.00000
      7      14.5777      0.00000
      8      18.8471      0.00000
      9      19.8861      0.00000

 k-point  26 :      -0.0625    0.4375    0.0625
  band No.  band energies     occupation 
      1       1.3229      1.00000
      2       4.9505      1.00000
      3       5.6578      0.00000
      4       6.0813      0.00000
      5      10.4447      0.00000
      6      11.4405      0.00000
      7      15.0704      0.00000
      8      18.5301      0.00000
      9      18.8500      0.00000

 k-point  27 :      -0.4375   -0.4375    0.0625
  band No.  band energies     occupation 
      1       1.3570      1.00000
      2       2.3698      1.00000
      3       7.7036      0.00000
      4      10.5849      0.00000
      5      11.4368      0.00000
      6      11.7817      0.00000
      7      15.5760      0.00000
      8      16.6750      0.00000
      9      17.7467      0.00000

 k-point  28 :      -0.3125   -0.4375    0.0625
  band No.  band energies     occupation 
      1       1.7434      1.00000
      2       2.8064      1.00000
      3       6.1087      0.00000
      4       9.3407      0.00000
      5      10.7237      0.00000
      6      11.9374      0.00000
      7      15.8320      0.00000
      8      18.0079      0.00000
      9      18.8448      0.00000

 k-point  29 :      -0.1875   -0.4375    0.0625
  band No.  band energies     occupation 
      1       2.0604      1.00000
      2       3.7477      1.00000
      3       4.9555      1.00000
      4       7.3732      0.00000
      5      10.5031      0.00000
      6      11.8960      0.00000
      7      15.3097      0.00000
      8      18.8478      0.00000
      9      20.4924      0.00000

 k-point  30 :      -0.3125   -0.3125    0.0625
  band No.  band energies     occupation 
      1       1.3064      1.00000
      2       2.9297      1.00000
      3       5.9492      0.00000
      4       9.0229      0.00000
      5       9.5327      0.00000
      6      10.5431      0.00000
      7      18.7330      0.00000
      8      18.8835      0.00000
      9      19.6040      0.00000

 k-point  31 :      -0.1875   -0.3125    0.0625
  band No.  band energies     occupation 
      1       0.9705      1.00000
      2       3.6158      1.00000
      3       5.4219      0.97950
      4       7.7918      0.00000
      5       8.6191      0.00000
      6      10.5086      0.00000
      7      18.8104      0.00000
      8      19.0263      0.00000
      9      21.4603      0.00000

 k-point  32 :      -0.1875   -0.1875    0.0625
  band No.  band energies     occupation 
      1      -0.2876      1.00000
      2       4.1020      1.00000
      3       6.3032      0.00000
      4       7.2410      0.00000
      5       7.5478      0.00000
      6       9.5444      0.00000
      7      18.8441      0.00000
      8      20.6505      0.00000
      9      22.1493      0.00000

 k-point  33 :       0.1875    0.1875    0.1875
  band No.  band energies     occupation 
      1      -1.2837      1.00000
      2       5.0546      1.00000
      3       6.2975      0.00000
      4       6.2975      0.00000
      5       8.4875      0.00000
      6       8.4875      0.00000
      7      18.7887      0.00000
      8      18.8734      0.00000
      9      20.4669      0.00000

 k-point  34 :       0.3125    0.1875    0.1875
  band No.  band energies     occupation 
      1      -0.3057      1.00000
      2       4.5767      1.00000
      3       6.0599      0.00000
      4       6.7921      0.00000
      5       7.6329      0.00000
      6       9.7060      0.00000
      7      18.7811      0.00000
      8      18.8983      0.00000
      9      21.5812      0.00000

 k-point  35 :       0.4375    0.1875    0.1875
  band No.  band energies     occupation 
      1       1.2516      1.00000
      2       4.3106      1.00000
      3       5.1759      1.00000
      4       6.9304      0.00000
      5       8.1095      0.00000
      6      11.4094      0.00000
      7      17.6925      0.00000
      8      18.8527      0.00000
      9      20.9792      0.00000

 k-point  36 :      -0.4375    0.1875    0.1875
  band No.  band energies     occupation 
      1       2.0520      1.00000
      2       4.3208      1.00000
      3       5.1985      1.00000
      4       6.6468      0.00000
      5       9.8641      0.00000
      6      12.2545      0.00000
      7      15.1667      0.00000
      8      18.8484      0.00000
      9      19.8861      0.00000

 k-point  37 :      -0.3125    0.1875    0.1875
  band No.  band energies     occupation 
      1       1.9292      1.00000
      2       4.0858      1.00000
      3       5.2836      1.00000
      4       6.8001      0.00000
      5      11.0463      0.00000
      6      11.7500      0.00000
      7      14.5425      0.00000
      8      18.8479      0.00000
      9      19.7678      0.00000

 k-point  38 :      -0.1875    0.1875    0.1875
  band No.  band energies     occupation 
      1       1.1183      1.00000
      2       3.8181      1.00000
      3       5.3217      1.00033
      4       7.2027      0.00000
      5       9.4125      0.00000
      6      10.5338      0.00000
      7      17.7824      0.00000
      8      18.8520      0.00000
      9      20.9817      0.00000

 k-point  39 :       0.3125    0.3125    0.1875
  band No.  band energies     occupation 
      1       0.2032      1.00000
      2       4.2914      1.00000
      3       5.8640      0.00000
      4       6.7146      0.00000
      5       8.5093      0.00000
      6       9.8320      0.00000
      7      18.2811      0.00000
      8      18.8523      0.00000
      9      21.4608      0.00000

 k-point  40 :       0.4375    0.3125    0.1875
  band No.  band energies     occupation 
      1       1.4633      1.00000
      2       3.9012      1.00000
      3       4.9736      1.00000
      4       7.4779      0.00000
      5       8.6094      0.00000
      6      11.3627      0.00000
      7      17.7150      0.00000
      8      18.8531      0.00000
      9      21.0965      0.00000

 k-point  41 :      -0.4375    0.3125    0.1875
  band No.  band energies     occupation 
      1       2.7793      1.00000
      2       3.8470      1.00000
      3       4.2875      1.00000
      4       7.6281      0.00000
      5       9.6008      0.00000
      6      12.4764      0.00000
      7      16.1207      0.00000
      8      18.8447      0.00000
      9      18.9652      0.00000

 k-point  42 :      -0.3125    0.3125    0.1875
  band No.  band energies     occupation 
      1       2.8985      1.00000
      2       3.4957      1.00000
      3       4.8653      1.00000
      4       7.5195      0.00000
      5      10.4177      0.00000
      6      13.7002      0.00000
      7      13.8174      0.00000
      8      18.8444      0.00000
      9      19.5236      0.00000

 k-point  43 :      -0.1875    0.3125    0.1875
  band No.  band energies     occupation 
      1       2.1706      1.00000
      2       3.5414      1.00000
      3       4.7037      1.00000
      4       8.0931      0.00000
      5       9.5964      0.00000
      6      12.0866      0.00000
      7      16.4456      0.00000
      8      18.8489      0.00000
      9      19.4451      0.00000

 k-point  44 :       0.4375    0.4375    0.1875
  band No.  band energies     occupation 
      1       1.7852      1.00000
      2       3.3732      1.00000
      3       5.2210      1.00000
      4       7.8618      0.00000
      5      10.7026      0.00000
      6      11.0469      0.00000
      7      16.2864      0.00000
      8      18.8483      0.00000
      9      20.4411      0.00000

 k-point  45 :      -0.4375    0.4375    0.1875
  band No.  band energies     occupation 
      1       2.3275      1.00000
      2       3.2703      1.00000
      3       5.1412      1.00000
      4       8.5521      0.00000
      5      10.5686      0.00000
      6      12.8364      0.00000
      7      15.3161      0.00000
      8      17.9177      0.00000
      9      18.8489      0.00000

 k-point  46 :      -0.3125    0.4375    0.1875
  band No.  band energies     occupation 
      1       2.7917      1.00000
      2       3.8176      1.00000
      3       4.7327      1.00000
      4       7.5919      0.00000
      5      11.2981      0.00000
      6      14.1030      0.00000
      7      14.9434      0.00000
      8      16.4966      0.00000
      9      18.8494      0.00000

 k-point  47 :      -0.1875    0.4375    0.1875
  band No.  band energies     occupation 
      1       2.9792      1.00000
      2       3.7451      1.00000
      3       4.3620      1.00000
      4       7.8120      0.00000
      5      10.5150      0.00000
      6      13.0958      0.00000
      7      15.5050      0.00000
      8      17.7123      0.00000
      9      18.8498      0.00000

 k-point  48 :      -0.4375   -0.4375    0.1875
  band No.  band energies     occupation 
      1       1.9296      1.00000
      2       2.8729      1.00000
      3       6.3883      0.00000
      4       9.2523      0.00000
      5      11.0538      0.00000
      6      13.2994      0.00000
      7      13.7900      0.00000
      8      18.4546      0.00000
      9      18.7154      0.00000

 k-point  49 :      -0.3125   -0.4375    0.1875
  band No.  band energies     occupation 
      1       2.2369      1.00000
      2       3.1356      1.00000
      3       5.7771      0.00000
      4       8.5446      0.00000
      5      11.3113      0.00000
      6      13.7889      0.00000
      7      14.4675      0.00000
      8      16.7721      0.00000
      9      18.8467      0.00000

 k-point  50 :      -0.3125   -0.3125    0.1875
  band No.  band energies     occupation 
      1       1.9723      1.00000
      2       3.0387      1.00000
      3       5.7586      0.00000
      4       8.6169      0.00000
      5      11.2094      0.00000
      6      12.2107      0.00000
      7      14.6400      0.00000
      8      18.8435      0.00000
      9      19.2795      0.00000

 k-point  51 :       0.3125    0.3125    0.3125
  band No.  band energies     occupation 
      1       0.2150      1.00000
      2       4.7985      1.00000
      3       6.0946      0.00000
      4       6.0946      0.00000
      5       9.3854      0.00000
      6       9.3854      0.00000
      7      16.8226      0.00000
      8      18.8455      0.00000
      9      20.3592      0.00000

 k-point  52 :       0.4375    0.3125    0.3125
  band No.  band energies     occupation 
      1       1.0925      1.00000
      2       4.6586      1.00000
      3       5.4299      0.92101
      4       6.3414      0.00000
      5       9.0065      0.00000
      6      11.1893      0.00000
      7      16.6852      0.00000
      8      18.8481      0.00000
      9      19.7483      0.00000

 k-point  53 :      -0.4375    0.3125    0.3125
  band No.  band energies     occupation 
      1       2.5768      1.00000
      2       4.0684      1.00000
      3       4.5970      1.00000
      4       7.2030      0.00000
      5       9.1319      0.00000
      6      12.2832      0.00000
      7      16.4235      0.00000
      8      18.8488      0.00000
      9      19.3413      0.00000

 k-point  54 :      -0.3125    0.3125    0.3125
  band No.  band energies     occupation 
      1       2.7105      1.00000
      2       3.4504      1.00000
      3       5.2481      1.00000
      4       7.9967      0.00000
      5      10.1965      0.00000
      6      12.1315      0.00000
      7      15.8397      0.00000
      8      18.1944      0.00000
      9      18.8534      0.00000

 k-point  55 :       0.4375    0.4375    0.3125
  band No.  band energies     occupation 
      1       1.2964      1.00000
      2       4.6309      1.00000
      3       5.4271      0.94430
      4       6.3359      0.00000
      5      10.4685      0.00000
[...]
      2       3.4267      1.00000
      3       5.2780      1.00000
      4       7.9162      0.00000
      5      10.7524      0.00000
      6      11.0950      0.00000
      7      16.3406      0.00000
      8      18.8774      0.00000
      9      20.5012      0.00000

 k-point  45 :      -0.4375    0.4375    0.1875
  band No.  band energies     occupation 
      1       2.3840      1.00000
      2       3.3237      1.00000
      3       5.1970      1.00000
      4       8.6099      0.00000
      5      10.6134      0.00000
      6      12.8840      0.00000
      7      15.3745      0.00000
      8      17.9743      0.00000
      9      18.8781      0.00000

 k-point  46 :      -0.3125    0.4375    0.1875
  band No.  band energies     occupation 
      1       2.8475      1.00000
      2       3.8711      1.00000
      3       4.7863      1.00000
      4       7.6517      0.00000
      5      11.3397      0.00000
      6      14.1594      0.00000
      7      14.9969      0.00000
      8      16.5523      0.00000
      9      18.8785      0.00000

 k-point  47 :      -0.1875    0.4375    0.1875
  band No.  band energies     occupation 
      1       3.0349      1.00000
      2       3.7995      1.00000
      3       4.4164      1.00000
      4       7.8707      0.00000
      5      10.5594      0.00000
      6      13.1482      0.00000
      7      15.5594      0.00000
      8      17.7662      0.00000
      9      18.8790      0.00000

 k-point  48 :      -0.4375   -0.4375    0.1875
  band No.  band energies     occupation 
      1       1.9864      1.00000
      2       2.9265      1.00000
      3       6.4430      0.00000
      4       9.3092      0.00000
      5      11.0963      0.00000
      6      13.3585      0.00000
      7      13.8372      0.00000
      8      18.5044      0.00000
      9      18.8977      0.00000

 k-point  49 :      -0.3125   -0.4375    0.1875
  band No.  band energies     occupation 
      1       2.2934      1.00000
      2       3.1891      1.00000
      3       5.8313      0.00000
      4       8.6033      0.00000
      5      11.3528      0.00000
      6      13.8376      0.00000
      7      14.5264      0.00000
      8      16.8307      0.00000
      9      18.8759      0.00000

 k-point  50 :      -0.3125   -0.3125    0.1875
  band No.  band energies     occupation 
      1       2.0291      1.00000
      2       3.0923      1.00000
      3       5.8146      0.00000
      4       8.6720      0.00000
      5      11.2548      0.00000
      6      12.2599      0.00000
      7      14.6966      0.00000
      8      18.8726      0.00000
      9      19.3405      0.00000

 k-point  51 :       0.3125    0.3125    0.3125
  band No.  band energies     occupation 
      1       0.2735      1.00000
      2       4.8510      1.00000
      3       6.1501      0.00000
      4       6.1501      0.00000
      5       9.4375      0.00000
      6       9.4375      0.00000
      7      16.8703      0.00000
      8      18.8746      0.00000
      9      20.4091      0.00000

 k-point  52 :       0.4375    0.3125    0.3125
  band No.  band energies     occupation 
      1       1.1504      1.00000
      2       4.7115      1.00000
      3       5.4856      0.12305
      4       6.3982      0.00000
      5       9.0570      0.00000
      6      11.2379      0.00000
      7      16.7340      0.00000
      8      18.8772      0.00000
      9      19.8002      0.00000

 k-point  53 :      -0.4375    0.3125    0.3125
  band No.  band energies     occupation 
      1       2.6337      1.00000
      2       4.1238      1.00000
      3       4.6504      1.00000
      4       7.2617      0.00000
      5       9.1790      0.00000
      6      12.3326      0.00000
      7      16.4779      0.00000
      8      18.8780      0.00000
      9      19.3897      0.00000

 k-point  54 :      -0.3125    0.3125    0.3125
  band No.  band energies     occupation 
      1       2.7671      1.00000
      2       3.5046      1.00000
      3       5.3016      1.00004
      4       8.0548      0.00000
      5      10.2411      0.00000
      6      12.1889      0.00000
      7      15.8870      0.00000
      8      18.2434      0.00000
      9      18.8828      0.00000

 k-point  55 :       0.4375    0.4375    0.3125
  band No.  band energies     occupation 
      1       1.3541      1.00000
      2       4.6848      1.00000
      3       5.4826      0.15712
      4       6.3919      0.00000
      5      10.5183      0.00000
      6      10.9381      0.00000
      7      15.7668      0.00000
      8      18.8753      0.00000
      9      19.1738      0.00000

 k-point  56 :      -0.4375    0.4375    0.3125
  band No.  band energies     occupation 
      1       2.3867      1.00000
      2       4.0077      1.00000
      3       5.0122      1.00000
      4       7.1118      0.00000
      5      10.2559      0.00000
      6      12.5791      0.00000
      7      14.8348      0.00000
      8      18.8768      0.00000
      9      20.3040      0.00000

 k-point  57 :      -0.3125    0.4375    0.3125
  band No.  band energies     occupation 
      1       3.0745      1.00000
      2       3.5812      1.00000
      3       4.8419      1.00000
      4       7.7719      0.00000
      5      10.6031      0.00000
      6      13.0053      0.00000
      7      15.5724      0.00000
      8      17.7758      0.00000
      9      18.8803      0.00000

 k-point  58 :      -0.4375   -0.4375    0.3125
  band No.  band energies     occupation 
      1       2.5193      1.00000
      2       3.6816      1.00000
      3       5.2932      1.00001
      4       7.4774      0.00000
      5      10.7516      0.00000
      6      12.6439      0.00000
      7      14.2692      0.00000
      8      18.8749      0.00000
      9      19.8250      0.00000

 k-point  59 :       0.4375    0.4375    0.4375
  band No.  band energies     occupation 
      1       0.9842      1.00000
      2       5.7892      0.00000
      3       5.7892      0.00000
      4       5.7949      0.00000
      5      10.7440      0.00000
      6      10.7440      0.00000
      7      15.3130      0.00000
      8      17.7825      0.00000
      9      18.8792      0.00000

 k-point  60 :      -0.4375    0.4375    0.4375
  band No.  band energies     occupation 
      1       1.5607      1.00000
      2       4.8572      1.00000
      3       5.8243      0.00000
      4       6.1824      0.00000
      5      10.6503      0.00000
      6      11.8459      0.00000
      7      14.6304      0.00000
      8      18.6841      0.00000
      9      18.8777      0.00000


--------------------------------------------------------------------------------------------------------


 soft charge-density along one line, spin component           1
         0         1         2         3         4         5         6         7         8         9
 total charge-density along one line
 
 soft charge-density along one line, spin component           2
         0         1         2         3         4         5         6         7         8         9
 total charge-density along one line
 
 pseudopotential strength for first ion, spin component:           1
 -6.685   0.000   0.000   0.000   0.000   0.078   0.000   0.000
  0.000  -6.685   0.000   0.000   0.000   0.000   0.078   0.000
  0.000   0.000  -6.698   0.000   0.000   0.000   0.000   0.078
  0.000   0.000   0.000  -6.685   0.000   0.000   0.000   0.000
  0.000   0.000   0.000   0.000  -6.698   0.000   0.000   0.000
  0.078   0.000   0.000   0.000   0.000   0.070   0.000   0.000
  0.000   0.078   0.000   0.000   0.000   0.000   0.070   0.000
  0.000   0.000   0.078   0.000   0.000   0.000   0.000   0.070
  0.000   0.000   0.000   0.078   0.000   0.000   0.000   0.000
  0.000   0.000   0.000   0.000   0.078   0.000   0.000   0.000
  0.000   0.000   0.000   0.000   0.000   0.000   0.000   0.000
  0.000   0.000   0.000   0.000   0.000   0.000   0.000   0.000
  0.000   0.000   0.000   0.000   0.000   0.000   0.000   0.000
  0.000   0.000   0.000   0.000   0.000   0.000   0.000   0.000
  0.000   0.000   0.000   0.000   0.000   0.000   0.000   0.000
  0.000   0.000   0.000   0.000   0.000   0.000   0.000   0.000
  0.000   0.000   0.000   0.000   0.000   0.000   0.000   0.000
  0.000   0.000   0.000   0.000   0.000   0.000   0.000   0.000
 pseudopotential strength for first ion, spin component:           2
 -6.684   0.000   0.000   0.000   0.000   0.079   0.000   0.000
  0.000  -6.684   0.000   0.000   0.000   0.000   0.079   0.000
  0.000   0.000  -6.696   0.000   0.000   0.000   0.000   0.078
  0.000   0.000   0.000  -6.684   0.000   0.000   0.000   0.000
  0.000   0.000   0.000   0.000  -6.696   0.000   0.000   0.000
  0.079   0.000   0.000   0.000   0.000   0.070   0.000   0.000
  0.000   0.079   0.000   0.000   0.000   0.000   0.070   0.000
  0.000   0.000   0.078   0.000   0.000   0.000   0.000   0.070
  0.000   0.000   0.000   0.079   0.000   0.000   0.000   0.000
  0.000   0.000   0.000   0.000   0.078   0.000   0.000   0.000
  0.000   0.000   0.000   0.000   0.000   0.000   0.000   0.000
  0.000   0.000   0.000   0.000   0.000   0.000   0.000   0.000
  0.000   0.000   0.000   0.000   0.000   0.000   0.000   0.000
  0.000   0.000   0.000   0.000   0.000   0.000   0.000   0.000
  0.000   0.000   0.000   0.000   0.000   0.000   0.000   0.000
  0.000   0.000   0.000   0.000   0.000   0.000   0.000   0.000
  0.000   0.000   0.000   0.000   0.000   0.000   0.000   0.000
  0.000   0.000   0.000   0.000   0.000   0.000   0.000   0.000
 total augmentation occupancy for first ion, spin component:           1
  0.747   0.000   0.000   0.000   0.000  -0.492   0.000   0.000   0.000   0.000   0.000   0.000   0.000   0.000   0.000   0.000
  0.000   0.747   0.000   0.000   0.000   0.000  -0.492   0.000   0.000   0.000   0.000   0.000   0.000   0.000   0.000   0.000
  0.000   0.000   0.524   0.000   0.000   0.000   0.000  -0.376   0.000   0.000   0.000   0.000   0.000   0.000   0.000   0.000
  0.000   0.000   0.000   0.747   0.000   0.000   0.000   0.000  -0.492   0.000   0.000   0.000   0.000   0.000   0.000   0.000
  0.000   0.000   0.000   0.000   0.524   0.000   0.000   0.000   0.000  -0.376   0.000   0.000   0.000   0.000   0.000   0.000
 -0.492   0.000   0.000   0.000   0.000   0.375   0.000   0.000   0.000   0.000   0.000   0.000   0.000   0.000   0.000   0.000
  0.000  -0.492   0.000   0.000   0.000   0.000   0.375   0.000   0.000   0.000   0.000   0.000   0.000   0.000   0.000   0.000
  0.000   0.000  -0.376   0.000   0.000   0.000   0.000   0.312   0.000   0.000   0.000   0.000   0.000   0.000   0.000   0.000
  0.000   0.000   0.000  -0.492   0.000   0.000   0.000   0.000   0.375   0.000   0.000   0.000   0.000   0.000   0.000   0.000
  0.000   0.000   0.000   0.000  -0.376   0.000   0.000   0.000   0.000   0.312   0.000   0.000   0.000   0.000   0.000   0.000
  0.000   0.000   0.000   0.000   0.000   0.000   0.000   0.000   0.000   0.000   1.393  -0.281   0.000   0.000   0.000   0.000
  0.000   0.000   0.000   0.000   0.000   0.000   0.000   0.000   0.000   0.000  -0.281   0.061   0.000   0.000   0.000   0.000
  0.000   0.000   0.000   0.000   0.000   0.000   0.000   0.000   0.000   0.000   0.000   0.000   0.298   0.000   0.000   0.012
  0.000   0.000   0.000   0.000   0.000   0.000   0.000   0.000   0.000   0.000   0.000   0.000   0.000   0.298   0.000   0.000
  0.000   0.000   0.000   0.000   0.000   0.000   0.000   0.000   0.000   0.000   0.000   0.000   0.000   0.000   0.298   0.000
  0.000   0.000   0.000   0.000   0.000   0.000   0.000   0.000   0.000   0.000   0.000   0.000   0.012   0.000   0.000   0.001
  0.000   0.000   0.000   0.000   0.000   0.000   0.000   0.000   0.000   0.000   0.000   0.000   0.000   0.012   0.000   0.000
  0.000   0.000   0.000   0.000   0.000   0.000   0.000   0.000   0.000   0.000   0.000   0.000   0.000   0.000   0.012   0.000
 total augmentation occupancy for first ion, spin component:           2
  0.007   0.000   0.000   0.000   0.000  -0.004   0.000   0.000   0.000   0.000   0.000   0.000   0.000   0.000   0.000   0.000
  0.000   0.007   0.000   0.000   0.000   0.000  -0.004   0.000   0.000   0.000   0.000   0.000   0.000   0.000   0.000   0.000
  0.000   0.000   0.012   0.000   0.000   0.000   0.000  -0.004   0.000   0.000   0.000   0.000   0.000   0.000   0.000   0.000
  0.000   0.000   0.000   0.007   0.000   0.000   0.000   0.000  -0.004   0.000   0.000   0.000   0.000   0.000   0.000   0.000
  0.000   0.000   0.000   0.000   0.012   0.000   0.000   0.000   0.000  -0.004   0.000   0.000   0.000   0.000   0.000   0.000
 -0.004   0.000   0.000   0.000   0.000   0.003   0.000   0.000   0.000   0.000   0.000   0.000   0.000   0.000   0.000   0.000
  0.000  -0.004   0.000   0.000   0.000   0.000   0.003   0.000   0.000   0.000   0.000   0.000   0.000   0.000   0.000   0.000
  0.000   0.000  -0.004   0.000   0.000   0.000   0.000   0.002   0.000   0.000   0.000   0.000   0.000   0.000   0.000   0.000
  0.000   0.000   0.000  -0.004   0.000   0.000   0.000   0.000   0.003   0.000   0.000   0.000   0.000   0.000   0.000   0.000
  0.000   0.000   0.000   0.000  -0.004   0.000   0.000   0.000   0.000   0.002   0.000   0.000   0.000   0.000   0.000   0.000
  0.000   0.000   0.000   0.000   0.000   0.000   0.000   0.000   0.000   0.000   0.006  -0.004   0.000   0.000   0.000   0.000
  0.000   0.000   0.000   0.000   0.000   0.000   0.000   0.000   0.000   0.000  -0.004   0.001   0.000   0.000   0.000   0.000
  0.000   0.000   0.000   0.000   0.000   0.000   0.000   0.000   0.000   0.000   0.000   0.000   0.002   0.000   0.000   0.000
  0.000   0.000   0.000   0.000   0.000   0.000   0.000   0.000   0.000   0.000   0.000   0.000   0.000   0.002   0.000   0.000
  0.000   0.000   0.000   0.000   0.000   0.000   0.000   0.000   0.000   0.000   0.000   0.000   0.000   0.000   0.002   0.000
  0.000   0.000   0.000   0.000   0.000   0.000   0.000   0.000   0.000   0.000   0.000   0.000   0.000   0.000   0.000   0.000
  0.000   0.000   0.000   0.000   0.000   0.000   0.000   0.000   0.000   0.000   0.000   0.000   0.000   0.000   0.000   0.000
  0.000   0.000   0.000   0.000   0.000   0.000   0.000   0.000   0.000   0.000   0.000   0.000   0.000   0.000   0.000   0.000


------------------------ aborting loop because EDIFF is reached ----------------------------------------


 


 total charge     
 
# of ion     s       p       d       tot
----------------------------------------
  1        0.705   0.693   3.097   4.495
 


 magnetization (x)
 
# of ion     s       p       d       tot
----------------------------------------
  1        0.004   0.006   0.045   0.055
 
    CHARGE:  cpu time    0.20: real time    0.20
    FORLOC:  cpu time    0.00: real time    0.00
    FORNL :  cpu time    0.34: real time    0.34
    STRESS:  cpu time    0.62: real time    0.62
    FORCOR:  cpu time    0.19: real time    0.19
    FORHAR:  cpu time    0.02: real time    0.02
    MIXING:  cpu time    0.01: real time    0.01

  FORCE on cell =-STRESS in cart. coord.  units (eV):
  Direction    XX          YY          ZZ          XY          YZ          ZX
  --------------------------------------------------------------------------------------
  Alpha Z    28.49150    28.49150    28.49150
  Ewald     -64.42334   -64.42334   -64.42334     0.00000     0.00000     0.00000
  Hartree     0.25828     0.25828     0.25828     0.00000     0.00000     0.00000
  E(xc)     -21.82657   -21.82657   -21.82657     0.00000     0.00000     0.00000
  Local       3.82011     3.82011     3.82011     0.00000     0.00000     0.00000
  n-local    -6.65203    -3.84328    -7.91551     1.85561    -1.87165    -0.00133
  augment     2.87567     2.87567     2.87567     0.00000     0.00000     0.00000
  Kinetic    58.14135    54.03961    55.75275    -2.11603     1.93240    -0.04505
  Fock        0.00000     0.00000     0.00000     0.00000     0.00000     0.00000
  -------------------------------------------------------------------------------------
  Total      -0.96340    -0.96340    -0.96340     0.00000     0.00000     0.00000
  in kB     -79.30353   -79.30353   -79.30353     0.00000     0.00000     0.00000
  external pressure =      -79.30 kB  Pullay stress =        0.00 kB


 VOLUME and BASIS-vectors are now :
 -----------------------------------------------------------------------------
  energy-cutoff  :      400.00
  volume of cell :       19.46
      direct lattice vectors                 reciprocal lattice vectors
     0.000000000  2.135000000  2.135000000    -0.234192037  0.234192037  0.234192037
     2.135000000  0.000000000  2.135000000     0.234192037 -0.234192037  0.234192037
     2.135000000  2.135000000  0.000000000     0.234192037  0.234192037 -0.234192037

  length of vectors
     3.019345956  3.019345956  3.019345956     0.405632508  0.405632508  0.405632508


 FORCES acting on ions
    electron-ion (+dipol)            ewald-force                    non-local-force                 convergence-correction
 -----------------------------------------------------------------------------------------------
   -.618E-15 -.126E-14 -.115E-14   0.208E-15 0.140E-15 -.605E-16   0.000E+00 -.165E-23 -.165E-23   -.494E-15 0.433E-15 0.510E-15
 -----------------------------------------------------------------------------------------------
   -.618E-15 -.126E-14 -.115E-14   0.208E-15 0.140E-15 -.605E-16   0.000E+00 -.165E-23 -.165E-23   -.494E-15 0.433E-15 0.510E-15
 
 
 POSITION                                       TOTAL-FORCE (eV/Angst)
 -----------------------------------------------------------------------------------
      0.00000      0.00000      0.00000         0.000000      0.000000      0.000000
 -----------------------------------------------------------------------------------
    total drift:                                0.000000      0.000000      0.000000


--------------------------------------------------------------------------------------------------------



  FREE ENERGIE OF THE ION-ELECTRON SYSTEM (eV)
  ---------------------------------------------------
  free  energy   TOTEN  =       -11.594727 eV

  energy  without entropy=      -11.594561  energy(sigma->0) =      -11.594671
 


--------------------------------------------------------------------------------------------------------


    POTLOK:  cpu time    0.23: real time    0.24


--------------------------------------------------------------------------------------------------------


 writing wavefunctions
     LOOP+:  cpu time   57.47: real time   58.67
    4ORBIT:  cpu time    0.00: real time    0.00
 


 total charge     
 
# of ion     s       p       d       tot
----------------------------------------
  1        0.705   0.693   3.097   4.495
 


 magnetization (x)
 
# of ion     s       p       d       tot
----------------------------------------
  1        0.004   0.006   0.045   0.055
 

 total amount of memory used by VASP on root node    47480. kBytes
========================================================================

   base      :      30000. kBytes
   nonl-proj :       3142. kBytes
   fftplans  :       2284. kBytes
   grid      :       5440. kBytes
   one-center:         31. kBytes
   wavefun   :       6583. kBytes
 
  
  
 General timing and accounting informations for this job:
 ========================================================
  
                  Total CPU time used (sec):       58.324
                            User time (sec):       58.167
                          System time (sec):        0.157
                         Elapsed time (sec):       59.686
  
                   Maximum memory used (kb):           0.
                   Average memory used (kb):           0.
  
                          Minor page faults:        13119
                          Major page faults:            0
                 Voluntary context switches:          518
