PROCAR lm decomposed
# of k-points:   60         # of bands:   9         # of ions:   1

 k-point    1 :    0.06250000 0.06250000 0.06250000     weight = 0.00390625

band   1 # energy   -2.36377446 # occ.  1.00000000
 
ion      s     py     pz     px    dxy    dyz    dz2    dxz    dx2    tot
  1  0.788  0.004  0.004  0.004  0.000  0.000  0.000  0.000  0.000  0.799
 
band   2 # energy    5.76165447 # occ.  0.00000000
 
ion      s     py     pz     px    dxy    dyz    dz2    dxz    dx2    tot
  1  0.000  0.002  0.002  0.002  0.325  0.325  0.000  0.325  0.000  0.982
 
band   3 # energy    5.96245561 # occ.  0.00000000
 
ion      s     py     pz     px    dxy    dyz    dz2    dxz    dx2    tot
  1  0.000  0.001  0.001  0.000  0.520  0.047  0.001  0.418  0.000  0.988
 
band   4 # energy    5.96245561 # occ.  0.00000000
 
ion      s     py     pz     px    dxy    dyz    dz2    dxz    dx2    tot
  1  0.000  0.000  0.000  0.001  0.137  0.610  0.000  0.239  0.001  0.988
 
band   5 # energy    8.65361305 # occ.  0.00000000
 
ion      s     py     pz     px    dxy    dyz    dz2    dxz    dx2    tot
  1  0.000  0.000  0.000  0.000  0.001  0.000  0.721  0.000  0.262  0.984
 
band   6 # energy    8.65361305 # occ.  0.00000000
 
ion      s     py     pz     px    dxy    dyz    dz2    dxz    dx2    tot
  1  0.000  0.000  0.000  0.000  0.000  0.001  0.262  0.000  0.721  0.984
 
band   7 # energy   18.12438535 # occ.  0.00000000
 
ion      s     py     pz     px    dxy    dyz    dz2    dxz    dx2    tot
  1  0.000  0.000  0.000  0.000  0.005  0.005  0.000  0.005  0.000  0.015
 
band   8 # energy   18.84676010 # occ.  0.00000000
 
ion      s     py     pz     px    dxy    dyz    dz2    dxz    dx2    tot
  1 43.898  0.000  0.000  0.000  0.000  0.000  0.000  0.000  0.000 43.898
 
band   9 # energy   21.70178531 # occ.  0.00000000
 
ion      s     py     pz     px    dxy    dyz    dz2    dxz    dx2    tot
  1  0.041  0.037  0.038  0.037  0.003  0.003  0.000  0.003  0.000  0.162
 

 k-point    2 :    0.18750000 0.06250000 0.06250000     weight = 0.01171875

band   1 # energy   -1.61665555 # occ.  1.00000000
 
ion      s     py     pz     px    dxy    dyz    dz2    dxz    dx2    tot
  1  0.742  0.030  0.030  0.003  0.001  0.006  0.000  0.001  0.001  0.812
 
band   2 # energy    5.19933905 # occ.  1.00000000
 
ion      s     py     pz     px    dxy    dyz    dz2    dxz    dx2    tot
  1  0.000  0.003  0.003  0.023  0.444  0.039  0.000  0.444  0.000  0.956
 
band   3 # energy    6.25028712 # occ.  0.00000000
 
ion      s     py     pz     px    dxy    dyz    dz2    dxz    dx2    tot
  1  0.000  0.009  0.009  0.001  0.021  0.843  0.017  0.021  0.052  0.974
 
band   4 # energy    6.28375120 # occ.  0.00000000
 
ion      s     py     pz     px    dxy    dyz    dz2    dxz    dx2    tot
  1  0.000  0.000  0.000  0.000  0.480  0.000  0.013  0.480  0.004  0.979
 
band   5 # energy    8.11650573 # occ.  0.00000000
 
ion      s     py     pz     px    dxy    dyz    dz2    dxz    dx2    tot
  1  0.000  0.000  0.000  0.000  0.008  0.000  0.706  0.008  0.235  0.959
 
band   6 # energy    8.77593438 # occ.  0.00000000
 
ion      s     py     pz     px    dxy    dyz    dz2    dxz    dx2    tot
  1  0.001  0.001  0.001  0.000  0.001  0.066  0.225  0.001  0.674  0.971
 
band   7 # energy   18.84462916 # occ.  0.00000000
 
ion      s     py     pz     px    dxy    dyz    dz2    dxz    dx2    tot
  1 43.743  0.000  0.000  0.000  0.000  0.000  0.000  0.000  0.000 43.744
 
band   8 # energy   19.43290758 # occ.  0.00000000
 
ion      s     py     pz     px    dxy    dyz    dz2    dxz    dx2    tot
  1  0.075  0.005  0.005  0.003  0.021  0.000  0.001  0.021  0.002  0.134
 
band   9 # energy   20.16405611 # occ.  0.00000000
 
ion      s     py     pz     px    dxy    dyz    dz2    dxz    dx2    tot
  1  0.164  0.033  0.033  0.009  0.022  0.032  0.004  0.022  0.011  0.330
 

 k-point    3 :    0.31250000 0.06250000 0.06250000     weight = 0.01171875

band   1 # energy   -0.12818843 # occ.  1.00000000
 
ion      s     py     pz     px    dxy    dyz    dz2    dxz    dx2    tot
  1  0.616  0.056  0.056  0.014  0.029  0.049  0.000  0.029  0.001  0.851
 
band   2 # energy    4.66163815 # occ.  1.00000000
 
ion      s     py     pz     px    dxy    dyz    dz2    dxz    dx2    tot
  1  0.011  0.042  0.042  0.075  0.328  0.087  0.001  0.328  0.002  0.916
 
band   3 # energy    6.12827348 # occ.  0.00000000
 
ion      s     py     pz     px    dxy    dyz    dz2    dxz    dx2    tot
  1  0.000  0.008  0.008  0.002  0.054  0.467  0.091  0.054  0.272  0.956
 
band   4 # energy    6.34108498 # occ.  0.00000000
 
ion      s     py     pz     px    dxy    dyz    dz2    dxz    dx2    tot
  1  0.000  0.000  0.000  0.000  0.285  0.000  0.294  0.285  0.098  0.963
 
band   5 # energy    8.45370824 # occ.  0.00000000
 
ion      s     py     pz     px    dxy    dyz    dz2    dxz    dx2    tot
  1  0.000  0.004  0.004  0.000  0.194  0.000  0.410  0.194  0.137  0.944
 
band   6 # energy    9.53054896 # occ.  0.00000000
 
ion      s     py     pz     px    dxy    dyz    dz2    dxz    dx2    tot
  1  0.004  0.009  0.009  0.001  0.022  0.309  0.146  0.022  0.437  0.959
 
band   7 # energy   17.67818602 # occ.  0.00000000
 
ion      s     py     pz     px    dxy    dyz    dz2    dxz    dx2    tot
  1  0.077  0.030  0.030  0.027  0.013  0.047  0.003  0.013  0.010  0.251
 
band   8 # energy   18.84774525 # occ.  0.00000000
 
ion      s     py     pz     px    dxy    dyz    dz2    dxz    dx2    tot
  1 43.893  0.000  0.000  0.000  0.000  0.000  0.000  0.000  0.000 43.893
 
band   9 # energy   21.18586452 # occ.  0.00000000
 
ion      s     py     pz     px    dxy    dyz    dz2    dxz    dx2    tot
  1  0.174  0.056  0.056  0.052  0.126  0.085  0.000  0.126  0.000  0.676
 

 k-point    4 :    0.43750000 0.06250000 0.06250000     weight = 0.01171875

band   1 # energy    0.93956382 # occ.  1.00000000
 
ion      s     py     pz     px    dxy    dyz    dz2    dxz    dx2    tot
  1  0.411  0.026  0.026  0.002  0.146  0.163  0.000  0.146  0.001  0.921
 
band   2 # energy    5.20337285 # occ.  1.00000000
 
ion      s     py     pz     px    dxy    dyz    dz2    dxz    dx2    tot
  1  0.029  0.163  0.163  0.161  0.073  0.069  0.025  0.073  0.075  0.831
 
band   3 # energy    5.72082693 # occ.  0.00000000
 
ion      s     py     pz     px    dxy    dyz    dz2    dxz    dx2    tot
  1  0.006  0.005  0.005  0.030  0.119  0.233  0.110  0.119  0.330  0.957
 
band   4 # energy    5.91541022 # occ.  0.00000000
 
ion      s     py     pz     px    dxy    dyz    dz2    dxz    dx2    tot
  1  0.000  0.000  0.000  0.000  0.192  0.000  0.432  0.192  0.144  0.960
 
band   5 # energy    9.95969351 # occ.  0.00000000
 
ion      s     py     pz     px    dxy    dyz    dz2    dxz    dx2    tot
  1  0.000  0.005  0.005  0.000  0.291  0.000  0.272  0.291  0.091  0.954
 
band   6 # energy   10.85046357 # occ.  0.00000000
 
ion      s     py     pz     px    dxy    dyz    dz2    dxz    dx2    tot
  1  0.006  0.016  0.016  0.001  0.050  0.423  0.103  0.050  0.308  0.973
 
band   7 # energy   15.78050966 # occ.  0.00000000
 
ion      s     py     pz     px    dxy    dyz    dz2    dxz    dx2    tot
  1  0.285  0.030  0.030  0.026  0.092  0.128  0.002  0.092  0.006  0.692
 
band   8 # energy   18.54803274 # occ.  0.00000000
 
ion      s     py     pz     px    dxy    dyz    dz2    dxz    dx2    tot
  1  0.644  0.041  0.041  0.026  0.048  0.014  0.001  0.048  0.003  0.866
 
band   9 # energy   18.85573267 # occ.  0.00000000
 
ion      s     py     pz     px    dxy    dyz    dz2    dxz    dx2    tot
  1 43.513  0.001  0.001  0.001  0.002  0.001  0.000  0.002  0.000 43.521
 

 k-point    5 :   -0.43750000 0.06250000 0.06250000     weight = 0.01171875

band   1 # energy    1.11200602 # occ.  1.00000000
 
ion      s     py     pz     px    dxy    dyz    dz2    dxz    dx2    tot
  1  0.341  0.000  0.000  0.011  0.192  0.208  0.000  0.192  0.000  0.945
 
band   2 # energy    5.35757874 # occ.  1.00682100
 
ion      s     py     pz     px    dxy    dyz    dz2    dxz    dx2    tot
  1  0.000  0.068  0.068  0.043  0.044  0.095  0.132  0.044  0.395  0.889
 
band   3 # energy    5.80579200 # occ.  0.00000000
 
ion      s     py     pz     px    dxy    dyz    dz2    dxz    dx2    tot
  1  0.000  0.002  0.002  0.000  0.188  0.000  0.436  0.188  0.145  0.961
 
band   4 # energy    5.98948138 # occ.  0.00000000
 
ion      s     py     pz     px    dxy    dyz    dz2    dxz    dx2    tot
  1  0.003  0.171  0.171  0.194  0.025  0.205  0.016  0.025  0.049  0.860
 
band   5 # energy   10.94693327 # occ.  0.00000000
 
ion      s     py     pz     px    dxy    dyz    dz2    dxz    dx2    tot
  1  0.000  0.000  0.000  0.000  0.305  0.000  0.279  0.305  0.093  0.983
 
band   6 # energy   11.05075429 # occ.  0.00000000
 
ion      s     py     pz     px    dxy    dyz    dz2    dxz    dx2    tot
  1  0.000  0.013  0.013  0.029  0.100  0.352  0.089  0.100  0.268  0.965
 
band   7 # energy   14.84588269 # occ.  0.00000000
 
ion      s     py     pz     px    dxy    dyz    dz2    dxz    dx2    tot
  1  0.462  0.002  0.002  0.003  0.167  0.144  0.000  0.167  0.000  0.946
 
band   8 # energy   17.73649618 # occ.  0.00000000
 
ion      s     py     pz     px    dxy    dyz    dz2    dxz    dx2    tot
  1  0.002  0.013  0.013  0.019  0.000  0.016  0.002  0.000  0.006  0.072
 
band   9 # energy   18.84919269 # occ.  0.00000000
 
ion      s     py     pz     px    dxy    dyz    dz2    dxz    dx2    tot
  1 44.104  0.000  0.000  0.000  0.000  0.000  0.000  0.000  0.000 44.104
 

 k-point    6 :   -0.31250000 0.06250000 0.06250000     weight = 0.01171875

band   1 # energy    0.70189763 # occ.  1.00000000
 
ion      s     py     pz     px    dxy    dyz    dz2    dxz    dx2    tot
  1  0.476  0.015  0.015  0.059  0.110  0.110  0.001  0.110  0.003  0.898
 
band   2 # energy    4.86880806 # occ.  1.00000000
 
ion      s     py     pz     px    dxy    dyz    dz2    dxz    dx2    tot
  1  0.032  0.133  0.133  0.109  0.091  0.239  0.009  0.091  0.026  0.862
 
band   3 # energy    5.78626483 # occ.  0.00000000
 
ion      s     py     pz     px    dxy    dyz    dz2    dxz    dx2    tot
  1  0.004  0.000  0.000  0.001  0.067  0.296  0.130  0.067  0.389  0.955
 
band   4 # energy    6.09297114 # occ.  0.00000000
 
ion      s     py     pz     px    dxy    dyz    dz2    dxz    dx2    tot
  1  0.000  0.005  0.005  0.000  0.233  0.000  0.365  0.233  0.122  0.962
 
band   5 # energy    9.63658484 # occ.  0.00000000
 
ion      s     py     pz     px    dxy    dyz    dz2    dxz    dx2    tot
  1  0.004  0.003  0.003  0.035  0.141  0.245  0.093  0.141  0.280  0.945
 
band   6 # energy   10.26566088 # occ.  0.00000000
 
ion      s     py     pz     px    dxy    dyz    dz2    dxz    dx2    tot
  1  0.000  0.005  0.005  0.000  0.244  0.000  0.351  0.244  0.117  0.966
 
band   7 # energy   16.39890629 # occ.  0.00000000
 
ion      s     py     pz     px    dxy    dyz    dz2    dxz    dx2    tot
  1  0.181  0.034  0.034  0.032  0.084  0.043  0.002  0.084  0.005  0.498
 
band   8 # energy   18.84285953 # occ.  0.00000000
 
ion      s     py     pz     px    dxy    dyz    dz2    dxz    dx2    tot
  1 43.250  0.000  0.000  0.001  0.000  0.000  0.000  0.000  0.000 43.253
 
band   9 # energy   19.40485700 # occ.  0.00000000
 
ion      s     py     pz     px    dxy    dyz    dz2    dxz    dx2    tot
  1  0.924  0.049  0.049  0.068  0.056  0.090  0.002  0.056  0.005  1.300
 

 k-point    7 :   -0.18750000 0.06250000 0.06250000     weight = 0.01171875

band   1 # energy   -0.65111167 # occ.  1.00000000
 
ion      s     py     pz     px    dxy    dyz    dz2    dxz    dx2    tot
  1  0.668  0.022  0.022  0.070  0.019  0.012  0.001  0.019  0.002  0.834
 
band   2 # energy    4.73225473 # occ.  1.00000000
 
ion      s     py     pz     px    dxy    dyz    dz2    dxz    dx2    tot
  1  0.005  0.036  0.036  0.018  0.143  0.550  0.000  0.143  0.001  0.932
 
band   3 # energy    6.27784327 # occ.  0.00000000
 
ion      s     py     pz     px    dxy    dyz    dz2    dxz    dx2    tot
  1  0.000  0.002  0.002  0.004  0.190  0.264  0.077  0.190  0.231  0.959
 
band   4 # energy    6.41892284 # occ.  0.00000000
 
ion      s     py     pz     px    dxy    dyz    dz2    dxz    dx2    tot
  1  0.000  0.008  0.008  0.000  0.367  0.000  0.164  0.367  0.055  0.969
 
band   5 # energy    8.21032629 # occ.  0.00000000
 
ion      s     py     pz     px    dxy    dyz    dz2    dxz    dx2    tot
  1  0.004  0.001  0.001  0.014  0.098  0.106  0.156  0.098  0.468  0.945
 
band   6 # energy    9.10443545 # occ.  0.00000000
 
ion      s     py     pz     px    dxy    dyz    dz2    dxz    dx2    tot
  1  0.000  0.003  0.003  0.000  0.107  0.000  0.557  0.107  0.186  0.961
 
band   7 # energy   18.36730122 # occ.  0.00000000
 
ion      s     py     pz     px    dxy    dyz    dz2    dxz    dx2    tot
  1  0.273  0.027  0.027  0.025  0.018  0.002  0.003  0.018  0.010  0.404
 
band   8 # energy   18.85042286 # occ.  0.00000000
 
ion      s     py     pz     px    dxy    dyz    dz2    dxz    dx2    tot
  1 43.692  0.000  0.000  0.000  0.000  0.000  0.000  0.000  0.000 43.693
 
band   9 # energy   21.21215485 # occ.  0.00000000
 
ion      s     py     pz     px    dxy    dyz    dz2    dxz    dx2    tot
  1  0.078  0.026  0.026  0.022  0.075  0.130  0.000  0.075  0.000  0.432
 

 k-point    8 :   -0.06250000 0.06250000 0.06250000     weight = 0.01171875

band   1 # energy   -1.98000390 # occ.  1.00000000
 
ion      s     py     pz     px    dxy    dyz    dz2    dxz    dx2    tot
  1  0.765  0.003  0.003  0.031  0.001  0.000  0.000  0.001  0.001  0.805
 
band   2 # energy    5.40266715 # occ.  1.03440808
 
ion      s     py     pz     px    dxy    dyz    dz2    dxz    dx2    tot
  1  0.000  0.004  0.004  0.000  0.064  0.832  0.000  0.064  0.000  0.967
 
band   3 # energy    6.16638456 # occ.  0.00000000
 
ion      s     py     pz     px    dxy    dyz    dz2    dxz    dx2    tot
  1  0.000  0.003  0.003  0.002  0.415  0.135  0.002  0.415  0.005  0.981
 
band   4 # energy    6.17786356 # occ.  0.00000000
 
ion      s     py     pz     px    dxy    dyz    dz2    dxz    dx2    tot
  1  0.000  0.005  0.005  0.000  0.481  0.000  0.007  0.481  0.002  0.982
 
band   5 # energy    8.18641526 # occ.  0.00000000
 
ion      s     py     pz     px    dxy    dyz    dz2    dxz    dx2    tot
  1  0.001  0.000  0.000  0.001  0.003  0.001  0.239  0.003  0.716  0.963
 
band   6 # energy    8.81474691 # occ.  0.00000000
 
ion      s     py     pz     px    dxy    dyz    dz2    dxz    dx2    tot
  1  0.000  0.000  0.000  0.000  0.005  0.000  0.730  0.005  0.243  0.983
 
band   7 # energy   18.84595868 # occ.  0.00000000
 
ion      s     py     pz     px    dxy    dyz    dz2    dxz    dx2    tot
  1 43.823  0.000  0.000  0.000  0.000  0.000  0.000  0.000  0.000 43.823
 
band   8 # energy   18.90229749 # occ.  0.00000000
 
ion      s     py     pz     px    dxy    dyz    dz2    dxz    dx2    tot
  1  0.043  0.000  0.000  0.000  0.004  0.041  0.000  0.004  0.000  0.092
 
band   9 # energy   20.93910813 # occ.  0.00000000
 
ion      s     py     pz     px    dxy    dyz    dz2    dxz    dx2    tot
  1  0.098  0.021  0.021  0.046  0.009  0.003  0.006  0.009  0.017  0.228
 

 k-point    9 :    0.18750000 0.18750000 0.06250000     weight = 0.01171875

band   1 # energy   -1.25369347 # occ.  1.00000000
 
ion      s     py     pz     px    dxy    dyz    dz2    dxz    dx2    tot
  1  0.716  0.003  0.083  0.003  0.000  0.002  0.009  0.002  0.000  0.817
 
band   2 # energy    4.79048816 # occ.  1.00000000
 
ion      s     py     pz     px    dxy    dyz    dz2    dxz    dx2    tot
  1  0.000  0.004  0.000  0.004  0.905  0.020  0.000  0.020  0.000  0.954
 
band   3 # energy    6.53582027 # occ.  0.00000000
 
ion      s     py     pz     px    dxy    dyz    dz2    dxz    dx2    tot
  1  0.000  0.012  0.001  0.012  0.043  0.394  0.108  0.394  0.000  0.964
 
band   4 # energy    6.60639123 # occ.  0.00000000
 
ion      s     py     pz     px    dxy    dyz    dz2    dxz    dx2    tot
  1  0.000  0.014  0.000  0.014  0.000  0.458  0.000  0.458  0.026  0.971
 
band   5 # energy    7.47715582 # occ.  0.00000000
 
ion      s     py     pz     px    dxy    dyz    dz2    dxz    dx2    tot
  1  0.008  0.001  0.007  0.001  0.005  0.052  0.812  0.052  0.000  0.938
 
band   6 # energy    9.12182719 # occ.  0.00000000
 
ion      s     py     pz     px    dxy    dyz    dz2    dxz    dx2    tot
  1  0.000  0.000  0.000  0.000  0.000  0.013  0.000  0.013  0.954  0.980
 
band   7 # energy   18.84495989 # occ.  0.00000000
 
ion      s     py     pz     px    dxy    dyz    dz2    dxz    dx2    tot
  1 43.818  0.000  0.000  0.000  0.000  0.000  0.000  0.000  0.000 43.819
 
band   8 # energy   20.24238439 # occ.  0.00000000
 
ion      s     py     pz     px    dxy    dyz    dz2    dxz    dx2    tot
  1  0.029  0.003  0.005  0.003  0.076  0.000  0.012  0.000  0.000  0.130
 
band   9 # energy   20.66970403 # occ.  0.00000000
 
ion      s     py     pz     px    dxy    dyz    dz2    dxz    dx2    tot
  1  0.125  0.018  0.026  0.018  0.029  0.019  0.060  0.019  0.000  0.314
 

 k-point   10 :    0.31250000 0.18750000 0.06250000     weight = 0.02343750

band   1 # energy    0.00011264 # occ.  1.00000000
 
ion      s     py     pz     px    dxy    dyz    dz2    dxz    dx2    tot
  1  0.612  0.022  0.137  0.002  0.003  0.024  0.033  0.004  0.000  0.838
 
band   2 # energy    4.17530729 # occ.  1.00000000
 
ion      s     py     pz     px    dxy    dyz    dz2    dxz    dx2    tot
  1  0.001  0.005  0.002  0.034  0.817  0.007  0.001  0.075  0.000  0.944
 
band   3 # energy    5.94920922 # occ.  0.00000000
 
ion      s     py     pz     px    dxy    dyz    dz2    dxz    dx2    tot
  1  0.010  0.019  0.002  0.000  0.018  0.291  0.538  0.013  0.029  0.921
 
band   4 # energy    7.14318270 # occ.  0.00000000
 
ion      s     py     pz     px    dxy    dyz    dz2    dxz    dx2    tot
  1  0.001  0.010  0.004  0.022  0.043  0.160  0.054  0.515  0.146  0.955
 
band   5 # energy    7.83376980 # occ.  0.00000000
 
ion      s     py     pz     px    dxy    dyz    dz2    dxz    dx2    tot
  1  0.009  0.013  0.029  0.012  0.053  0.195  0.256  0.279  0.097  0.944
 
band   6 # energy    9.80839343 # occ.  0.00000000
 
ion      s     py     pz     px    dxy    dyz    dz2    dxz    dx2    tot
  1  0.004  0.010  0.005  0.000  0.000  0.225  0.020  0.011  0.695  0.972
 
band   7 # energy   18.83927569 # occ.  0.00000000
 
ion      s     py     pz     px    dxy    dyz    dz2    dxz    dx2    tot
  1 43.100  0.001  0.001  0.000  0.000  0.001  0.000  0.000  0.000 43.104
 
band   8 # energy   19.43531862 # occ.  0.00000000
 
ion      s     py     pz     px    dxy    dyz    dz2    dxz    dx2    tot
  1  0.900  0.079  0.034  0.018  0.001  0.083  0.060  0.013  0.011  1.198
 
band   9 # energy   22.16966492 # occ.  0.00000000
 
ion      s     py     pz     px    dxy    dyz    dz2    dxz    dx2    tot
  1  0.033  0.027  0.018  0.045  0.187  0.024  0.007  0.073  0.000  0.413
 

 k-point   11 :    0.43750000 0.18750000 0.06250000     weight = 0.02343750

band   1 # energy    1.37418285 # occ.  1.00000000
 
ion      s     py     pz     px    dxy    dyz    dz2    dxz    dx2    tot
  1  0.420  0.022  0.125  0.001  0.108  0.105  0.049  0.060  0.000  0.890
 
band   2 # energy    4.18518084 # occ.  1.00000000
 
ion      s     py     pz     px    dxy    dyz    dz2    dxz    dx2    tot
  1  0.013  0.081  0.043  0.104  0.421  0.026  0.129  0.067  0.005  0.889
 
band   3 # energy    5.16858907 # occ.  1.00000000
 
ion      s     py     pz     px    dxy    dyz    dz2    dxz    dx2    tot
  1  0.026  0.003  0.021  0.005  0.219  0.189  0.421  0.006  0.038  0.928
 
band   4 # energy    6.81270676 # occ.  0.00000000
 
ion      s     py     pz     px    dxy    dyz    dz2    dxz    dx2    tot
  1  0.001  0.012  0.011  0.011  0.021  0.119  0.063  0.269  0.441  0.948
 
band   5 # energy    9.58583951 # occ.  0.00000000
 
ion      s     py     pz     px    dxy    dyz    dz2    dxz    dx2    tot
  1  0.006  0.009  0.058  0.027  0.116  0.015  0.174  0.429  0.102  0.936
 
band   6 # energy   11.13996461 # occ.  0.00000000
 
ion      s     py     pz     px    dxy    dyz    dz2    dxz    dx2    tot
  1  0.020  0.021  0.030  0.002  0.009  0.448  0.059  0.029  0.362  0.981
 
band   7 # energy   16.67014083 # occ.  0.00000000
 
ion      s     py     pz     px    dxy    dyz    dz2    dxz    dx2    tot
  1  0.225  0.089  0.068  0.057  0.041  0.117  0.008  0.095  0.014  0.714
 
band   8 # energy   18.84916084 # occ.  0.00000000
 
ion      s     py     pz     px    dxy    dyz    dz2    dxz    dx2    tot
  1 44.019  0.000  0.000  0.000  0.000  0.000  0.000  0.000  0.000 44.020
 
band   9 # energy   20.15242396 # occ.  0.00000000
 
ion      s     py     pz     px    dxy    dyz    dz2    dxz    dx2    tot
  1  0.105  0.019  0.066  0.012  0.048  0.000  0.090  0.010  0.002  0.353
 

 k-point   12 :   -0.43750000 0.18750000 0.06250000     weight = 0.02343750

band   1 # energy    1.84987157 # occ.  1.00000000
 
ion      s     py     pz     px    dxy    dyz    dz2    dxz    dx2    tot
  1  0.284  0.000  0.045  0.016  0.263  0.191  0.009  0.133  0.001  0.941
 
band   2 # energy    4.35541625 # occ.  1.00000000
 
ion      s     py     pz     px    dxy    dyz    dz2    dxz    dx2    tot
  1  0.000  0.111  0.026  0.061  0.007  0.039  0.535  0.008  0.058  0.844
 
band   3 # energy    5.52698497 # occ. -0.03371790
 
ion      s     py     pz     px    dxy    dyz    dz2    dxz    dx2    tot
  1  0.005  0.070  0.154  0.118  0.331  0.195  0.028  0.007  0.008  0.915
 
band   4 # energy    6.48694486 # occ.  0.00000000
 
ion      s     py     pz     px    dxy    dyz    dz2    dxz    dx2    tot
  1  0.000  0.004  0.010  0.011  0.015  0.061  0.067  0.236  0.542  0.946
 
band   5 # energy   10.70072707 # occ.  0.00000000
 
ion      s     py     pz     px    dxy    dyz    dz2    dxz    dx2    tot
  1  0.012  0.002  0.005  0.000  0.078  0.162  0.048  0.410  0.249  0.966
 
band   6 # energy   12.16240010 # occ.  0.00000000
 
ion      s     py     pz     px    dxy    dyz    dz2    dxz    dx2    tot
  1  0.000  0.048  0.119  0.082  0.181  0.208  0.227  0.002  0.063  0.930
 
band   7 # energy   14.27549731 # occ.  0.00000000
 
ion      s     py     pz     px    dxy    dyz    dz2    dxz    dx2    tot
  1  0.491  0.002  0.000  0.002  0.090  0.130  0.007  0.191  0.010  0.924
 
band   8 # energy   18.84812299 # occ.  0.00000000
 
ion      s     py     pz     px    dxy    dyz    dz2    dxz    dx2    tot
  1 44.056  0.000  0.000  0.000  0.000  0.000  0.000  0.000  0.000 44.056
 
band   9 # energy   19.34726586 # occ.  0.00000000
 
ion      s     py     pz     px    dxy    dyz    dz2    dxz    dx2    tot
  1  0.014  0.000  0.044  0.011  0.032  0.030  0.073  0.002  0.006  0.211
 

 k-point   13 :   -0.31250000 0.18750000 0.06250000     weight = 0.02343750

band   1 # energy    1.69087438 # occ.  1.00000000
 
ion      s     py     pz     px    dxy    dyz    dz2    dxz    dx2    tot
  1  0.361  0.033  0.004  0.083  0.197  0.136  0.004  0.092  0.007  0.915
 
band   2 # energy    4.50975982 # occ.  1.00000000
 
ion      s     py     pz     px    dxy    dyz    dz2    dxz    dx2    tot
  1  0.007  0.122  0.090  0.072  0.054  0.081  0.302  0.048  0.068  0.845
 
band   3 # energy    5.07781344 # occ.  1.00000000
 
ion      s     py     pz     px    dxy    dyz    dz2    dxz    dx2    tot
  1  0.021  0.005  0.080  0.026  0.191  0.337  0.196  0.059  0.024  0.939
 
band   4 # energy    6.57642572 # occ.  0.00000000
 
ion      s     py     pz     px    dxy    dyz    dz2    dxz    dx2    tot
  1  0.000  0.001  0.002  0.021  0.018  0.071  0.068  0.203  0.560  0.944
 
band   5 # energy    9.57045299 # occ.  0.00000000
 
ion      s     py     pz     px    dxy    dyz    dz2    dxz    dx2    tot
  1  0.000  0.000  0.008  0.022  0.001  0.221  0.006  0.432  0.252  0.942
 
band   6 # energy   11.89527685 # occ.  0.00000000
 
ion      s     py     pz     px    dxy    dyz    dz2    dxz    dx2    tot
  1  0.065  0.026  0.013  0.043  0.485  0.013  0.333  0.006  0.000  0.984
 
band   7 # energy   15.80148752 # occ.  0.00000000
 
ion      s     py     pz     px    dxy    dyz    dz2    dxz    dx2    tot
  1  0.305  0.074  0.043  0.069  0.074  0.073  0.062  0.102  0.000  0.802
 
band   8 # energy   18.84884569 # occ.  0.00000000
 
ion      s     py     pz     px    dxy    dyz    dz2    dxz    dx2    tot
  1 44.054  0.000  0.000  0.000  0.000  0.000  0.000  0.000  0.000 44.055
 
band   9 # energy   19.77685682 # occ.  0.00000000
 
ion      s     py     pz     px    dxy    dyz    dz2    dxz    dx2    tot
  1  0.044  0.013  0.018  0.041  0.014  0.043  0.040  0.020  0.015  0.248
 

 k-point   14 :   -0.18750000 0.18750000 0.06250000     weight = 0.02343750

band   1 # energy    0.53759770 # occ.  1.00000000
 
ion      s     py     pz     px    dxy    dyz    dz2    dxz    dx2    tot
  1  0.569  0.058  0.001  0.123  0.070  0.007  0.010  0.006  0.008  0.852
 
band   2 # energy    4.27059070 # occ.  1.00000000
 
ion      s     py     pz     px    dxy    dyz    dz2    dxz    dx2    tot
  1  0.002  0.008  0.083  0.006  0.005  0.616  0.002  0.211  0.001  0.935
 
band   3 # energy    5.59606167 # occ. -0.00040688
 
ion      s     py     pz     px    dxy    dyz    dz2    dxz    dx2    tot
  1  0.003  0.030  0.000  0.004  0.367  0.019  0.388  0.000  0.105  0.915
 
band   4 # energy    7.03639736 # occ.  0.00000000
 
ion      s     py     pz     px    dxy    dyz    dz2    dxz    dx2    tot
  1  0.002  0.002  0.004  0.013  0.050  0.092  0.034  0.266  0.483  0.946
 
band   5 # energy    7.86057889 # occ.  0.00000000
 
ion      s     py     pz     px    dxy    dyz    dz2    dxz    dx2    tot
  1  0.002  0.000  0.007  0.015  0.019  0.176  0.004  0.403  0.317  0.943
 
band   6 # energy   10.52614019 # occ.  0.00000000
 
ion      s     py     pz     px    dxy    dyz    dz2    dxz    dx2    tot
  1  0.020  0.022  0.000  0.021  0.402  0.001  0.497  0.003  0.008  0.975
 
band   7 # energy   18.48648738 # occ.  0.00000000
 
ion      s     py     pz     px    dxy    dyz    dz2    dxz    dx2    tot
  1  1.180  0.086  0.013  0.059  0.113  0.004  0.067  0.010  0.003  1.535
 
band   8 # energy   18.86085078 # occ.  0.00000000
 
ion      s     py     pz     px    dxy    dyz    dz2    dxz    dx2    tot
  1 42.902  0.003  0.001  0.002  0.005  0.000  0.003  0.000  0.000 42.916
 
band   9 # energy   21.70754577 # occ.  0.00000000
 
ion      s     py     pz     px    dxy    dyz    dz2    dxz    dx2    tot
  1  0.114  0.073  0.057  0.081  0.021  0.101  0.017  0.078  0.012  0.554
 

 k-point   15 :   -0.06250000 0.18750000 0.06250000     weight = 0.02343750

band   1 # energy   -0.92685746 # occ.  1.00000000
 
ion      s     py     pz     px    dxy    dyz    dz2    dxz    dx2    tot
  1  0.693  0.026  0.002  0.078  0.015  0.001  0.003  0.002  0.003  0.824
 
band   2 # energy    4.74522097 # occ.  1.00000000
 
ion      s     py     pz     px    dxy    dyz    dz2    dxz    dx2    tot
  1  0.001  0.005  0.032  0.002  0.017  0.711  0.000  0.179  0.000  0.946
 
band   3 # energy    6.30770481 # occ.  0.00000000
 
ion      s     py     pz     px    dxy    dyz    dz2    dxz    dx2    tot
  1  0.000  0.022  0.000  0.006  0.646  0.035  0.191  0.004  0.051  0.955
 
band   4 # energy    6.63334539 # occ.  0.00000000
 
ion      s     py     pz     px    dxy    dyz    dz2    dxz    dx2    tot
  1  0.000  0.001  0.011  0.000  0.033  0.169  0.007  0.688  0.059  0.969
 
band   5 # energy    7.70760676 # occ.  0.00000000
 
ion      s     py     pz     px    dxy    dyz    dz2    dxz    dx2    tot
  1  0.004  0.001  0.001  0.010  0.073  0.025  0.023  0.051  0.757  0.944
 
band   6 # energy    9.18244014 # occ.  0.00000000
 
ion      s     py     pz     px    dxy    dyz    dz2    dxz    dx2    tot
  1  0.003  0.005  0.000  0.003  0.146  0.000  0.734  0.007  0.071  0.969
 
band   7 # energy   18.84203657 # occ.  0.00000000
 
ion      s     py     pz     px    dxy    dyz    dz2    dxz    dx2    tot
  1 43.427  0.000  0.000  0.000  0.000  0.000  0.000  0.000  0.000 43.428
 
band   8 # energy   19.45911303 # occ.  0.00000000
 
ion      s     py     pz     px    dxy    dyz    dz2    dxz    dx2    tot
  1  0.545  0.039  0.010  0.029  0.037  0.000  0.032  0.002  0.010  0.704
 
band   9 # energy   20.86472965 # occ.  0.00000000
 
ion      s     py     pz     px    dxy    dyz    dz2    dxz    dx2    tot
  1  0.025  0.009  0.002  0.006  0.019  0.103  0.003  0.042  0.001  0.209
 

 k-point   16 :    0.31250000 0.31250000 0.06250000     weight = 0.01171875

band   1 # energy    0.69302715 # occ.  1.00000000
 
ion      s     py     pz     px    dxy    dyz    dz2    dxz    dx2    tot
  1  0.493  0.002  0.176  0.002  0.001  0.003  0.164  0.003  0.000  0.844
 
band   2 # energy    3.45765630 # occ.  1.00000000
 
ion      s     py     pz     px    dxy    dyz    dz2    dxz    dx2    tot
  1  0.000  0.004  0.000  0.004  0.937  0.004  0.001  0.004  0.000  0.952
 
band   3 # energy    5.79468272 # occ.  0.00000000
 
ion      s     py     pz     px    dxy    dyz    dz2    dxz    dx2    tot
  1  0.074  0.002  0.097  0.002  0.002  0.033  0.659  0.033  0.000  0.900
 
band   4 # energy    8.06296477 # occ.  0.00000000
 
ion      s     py     pz     px    dxy    dyz    dz2    dxz    dx2    tot
  1  0.000  0.034  0.000  0.034  0.000  0.388  0.000  0.388  0.101  0.945
 
band   5 # energy    8.41729532 # occ.  0.00000000
 
ion      s     py     pz     px    dxy    dyz    dz2    dxz    dx2    tot
  1  0.007  0.036  0.020  0.036  0.010  0.393  0.046  0.393  0.000  0.940
 
band   6 # energy   10.03698772 # occ.  0.00000000
 
ion      s     py     pz     px    dxy    dyz    dz2    dxz    dx2    tot
  1  0.000  0.002  0.000  0.002  0.000  0.049  0.000  0.049  0.876  0.979
 