<?xml version="1.0" encoding="ISO-8859-1"?>
<modeling>
 <generator>
  <i name="program" type="string">vasp </i>
  <i name="version" type="string">5.2.12  </i>
  <i name="subversion" type="string">11Nov11 complex                                                      parallel </i>
  <i name="platform" type="string">LinuxIFC </i>
  <i name="date" type="string">2012 10 17 </i>
  <i name="time" type="string">11:06:50 </i>
 </generator>
 <incar>
  <i type="int" name="ISTART">     0</i>
  <i type="string" name="PREC">accurate</i>
  <i type="int" name="ISPIN">     2</i>
  <i name="ENCUT">    400.00000000</i>
  <v name="MAGMOM">      6.00000000</v>
  <i type="logical" name="LREAL"> F  </i>
  <i type="int" name="ISMEAR">     1</i>
  <i name="SIGMA">      0.05000000</i>
  <i type="logical" name="LORBIT"> F  </i>
 </incar>
 <kpoints>
  <generation param="Monkhorst-Pack">
   <v type="int" name="divisions">       8        8        8 </v>
   <v name="usershift">      0.00000000       0.00000000       0.00000000 </v>
   <v name="genvec1">      0.12500000       0.00000000       0.00000000 </v>
   <v name="genvec2">      0.00000000       0.12500000       0.00000000 </v>
   <v name="genvec3">      0.00000000       0.00000000       0.12500000 </v>
   <v name="shift">      0.50000000       0.50000000       0.50000000 </v>
  </generation>
  <varray name="kpointlist" >
   <v>       0.06250000       0.06250000       0.06250000 </v>
   <v>       0.18750000       0.06250000       0.06250000 </v>
   <v>       0.31250000       0.06250000       0.06250000 </v>
   <v>       0.43750000       0.06250000       0.06250000 </v>
   <v>      -0.43750000       0.06250000       0.06250000 </v>
   <v>      -0.31250000       0.06250000       0.06250000 </v>
   <v>      -0.18750000       0.06250000       0.06250000 </v>
   <v>      -0.06250000       0.06250000       0.06250000 </v>
   <v>       0.18750000       0.18750000       0.06250000 </v>
   <v>       0.31250000       0.18750000       0.06250000 </v>
   <v>       0.43750000       0.18750000       0.06250000 </v>
   <v>      -0.43750000       0.18750000       0.06250000 </v>
   <v>      -0.31250000       0.18750000       0.06250000 </v>
   <v>      -0.18750000       0.18750000       0.06250000 </v>
   <v>      -0.06250000       0.18750000       0.06250000 </v>
   <v>       0.31250000       0.31250000       0.06250000 </v>
   <v>       0.43750000       0.31250000       0.06250000 </v>
   <v>      -0.43750000       0.31250000       0.06250000 </v>
   <v>      -0.31250000       0.31250000       0.06250000 </v>
   <v>      -0.18750000       0.31250000       0.06250000 </v>
   <v>      -0.06250000       0.31250000       0.06250000 </v>
   <v>       0.43750000       0.43750000       0.06250000 </v>
   <v>      -0.43750000       0.43750000       0.06250000 </v>
   <v>      -0.31250000       0.43750000       0.06250000 </v>
   <v>      -0.18750000       0.43750000       0.06250000 </v>
   <v>      -0.06250000       0.43750000       0.06250000 </v>
   <v>      -0.43750000      -0.43750000       0.06250000 </v>
   <v>      -0.31250000      -0.43750000       0.06250000 </v>
   <v>      -0.18750000      -0.43750000       0.06250000 </v>
   <v>      -0.31250000      -0.31250000       0.06250000 </v>
   <v>      -0.18750000      -0.31250000       0.06250000 </v>
   <v>      -0.18750000      -0.18750000       0.06250000 </v>
   <v>       0.18750000       0.18750000       0.18750000 </v>
   <v>       0.31250000       0.18750000       0.18750000 </v>
   <v>       0.43750000       0.18750000       0.18750000 </v>
   <v>      -0.43750000       0.18750000       0.18750000 </v>
   <v>      -0.31250000       0.18750000       0.18750000 </v>
   <v>      -0.18750000       0.18750000       0.18750000 </v>
   <v>       0.31250000       0.31250000       0.18750000 </v>
   <v>       0.43750000       0.31250000       0.18750000 </v>
   <v>      -0.43750000       0.31250000       0.18750000 </v>
   <v>      -0.31250000       0.31250000       0.18750000 </v>
   <v>      -0.18750000       0.31250000       0.18750000 </v>
   <v>       0.43750000       0.43750000       0.18750000 </v>
   <v>      -0.43750000       0.43750000       0.18750000 </v>
   <v>      -0.31250000       0.43750000       0.18750000 </v>
   <v>      -0.18750000       0.43750000       0.18750000 </v>
   <v>      -0.43750000      -0.43750000       0.18750000 </v>
   <v>      -0.31250000      -0.43750000       0.18750000 </v>
   <v>      -0.31250000      -0.31250000       0.18750000 </v>
   <v>       0.31250000       0.31250000       0.31250000 </v>
   <v>       0.43750000       0.31250000       0.31250000 </v>
   <v>      -0.43750000       0.31250000       0.31250000 </v>
   <v>      -0.31250000       0.31250000       0.31250000 </v>
   <v>       0.43750000       0.43750000       0.31250000 </v>
   <v>      -0.43750000       0.43750000       0.31250000 </v>
   <v>      -0.31250000       0.43750000       0.31250000 </v>
   <v>      -0.43750000      -0.43750000       0.31250000 </v>
   <v>       0.43750000       0.43750000       0.43750000 </v>
   <v>      -0.43750000       0.43750000       0.43750000 </v>
  </varray>
  <varray name="weights" >
   <v>       0.00390625 </v>
   <v>       0.01171875 </v>
   <v>       0.01171875 </v>
   <v>       0.01171875 </v>
   <v>       0.01171875 </v>
   <v>       0.01171875 </v>
   <v>       0.01171875 </v>
   <v>       0.01171875 </v>
   <v>       0.01171875 </v>
   <v>       0.02343750 </v>
   <v>       0.02343750 </v>
   <v>       0.02343750 </v>
   <v>       0.02343750 </v>
   <v>       0.02343750 </v>
   <v>       0.02343750 </v>
   <v>       0.01171875 </v>
   <v>       0.02343750 </v>
   <v>       0.02343750 </v>
   <v>       0.02343750 </v>
   <v>       0.02343750 </v>
   <v>       0.02343750 </v>
   <v>       0.01171875 </v>
   <v>       0.02343750 </v>
   <v>       0.02343750 </v>
   <v>       0.02343750 </v>
   <v>       0.02343750 </v>
   <v>       0.01171875 </v>
   <v>       0.02343750 </v>
   <v>       0.02343750 </v>
   <v>       0.01171875 </v>
   <v>       0.02343750 </v>
   <v>       0.01171875 </v>
   <v>       0.00390625 </v>
   <v>       0.01171875 </v>
   <v>       0.01171875 </v>
   <v>       0.01171875 </v>
   <v>       0.01171875 </v>
   <v>       0.01171875 </v>
   <v>       0.01171875 </v>
   <v>       0.02343750 </v>
   <v>       0.02343750 </v>
   <v>       0.02343750 </v>
   <v>       0.02343750 </v>
   <v>       0.01171875 </v>
   <v>       0.02343750 </v>
   <v>       0.02343750 </v>
   <v>       0.02343750 </v>
   <v>       0.01171875 </v>
   <v>       0.02343750 </v>
   <v>       0.01171875 </v>
   <v>       0.00390625 </v>
   <v>       0.01171875 </v>
   <v>       0.01171875 </v>
   <v>       0.01171875 </v>
   <v>       0.01171875 </v>
   <v>       0.02343750 </v>
   <v>       0.02343750 </v>
   <v>       0.01171875 </v>
   <v>       0.00390625 </v>
   <v>       0.01171875 </v>
  </varray>
 </kpoints>
 <parameters>
  <separator name="general" >
   <i type="string" name="SYSTEM">unknown system</i>
   <i type="logical" name="LCOMPAT"> F  </i>
  </separator>
  <separator name="electronic" >
   <i type="string" name="PREC">accura</i>
   <i name="ENMAX">    400.00000000</i>
   <i name="ENAUG">    332.07500000</i>
   <i name="EDIFF">      0.00010000</i>
   <i type="int" name="IALGO">    38</i>
   <i type="int" name="IWAVPR">    10</i>
   <i type="int" name="NBANDS">     9</i>
   <i name="NELECT">      5.00000000</i>
   <i type="int" name="TURBO">     0</i>
   <i type="int" name="IRESTART">     0</i>
   <i type="int" name="NREBOOT">     0</i>
   <i type="int" name="NMIN">     0</i>
   <i name="EREF">      0.00000000</i>
   <separator name="electronic smearing" >
    <i type="int" name="ISMEAR">     1</i>
    <i name="SIGMA">      0.05000000</i>
    <i name="KSPACING">      0.50000000</i>
    <i type="logical" name="KGAMMA"> T  </i>
   </separator>
   <separator name="electronic projectors" >
    <i type="logical" name="LREAL"> F  </i>
    <v name="ROPT">      0.00000000</v>
    <i type="int" name="LMAXPAW">  -100</i>
    <i type="int" name="LMAXMIX">     2</i>
    <i type="logical" name="NLSPLINE"> F  </i>
   </separator>
   <separator name="electronic startup" >
    <i type="int" name="ISTART">     0</i>
    <i type="int" name="ICHARG">     2</i>
    <i type="int" name="INIWAV">     1</i>
   </separator>
   <separator name="electronic spin" >
    <i type="int" name="ISPIN">     2</i>
    <i type="logical" name="LNONCOLLINEAR"> F  </i>
    <v name="MAGMOM">      6.00000000</v>
    <i name="NUPDOWN">     -1.00000000</i>
    <i type="logical" name="LSORBIT"> F  </i>
    <v name="SAXIS">      0.00000000      0.00000000      1.00000000</v>
    <i type="logical" name="LSPIRAL"> F  </i>
    <v name="QSPIRAL">      0.00000000      0.00000000      0.00000000</v>
    <i type="logical" name="LZEROZ"> F  </i>
   </separator>
   <separator name="electronic exchange-correlation" >
    <i type="logical" name="LASPH"> F  </i>
    <i type="logical" name="LMETAGGA"> F  </i>
   </separator>
   <separator name="electronic convergence" >
    <i type="int" name="NELM">    60</i>
    <i type="int" name="NELMDL">    -5</i>
    <i type="int" name="NELMIN">     2</i>
    <i name="ENINI">    400.00000000</i>
    <separator name="electronic convergence detail" >
     <i type="logical" name="LDIAG"> T  </i>
     <i type="logical" name="LSUBROT"> T  </i>
     <i name="WEIMIN">      0.00000000</i>
     <i name="EBREAK">      0.00000278</i>
     <i name="DEPER">      0.30000000</i>
     <i type="int" name="NRMM">     4</i>
     <i name="TIME">      0.40000000</i>
    </separator>
   </separator>
   <separator name="electronic mixer" >
    <i name="AMIX">      0.40000000</i>
    <i name="BMIX">      1.00000000</i>
    <i name="AMIN">      0.10000000</i>
    <i name="AMIX_MAG">      1.60000000</i>
    <i name="BMIX_MAG">      1.00000000</i>
    <separator name="electronic mixer details" >
     <i type="int" name="IMIX">     4</i>
     <i type="int" name="MAXMIX">   -45</i>
     <i name="WC">    100.00000000</i>
     <i type="int" name="INIMIX">     1</i>
     <i type="int" name="MIXPRE">     1</i>
     <i type="int" name="MREMOVE">     5</i>
    </separator>
   </separator>
   <separator name="electronic dipolcorrection" >
    <i type="logical" name="LDIPOL"> F  </i>
    <i type="logical" name="LMONO"> F  </i>
    <i type="int" name="IDIPOL">     0</i>
    <i name="EPSILON">      1.00000000</i>
    <v name="DIPOL">   -100.00000000   -100.00000000   -100.00000000</v>
    <i name="EFIELD">      0.00000000</i>
   </separator>
  </separator>
  <separator name="grids" >
   <i type="int" name="NGX">    20</i>
   <i type="int" name="NGY">    20</i>
   <i type="int" name="NGZ">    20</i>
   <i type="int" name="NGXF">    40</i>
   <i type="int" name="NGYF">    40</i>
   <i type="int" name="NGZF">    40</i>
   <i type="logical" name="ADDGRID"> F  </i>
  </separator>
  <separator name="ionic" >
   <i type="int" name="NSW">     0</i>
   <i type="int" name="IBRION">    -1</i>
   <i type="int" name="ISIF">     2</i>
   <i name="PSTRESS">      0.00000000</i>
   <i name="EDIFFG">      0.00100000</i>
   <i type="int" name="NFREE">     0</i>
   <i name="POTIM">      0.50000000</i>
   <i name="SMASS">     -3.00000000</i>
   <i name="SCALEE">      1.00000000</i>
  </separator>
  <separator name="ionic md" >
   <i name="TEBEG">      0.00010000</i>
   <i name="TEEND">      0.00010000</i>
   <i type="int" name="NBLOCK">     1</i>
   <i type="int" name="KBLOCK">     1</i>
   <i type="int" name="NPACO">   256</i>
   <i name="APACO">     16.00000000</i>
  </separator>
  <separator name="symmetry" >
   <i type="int" name="ISYM">     2</i>
   <i name="SYMPREC">      0.00001000</i>
  </separator>
  <separator name="dos" >
   <i type="logical" name="LORBIT"> F  </i>
   <v name="RWIGS">     -1.00000000</v>
   <i type="int" name="NEDOS">   301</i>
   <i name="EMIN">     10.00000000</i>
   <i name="EMAX">    -10.00000000</i>
   <i name="EFERMI">      0.00000000</i>
  </separator>
  <separator name="writing" >
   <i type="int" name="NWRITE">     2</i>
   <i type="logical" name="LWAVE"> T  </i>
   <i type="logical" name="LCHARG"> T  </i>
   <i type="logical" name="LPARD"> F  </i>
   <i type="logical" name="LVTOT"> F  </i>
   <i type="logical" name="LVHAR"> F  </i>
   <i type="logical" name="LELF"> F  </i>
   <i type="logical" name="LOPTICS"> F  </i>
   <v name="STM">      0.00000000      0.00000000      0.00000000      0.00000000      0.00000000      0.00000000      0.00000000</v>
  </separator>
  <separator name="performance" >
   <i type="int" name="NPAR">     1</i>
   <i type="int" name="NSIM">     4</i>
   <i type="int" name="NBLK">    -1</i>
   <i type="logical" name="LPLANE"> T  </i>
   <i type="logical" name="LSCALAPACK"> F  </i>
   <i type="logical" name="LSCAAWARE"> F  </i>
   <i type="logical" name="LSCALU"> F  </i>
   <i type="logical" name="LASYNC"> F  </i>
   <i type="logical" name="LORBITALREAL"> F  </i>
  </separator>
  <separator name="miscellaneous" >
   <i type="int" name="IDIOT">     3</i>
   <i type="logical" name="LMUSIC"> F  </i>
   <v name="POMASS">    180.94800000</v>
   <v name="DARWINR">      0.00000000</v>
   <v name="DARWINV">      1.00000000</v>
   <i type="logical" name="LCORR"> T  </i>
  </separator>
  <i type="logical" name="GGA_COMPAT"> T  </i>
  <i type="logical" name="LBERRY"> F  </i>
  <i type="int" name="ICORELEVEL">     0</i>
  <i type="logical" name="LDAU"> F  </i>
  <i type="int" name="I_CONSTRAINED_M">     0</i>
  <separator name="electronic exchange-correlation" >
   <i type="string" name="GGA">--</i>
   <i type="int" name="VOSKOWN">     0</i>
   <i type="logical" name="LHFCALC"> F  </i>
   <i type="string" name="PRECFOCK"></i>
   <i type="logical" name="LHFONE"> F  </i>
   <i type="logical" name="LRHFCALC"> F  </i>
   <i type="logical" name="LTHOMAS"> F  </i>
   <i type="logical" name="LMODELHF"> F  </i>
   <i name="ENCUT4O">     -1.00000000</i>
   <i type="int" name="EXXOEP">     0</i>
   <i type="int" name="FOURORBIT">     0</i>
   <i name="AEXX">      0.00000000</i>
   <i name="HFALPHA">      0.00000000</i>
   <i name="ALDAX">      1.00000000</i>
   <i name="AGGAX">      1.00000000</i>
   <i name="ALDAC">      1.00000000</i>
   <i name="AGGAC">      1.00000000</i>
   <i type="int" name="NKREDX">     1</i>
   <i type="int" name="NKREDY">     1</i>
   <i type="int" name="NKREDZ">     1</i>
   <i type="logical" name="SHIFTRED"> F  </i>
   <i type="logical" name="ODDONLY"> F  </i>
   <i type="logical" name="EVENONLY"> F  </i>
   <i type="int" name="LMAXFOCK">     0</i>
   <i type="int" name="NMAXFOCKAE">     0</i>
   <i type="logical" name="LFOCKAEDFT"> F  </i>
   <i name="HFSCREEN">      0.00000000</i>
   <i name="HFSCREENC">      0.00000000</i>
  </separator>
  <separator name="vdW DFT" >
   <i type="logical" name="LUSE_VDW"> F  </i>
   <i name="Zab_VDW">     -0.84910000</i>
   <i name="PARAM1">      0.12340000</i>
   <i name="PARAM2">      1.00000000</i>
   <i name="PARAM3">      0.00000000</i>
  </separator>
  <separator name="model GW" >
   <i type="int" name="MODEL_GW">     0</i>
   <i name="MODEL_EPS0">     11.67817245</i>
   <i name="MODEL_ALPHA">      1.00000000</i>
  </separator>
  <separator name="linear response parameters" >
   <i type="logical" name="LEPSILON"> F  </i>
   <i type="logical" name="LRPA"> F  </i>
   <i type="logical" name="LNABLA"> F  </i>
   <i type="logical" name="LVEL"> F  </i>
   <i type="int" name="KINTER">     0</i>
   <i name="CSHIFT">      0.10000000</i>
   <i name="OMEGAMAX">     -1.00000000</i>
  </separator>
  <separator name="orbital magnetization" >
   <i type="logical" name="NUCIND"> F  </i>
   <v name="MAGPOS">      0.00000000      0.00000000      0.00000000</v>
   <i type="logical" name="LNICSALL"> T  </i>
   <i type="logical" name="ORBITALMAG"> F  </i>
   <i type="logical" name="LMAGBLOCH"> F  </i>
   <i type="logical" name="LCHIMAG"> F  </i>
   <i type="logical" name="LGAUGE"> T  </i>
   <i type="int" name="MAGATOM">     0</i>
   <v name="MAGDIPOL">      0.00000000      0.00000000      0.00000000</v>
   <v name="AVECCONST">      0.00000000      0.00000000      0.00000000</v>
  </separator>
  <separator name="response functions" >
   <i type="logical" name="LADDER"> F  </i>
   <i type="logical" name="LHARTREE"> T  </i>
   <i type="int" name="IBSE">     0</i>
   <i type="logical" name="LTCTE"> F  </i>
   <i type="logical" name="LTETE"> F  </i>
   <i type="logical" name="LFXCEPS"> F  </i>
   <i type="logical" name="L2ORDER"> F  </i>
   <i type="logical" name="LUSEW"> F  </i>
   <i name="ENCUTGW">     -2.00000000</i>
   <i name="ENCUTGWSOFT">     -2.00000000</i>
   <i name="ENCUTLF">     -1.00000000</i>
   <i type="int" name="LMAXMP2">    -1</i>
   <i name="SCISSOR">      0.00000000</i>
   <i type="int" name="NOMEGA">     0</i>
   <i type="int" name="NOMEGAR">     0</i>
   <i type="int" name="NBANDSGW">    -1</i>
   <i type="int" name="NBANDSO">    -1</i>
   <i type="int" name="NBANDSV">    -1</i>
   <i name="OPTEMAX">      0.00000000</i>
   <i type="int" name="NELM">     1</i>
   <i type="int" name="DIM">     3</i>
   <i type="int" name="ANTIRES">     0</i>
   <i name="OMEGAMAX">    -30.00000000</i>
   <i name="OMEGATL">   -200.00000000</i>
   <i type="int" name="OMEGAGRID">     0</i>
   <i name="CSHIFT">     -0.10000000</i>
   <i type="logical" name="SELFENERGY"> F  </i>
   <i type="logical" name="LSPECTRAL"> F  </i>
   <i type="logical" name="ODDONLYGW"> F  </i>
   <i type="logical" name="EVENONLYGW"> F  </i>
   <i type="int" name="NKREDLFX">     1</i>
   <i type="int" name="NKREDLFY">     1</i>
   <i type="int" name="NKREDLFZ">     1</i>
   <i type="int" name="MAXMEM">  1800</i>
   <i type="int" name="TELESCOPE">     0</i>
  </separator>
 </parameters>
 <atominfo>
  <atoms>       1 </atoms>
  <types>       1 </types>
  <array name="atoms" >
   <dimension dim="1">ion</dimension>
   <field type="string">element</field>
   <field type="int">atomtype</field>
   <set>
    <rc><c>Ta</c><c>   1</c></rc>
   </set>
  </array>
  <array name="atomtypes" >
   <dimension dim="1">type</dimension>
   <field type="int">atomspertype</field>
   <field type="string">element</field>
   <field>mass</field>
   <field>valence</field>
   <field type="string">pseudopotential</field>
   <set>
    <rc><c>   1</c><c>Ta</c><c>    180.94800000</c><c>      5.00000000</c><c>  PAW_PBE Ta 17Jan2003                  </c></rc>
   </set>
  </array>
 </atominfo>
 <structure name="initialpos" >
  <crystal>
   <varray name="basis" >
    <v>       0.00000000       2.13500000       2.13500000 </v>
    <v>       2.13500000       0.00000000       2.13500000 </v>
    <v>       2.13500000       2.13500000       0.00000000 </v>
   </varray>
   <i name="volume">     19.46362075 </i>
   <varray name="rec_basis" >
    <v>      -0.23419204       0.23419204       0.23419204 </v>
    <v>       0.23419204      -0.23419204       0.23419204 </v>
    <v>       0.23419204       0.23419204      -0.23419204 </v>
   </varray>
  </crystal>
  <varray name="positions" >
   <v>       0.00000000       0.00000000       0.00000000 </v>
  </varray>
 </structure>
 <calculation>
  <scstep>
   <time name="dav">    3.04    3.04</time>
   <time name="total">    3.29    3.30</time>
   <energy>
    <i name="alphaZ">     28.49149740 </i>
    <i name="ewald">   -193.27001770 </i>
    <i name="hartreedc">     -2.97429397 </i>
    <i name="XCdc">    -60.70936640 </i>
    <i name="pawpsdc">    143.51874798 </i>
    <i name="pawaedc">    -69.33493833 </i>
    <i name="eentropy">     -0.00039722 </i>
    <i name="bandstr">     33.37205681 </i>
    <i name="atom">    130.64884137 </i>
    <i name="e_fr_energy">      9.74212993 </i>
    <i name="e_wo_entrp">      9.74252715 </i>
    <i name="e_0_energy">      9.74226234 </i>
   </energy>
  </scstep>
  <scstep>
   <time name="dav">    3.84    3.84</time>
   <time name="total">    3.85    3.85</time>
   <energy>
    <i name="e_fr_energy">     -1.47030555 </i>
    <i name="e_wo_entrp">     -1.46985478 </i>
    <i name="e_0_energy">     -1.47015529 </i>
   </energy>
  </scstep>
  <scstep>
   <time name="dav">    3.31    3.31</time>
   <time name="total">    3.32    3.35</time>
   <energy>
    <i name="e_fr_energy">     -1.67182589 </i>
    <i name="e_wo_entrp">     -1.67166288 </i>
    <i name="e_0_energy">     -1.67177155 </i>
   </energy>
  </scstep>
  <scstep>
   <time name="dav">    3.70    3.70</time>
   <time name="total">    3.71    3.72</time>
   <energy>
    <i name="e_fr_energy">     -1.67224148 </i>
    <i name="e_wo_entrp">     -1.67207797 </i>
    <i name="e_0_energy">     -1.67218698 </i>
   </energy>
  </scstep>
  <scstep>
   <time name="dav">    3.23    3.23</time>
   <time name="total">    3.45    3.46</time>
   <energy>
    <i name="e_fr_energy">     -1.67224222 </i>
    <i name="e_wo_entrp">     -1.67207872 </i>
    <i name="e_0_energy">     -1.67218772 </i>
   </energy>
  </scstep>
  <scstep>
   <time name="dav">    3.08    3.08</time>
   <time name="total">    3.54    3.59</time>
   <energy>
    <i name="e_fr_energy">    -11.02825422 </i>
    <i name="e_wo_entrp">    -11.02825340 </i>
    <i name="e_0_energy">    -11.02825394 </i>
   </energy>
  </scstep>
  <scstep>
   <time name="dav">    3.27    3.27</time>
   <time name="total">    3.72    4.24</time>
   <energy>
    <i name="e_fr_energy">    -10.89893059 </i>
    <i name="e_wo_entrp">    -10.89876156 </i>
    <i name="e_0_energy">    -10.89887424 </i>
   </energy>
  </scstep>
  <scstep>
   <time name="dav">    3.09    3.09</time>
   <time name="total">    3.55    3.56</time>
   <energy>
    <i name="e_fr_energy">    -11.18945607 </i>
    <i name="e_wo_entrp">    -11.18955327 </i>
    <i name="e_0_energy">    -11.18948847 </i>
   </energy>
  </scstep>
  <scstep>
   <time name="dav">    3.22    3.22</time>
   <time name="total">    3.68    3.69</time>
   <energy>
    <i name="e_fr_energy">    -11.52310199 </i>
    <i name="e_wo_entrp">    -11.52231749 </i>
    <i name="e_0_energy">    -11.52284049 </i>
   </energy>
  </scstep>
  <scstep>
   <time name="dav">    3.72    3.72</time>
   <time name="total">    4.18    4.25</time>
   <energy>
    <i name="e_fr_energy">    -11.56327129 </i>
    <i name="e_wo_entrp">    -11.56327576 </i>
    <i name="e_0_energy">    -11.56327278 </i>
   </energy>
  </scstep>
  <scstep>
   <time name="dav">    3.19    3.19</time>
   <time name="total">    3.64    3.66</time>
   <energy>
    <i name="e_fr_energy">    -11.57409782 </i>
    <i name="e_wo_entrp">    -11.57409867 </i>
    <i name="e_0_energy">    -11.57409810 </i>
   </energy>
  </scstep>
  <scstep>
   <time name="dav">    3.26    3.26</time>
   <time name="total">    3.72    3.72</time>
   <energy>
    <i name="e_fr_energy">    -11.59370926 </i>
    <i name="e_wo_entrp">    -11.59325687 </i>
    <i name="e_0_energy">    -11.59355846 </i>
   </energy>
  </scstep>
  <scstep>
   <time name="dav">    3.11    3.13</time>
   <time name="total">    3.56    3.60</time>
   <energy>
    <i name="e_fr_energy">    -11.59507818 </i>
    <i name="e_wo_entrp">    -11.59425625 </i>
    <i name="e_0_energy">    -11.59480420 </i>
   </energy>
  </scstep>
  <scstep>
   <time name="dav">    3.13    3.14</time>
   <time name="total">    3.59    3.62</time>
   <energy>
    <i name="e_fr_energy">    -11.59491315 </i>
    <i name="e_wo_entrp">    -11.59423540 </i>
    <i name="e_0_energy">    -11.59468723 </i>
   </energy>
  </scstep>
  <scstep>
   <time name="dav">    1.97    1.97</time>
   <time name="total">    2.42    2.45</time>
   <energy>
    <i name="e_fr_energy">    -11.59479203 </i>
    <i name="e_wo_entrp">    -11.59443323 </i>
    <i name="e_0_energy">    -11.59467243 </i>
   </energy>
  </scstep>
  <scstep>
   <time name="dav">    2.08    2.08</time>
   <time name="total">    2.32    2.34</time>
   <energy>
    <i name="alphaZ">     28.49149740 </i>
    <i name="ewald">   -193.27001770 </i>
    <i name="hartreedc">     -0.76920707 </i>
    <i name="XCdc">    -66.09615960 </i>
    <i name="pawpsdc">    179.64327546 </i>
    <i name="pawaedc">   -106.17641433 </i>
    <i name="eentropy">     -0.00016640 </i>
    <i name="bandstr">     15.93362392 </i>
    <i name="atom">    130.64884137 </i>
    <i name="e_fr_energy">    -11.59472695 </i>
    <i name="e_wo_entrp">    -11.59456055 </i>
    <i name="e_0_energy">    -11.59467148 </i>
   </energy>
  </scstep>
  <parameters_embedded>
   <separator name="dft+d2" >
    <i type="logical" name="LVDW"> F  </i>
   </separator>
  </parameters_embedded>
  <structure>
   <crystal>
    <varray name="basis" >
     <v>       0.00000000       2.13500000       2.13500000 </v>
     <v>       2.13500000       0.00000000       2.13500000 </v>
     <v>       2.13500000       2.13500000       0.00000000 </v>
    </varray>
    <i name="volume">     19.46362075 </i>
    <varray name="rec_basis" >
     <v>      -0.23419204       0.23419204       0.23419204 </v>
     <v>       0.23419204      -0.23419204       0.23419204 </v>
     <v>       0.23419204       0.23419204      -0.23419204 </v>
    </varray>
   </crystal>
   <varray name="positions" >
    <v>       0.00000000       0.00000000       0.00000000 </v>
   </varray>
  </structure>
  <varray name="forces" >
   <v>       0.00000000       0.00000000       0.00000000 </v>
  </varray>
  <varray name="stress" >
   <v>     -79.30352680       0.00000000       0.00000000 </v>
   <v>       0.00000000     -79.30352680       0.00000000 </v>
   <v>       0.00000000       0.00000000     -79.30352680 </v>
  </varray>
  <energy>
   <i name="e_fr_energy">    -11.59472695 </i>
   <i name="e_wo_entrp">    -11.59467148 </i>
   <i name="e_0_energy">     -0.00016640 </i>
  </energy>
  <time name="totalsc">   57.47   58.67</time>
  <eigenvalues>
   <array>
    <dimension dim="1">band</dimension>
    <dimension dim="2">kpoint</dimension>
    <dimension dim="3">spin</dimension>
    <field>eigene</field>
    <field>occ</field>
    <set>
     <set comment="spin 1">
      <set comment="kpoint 1">
       <r>   -2.3638    1.0000 </r>
       <r>    5.7617    0.0000 </r>
       <r>    5.9625    0.0000 </r>
       <r>    5.9625    0.0000 </r>
       <r>    8.6536    0.0000 </r>
       <r>    8.6536    0.0000 </r>
       <r>   18.1244    0.0000 </r>
       <r>   18.8468    0.0000 </r>
       <r>   21.7018    0.0000 </r>
      </set>
      <set comment="kpoint 2">
       <r>   -1.6167    1.0000 </r>
       <r>    5.1993    1.0000 </r>
       <r>    6.2503    0.0000 </r>
       <r>    6.2838    0.0000 </r>
       <r>    8.1165    0.0000 </r>
       <r>    8.7759    0.0000 </r>
       <r>   18.8446    0.0000 </r>
       <r>   19.4329    0.0000 </r>
       <r>   20.1641    0.0000 </r>
      </set>
      <set comment="kpoint 3">
       <r>   -0.1282    1.0000 </r>
       <r>    4.6616    1.0000 </r>
       <r>    6.1283    0.0000 </r>
       <r>    6.3411    0.0000 </r>
       <r>    8.4537    0.0000 </r>
       <r>    9.5305    0.0000 </r>
       <r>   17.6782    0.0000 </r>
       <r>   18.8477    0.0000 </r>
       <r>   21.1859    0.0000 </r>
      </set>
      <set comment="kpoint 4">
       <r>    0.9396    1.0000 </r>
       <r>    5.2034    1.0000 </r>
       <r>    5.7208    0.0000 </r>
       <r>    5.9154    0.0000 </r>
       <r>    9.9597    0.0000 </r>
       <r>   10.8505    0.0000 </r>
       <r>   15.7805    0.0000 </r>
       <r>   18.5480    0.0000 </r>
       <r>   18.8557    0.0000 </r>
      </set>
      <set comment="kpoint 5">
       <r>    1.1120    1.0000 </r>
       <r>    5.3576    1.0068 </r>
       <r>    5.8058    0.0000 </r>
       <r>    5.9895    0.0000 </r>
       <r>   10.9469    0.0000 </r>
       <r>   11.0508    0.0000 </r>
       <r>   14.8459    0.0000 </r>
       <r>   17.7365    0.0000 </r>
       <r>   18.8492    0.0000 </r>
      </set>
      <set comment="kpoint 6">
       <r>    0.7019    1.0000 </r>
       <r>    4.8688    1.0000 </r>
       <r>    5.7863    0.0000 </r>
       <r>    6.0930    0.0000 </r>
       <r>    9.6366    0.0000 </r>
       <r>   10.2657    0.0000 </r>
       <r>   16.3989    0.0000 </r>
       <r>   18.8429    0.0000 </r>
       <r>   19.4049    0.0000 </r>
      </set>
      <set comment="kpoint 7">
       <r>   -0.6511    1.0000 </r>
       <r>    4.7323    1.0000 </r>
       <r>    6.2778    0.0000 </r>
       <r>    6.4189    0.0000 </r>
       <r>    8.2103    0.0000 </r>
       <r>    9.1044    0.0000 </r>
       <r>   18.3673    0.0000 </r>
       <r>   18.8504    0.0000 </r>
       <r>   21.2122    0.0000 </r>
      </set>
      <set comment="kpoint 8">
       <r>   -1.9800    1.0000 </r>
       <r>    5.4027    1.0344 </r>
       <r>    6.1664    0.0000 </r>
       <r>    6.1779    0.0000 </r>
       <r>    8.1864    0.0000 </r>
       <r>    8.8147    0.0000 </r>
       <r>   18.8460    0.0000 </r>
       <r>   18.9023    0.0000 </r>
       <r>   20.9391    0.0000 </r>
      </set>
      <set comment="kpoint 9">
       <r>   -1.2537    1.0000 </r>
       <r>    4.7905    1.0000 </r>
       <r>    6.5358    0.0000 </r>
       <r>    6.6064    0.0000 </r>
       <r>    7.4772    0.0000 </r>
       <r>    9.1218    0.0000 </r>
       <r>   18.8450    0.0000 </r>
       <r>   20.2424    0.0000 </r>
       <r>   20.6697    0.0000 </r>
      </set>
      <set comment="kpoint 10">
       <r>    0.0001    1.0000 </r>
       <r>    4.1753    1.0000 </r>
       <r>    5.9492    0.0000 </r>
       <r>    7.1432    0.0000 </r>
       <r>    7.8338    0.0000 </r>
       <r>    9.8084    0.0000 </r>
       <r>   18.8393    0.0000 </r>
       <r>   19.4353    0.0000 </r>
       <r>   22.1697    0.0000 </r>
      </set>
      <set comment="kpoint 11">
       <r>    1.3742    1.0000 </r>
       <r>    4.1852    1.0000 </r>
       <r>    5.1686    1.0000 </r>
       <r>    6.8127    0.0000 </r>
       <r>    9.5858    0.0000 </r>
       <r>   11.1400    0.0000 </r>
       <r>   16.6701    0.0000 </r>
       <r>   18.8492    0.0000 </r>
       <r>   20.1524    0.0000 </r>
      </set>
      <set comment="kpoint 12">
       <r>    1.8499    1.0000 </r>
       <r>    4.3554    1.0000 </r>
       <r>    5.5270   -0.0337 </r>
       <r>    6.4869    0.0000 </r>
       <r>   10.7007    0.0000 </r>
       <r>   12.1624    0.0000 </r>
       <r>   14.2755    0.0000 </r>
       <r>   18.8481    0.0000 </r>
       <r>   19.3473    0.0000 </r>
      </set>
      <set comment="kpoint 13">
       <r>    1.6909    1.0000 </r>
       <r>    4.5098    1.0000 </r>
       <r>    5.0778    1.0000 </r>
       <r>    6.5764    0.0000 </r>
       <r>    9.5705    0.0000 </r>
       <r>   11.8953    0.0000 </r>
       <r>   15.8015    0.0000 </r>
       <r>   18.8488    0.0000 </r>
       <r>   19.7769    0.0000 </r>
      </set>
      <set comment="kpoint 14">
       <r>    0.5376    1.0000 </r>
       <r>    4.2706    1.0000 </r>
       <r>    5.5961   -0.0004 </r>
       <r>    7.0364    0.0000 </r>
       <r>    7.8606    0.0000 </r>
       <r>   10.5261    0.0000 </r>
       <r>   18.4865    0.0000 </r>
       <r>   18.8609    0.0000 </r>
       <r>   21.7075    0.0000 </r>
      </set>
      <set comment="kpoint 15">
       <r>   -0.9269    1.0000 </r>
       <r>    4.7452    1.0000 </r>
       <r>    6.3077    0.0000 </r>
       <r>    6.6333    0.0000 </r>
       <r>    7.7076    0.0000 </r>
       <r>    9.1824    0.0000 </r>
       <r>   18.8420    0.0000 </r>
       <r>   19.4591    0.0000 </r>
       <r>   20.8647    0.0000 </r>
      </set>
      <set comment="kpoint 16">
       <r>    0.6930    1.0000 </r>
       <r>    3.4577    1.0000 </r>
       <r>    5.7947    0.0000 </r>
       <r>    8.0630    0.0000 </r>
       <r>    8.4173    0.0000 </r>
       <r>   10.0370    0.0000 </r>
       <r>   18.8425    0.0000 </r>
       <r>   20.4215    0.0000 </r>
       <r>   22.2015    0.0000 </r>
      </set>
      <set comment="kpoint 17">
       <r>    1.6174    1.0000 </r>
       <r>    3.1434    1.0000 </r>
       <r>    5.4158    1.0085 </r>
       <r>    8.5753    0.0000 </r>
       <r>    9.6819    0.0000 </r>
       <r>   11.2049    0.0000 </r>
       <r>   17.4729    0.0000 </r>
       <r>   18.8504    0.0000 </r>
       <r>   19.6565    0.0000 </r>
      </set>
      <set comment="kpoint 18">
       <r>    2.3919    1.0000 </r>
       <r>    3.3928    1.0000 </r>
       <r>    5.2071    1.0000 </r>
       <r>    8.0006    0.0000 </r>
       <r>   10.7979    0.0000 </r>
       <r>   13.0906    0.0000 </r>
       <r>   14.0011    0.0000 </r>
       <r>   18.8440    0.0000 </r>
       <r>   19.5598    0.0000 </r>
      </set>
      <set comment="kpoint 19">
       <r>    3.0066    1.0000 </r>
       <r>    3.5752    1.0000 </r>
       <r>    4.7582    1.0000 </r>
       <r>    7.5599    0.0000 </r>
       <r>    9.7865    0.0000 </r>
       <r>   12.2549    0.0000 </r>
       <r>   16.2717    0.0000 </r>
       <r>   18.3551    0.0000 </r>
       <r>   18.8515    0.0000 </r>
      </set>
      <set comment="kpoint 20">
       <r>    2.0451    1.0000 </r>
       <r>    4.2308    1.0000 </r>
       <r>    4.5854    1.0000 </r>
       <r>    7.1673    0.0000 </r>
       <r>    8.7335    0.0000 </r>
       <r>   12.0983    0.0000 </r>
       <r>   16.7929    0.0000 </r>
       <r>   18.8504    0.0000 </r>
       <r>   20.3693    0.0000 </r>
      </set>
      <set comment="kpoint 21">
       <r>    0.5819    1.0000 </r>
       <r>    4.4889    1.0000 </r>
       <r>    5.7112    0.0000 </r>
       <r>    6.4509    0.0000 </r>
       <r>    8.7908    0.0000 </r>
       <r>   10.3504    0.0000 </r>
       <r>   17.3685    0.0000 </r>
       <r>   18.8480    0.0000 </r>
       <r>   20.5186    0.0000 </r>
      </set>
      <set comment="kpoint 22">
       <r>    1.4188    1.0000 </r>
       <r>    2.5597    1.0000 </r>
       <r>    6.8234    0.0000 </r>
       <r>    9.9800    0.0000 </r>
       <r>   10.7629    0.0000 </r>
       <r>   11.0190    0.0000 </r>
       <r>   16.8966    0.0000 </r>
       <r>   17.8544    0.0000 </r>
       <r>   18.8225    0.0000 </r>
      </set>
      <set comment="kpoint 23">
       <r>    1.6757    1.0000 </r>
       <r>    2.6329    1.0000 </r>
       <r>    6.8707    0.0000 </r>
       <r>    9.7528    0.0000 </r>
       <r>   11.3584    0.0000 </r>
       <r>   12.7449    0.0000 </r>
       <r>   14.7274    0.0000 </r>
       <r>   16.9006    0.0000 </r>
       <r>   18.6973    0.0000 </r>
      </set>
      <set comment="kpoint 24">
       <r>    2.4092    1.0000 </r>
       <r>    3.2595    1.0000 </r>
       <r>    5.6055   -0.0002 </r>
       <r>    8.4131    0.0000 </r>
       <r>   10.7362    0.0000 </r>
       <r>   12.8816    0.0000 </r>
       <r>   14.7831    0.0000 </r>
       <r>   18.1119    0.0000 </r>
       <r>   18.8553    0.0000 </r>
      </set>
      <set comment="kpoint 25">
       <r>    2.4695    1.0000 </r>
       <r>    3.8500    1.0000 </r>
       <r>    5.1708    1.0000 </r>
       <r>    7.0455    0.0000 </r>
       <r>   10.2935    0.0000 </r>
       <r>   12.5732    0.0000 </r>
       <r>   14.5777    0.0000 </r>
       <r>   18.8471    0.0000 </r>
       <r>   19.8861    0.0000 </r>
      </set>
      <set comment="kpoint 26">
       <r>    1.3229    1.0000 </r>
       <r>    4.9505    1.0000 </r>
       <r>    5.6578    0.0000 </r>
       <r>    6.0813    0.0000 </r>
       <r>   10.4447    0.0000 </r>
       <r>   11.4405    0.0000 </r>
       <r>   15.0704    0.0000 </r>
       <r>   18.5301    0.0000 </r>
       <r>   18.8500    0.0000 </r>
      </set>
      <set comment="kpoint 27">
       <r>    1.3570    1.0000 </r>
       <r>    2.3698    1.0000 </r>
       <r>    7.7036    0.0000 </r>
       <r>   10.5849    0.0000 </r>
       <r>   11.4368    0.0000 </r>
       <r>   11.7817    0.0000 </r>
       <r>   15.5760    0.0000 </r>
       <r>   16.6750    0.0000 </r>
       <r>   17.7467    0.0000 </r>
      </set>
      <set comment="kpoint 28">
       <r>    1.7434    1.0000 </r>
       <r>    2.8064    1.0000 </r>
       <r>    6.1087    0.0000 </r>
       <r>    9.3407    0.0000 </r>
       <r>   10.7237    0.0000 </r>
       <r>   11.9374    0.0000 </r>
       <r>   15.8320    0.0000 </r>
       <r>   18.0079    0.0000 </r>
       <r>   18.8448    0.0000 </r>
      </set>
      <set comment="kpoint 29">
       <r>    2.0604    1.0000 </r>
       <r>    3.7477    1.0000 </r>
       <r>    4.9555    1.0000 </r>
       <r>    7.3732    0.0000 </r>
       <r>   10.5031    0.0000 </r>
       <r>   11.8960    0.0000 </r>
       <r>   15.3097    0.0000 </r>
       <r>   18.8478    0.0000 </r>
       <r>   20.4924    0.0000 </r>
      </set>
      <set comment="kpoint 30">
       <r>    1.3064    1.0000 </r>
       <r>    2.9297    1.0000 </r>
       <r>    5.9492    0.0000 </r>
       <r>    9.0229    0.0000 </r>
       <r>    9.5327    0.0000 </r>
       <r>   10.5431    0.0000 </r>
       <r>   18.7330    0.0000 </r>
       <r>   18.8835    0.0000 </r>
       <r>   19.6040    0.0000 </r>
      </set>
      <set comment="kpoint 31">
       <r>    0.9705    1.0000 </r>
       <r>    3.6158    1.0000 </r>
       <r>    5.4219    0.9795 </r>
       <r>    7.7918    0.0000 </r>
       <r>    8.6191    0.0000 </r>
       <r>   10.5086    0.0000 </r>
       <r>   18.8104    0.0000 </r>
       <r>   19.0263    0.0000 </r>
       <r>   21.4603    0.0000 </r>
      </set>
      <set comment="kpoint 32">
       <r>   -0.2876    1.0000 </r>
       <r>    4.1020    1.0000 </r>
       <r>    6.3032    0.0000 </r>
       <r>    7.2410    0.0000 </r>
       <r>    7.5478    0.0000 </r>
       <r>    9.5444    0.0000 </r>
       <r>   18.8441    0.0000 </r>
       <r>   20.6505    0.0000 </r>
       <r>   22.1493    0.0000 </r>
      </set>
      <set comment="kpoint 33">
       <r>   -1.2837    1.0000 </r>
       <r>    5.0546    1.0000 </r>
       <r>    6.2975    0.0000 </r>
       <r>    6.2975    0.0000 </r>
       <r>    8.4875    0.0000 </r>
       <r>    8.4875    0.0000 </r>
       <r>   18.7887    0.0000 </r>
       <r>   18.8734    0.0000 </r>
       <r>   20.4669    0.0000 </r>
      </set>
      <set comment="kpoint 34">
       <r>   -0.3057    1.0000 </r>
       <r>    4.5767    1.0000 </r>
       <r>    6.0599    0.0000 </r>
       <r>    6.7921    0.0000 </r>
       <r>    7.6329    0.0000 </r>
       <r>    9.7060    0.0000 </r>
       <r>   18.7811    0.0000 </r>
       <r>   18.8983    0.0000 </r>
       <r>   21.5812    0.0000 </r>
      </set>
      <set comment="kpoint 35">
       <r>    1.2516    1.0000 </r>
       <r>    4.3106    1.0000 </r>
       <r>    5.1759    1.0000 </r>
       <r>    6.9304    0.0000 </r>
       <r>    8.1095    0.0000 </r>
       <r>   11.4094    0.0000 </r>
       <r>   17.6925    0.0000 </r>
       <r>   18.8527    0.0000 </r>
       <r>   20.9792    0.0000 </r>
      </set>
      <set comment="kpoint 36">
       <r>    2.0520    1.0000 </r>
       <r>    4.3208    1.0000 </r>
       <r>    5.1985    1.0000 </r>
       <r>    6.6468    0.0000 </r>
       <r>    9.8641    0.0000 </r>
       <r>   12.2545    0.0000 </r>
       <r>   15.1667    0.0000 </r>
       <r>   18.8484    0.0000 </r>
       <r>   19.8861    0.0000 </r>
      </set>
      <set comment="kpoint 37">
       <r>    1.9292    1.0000 </r>
       <r>    4.0858    1.0000 </r>
       <r>    5.2836    1.0000 </r>
       <r>    6.8001    0.0000 </r>
       <r>   11.0463    0.0000 </r>
       <r>   11.7500    0.0000 </r>
       <r>   14.5425    0.0000 </r>
       <r>   18.8479    0.0000 </r>
       <r>   19.7678    0.0000 </r>
      </set>
      <set comment="kpoint 38">
       <r>    1.1183    1.0000 </r>
       <r>    3.8181    1.0000 </r>
       <r>    5.3217    1.0003 </r>
       <r>    7.2027    0.0000 </r>
       <r>    9.4125    0.0000 </r>
       <r>   10.5338    0.0000 </r>
       <r>   17.7824    0.0000 </r>
       <r>   18.8520    0.0000 </r>
       <r>   20.9817    0.0000 </r>
      </set>
      <set comment="kpoint 39">
       <r>    0.2032    1.0000 </r>
       <r>    4.2914    1.0000 </r>
       <r>    5.8640    0.0000 </r>
       <r>    6.7146    0.0000 </r>
       <r>    8.5093    0.0000 </r>
       <r>    9.8320    0.0000 </r>
       <r>   18.2811    0.0000 </r>
       <r>   18.8523    0.0000 </r>
       <r>   21.4608    0.0000 </r>
      </set>
      <set comment="kpoint 40">
       <r>    1.4633    1.0000 </r>
       <r>    3.9012    1.0000 </r>
       <r>    4.9736    1.0000 </r>
       <r>    7.4779    0.0000 </r>
       <r>    8.6094    0.0000 </r>
       <r>   11.3627    0.0000 </r>
       <r>   17.7150    0.0000 </r>
       <r>   18.8531    0.0000 </r>
       <r>   21.0965    0.0000 </r>
      </set>
      <set comment="kpoint 41">
       <r>    2.7793    1.0000 </r>
       <r>    3.8470    1.0000 </r>
       <r>    4.2875    1.0000 </r>
       <r>    7.6281    0.0000 </r>
       <r>    9.6008    0.0000 </r>
       <r>   12.4764    0.0000 </r>
       <r>   16.1207    0.0000 </r>
       <r>   18.8447    0.0000 </r>
       <r>   18.9652    0.0000 </r>
      </set>
      <set comment="kpoint 42">
       <r>    2.8985    1.0000 </r>
       <r>    3.4957    1.0000 </r>
       <r>    4.8653    1.0000 </r>
       <r>    7.5195    0.0000 </r>
       <r>   10.4177    0.0000 </r>
       <r>   13.7002    0.0000 </r>
       <r>   13.8174    0.0000 </r>
       <r>   18.8444    0.0000 </r>
       <r>   19.5236    0.0000 </r>
      </set>
      <set comment="kpoint 43">
       <r>    2.1706    1.0000 </r>
       <r>    3.5414    1.0000 </r>
       <r>    4.7037    1.0000 </r>
       <r>    8.0931    0.0000 </r>
       <r>    9.5964    0.0000 </r>
       <r>   12.0866    0.0000 </r>
       <r>   16.4456    0.0000 </r>
       <r>   18.8489    0.0000 </r>
       <r>   19.4451    0.0000 </r>
      </set>
      <set comment="kpoint 44">
       <r>    1.7852    1.0000 </r>
       <r>    3.3732    1.0000 </r>
       <r>    5.2210    1.0000 </r>
       <r>    7.8618    0.0000 </r>
       <r>   10.7026    0.0000 </r>
       <r>   11.0469    0.0000 </r>
       <r>   16.2864    0.0000 </r>
       <r>   18.8483    0.0000 </r>
       <r>   20.4411    0.0000 </r>
      </set>
      <set comment="kpoint 45">
       <r>    2.3275    1.0000 </r>
       <r>    3.2703    1.0000 </r>
       <r>    5.1412    1.0000 </r>
       <r>    8.5521    0.0000 </r>
       <r>   10.5686    0.0000 </r>
       <r>   12.8364    0.0000 </r>
       <r>   15.3161    0.0000 </r>
       <r>   17.9177    0.0000 </r>
       <r>   18.8489    0.0000 </r>
      </set>
      <set comment="kpoint 46">
       <r>    2.7917    1.0000 </r>
       <r>    3.8176    1.0000 </r>
       <r>    4.7327    1.0000 </r>
       <r>    7.5919    0.0000 </r>
       <r>   11.2981    0.0000 </r>
       <r>   14.1030    0.0000 </r>
       <r>   14.9434    0.0000 </r>
       <r>   16.4966    0.0000 </r>
       <r>   18.8494    0.0000 </r>
      </set>
      <set comment="kpoint 47">
       <r>    2.9792    1.0000 </r>
       <r>    3.7451    1.0000 </r>
       <r>    4.3620    1.0000 </r>
       <r>    7.8120    0.0000 </r>
       <r>   10.5150    0.0000 </r>
       <r>   13.0958    0.0000 </r>
       <r>   15.5050    0.0000 </r>
       <r>   17.7123    0.0000 </r>
       <r>   18.8498    0.0000 </r>
      </set>
      <set comment="kpoint 48">
       <r>    1.9296    1.0000 </r>
       <r>    2.8729    1.0000 </r>
       <r>    6.3883    0.0000 </r>
       <r>    9.2523    0.0000 </r>
       <r>   11.0538    0.0000 </r>
       <r>   13.2994    0.0000 </r>
       <r>   13.7900    0.0000 </r>
       <r>   18.4546    0.0000 </r>
       <r>   18.7154    0.0000 </r>
      </set>
      <set comment="kpoint 49">
       <r>    2.2369    1.0000 </r>
       <r>    3.1356    1.0000 </r>
       <r>    5.7771    0.0000 </r>
       <r>    8.5446    0.0000 </r>
       <r>   11.3113    0.0000 </r>
       <r>   13.7889    0.0000 </r>
       <r>   14.4675    0.0000 </r>
       <r>   16.7721    0.0000 </r>
       <r>   18.8467    0.0000 </r>
      </set>
      <set comment="kpoint 50">
       <r>    1.9723    1.0000 </r>
       <r>    3.0387    1.0000 </r>
       <r>    5.7586    0.0000 </r>
       <r>    8.6169    0.0000 </r>
       <r>   11.2094    0.0000 </r>
       <r>   12.2107    0.0000 </r>
       <r>   14.6400    0.0000 </r>
       <r>   18.8435    0.0000 </r>
       <r>   19.2795    0.0000 </r>
      </set>
      <set comment="kpoint 51">
       <r>    0.2150    1.0000 </r>
       <r>    4.7985    1.0000 </r>
       <r>    6.0946    0.0000 </r>
       <r>    6.0946    0.0000 </r>
       <r>    9.3854    0.0000 </r>
       <r>    9.3854    0.0000 </r>
       <r>   16.8226    0.0000 </r>
       <r>   18.8455    0.0000 </r>
       <r>   20.3592    0.0000 </r>
      </set>
      <set comment="kpoint 52">
       <r>    1.0925    1.0000 </r>
       <r>    4.6586    1.0000 </r>
       <r>    5.4299    0.9210 </r>
       <r>    6.3414    0.0000 </r>
       <r>    9.0065    0.0000 </r>
       <r>   11.1893    0.0000 </r>
       <r>   16.6852    0.0000 </r>
       <r>   18.8481    0.0000 </r>
       <r>   19.7483    0.0000 </r>
      </set>
      <set comment="kpoint 53">
       <r>    2.5768    1.0000 </r>
       <r>    4.0684    1.0000 </r>
       <r>    4.5970    1.0000 </r>
       <r>    7.2030    0.0000 </r>
       <r>    9.1319    0.0000 </r>
       <r>   12.2832    0.0000 </r>
       <r>   16.4235    0.0000 </r>
       <r>   18.8488    0.0000 </r>
       <r>   19.3413    0.0000 </r>
      </set>
      <set comment="kpoint 54">
       <r>    2.7105    1.0000 </r>
       <r>    3.4504    1.0000 </r>
       <r>    5.2481    1.0000 </r>
       <r>    7.9967    0.0000 </r>
       <r>   10.1965    0.0000 </r>
       <r>   12.1315    0.0000 </r>
       <r>   15.8397    0.0000 </r>
       <r>   18.1944    0.0000 </r>
       <r>   18.8534    0.0000 </r>
      </set>
      <set comment="kpoint 55">
       <r>    1.2964    1.0000 </r>
       <r>    4.6309    1.0000 </r>
       <r>    5.4271    0.9443 </r>
       <r>    6.3359    0.0000 </r>
       <r>   10.4685    0.0000 </r>
       <r>   10.8904    0.0000 </r>
       <r>   15.7176    0.0000 </r>
       <r>   18.8460    0.0000 </r>
       <r>   19.1236    0.0000 </r>
      </set>
      <set comment="kpoint 56">
       <r>    2.3300    1.0000 </r>
       <r>    3.9524    1.0000 </r>
       <r>    4.9583    1.0000 </r>
       <r>    7.0548    0.0000 </r>
       <r>   10.2084    0.0000 </r>
       <r>   12.5306    0.0000 </r>
       <r>   14.7816    0.0000 </r>
       <r>   18.8478    0.0000 </r>
       <r>   20.6249    0.0000 </r>
      </set>
      <set comment="kpoint 57">
       <r>    3.0185    1.0000 </r>
       <r>    3.5268    1.0000 </r>
       <r>    4.7885    1.0000 </r>
       <r>    7.7129    0.0000 </r>
       <r>   10.5590    0.0000 </r>
       <r>   12.9490    0.0000 </r>
       <r>   15.5223    0.0000 </r>
       <r>   17.7234    0.0000 </r>
       <r>   18.8511    0.0000 </r>
      </set>
      <set comment="kpoint 58">
       <r>    2.4627    1.0000 </r>
       <r>    3.6269    1.0000 </r>
       <r>    5.2393    1.0000 </r>
       <r>    7.4206    0.0000 </r>
       <r>   10.7060    0.0000 </r>
       <r>   12.5886    0.0000 </r>
       <r>   14.2205    0.0000 </r>
       <r>   18.8458    0.0000 </r>
       <r>   19.7776    0.0000 </r>
      </set>
      <set comment="kpoint 59">
       <r>    0.9262    1.0000 </r>
       <r>    5.7323    0.0000 </r>
       <r>    5.7323    0.0000 </r>
       <r>    5.7425    0.0000 </r>
       <r>   10.6964    0.0000 </r>
       <r>   10.6964    0.0000 </r>
       <r>   15.2654    0.0000 </r>
       <r>   17.7317    0.0000 </r>
       <r>   18.8501    0.0000 </r>
      </set>
      <set comment="kpoint 60">
       <r>    1.5033    1.0000 </r>
       <r>    4.8017    1.0000 </r>
       <r>    5.7709    0.0000 </r>
       <r>    6.1254    0.0000 </r>
       <r>   10.6033    0.0000 </r>
       <r>   11.7981    0.0000 </r>
       <r>   14.5802    0.0000 </r>
       <r>   18.6350    0.0000 </r>
       <r>   18.8486    0.0000 </r>
      </set>
     </set>
     <set comment="spin 2">
      <set comment="kpoint 1">
       <r>   -2.3047    1.0000 </r>
       <r>    5.8133    0.0000 </r>
       <r>    6.0139    0.0000 </r>
       <r>    6.0139    0.0000 </r>
       <r>    8.7119    0.0000 </r>
       <r>    8.7119    0.0000 </r>
       <r>   18.1806    0.0000 </r>
       <r>   18.8757    0.0000 </r>
       <r>   21.7578    0.0000 </r>
      </set>
      <set comment="kpoint 2">
       <r>   -1.5578    1.0000 </r>
       <r>    5.2516    1.0000 </r>
       <r>    6.3021    0.0000 </r>
       <r>    6.3350    0.0000 </r>
       <r>    8.1751    0.0000 </r>
       <r>    8.8333    0.0000 </r>
       <r>   18.8736    0.0000 </r>
       <r>   19.4875    0.0000 </r>
       <r>   20.2136    0.0000 </r>
      </set>
      <set comment="kpoint 3">
       <r>   -0.0697    1.0000 </r>
       <r>    4.7142    1.0000 </r>
       <r>    6.1828    0.0000 </r>
       <r>    6.3958    0.0000 </r>
       <r>    8.5077    0.0000 </r>
       <r>    9.5836    0.0000 </r>
       <r>   17.7260    0.0000 </r>
       <r>   18.8769    0.0000 </r>
       <r>   21.2360    0.0000 </r>
      </set>
      <set comment="kpoint 4">
       <r>    0.9976    1.0000 </r>
       <r>    5.2563    1.0000 </r>
       <r>    5.7768    0.0000 </r>
       <r>    5.9722    0.0000 </r>
       <r>   10.0089    0.0000 </r>
       <r>   10.8988    0.0000 </r>
       <r>   15.8282    0.0000 </r>
       <r>   18.5986    0.0000 </r>
       <r>   18.8854    0.0000 </r>
      </set>
      <set comment="kpoint 5">
       <r>    1.1698    1.0000 </r>
       <r>    5.4135    1.0163 </r>
       <r>    5.8627    0.0000 </r>
       <r>    6.0428    0.0000 </r>
       <r>   10.9936    0.0000 </r>
       <r>   11.0981    0.0000 </r>
       <r>   14.8944    0.0000 </r>
       <r>   17.7868    0.0000 </r>
       <r>   18.8783    0.0000 </r>
      </set>
      <set comment="kpoint 6">
       <r>    0.7601    1.0000 </r>
       <r>    4.9215    1.0000 </r>
       <r>    5.8426    0.0000 </r>
       <r>    6.1488    0.0000 </r>
       <r>    9.6872    0.0000 </r>
       <r>   10.3156    0.0000 </r>
       <r>   16.4463    0.0000 </r>
       <r>   18.8721    0.0000 </r>
       <r>   19.4558    0.0000 </r>
      </set>
      <set comment="kpoint 7">
       <r>   -0.5925    1.0000 </r>
       <r>    4.7848    1.0000 </r>
       <r>    6.3317    0.0000 </r>
       <r>    6.4720    0.0000 </r>
       <r>    8.2657    0.0000 </r>
       <r>    9.1597    0.0000 </r>
       <r>   18.4156    0.0000 </r>
       <r>   18.8798    0.0000 </r>
       <r>   21.2629    0.0000 </r>
      </set>
      <set comment="kpoint 8">
       <r>   -1.9210    1.0000 </r>
       <r>    5.4547    0.5893 </r>
       <r>    6.2177    0.0000 </r>
       <r>    6.2292    0.0000 </r>
       <r>    8.2451    0.0000 </r>
       <r>    8.8728    0.0000 </r>
       <r>   18.8750    0.0000 </r>
       <r>   18.9579    0.0000 </r>
       <r>   20.9898    0.0000 </r>
      </set>
      <set comment="kpoint 9">
       <r>   -1.1950    1.0000 </r>
       <r>    4.8429    1.0000 </r>
       <r>    6.5877    0.0000 </r>
       <r>    6.6575    0.0000 </r>
       <r>    7.5352    0.0000 </r>
       <r>    9.1793    0.0000 </r>
       <r>   18.8739    0.0000 </r>
       <r>   20.2960    0.0000 </r>
       <r>   20.7173    0.0000 </r>
      </set>
      <set comment="kpoint 10">
       <r>    0.0583    1.0000 </r>
       <r>    4.2282    1.0000 </r>
       <r>    6.0057    0.0000 </r>
       <r>    7.1954    0.0000 </r>
       <r>    7.8872    0.0000 </r>
       <r>    9.8624    0.0000 </r>
       <r>   18.8683    0.0000 </r>
       <r>   19.4817    0.0000 </r>
       <r>   22.2209    0.0000 </r>
      </set>
      <set comment="kpoint 11">
       <r>    1.4318    1.0000 </r>
       <r>    4.2385    1.0000 </r>
       <r>    5.2249    1.0000 </r>
       <r>    6.8683    0.0000 </r>
       <r>    9.6362    0.0000 </r>
       <r>   11.1886    0.0000 </r>
       <r>   16.7204    0.0000 </r>
       <r>   18.8783    0.0000 </r>
       <r>   20.2024    0.0000 </r>
      </set>
      <set comment="kpoint 12">
       <r>    1.9070    1.0000 </r>
       <r>    4.4109    1.0000 </r>
       <r>    5.5804   -0.0017 </r>
       <r>    6.5438    0.0000 </r>
       <r>   10.7476    0.0000 </r>
       <r>   12.2112    0.0000 </r>
       <r>   14.3267    0.0000 </r>
       <r>   18.8772    0.0000 </r>
       <r>   19.3953    0.0000 </r>
      </set>
      <set comment="kpoint 13">
       <r>    1.7483    1.0000 </r>
       <r>    4.5639    1.0000 </r>
       <r>    5.1327    1.0000 </r>
       <r>    6.6334    0.0000 </r>
       <r>    9.6195    0.0000 </r>
       <r>   11.9427    0.0000 </r>
       <r>   15.8533    0.0000 </r>
       <r>   18.8780    0.0000 </r>
       <r>   19.8259    0.0000 </r>
      </set>
      <set comment="kpoint 14">
       <r>    0.5957    1.0000 </r>
       <r>    4.3235    1.0000 </r>
       <r>    5.6517    0.0000 </r>
       <r>    7.0918    0.0000 </r>
       <r>    7.9131    0.0000 </r>
       <r>   10.5771    0.0000 </r>
       <r>   18.5326    0.0000 </r>
       <r>   18.8910    0.0000 </r>
       <r>   21.7600    0.0000 </r>
      </set>
      <set comment="kpoint 15">
       <r>   -0.8682    1.0000 </r>
       <r>    4.7978    1.0000 </r>
       <r>    6.3610    0.0000 </r>
       <r>    6.6847    0.0000 </r>
       <r>    7.7652    0.0000 </r>
       <r>    9.2384    0.0000 </r>
       <r>   18.8710    0.0000 </r>
       <r>   19.5071    0.0000 </r>
       <r>   20.9177    0.0000 </r>
      </set>
      <set comment="kpoint 16">
       <r>    0.7507    1.0000 </r>
       <r>    3.5109    1.0000 </r>
       <r>    5.8538    0.0000 </r>
       <r>    8.1133    0.0000 </r>
       <r>    8.4669    0.0000 </r>
       <r>   10.0923    0.0000 </r>
       <r>   18.8714    0.0000 </r>
       <r>   20.4723    0.0000 </r>
       <r>   21.5192    0.0000 </r>
      </set>
      <set comment="kpoint 17">
       <r>    1.6744    1.0000 </r>
       <r>    3.1968    1.0000 </r>
       <r>    5.4735    0.2797 </r>
       <r>    8.6292    0.0000 </r>
       <r>    9.7311    0.0000 </r>
       <r>   11.2537    0.0000 </r>
       <r>   17.5291    0.0000 </r>
       <r>   18.8796    0.0000 </r>
       <r>   19.7131    0.0000 </r>
      </set>
      <set comment="kpoint 18">
       <r>    2.4484    1.0000 </r>
       <r>    3.4468    1.0000 </r>
       <r>    5.2621    1.0000 </r>
       <r>    8.0573    0.0000 </r>
       <r>   10.8436    0.0000 </r>
       <r>   13.1411    0.0000 </r>
       <r>   14.0553    0.0000 </r>
       <r>   18.8731    0.0000 </r>
       <r>   19.6144    0.0000 </r>
      </set>
      <set comment="kpoint 19">
       <r>    3.0630    1.0000 </r>
       <r>    3.6304    1.0000 </r>
       <r>    4.8116    1.0000 </r>
       <r>    7.6184    0.0000 </r>
       <r>    9.8322    0.0000 </r>
       <r>   12.3085    0.0000 </r>
       <r>   16.3226    0.0000 </r>
       <r>   18.4045    0.0000 </r>
       <r>   18.8808    0.0000 </r>
      </set>
      <set comment="kpoint 20">
       <r>    2.1024    1.0000 </r>
       <r>    4.2841    1.0000 </r>
       <r>    4.6411    1.0000 </r>
       <r>    7.2256    0.0000 </r>
       <r>    8.7819    0.0000 </r>
       <r>   12.1456    0.0000 </r>
       <r>   16.8483    0.0000 </r>
       <r>   18.8796    0.0000 </r>
       <r>   20.4183    0.0000 </r>
      </set>
      <set comment="kpoint 21">
       <r>    0.6401    1.0000 </r>
       <r>    4.5417    1.0000 </r>
       <r>    5.7671    0.0000 </r>
       <r>    6.5063    0.0000 </r>
       <r>    8.8427    0.0000 </r>
       <r>   10.4012    0.0000 </r>
       <r>   17.4159    0.0000 </r>
       <r>   18.8771    0.0000 </r>
       <r>   20.5703    0.0000 </r>
      </set>
      <set comment="kpoint 22">
       <r>    1.4760    1.0000 </r>
       <r>    2.6132    1.0000 </r>
       <r>    6.8818    0.0000 </r>
       <r>   10.0312    0.0000 </r>
       <r>   10.8087    0.0000 </r>
       <r>   11.0679    0.0000 </r>
       <r>   16.9556    0.0000 </r>
       <r>   17.9138    0.0000 </r>
       <r>   18.8527    0.0000 </r>
      </set>
      <set comment="kpoint 23">
       <r>    1.7327    1.0000 </r>
       <r>    2.6865    1.0000 </r>
       <r>    6.9261    0.0000 </r>
       <r>    9.8098    0.0000 </r>
       <r>   11.3998    0.0000 </r>
       <r>   12.7899    0.0000 </r>
       <r>   14.7884    0.0000 </r>
       <r>   16.9616    0.0000 </r>
       <r>   18.7442    0.0000 </r>
      </set>
      <set comment="kpoint 24">
       <r>    2.4658    1.0000 </r>
       <r>    3.3131    1.0000 </r>
       <r>    5.6594    0.0000 </r>
       <r>    8.4713    0.0000 </r>
       <r>   10.7796    0.0000 </r>
       <r>   12.9408    0.0000 </r>
       <r>   14.8300    0.0000 </r>
       <r>   18.1638    0.0000 </r>
       <r>   18.8844    0.0000 </r>
      </set>
      <set comment="kpoint 25">
       <r>    2.5261    1.0000 </r>
       <r>    3.9054    1.0000 </r>
       <r>    5.2241    1.0000 </r>
       <r>    7.1028    0.0000 </r>
       <r>   10.3402    0.0000 </r>
       <r>   12.6251    0.0000 </r>
       <r>   14.6282    0.0000 </r>
       <r>   18.8761    0.0000 </r>
       <r>   19.9343    0.0000 </r>
      </set>
      <set comment="kpoint 26">
       <r>    1.3805    1.0000 </r>
       <r>    5.0055    1.0000 </r>
       <r>    5.7118    0.0000 </r>
       <r>    6.1381    0.0000 </r>
       <r>   10.4928    0.0000 </r>
       <r>   11.4880    0.0000 </r>
       <r>   15.1199    0.0000 </r>
       <r>   18.5801    0.0000 </r>
       <r>   18.8792    0.0000 </r>
      </set>
      <set comment="kpoint 27">
       <r>    1.4141    1.0000 </r>
       <r>    2.4235    1.0000 </r>
       <r>    7.7613    0.0000 </r>
       <r>   10.6399    0.0000 </r>
       <r>   11.4785    0.0000 </r>
       <r>   11.8241    0.0000 </r>
       <r>   15.6379    0.0000 </r>
       <r>   16.7375    0.0000 </r>
       <r>   17.8035    0.0000 </r>
      </set>
      <set comment="kpoint 28">
       <r>    1.8004    1.0000 </r>
       <r>    2.8599    1.0000 </r>
       <r>    6.1655    0.0000 </r>
       <r>    9.3960    0.0000 </r>
       <r>   10.7697    0.0000 </r>
       <r>   11.9838    0.0000 </r>
       <r>   15.8911    0.0000 </r>
       <r>   18.0667    0.0000 </r>
       <r>   18.8740    0.0000 </r>
      </set>
      <set comment="kpoint 29">
       <r>    2.1173    1.0000 </r>
       <r>    3.8018    1.0000 </r>
       <r>    5.0112    1.0000 </r>
       <r>    7.4291    0.0000 </r>
       <r>   10.5515    0.0000 </r>
       <r>   11.9439    0.0000 </r>
       <r>   15.3635    0.0000 </r>
       <r>   18.8769    0.0000 </r>
       <r>   20.5395    0.0000 </r>
      </set>
      <set comment="kpoint 30">
       <r>    1.3636    1.0000 </r>
       <r>    2.9832    1.0000 </r>
       <r>    6.0083    0.0000 </r>
       <r>    9.0730    0.0000 </r>
       <r>    9.5807    0.0000 </r>
       <r>   10.5963    0.0000 </r>
       <r>   18.7801    0.0000 </r>
       <r>   18.9217    0.0000 </r>
       <r>   19.6611    0.0000 </r>
      </set>
      <set comment="kpoint 31">
       <r>    1.0281    1.0000 </r>
       <r>    3.6689    1.0000 </r>
       <r>    5.4797    0.1935 </r>
       <r>    7.8449    0.0000 </r>
       <r>    8.6701    0.0000 </r>
       <r>   10.5603    0.0000 </r>
       <r>   18.8421    0.0000 </r>
       <r>   19.0745    0.0000 </r>
       <r>   21.5147    0.0000 </r>
      </set>
      <set comment="kpoint 32">
       <r>   -0.2294    1.0000 </r>
       <r>    4.1549    1.0000 </r>
       <r>    6.3612    0.0000 </r>
       <r>    7.2918    0.0000 </r>
       <r>    7.5993    0.0000 </r>
       <r>    9.6010    0.0000 </r>
       <r>   18.8731    0.0000 </r>
       <r>   20.6956    0.0000 </r>
       <r>   22.2019    0.0000 </r>
      </set>
      <set comment="kpoint 33">
       <r>   -1.2249    1.0000 </r>
       <r>    5.1069    1.0000 </r>
       <r>    6.3496    0.0000 </r>
       <r>    6.3496    0.0000 </r>
       <r>    8.5447    0.0000 </r>
       <r>    8.5447    0.0000 </r>
       <r>   18.8303    0.0000 </r>
       <r>   18.9118    0.0000 </r>
       <r>   20.5184    0.0000 </r>
      </set>
      <set comment="kpoint 34">
       <r>   -0.2473    1.0000 </r>
       <r>    4.6295    1.0000 </r>
       <r>    6.1140    0.0000 </r>
       <r>    6.8447    0.0000 </r>
       <r>    7.6897    0.0000 </r>
       <r>    9.7593    0.0000 </r>
       <r>   18.8183    0.0000 </r>
       <r>   18.9367    0.0000 </r>
       <r>   21.6335    0.0000 </r>
      </set>
      <set comment="kpoint 35">
       <r>    1.3094    1.0000 </r>
       <r>    4.3636    1.0000 </r>
       <r>    5.2314    1.0000 </r>
       <r>    6.9884    0.0000 </r>
       <r>    8.1595    0.0000 </r>
       <r>   11.4580    0.0000 </r>
       <r>   17.7433    0.0000 </r>
       <r>   18.8820    0.0000 </r>
       <r>   21.0315    0.0000 </r>
      </set>
      <set comment="kpoint 36">
       <r>    2.1091    1.0000 </r>
       <r>    4.3760    1.0000 </r>
       <r>    5.2520    1.0000 </r>
       <r>    6.7041    0.0000 </r>
       <r>    9.9119    0.0000 </r>
       <r>   12.3032    0.0000 </r>
       <r>   15.2185    0.0000 </r>
       <r>   18.8775    0.0000 </r>
       <r>   19.9326    0.0000 </r>
      </set>
      <set comment="kpoint 37">
       <r>    1.9863    1.0000 </r>
       <r>    4.1407    1.0000 </r>
       <r>    5.3380    1.0015 </r>
       <r>    6.8564    0.0000 </r>
       <r>   11.0927    0.0000 </r>
       <r>   11.8001    0.0000 </r>
       <r>   14.5942    0.0000 </r>
       <r>   18.8770    0.0000 </r>
       <r>   19.8155    0.0000 </r>
      </set>
      <set comment="kpoint 38">
       <r>    1.1760    1.0000 </r>
       <r>    3.8713    1.0000 </r>
       <r>    5.3790    1.0222 </r>
       <r>    7.2567    0.0000 </r>
       <r>    9.4632    0.0000 </r>
       <r>   10.5846    0.0000 </r>
       <r>   17.8320    0.0000 </r>
       <r>   18.8813    0.0000 </r>
       <r>   21.0309    0.0000 </r>
      </set>
      <set comment="kpoint 39">
       <r>    0.2615    1.0000 </r>
       <r>    4.3443    1.0000 </r>
       <r>    5.9204    0.0000 </r>
       <r>    6.7683    0.0000 </r>
       <r>    8.5616    0.0000 </r>
       <r>    9.8851    0.0000 </r>
       <r>   18.3280    0.0000 </r>
       <r>   18.8818    0.0000 </r>
       <r>   21.5116    0.0000 </r>
      </set>
      <set comment="kpoint 40">
       <r>    1.5209    1.0000 </r>
       <r>    3.9544    1.0000 </r>
       <r>    5.0303    1.0000 </r>
       <r>    7.5343    0.0000 </r>
       <r>    8.6594    0.0000 </r>
       <r>   11.4114    0.0000 </r>
       <r>   17.7677    0.0000 </r>
       <r>   18.8824    0.0000 </r>
       <r>   21.1455    0.0000 </r>
      </set>
      <set comment="kpoint 41">
       <r>    2.8355    1.0000 </r>
       <r>    3.9023    1.0000 </r>
       <r>    4.3417    1.0000 </r>
       <r>    7.6863    0.0000 </r>
       <r>    9.6475    0.0000 </r>
       <r>   12.5253    0.0000 </r>
       <r>   16.1765    0.0000 </r>
       <r>   18.8744    0.0000 </r>
       <r>   19.0160    0.0000 </r>
      </set>
      <set comment="kpoint 42">
       <r>    2.9546    1.0000 </r>
       <r>    3.5509    1.0000 </r>
       <r>    4.9189    1.0000 </r>
       <r>    7.5774    0.0000 </r>
       <r>   10.4638    0.0000 </r>
       <r>   13.7516    0.0000 </r>
       <r>   13.8702    0.0000 </r>
       <r>   18.8736    0.0000 </r>
       <r>   19.5775    0.0000 </r>
      </set>
      <set comment="kpoint 43">
       <r>    2.2273    1.0000 </r>
       <r>    3.5948    1.0000 </r>
       <r>    4.7604    1.0000 </r>
       <r>    8.1501    0.0000 </r>
       <r>    9.6443    0.0000 </r>
       <r>   12.1336    0.0000 </r>
       <r>   16.5029    0.0000 </r>
       <r>   18.8780    0.0000 </r>
       <r>   19.4995    0.0000 </r>
      </set>
      <set comment="kpoint 44">
       <r>    1.8423    1.0000 </r>
       <r>    3.4267    1.0000 </r>
       <r>    5.2780    1.0000 </r>
       <r>    7.9162    0.0000 </r>
       <r>   10.7524    0.0000 </r>
       <r>   11.0950    0.0000 </r>
       <r>   16.3406    0.0000 </r>
       <r>   18.8774    0.0000 </r>
       <r>   20.5012    0.0000 </r>
      </set>
      <set comment="kpoint 45">
       <r>    2.3840    1.0000 </r>
       <r>    3.3237    1.0000 </r>
       <r>    5.1970    1.0000 </r>
       <r>    8.6099    0.0000 </r>
       <r>   10.6134    0.0000 </r>
       <r>   12.8840    0.0000 </r>
       <r>   15.3745    0.0000 </r>
       <r>   17.9743    0.0000 </r>
       <r>   18.8781    0.0000 </r>
      </set>
      <set comment="kpoint 46">
       <r>    2.8475    1.0000 </r>
       <r>    3.8711    1.0000 </r>
       <r>    4.7863    1.0000 </r>
       <r>    7.6517    0.0000 </r>
       <r>   11.3397    0.0000 </r>
       <r>   14.1594    0.0000 </r>
       <r>   14.9969    0.0000 </r>
       <r>   16.5523    0.0000 </r>
       <r>   18.8785    0.0000 </r>
      </set>
      <set comment="kpoint 47">
       <r>    3.0349    1.0000 </r>
       <r>    3.7995    1.0000 </r>
       <r>    4.4164    1.0000 </r>
       <r>    7.8707    0.0000 </r>
       <r>   10.5594    0.0000 </r>
       <r>   13.1482    0.0000 </r>
       <r>   15.5594    0.0000 </r>
       <r>   17.7662    0.0000 </r>
       <r>   18.8790    0.0000 </r>
      </set>
      <set comment="kpoint 48">
       <r>    1.9864    1.0000 </r>
       <r>    2.9265    1.0000 </r>
       <r>    6.4430    0.0000 </r>
       <r>    9.3092    0.0000 </r>
       <r>   11.0963    0.0000 </r>
       <r>   13.3585    0.0000 </r>
       <r>   13.8372    0.0000 </r>
       <r>   18.5044    0.0000 </r>
       <r>   18.8977    0.0000 </r>
      </set>
      <set comment="kpoint 49">
       <r>    2.2934    1.0000 </r>
       <r>    3.1891    1.0000 </r>
       <r>    5.8313    0.0000 </r>
       <r>    8.6033    0.0000 </r>
       <r>   11.3528    0.0000 </r>
       <r>   13.8376    0.0000 </r>
       <r>   14.5264    0.0000 </r>
       <r>   16.8307    0.0000 </r>
       <r>   18.8759    0.0000 </r>
      </set>
      <set comment="kpoint 50">
       <r>    2.0291    1.0000 </r>
       <r>    3.0923    1.0000 </r>
       <r>    5.8146    0.0000 </r>
       <r>    8.6720    0.0000 </r>
       <r>   11.2548    0.0000 </r>
       <r>   12.2599    0.0000 </r>
       <r>   14.6966    0.0000 </r>
       <r>   18.8726    0.0000 </r>
       <r>   19.3405    0.0000 </r>
      </set>
      <set comment="kpoint 51">
       <r>    0.2735    1.0000 </r>
       <r>    4.8510    1.0000 </r>
       <r>    6.1501    0.0000 </r>
       <r>    6.1501    0.0000 </r>
       <r>    9.4375    0.0000 </r>
       <r>    9.4375    0.0000 </r>
       <r>   16.8703    0.0000 </r>
       <r>   18.8746    0.0000 </r>
       <r>   20.4091    0.0000 </r>
      </set>
      <set comment="kpoint 52">
       <r>    1.1504    1.0000 </r>
       <r>    4.7115    1.0000 </r>
       <r>    5.4856    0.1230 </r>
       <r>    6.3982    0.0000 </r>
       <r>    9.0570    0.0000 </r>
       <r>   11.2379    0.0000 </r>
       <r>   16.7340    0.0000 </r>
       <r>   18.8772    0.0000 </r>
       <r>   19.8002    0.0000 </r>
      </set>
      <set comment="kpoint 53">
       <r>    2.6337    1.0000 </r>
       <r>    4.1238    1.0000 </r>
       <r>    4.6504    1.0000 </r>
       <r>    7.2617    0.0000 </r>
       <r>    9.1790    0.0000 </r>
       <r>   12.3326    0.0000 </r>
       <r>   16.4779    0.0000 </r>
       <r>   18.8780    0.0000 </r>
       <r>   19.3897    0.0000 </r>
      </set>
      <set comment="kpoint 54">
       <r>    2.7671    1.0000 </r>
       <r>    3.5046    1.0000 </r>
       <r>    5.3016    1.0000 </r>
       <r>    8.0548    0.0000 </r>
       <r>   10.2411    0.0000 </r>
       <r>   12.1889    0.0000 </r>
       <r>   15.8870    0.0000 </r>
       <r>   18.2434    0.0000 </r>
       <r>   18.8828    0.0000 </r>
      </set>
      <set comment="kpoint 55">
       <r>    1.3541    1.0000 </r>
       <r>    4.6848    1.0000 </r>
       <r>    5.4826    0.1571 </r>
       <r>    6.3919    0.0000 </r>
       <r>   10.5183    0.0000 </r>
       <r>   10.9381    0.0000 </r>
       <r>   15.7668    0.0000 </r>
       <r>   18.8753    0.0000 </r>
       <r>   19.1738    0.0000 </r>
      </set>
      <set comment="kpoint 56">
       <r>    2.3867    1.0000 </r>
       <r>    4.0077    1.0000 </r>
       <r>    5.0122    1.0000 </r>
       <r>    7.1118    0.0000 </r>
       <r>   10.2559    0.0000 </r>
       <r>   12.5791    0.0000 </r>
       <r>   14.8348    0.0000 </r>
       <r>   18.8768    0.0000 </r>
       <r>   20.3040    0.0000 </r>
      </set>
      <set comment="kpoint 57">
       <r>    3.0745    1.0000 </r>
       <r>    3.5812    1.0000 </r>
       <r>    4.8419    1.0000 </r>
       <r>    7.7719    0.0000 </r>
       <r>   10.6031    0.0000 </r>
       <r>   13.0053    0.0000 </r>
       <r>   15.5724    0.0000 </r>
       <r>   17.7758    0.0000 </r>
       <r>   18.8803    0.0000 </r>
      </set>
      <set comment="kpoint 58">
       <r>    2.5193    1.0000 </r>
       <r>    3.6816    1.0000 </r>
       <r>    5.2932    1.0000 </r>
       <r>    7.4774    0.0000 </r>
       <r>   10.7516    0.0000 </r>
       <r>   12.6439    0.0000 </r>
       <r>   14.2692    0.0000 </r>
       <r>   18.8749    0.0000 </r>
       <r>   19.8250    0.0000 </r>
      </set>
      <set comment="kpoint 59">
       <r>    0.9842    1.0000 </r>
       <r>    5.7892    0.0000 </r>
       <r>    5.7892    0.0000 </r>
       <r>    5.7949    0.0000 </r>
       <r>   10.7440    0.0000 </r>
       <r>   10.7440    0.0000 </r>
       <r>   15.3130    0.0000 </r>
       <r>   17.7825    0.0000 </r>
       <r>   18.8792    0.0000 </r>
      </set>
      <set comment="kpoint 60">
       <r>    1.5607    1.0000 </r>
       <r>    4.8572    1.0000 </r>
       <r>    5.8243    0.0000 </r>
       <r>    6.1824    0.0000 </r>
       <r>   10.6503    0.0000 </r>
       <r>   11.8459    0.0000 </r>
       <r>   14.6304    0.0000 </r>
       <r>   18.6841    0.0000 </r>
       <r>   18.8777    0.0000 </r>
      </set>
     </set>
    </set>
   </array>
  </eigenvalues>
  <separator name="orbital magnetization" >
   <v name="MAGDIPOLOUT">      0.00000000      0.00000000      0.00000000</v>
  </separator>
  <dos>
   <i name="efermi">      5.45998743 </i>
   <total>
    <array>
     <dimension dim="1">gridpoints</dimension>
     <dimension dim="2">spin</dimension>
     <field>energy</field>
     <field>total</field>
     <field>integrated</field>
     <set>
      <set comment="spin 1">
       <r>    -3.5930     0.0000     0.0000 </r>
       <r>    -3.5029     0.0000     0.0000 </r>
       <r>    -3.4127     0.0000     0.0000 </r>
       <r>    -3.3226     0.0000     0.0000 </r>
       <r>    -3.2324     0.0000     0.0000 </r>
       <r>    -3.1423     0.0000     0.0000 </r>
       <r>    -3.0521     0.0000     0.0000 </r>
       <r>    -2.9620     0.0000     0.0000 </r>
       <r>    -2.8719     0.0000     0.0000 </r>
       <r>    -2.7817     0.0000     0.0000 </r>
       <r>    -2.6916     0.0000     0.0000 </r>
       <r>    -2.6014     0.0000     0.0000 </r>
       <r>    -2.5113     0.0000     0.0000 </r>
       <r>    -2.4211    -0.0015    -0.0001 </r>
       <r>    -2.3310     0.0424     0.0037 </r>
       <r>    -2.2409     0.0025     0.0039 </r>
       <r>    -2.1507    -0.0001     0.0039 </r>
       <r>    -2.0606    -0.0029     0.0036 </r>
       <r>    -1.9704     0.0886     0.0116 </r>
       <r>    -1.8803     0.0454     0.0157 </r>
       <r>    -1.7901    -0.0011     0.0156 </r>
       <r>    -1.7000    -0.0026     0.0154 </r>
       <r>    -1.6098     0.0824     0.0228 </r>
       <r>    -1.5197     0.0514     0.0275 </r>
       <r>    -1.4296    -0.0013     0.0273 </r>
       <r>    -1.3394    -0.0038     0.0270 </r>
       <r>    -1.2493     0.1199     0.0378 </r>
       <r>    -1.1591     0.0587     0.0431 </r>
       <r>    -1.0690    -0.0016     0.0430 </r>
       <r>    -0.9788    -0.0074     0.0423 </r>
       <r>    -0.8887     0.2623     0.0659 </r>
       <r>    -0.7985     0.0054     0.0664 </r>
       <r>    -0.7084    -0.0047     0.0660 </r>
       <r>    -0.6183     0.1272     0.0775 </r>
       <r>    -0.5281     0.0075     0.0781 </r>
       <r>    -0.4380    -0.0003     0.0781 </r>
       <r>    -0.3478    -0.0045     0.0777 </r>
       <r>    -0.2577     0.2567     0.1009 </r>
       <r>    -0.1675     0.0099     0.1017 </r>
       <r>    -0.0774     0.1249     0.1130 </r>
       <r>     0.0127     0.1868     0.1298 </r>
       <r>     0.1029     0.0769     0.1368 </r>
       <r>     0.1930     0.0496     0.1412 </r>
       <r>     0.2832     0.1276     0.1527 </r>
       <r>     0.3733    -0.0044     0.1523 </r>
       <r>     0.4635    -0.0079     0.1516 </r>
       <r>     0.5536     0.2295     0.1723 </r>
       <r>     0.6438     0.3014     0.1995 </r>
       <r>     0.7339     0.2481     0.2219 </r>
       <r>     0.8240     0.0085     0.2226 </r>
       <r>     0.9142     0.0211     0.2245 </r>
       <r>     1.0043     0.4026     0.2608 </r>
       <r>     1.0945     0.1273     0.2723 </r>
       <r>     1.1846     0.2776     0.2973 </r>
       <r>     1.2748     0.1259     0.3087 </r>
       <r>     1.3649     0.6941     0.3712 </r>
       <r>     1.4550     0.4394     0.4108 </r>
       <r>     1.5452     0.2933     0.4373 </r>
       <r>     1.6353     0.1984     0.4552 </r>
       <r>     1.7255     0.6319     0.5121 </r>
       <r>     1.8156     0.3514     0.5438 </r>
       <r>     1.9058     0.2929     0.5702 </r>
       <r>     1.9959     0.3183     0.5989 </r>
       <r>     2.0861     0.6355     0.6562 </r>
       <r>     2.1762     0.1903     0.6733 </r>
       <r>     2.2663     0.3348     0.7035 </r>
       <r>     2.3565     0.5436     0.7525 </r>
       <r>     2.4466     0.7431     0.8195 </r>
       <r>     2.5368     0.3436     0.8505 </r>
       <r>     2.6269     0.3375     0.8809 </r>
       <r>     2.7171     0.2151     0.9003 </r>
       <r>     2.8072     0.6216     0.9563 </r>
       <r>     2.8973     0.4679     0.9985 </r>
       <r>     2.9875     0.5184     1.0452 </r>
       <r>     3.0776     0.6678     1.1054 </r>
       <r>     3.1678     0.4640     1.1473 </r>
       <r>     3.2579     0.2577     1.1705 </r>
       <r>     3.3481     0.3419     1.2013 </r>
       <r>     3.4382     0.4246     1.2396 </r>
       <r>     3.5284     0.6568     1.2988 </r>
       <r>     3.6185     0.7857     1.3696 </r>
       <r>     3.7086     0.2058     1.3882 </r>
       <r>     3.7988     0.5839     1.4408 </r>
       <r>     3.8889     0.9065     1.5225 </r>
       <r>     3.9791     0.4186     1.5602 </r>
       <r>     4.0692     0.1282     1.5718 </r>
       <r>     4.1594     0.3827     1.6063 </r>
       <r>     4.2495     0.6874     1.6683 </r>
       <r>     4.3396     0.9946     1.7579 </r>
       <r>     4.4298     0.4339     1.7970 </r>
       <r>     4.5199     0.3964     1.8328 </r>
       <r>     4.6101     0.5787     1.8849 </r>
       <r>     4.7002     0.5758     1.9368 </r>
       <r>     4.7904     1.3019     2.0542 </r>
       <r>     4.8805     0.5771     2.1062 </r>
       <r>     4.9707     0.8265     2.1807 </r>
       <r>     5.0608     0.4211     2.2187 </r>
       <r>     5.1509     0.4962     2.2634 </r>
       <r>     5.2411     1.5095     2.3995 </r>
       <r>     5.3312     0.3852     2.4342 </r>
       <r>     5.4214     0.6551     2.4933 </r>
       <r>     5.5115     0.4913     2.5375 </r>
       <r>     5.6017     0.4551     2.5786 </r>
       <r>     5.6918     0.5563     2.6287 </r>
       <r>     5.7819     0.9883     2.7178 </r>
       <r>     5.8721     0.5288     2.7655 </r>
       <r>     5.9622     0.5113     2.8116 </r>
       <r>     6.0524     0.3352     2.8418 </r>
       <r>     6.1425     1.0241     2.9341 </r>
       <r>     6.2327     0.3157     2.9625 </r>
       <r>     6.3228     0.8353     3.0378 </r>
       <r>     6.4130     0.5797     3.0901 </r>
       <r>     6.5031     0.5502     3.1397 </r>
       <r>     6.5932     0.4245     3.1780 </r>
       <r>     6.6834     0.5545     3.2279 </r>
       <r>     6.7735     0.1592     3.2423 </r>
       <r>     6.8637     0.7150     3.3067 </r>
       <r>     6.9538     0.2561     3.3298 </r>
       <r>     7.0440     0.3921     3.3652 </r>
       <r>     7.1341     0.5204     3.4121 </r>
       <r>     7.2243     0.6722     3.4727 </r>
       <r>     7.3144     0.1247     3.4839 </r>
       <r>     7.4045     0.2668     3.5080 </r>
       <r>     7.4947     0.4515     3.5487 </r>
       <r>     7.5848     0.7849     3.6194 </r>
       <r>     7.6750     0.6244     3.6757 </r>
       <r>     7.7651     0.6410     3.7335 </r>
       <r>     7.8553     0.8700     3.8119 </r>
       <r>     7.9454     0.2627     3.8356 </r>
       <r>     8.0355     0.3793     3.8698 </r>
       <r>     8.1257     0.5709     3.9212 </r>
       <r>     8.2158     0.2918     3.9475 </r>
       <r>     8.3060     0.0618     3.9531 </r>
       <r>     8.3961     0.0767     3.9600 </r>
       <r>     8.4863     0.4865     4.0039 </r>
       <r>     8.5764     0.7942     4.0755 </r>
       <r>     8.6666     0.8831     4.1551 </r>
       <r>     8.7567     0.2684     4.1793 </r>
       <r>     8.8468     0.5301     4.2271 </r>
       <r>     8.9370    -0.0117     4.2260 </r>
       <r>     9.0271     0.1813     4.2423 </r>
       <r>     9.1173     0.2594     4.2657 </r>
       <r>     9.2074     0.4468     4.3060 </r>
       <r>     9.2976     0.1581     4.3203 </r>
       <r>     9.3877     0.3291     4.3499 </r>
       <r>     9.4778     0.1360     4.3622 </r>
       <r>     9.5680     0.5851     4.4149 </r>
       <r>     9.6581     1.0275     4.5075 </r>
       <r>     9.7483     0.4622     4.5492 </r>
       <r>     9.8384     0.7535     4.6171 </r>
       <r>     9.9286     0.1851     4.6338 </r>
       <r>    10.0187     0.2788     4.6590 </r>
       <r>    10.1089     0.0998     4.6679 </r>
       <r>    10.1990     0.1529     4.6817 </r>
       <r>    10.2891     0.4572     4.7229 </r>
       <r>    10.3793     0.4048     4.7594 </r>
       <r>    10.4694     0.5754     4.8113 </r>
       <r>    10.5596     1.5994     4.9555 </r>
       <r>    10.6497     0.5689     5.0068 </r>
       <r>    10.7399     0.9591     5.0932 </r>
       <r>    10.8300     0.5814     5.1456 </r>
       <r>    10.9201     0.2545     5.1686 </r>
       <r>    11.0103     0.1823     5.1850 </r>
       <r>    11.1004     0.6064     5.2397 </r>
       <r>    11.1906     0.4141     5.2770 </r>
       <r>    11.2807     0.4287     5.3157 </r>
       <r>    11.3709     0.7966     5.3875 </r>
       <r>    11.4610     0.6273     5.4440 </r>
       <r>    11.5512     0.0592     5.4493 </r>
       <r>    11.6413    -0.0020     5.4492 </r>
       <r>    11.7314     0.0199     5.4510 </r>
       <r>    11.8216     0.3387     5.4815 </r>
       <r>    11.9117     0.4583     5.5228 </r>
       <r>    12.0019     0.3579     5.5551 </r>
       <r>    12.0920     0.2454     5.5772 </r>
       <r>    12.1822     0.6212     5.6332 </r>
       <r>    12.2723     0.5197     5.6800 </r>
       <r>    12.3624     0.1737     5.6957 </r>
       <r>    12.4526     0.0262     5.6980 </r>
       <r>    12.5427     0.4378     5.7375 </r>
       <r>    12.6329     0.4530     5.7784 </r>
       <r>    12.7230     0.0312     5.7812 </r>
       <r>    12.8132     0.2563     5.8043 </r>
       <r>    12.9033     0.4426     5.8442 </r>
       <r>    12.9935     0.2977     5.8710 </r>
       <r>    13.0836     0.1784     5.8871 </r>
[...]
       </set>
       <set comment="band 6">
        <r>  0.1355  0.0075  0.1664  0.0078  0.0020  0.5290  0.0738  0.0172  0.0338 </r>
       </set>
       <set comment="band 7">
        <r>  0.3129  0.1101  0.0998  0.0771  0.0267  0.0001  0.0017  0.0399  0.1491 </r>
       </set>
       <set comment="band 8">
        <r>  0.0380  0.0295  0.0322  0.5080  0.0740  0.0017  0.0059  0.1145  0.0487 </r>
       </set>
       <set comment="band 9">
        <r> 43.9744  0.0010  0.0000  0.0005  0.0000  0.0001  0.0001  0.0000  0.0005 </r>
       </set>
      </set>
      <set comment="kpoint 46">
       <set comment="band 1">
        <r>  0.0132  0.1064  0.0034  0.0003  0.0072  0.0001  0.6245  0.0000  0.0888 </r>
       </set>
       <set comment="band 2">
        <r>  0.0134  0.0053  0.0028  0.1625  0.7360  0.0097  0.0012  0.0040  0.0050 </r>
       </set>
       <set comment="band 3">
        <r>  0.0172  0.0002  0.2564  0.0036  0.0156  0.6195  0.0007  0.0047  0.0087 </r>
       </set>
       <set comment="band 4">
        <r>  0.1523  0.0087  0.0133  0.0047  0.0042  0.0076  0.0903  0.0020  0.6125 </r>
       </set>
       <set comment="band 5">
        <r>  0.0069  0.0000  0.0077  0.0103  0.0148  0.0294  0.0000  0.9083  0.0000 </r>
       </set>
       <set comment="band 6">
        <r>  0.4397  0.0017  0.0793  0.0378  0.0305  0.0981  0.0506  0.0472  0.1225 </r>
       </set>
       <set comment="band 7">
        <r>  0.0258  0.0155  0.3398  0.1757  0.0792  0.2087  0.0083  0.0014  0.0426 </r>
       </set>
       <set comment="band 8">
        <r>  0.1019  0.0002  0.1020  0.3802  0.1137  0.0404  0.0436  0.0306  0.0739 </r>
       </set>
       <set comment="band 9">
        <r> 44.1160  0.0002  0.0000  0.0001  0.0000  0.0000  0.0000  0.0000  0.0005 </r>
       </set>
      </set>
      <set comment="kpoint 47">
       <set comment="band 1">
        <r>  0.0494  0.1054  0.0003  0.0487  0.0135  0.0252  0.3504  0.0017  0.2514 </r>
       </set>
       <set comment="band 2">
        <r>  0.0493  0.0100  0.1122  0.0317  0.1493  0.4707  0.0719  0.0291  0.0061 </r>
       </set>
       <set comment="band 3">
        <r>  0.0590  0.0012  0.0551  0.1362  0.3877  0.2407  0.0487  0.0016  0.0001 </r>
       </set>
       <set comment="band 4">
        <r>  0.0479  0.0095  0.0037  0.0698  0.0141  0.0000  0.2321  0.0198  0.5109 </r>
       </set>
       <set comment="band 5">
        <r>  0.0160  0.0003  0.0354  0.0000  0.0284  0.0832  0.0031  0.7819  0.0052 </r>
       </set>
       <set comment="band 6">
        <r>  0.3228  0.0034  0.0055  0.1286  0.3425  0.0006  0.0153  0.0288  0.0785 </r>
       </set>
       <set comment="band 7">
        <r>  0.1705  0.0591  0.1526  0.1505  0.0321  0.0761  0.1678  0.0552  0.0208 </r>
       </set>
       <set comment="band 8">
        <r>  0.0488  0.0243  0.4103  0.0918  0.0205  0.1173  0.0652  0.1036  0.0309 </r>
       </set>
       <set comment="band 9">
        <r> 44.0820  0.0004  0.0004  0.0001  0.0000  0.0001  0.0006  0.0000  0.0001 </r>
       </set>
      </set>
      <set comment="kpoint 48">
       <set comment="band 1">
        <r>  0.0963  0.0089  0.0046  0.0089  0.0854  0.0004  0.6649  0.0004  0.0000 </r>
       </set>
       <set comment="band 2">
        <r>  0.0005  0.0450  0.0000  0.0450  0.7991  0.0008  0.0564  0.0008  0.0000 </r>
       </set>
       <set comment="band 3">
        <r>  0.0173  0.0001  0.4818  0.0001  0.0041  0.1948  0.0112  0.1948  0.0000 </r>
       </set>
       <set comment="band 4">
        <r>  0.0000  0.0314  0.0000  0.0314  0.0000  0.0305  0.0000  0.0305  0.8084 </r>
       </set>
       <set comment="band 5">
        <r>  0.0000  0.0001  0.0000  0.0001  0.0000  0.4541  0.0000  0.4541  0.0671 </r>
       </set>
       <set comment="band 6">
        <r>  0.3034  0.1211  0.1229  0.1211  0.0547  0.0385  0.0000  0.0385  0.0000 </r>
       </set>
       <set comment="band 7">
        <r>  0.1718  0.0067  0.2028  0.0067  0.0044  0.2758  0.0255  0.2758  0.0000 </r>
       </set>
       <set comment="band 8">
        <r>  1.5224  0.1270  0.0349  0.1270  0.0189  0.0104  0.3785  0.0104  0.0000 </r>
       </set>
       <set comment="band 9">
        <r> 42.8015  0.0059  0.0018  0.0059  0.0008  0.0004  0.0243  0.0004  0.0000 </r>
       </set>
      </set>
      <set comment="kpoint 49">
       <set comment="band 1">
        <r>  0.0672  0.0571  0.0045  0.0001  0.0205  0.0005  0.6917  0.0001  0.0140 </r>
       </set>
       <set comment="band 2">
        <r>  0.0010  0.0087  0.0000  0.0886  0.8379  0.0004  0.0126  0.0015  0.0010 </r>
       </set>
       <set comment="band 3">
        <r>  0.0207  0.0007  0.3833  0.0001  0.0017  0.4776  0.0071  0.0117  0.0093 </r>
       </set>
       <set comment="band 4">
        <r>  0.0815  0.0467  0.0189  0.0025  0.0008  0.0018  0.0160  0.0042  0.7324 </r>
       </set>
       <set comment="band 5">
        <r>  0.0058  0.0003  0.0044  0.0117  0.0064  0.0581  0.0001  0.8894  0.0016 </r>
       </set>
       <set comment="band 6">
        <r>  0.1083  0.0000  0.3179  0.0001  0.0000  0.4357  0.0310  0.0631  0.0035 </r>
       </set>
       <set comment="band 7">
        <r>  0.3565  0.0547  0.0754  0.1300  0.0407  0.0297  0.0125  0.0040  0.1436 </r>
       </set>
       <set comment="band 8">
        <r>  0.0790  0.0059  0.0213  0.5071  0.0752  0.0056  0.0454  0.0235  0.0560 </r>
       </set>
       <set comment="band 9">
        <r> 43.7447  0.0025  0.0000  0.0003  0.0000  0.0001  0.0009  0.0000  0.0012 </r>
       </set>
      </set>
      <set comment="kpoint 50">
       <set comment="band 1">
        <r>  0.1490  0.0071  0.0452  0.0071  0.1080  0.0058  0.5437  0.0058  0.0000 </r>
       </set>
       <set comment="band 2">
        <r>  0.0000  0.0474  0.0005  0.0474  0.7452  0.0066  0.0851  0.0066  0.0000 </r>
       </set>
       <set comment="band 3">
        <r>  0.0939  0.0002  0.3489  0.0002  0.0349  0.1612  0.1075  0.1612  0.0000 </r>
       </set>
       <set comment="band 4">
        <r>  0.0000  0.0295  0.0000  0.0295  0.0000  0.1370  0.0000  0.1370  0.5988 </r>
       </set>
       <set comment="band 5">
        <r>  0.0000  0.0002  0.0000  0.0002  0.0000  0.3361  0.0000  0.3361  0.3153 </r>
       </set>
       <set comment="band 6">
        <r>  0.0049  0.0583  0.2351  0.0583  0.0270  0.2344  0.0731  0.2344  0.0000 </r>
       </set>
       <set comment="band 7">
        <r>  0.4013  0.0904  0.0216  0.0904  0.0356  0.0845  0.0100  0.0845  0.0000 </r>
       </set>
       <set comment="band 8">
        <r> 43.6158  0.0008  0.0007  0.0008  0.0002  0.0004  0.0009  0.0004  0.0000 </r>
       </set>
       <set comment="band 9">
        <r>  0.0000  0.3010  0.0000  0.3032  0.0000  0.0252  0.0000  0.0256  0.1122 </r>
       </set>
      </set>
      <set comment="kpoint 51">
       <set comment="band 1">
        <r>  0.5558  0.0353  0.0353  0.0353  0.0704  0.0704  0.0000  0.0704  0.0000 </r>
       </set>
       <set comment="band 2">
        <r>  0.0258  0.0927  0.0927  0.0927  0.1941  0.1941  0.0000  0.1941  0.0000 </r>
       </set>
       <set comment="band 3">
        <r>  0.0000  0.0021  0.0003  0.0010  0.0383  0.1600  0.0500  0.3156  0.3975 </r>
       </set>
       <set comment="band 4">
        <r>  0.0000  0.0002  0.0020  0.0012  0.3043  0.1826  0.3975  0.0270  0.0500 </r>
       </set>
       <set comment="band 5">
        <r>  0.0000  0.0060  0.0001  0.0048  0.0029  0.1939  0.0049  0.2444  0.4937 </r>
       </set>
       <set comment="band 6">
        <r>  0.0000  0.0012  0.0071  0.0025  0.2912  0.1002  0.4937  0.0498  0.0049 </r>
       </set>
       <set comment="band 7">
        <r>  0.1036  0.0265  0.0265  0.0265  0.0364  0.0364  0.0000  0.0364  0.0000 </r>
       </set>
       <set comment="band 8">
        <r> 43.7892  0.0001  0.0001  0.0001  0.0000  0.0000  0.0000  0.0000  0.0000 </r>
       </set>
       <set comment="band 9">
        <r>  0.3632  0.0695  0.0695  0.0695  0.1075  0.1075  0.0000  0.1075  0.0000 </r>
       </set>
      </set>
      <set comment="kpoint 52">
       <set comment="band 1">
        <r>  0.4550  0.0634  0.0634  0.0002  0.0811  0.1466  0.0010  0.0811  0.0030 </r>
       </set>
       <set comment="band 2">
        <r>  0.0236  0.0908  0.0908  0.1401  0.2247  0.0227  0.0144  0.2247  0.0433 </r>
       </set>
       <set comment="band 3">
        <r>  0.0043  0.0045  0.0045  0.0116  0.0770  0.2949  0.1147  0.0770  0.3441 </r>
       </set>
       <set comment="band 4">
        <r>  0.0000  0.0020  0.0020  0.0000  0.1695  0.0000  0.4557  0.1695  0.1519 </r>
       </set>
       <set comment="band 5">
        <r>  0.0000  0.0053  0.0053  0.0000  0.3079  0.0000  0.2366  0.3079  0.0789 </r>
       </set>
       <set comment="band 6">
        <r>  0.0274  0.0268  0.0268  0.0025  0.0145  0.4533  0.1038  0.0145  0.3113 </r>
       </set>
       <set comment="band 7">
        <r>  0.2048  0.0628  0.0628  0.0381  0.0539  0.1164  0.0105  0.0539  0.0315 </r>
       </set>
       <set comment="band 8">
        <r> 43.9015  0.0000  0.0000  0.0000  0.0000  0.0002  0.0000  0.0000  0.0001 </r>
       </set>
       <set comment="band 9">
        <r>  0.2462  0.0567  0.0567  0.0221  0.0533  0.0033  0.0040  0.0533  0.0120 </r>
       </set>
      </set>
      <set comment="kpoint 53">
       <set comment="band 1">
        <r>  0.2989  0.0914  0.0914  0.0058  0.0282  0.3728  0.0000  0.0282  0.0000 </r>
       </set>
       <set comment="band 2">
        <r>  0.0000  0.0683  0.0683  0.0067  0.0023  0.0894  0.1515  0.0023  0.4546 </r>
       </set>
       <set comment="band 3">
        <r>  0.0054  0.0081  0.0081  0.2033  0.3246  0.0435  0.0031  0.3246  0.0092 </r>
       </set>
       <set comment="band 4">
        <r>  0.0000  0.0161  0.0161  0.0000  0.0331  0.0000  0.6221  0.0331  0.2074 </r>
       </set>
       <set comment="band 5">
        <r>  0.0000  0.0014  0.0014  0.0000  0.4398  0.0000  0.0460  0.4398  0.0153 </r>
       </set>
       <set comment="band 6">
        <r>  0.2579  0.0186  0.0186  0.0033  0.0000  0.4839  0.0410  0.0000  0.1229 </r>
       </set>
       <set comment="band 7">
        <r>  0.1910  0.1311  0.1311  0.0393  0.0366  0.0000  0.0620  0.0366  0.1859 </r>
       </set>
       <set comment="band 8">
        <r> 44.0149  0.0000  0.0000  0.0010  0.0005  0.0001  0.0000  0.0005  0.0001 </r>
       </set>
       <set comment="band 9">
        <r>  0.0969  0.0173  0.0173  0.4820  0.2125  0.0004  0.0097  0.2125  0.0290 </r>
       </set>
      </set>
      <set comment="kpoint 54">
       <set comment="band 1">
        <r>  0.1101  0.0002  0.0002  0.0071  0.0057  0.4139  0.0927  0.0057  0.2780 </r>
       </set>
       <set comment="band 2">
        <r>  0.0182  0.1292  0.1292  0.0003  0.0062  0.2618  0.0803  0.0062  0.2410 </r>
       </set>
       <set comment="band 3">
        <r>  0.0038  0.0033  0.0033  0.3205  0.2767  0.0321  0.0009  0.2767  0.0027 </r>
       </set>
       <set comment="band 4">
        <r>  0.0000  0.0272  0.0272  0.0000  0.0261  0.0000  0.6127  0.0261  0.2042 </r>
       </set>
       <set comment="band 5">
        <r>  0.0000  0.0007  0.0007  0.0000  0.4511  0.0000  0.0382  0.4511  0.0127 </r>
       </set>
       <set comment="band 6">
        <r>  0.4898  0.0476  0.0476  0.0114  0.0009  0.2249  0.0031  0.0009  0.0094 </r>
       </set>
       <set comment="band 7">
        <r>  0.0635  0.0312  0.0312  0.3253  0.2129  0.0064  0.0262  0.2129  0.0785 </r>
       </set>
       <set comment="band 8">
        <r>  0.2295  0.1067  0.1067  0.1433  0.0559  0.0228  0.0840  0.0559  0.2519 </r>
       </set>
       <set comment="band 9">
        <r> 43.9613  0.0009  0.0009  0.0009  0.0003  0.0001  0.0011  0.0003  0.0032 </r>
       </set>
      </set>
      <set comment="kpoint 55">
       <set comment="band 1">
        <r>  0.3801  0.0025  0.0765  0.0025  0.1784  0.1291  0.0184  0.1291  0.0000 </r>
       </set>
       <set comment="band 2">
        <r>  0.0130  0.1271  0.0718  0.1271  0.1092  0.0503  0.2977  0.0503  0.0000 </r>
       </set>
       <set comment="band 3">
        <r>  0.0255  0.0191  0.0558  0.0191  0.4167  0.0482  0.3107  0.0482  0.0000 </r>
       </set>
       <set comment="band 4">
        <r>  0.0000  0.0092  0.0000  0.0092  0.0000  0.2071  0.0000  0.2071  0.5221 </r>
       </set>
       <set comment="band 5">
        <r>  0.0091  0.0262  0.0897  0.0262  0.1735  0.1612  0.2866  0.1612  0.0000 </r>
       </set>
       <set comment="band 6">
        <r>  0.0000  0.0016  0.0000  0.0016  0.0000  0.2739  0.0000  0.2739  0.4319 </r>
       </set>
       <set comment="band 7">
        <r>  0.3190  0.0425  0.0405  0.0425  0.0692  0.1347  0.0032  0.1347  0.0000 </r>
       </set>
       <set comment="band 8">
        <r> 43.4619  0.0000  0.0005  0.0000  0.0001  0.0001  0.0006  0.0001  0.0000 </r>
       </set>
       <set comment="band 9">
        <r>  0.6602  0.0152  0.0494  0.0152  0.0514  0.0029  0.0493  0.0029  0.0000 </r>
       </set>
      </set>
      <set comment="kpoint 56">
       <set comment="band 1">
        <r>  0.2592  0.0130  0.0890  0.0174  0.2257  0.2035  0.0376  0.0803  0.0001 </r>
       </set>
       <set comment="band 2">
        <r>  0.0001  0.1102  0.0183  0.0491  0.0181  0.0606  0.4604  0.0134  0.1156 </r>
       </set>
       <set comment="band 3">
        <r>  0.0231  0.0232  0.0925  0.1101  0.4071  0.2114  0.0284  0.0094  0.0246 </r>
       </set>
       <set comment="band 4">
        <r>  0.0003  0.0042  0.0399  0.0095  0.0232  0.0116  0.1582  0.1987  0.4883 </r>
       </set>
       <set comment="band 5">
        <r>  0.0130  0.0025  0.0196  0.0131  0.1392  0.0550  0.0696  0.4992  0.1356 </r>
       </set>
       <set comment="band 6">
        <r>  0.1145  0.0252  0.0979  0.0453  0.0236  0.4238  0.1313  0.0071  0.0872 </r>
       </set>
       <set comment="band 7">
        <r>  0.3535  0.0502  0.0540  0.0598  0.0967  0.0194  0.0051  0.1425  0.0891 </r>
       </set>
       <set comment="band 8">
        <r> 44.0310  0.0000  0.0000  0.0002  0.0001  0.0002  0.0000  0.0002  0.0000 </r>
       </set>
       <set comment="band 9">
        <r>  0.0022  0.0322  0.0062  0.1690  0.0819  0.0175  0.0992  0.0340  0.0624 </r>
       </set>
      </set>
      <set comment="kpoint 57">
       <set comment="band 1">
        <r>  0.0299  0.0698  0.0000  0.0057  0.0022  0.1161  0.3361  0.0011  0.2995 </r>
       </set>
       <set comment="band 2">
        <r>  0.0730  0.0565  0.1485  0.0072  0.0330  0.5144  0.0680  0.0093  0.0089 </r>
       </set>
       <set comment="band 3">
        <r>  0.0021  0.0034  0.0133  0.2503  0.5545  0.0530  0.0023  0.0479  0.0001 </r>
       </set>
       <set comment="band 4">
        <r>  0.0702  0.0048  0.0338  0.0073  0.0001  0.0155  0.3312  0.0179  0.4276 </r>
       </set>
       <set comment="band 5">
        <r>  0.0206  0.0001  0.0015  0.0188  0.1576  0.0173  0.0027  0.7343  0.0031 </r>
       </set>
       <set comment="band 6">
        <r>  0.4215  0.0127  0.1125  0.0076  0.0005  0.1952  0.0789  0.0303  0.0162 </r>
       </set>
       <set comment="band 7">
        <r>  0.0685  0.0220  0.0743  0.3254  0.2110  0.0192  0.0152  0.1216  0.0896 </r>
       </set>
       <set comment="band 8">
        <r>  0.0944  0.0321  0.2206  0.1835  0.0704  0.0490  0.0063  0.0556  0.2178 </r>
       </set>
       <set comment="band 9">
        <r> 44.1165  0.0001  0.0005  0.0003  0.0001  0.0000  0.0000  0.0001  0.0013 </r>
       </set>
      </set>
      <set comment="kpoint 58">
       <set comment="band 1">
        <r>  0.1822  0.0027  0.0496  0.0027  0.4143  0.0571  0.1634  0.0571  0.0000 </r>
       </set>
       <set comment="band 2">
        <r>  0.0033  0.1097  0.0009  0.1097  0.0915  0.0244  0.4892  0.0244  0.0000 </r>
       </set>
       <set comment="band 3">
        <r>  0.0228  0.0225  0.2386  0.0225  0.2220  0.1813  0.0325  0.1813  0.0000 </r>
       </set>
       <set comment="band 4">
        <r>  0.0000  0.0207  0.0000  0.0207  0.0000  0.1155  0.0000  0.1155  0.6598 </r>
       </set>
       <set comment="band 5">
        <r>  0.0000  0.0013  0.0000  0.0013  0.0000  0.3658  0.0000  0.3658  0.2344 </r>
       </set>
       <set comment="band 6">
        <r>  0.2390  0.0835  0.1323  0.0835  0.2167  0.0028  0.0747  0.0028  0.0000 </r>
       </set>
       <set comment="band 7">
        <r>  0.2991  0.0101  0.0956  0.0101  0.0008  0.2219  0.1148  0.2219  0.0000 </r>
       </set>
       <set comment="band 8">
        <r> 43.8738  0.0002  0.0006  0.0002  0.0001  0.0004  0.0003  0.0004  0.0000 </r>
       </set>
       <set comment="band 9">
        <r>  0.2291  0.0440  0.2060  0.0440  0.0027  0.0639  0.2859  0.0639  0.0000 </r>
       </set>
      </set>
      <set comment="kpoint 59">
       <set comment="band 1">
        <r>  0.3721  0.0051  0.0051  0.0051  0.1832  0.1832  0.0000  0.1832  0.0000 </r>
       </set>
       <set comment="band 2">
        <r>  0.0000  0.0001  0.0000  0.0002  0.0141  0.2376  0.0307  0.1412  0.5396 </r>
       </set>
       <set comment="band 3">
        <r>  0.0000  0.0001  0.0002  0.0000  0.2479  0.0243  0.5396  0.1207  0.0307 </r>
       </set>
       <set comment="band 4">
        <r>  0.0206  0.2288  0.2288  0.2288  0.0303  0.0303  0.0000  0.0303  0.0000 </r>
       </set>
       <set comment="band 5">
        <r>  0.0000  0.0021  0.0001  0.0014  0.0131  0.2294  0.0129  0.3449  0.3706 </r>
       </set>
       <set comment="band 6">
        <r>  0.0000  0.0003  0.0023  0.0010  0.3785  0.1622  0.3706  0.0467  0.0129 </r>
       </set>
       <set comment="band 7">
        <r>  0.3768  0.0126  0.0126  0.0126  0.1386  0.1386  0.0000  0.1386  0.0000 </r>
       </set>
       <set comment="band 8">
        <r>  0.0264  0.0237  0.0237  0.0237  0.0194  0.0194  0.0000  0.0194  0.0000 </r>
       </set>
       <set comment="band 9">
        <r> 44.1167  0.0001  0.0001  0.0001  0.0003  0.0003  0.0000  0.0003  0.0000 </r>
       </set>
      </set>
      <set comment="kpoint 60">
       <set comment="band 1">
        <r>  0.3124  0.0109  0.0109  0.0171  0.1740  0.2424  0.0002  0.1740  0.0005 </r>
       </set>
       <set comment="band 2">
        <r>  0.0003  0.0865  0.0865  0.0322  0.0117  0.0646  0.1399  0.0117  0.4198 </r>
       </set>
       <set comment="band 3">
        <r>  0.0014  0.1143  0.1143  0.1877  0.1093  0.2216  0.0105  0.1093  0.0314 </r>
       </set>
       <set comment="band 4">
        <r>  0.0000  0.0050  0.0050  0.0000  0.1676  0.0000  0.4556  0.1676  0.1519 </r>
       </set>
       <set comment="band 5">
        <r>  0.0000  0.0019  0.0019  0.0000  0.3202  0.0000  0.2434  0.3202  0.0811 </r>
       </set>
       <set comment="band 6">
        <r>  0.0221  0.0420  0.0420  0.0597  0.0427  0.3728  0.0816  0.0427  0.2448 </r>
       </set>
       <set comment="band 7">
        <r>  0.4625  0.0067  0.0067  0.0065  0.1638  0.0976  0.0049  0.1638  0.0147 </r>
       </set>
       <set comment="band 8">
        <r>  0.0116  0.0114  0.0114  0.0242  0.0154  0.0216  0.0076  0.0154  0.0229 </r>
       </set>
       <set comment="band 9">
        <r> 44.0768  0.0000  0.0000  0.0001  0.0002  0.0001  0.0000  0.0002  0.0000 </r>
       </set>
      </set>
     </set>
    </set>
   </array>
  </projected>
 </calculation>
 <structure name="finalpos" >
  <crystal>
   <varray name="basis" >
    <v>       0.00000000       2.13500000       2.13500000 </v>
    <v>       2.13500000       0.00000000       2.13500000 </v>
    <v>       2.13500000       2.13500000       0.00000000 </v>
   </varray>
   <i name="volume">     19.46362075 </i>
   <varray name="rec_basis" >
    <v>      -0.23419204       0.23419204       0.23419204 </v>
    <v>       0.23419204      -0.23419204       0.23419204 </v>
    <v>       0.23419204       0.23419204      -0.23419204 </v>
   </varray>
  </crystal>
  <varray name="positions" >
   <v>       0.00000000       0.00000000       0.00000000 </v>
  </varray>
 </structure>
</modeling>
