   2   2   1   0
  0.1075727E+02  0.3121876E-09  0.3121876E-09  0.3121876E-09  0.5000000E-15
  1.000000000000000E-004
  CAR 
 unknown system                          
     24.38657680     -7.39825725  301      8.75950307      1.00000000
     -7.398  0.0000E+00  0.0000E+00  0.0000E+00  0.0000E+00
     -7.292  0.0000E+00  0.0000E+00  0.0000E+00  0.0000E+00
     -7.186  0.0000E+00  0.0000E+00  0.0000E+00  0.0000E+00
     -7.080  0.0000E+00  0.0000E+00  0.0000E+00  0.0000E+00
     -6.974  0.0000E+00  0.0000E+00  0.0000E+00  0.0000E+00
     -6.869  0.0000E+00  0.0000E+00  0.0000E+00  0.0000E+00
     -6.763  0.0000E+00  0.0000E+00  0.0000E+00  0.0000E+00
     -6.657  0.0000E+00  0.0000E+00  0.0000E+00  0.0000E+00
     -6.551  0.0000E+00  0.0000E+00  0.0000E+00  0.0000E+00
     -6.445 -0.1235E-42 -0.8929E-43 -0.1309E-43 -0.9460E-44
     -6.339 -0.1313E-26 -0.1019E-26 -0.1391E-27 -0.1079E-27
     -6.233 -0.1573E-14 -0.1310E-14 -0.1667E-15 -0.1388E-15
     -6.127 -0.1992E-06 -0.1785E-06 -0.2110E-07 -0.1891E-07
     -6.021 -0.1234E-02 -0.1215E-02 -0.1308E-03 -0.1288E-03
     -5.915  0.3744E-01  0.3725E-01  0.3836E-02  0.3818E-02
     -5.809  0.6192E-03  0.8008E-03  0.3902E-02  0.3902E-02
     -5.703  0.9036E-02  0.8205E-02  0.4859E-02  0.4772E-02
     -5.597  0.1046E+00  0.1055E+00  0.1594E-01  0.1595E-01
     -5.491 -0.4248E-02 -0.4269E-02  0.1549E-01  0.1549E-01
     -5.385  0.7878E-01  0.7726E-01  0.2383E-01  0.2368E-01
     -5.279  0.3306E-01  0.3456E-01  0.2734E-01  0.2734E-01
     -5.173  0.3795E-01  0.3629E-01  0.3136E-01  0.3119E-01
     -5.067  0.1120E+00  0.1136E+00  0.4322E-01  0.4323E-01
     -4.961 -0.9963E-02 -0.9914E-02  0.4217E-01  0.4218E-01
     -4.855  0.2267E+00  0.2255E+00  0.6618E-01  0.6607E-01
     -4.750  0.1916E-02  0.2964E-02  0.6638E-01  0.6638E-01
     -4.644  0.3483E-01  0.3334E-01  0.7007E-01  0.6992E-01
     -4.538  0.1518E+00  0.1517E+00  0.8615E-01  0.8599E-01
     -4.432  0.4799E-01  0.4848E-01  0.9123E-01  0.9113E-01
     -4.326  0.1031E+00  0.1031E+00  0.1022E+00  0.1021E+00
     -4.220  0.2195E+00  0.2206E+00  0.1254E+00  0.1254E+00
     -4.114  0.9993E-01  0.9935E-01  0.1360E+00  0.1359E+00
     -4.008  0.1949E+00  0.1929E+00  0.1566E+00  0.1564E+00
     -3.902  0.4854E-01  0.5007E-01  0.1618E+00  0.1617E+00
     -3.796  0.4550E+00  0.4472E+00  0.2100E+00  0.2091E+00
     -3.690  0.3648E+00  0.3709E+00  0.2486E+00  0.2484E+00
     -3.584  0.4116E+00  0.4062E+00  0.2923E+00  0.2914E+00
     -3.478  0.5989E+00  0.6058E+00  0.3557E+00  0.3556E+00
     -3.372  0.1227E+00  0.1208E+00  0.3687E+00  0.3684E+00
     -3.266  0.6481E+00  0.6490E+00  0.4374E+00  0.4371E+00
     -3.160  0.3824E+00  0.3800E+00  0.4779E+00  0.4774E+00
     -3.054  0.7484E+00  0.7467E+00  0.5572E+00  0.5565E+00
     -2.948  0.5161E+00  0.5202E+00  0.6119E+00  0.6116E+00
     -2.842  0.6449E+00  0.6415E+00  0.6802E+00  0.6796E+00
     -2.736  0.4684E+00  0.4690E+00  0.7298E+00  0.7293E+00
     -2.631  0.5092E+00  0.5102E+00  0.7838E+00  0.7833E+00
     -2.525  0.7588E+00  0.7544E+00  0.8642E+00  0.8633E+00
     -2.419  0.3546E+00  0.3596E+00  0.9017E+00  0.9014E+00
     -2.313  0.1382E+00  0.1403E+00  0.9164E+00  0.9162E+00
     -2.207  0.8032E-01  0.8095E-01  0.9249E+00  0.9248E+00
     -2.101  0.4624E+00  0.4625E+00  0.9739E+00  0.9738E+00
     -1.995  0.1880E-01  0.1917E-01  0.9759E+00  0.9758E+00
     -1.889  0.1132E+00  0.1126E+00  0.9879E+00  0.9878E+00
     -1.783  0.5538E-03  0.1505E-02  0.9879E+00  0.9879E+00
     -1.677  0.1101E+00  0.1091E+00  0.9996E+00  0.9995E+00
     -1.571  0.4020E-02  0.4906E-02  0.1000E+01  0.1000E+01
     -1.465 -0.2580E-04 -0.2905E-04  0.1000E+01  0.1000E+01
     -1.359 -0.3398E-11 -0.4237E-11  0.1000E+01  0.1000E+01
     -1.253  0.0000E+00  0.0000E+00  0.1000E+01  0.1000E+01
     -1.147  0.0000E+00  0.0000E+00  0.1000E+01  0.1000E+01
     -1.041  0.0000E+00  0.0000E+00  0.1000E+01  0.1000E+01
     -0.935  0.0000E+00  0.0000E+00  0.1000E+01  0.1000E+01
     -0.829  0.0000E+00  0.0000E+00  0.1000E+01  0.1000E+01
     -0.723  0.0000E+00  0.0000E+00  0.1000E+01  0.1000E+01
     -0.617  0.0000E+00  0.0000E+00  0.1000E+01  0.1000E+01
     -0.512  0.0000E+00  0.0000E+00  0.1000E+01  0.1000E+01
     -0.406  0.0000E+00  0.0000E+00  0.1000E+01  0.1000E+01
     -0.300 -0.1396E-43 -0.1136E-43  0.1000E+01  0.1000E+01
     -0.194 -0.3016E-27 -0.2566E-27  0.1000E+01  0.1000E+01
     -0.088 -0.7365E-15 -0.6584E-15  0.1000E+01  0.1000E+01
      0.018 -0.1936E-06 -0.1802E-06  0.1000E+01  0.1000E+01
      0.124 -0.2985E-02 -0.2933E-02  0.9997E+00  0.9997E+00
      0.230  0.1050E+00  0.1044E+00  0.1011E+01  0.1011E+01
      0.336  0.8682E-02  0.9199E-02  0.1012E+01  0.1012E+01
      0.442 -0.4986E-02 -0.4979E-02  0.1011E+01  0.1011E+01
      0.548  0.1517E+00  0.1513E+00  0.1027E+01  0.1027E+01
      0.654 -0.6368E-02 -0.6124E-02  0.1027E+01  0.1027E+01
      0.760  0.2329E+00  0.2328E+00  0.1051E+01  0.1051E+01
      0.866  0.1229E+00  0.1211E+00  0.1064E+01  0.1064E+01
      0.972  0.9100E-01  0.9304E-01  0.1074E+01  0.1074E+01
      1.078  0.1119E+00  0.1110E+00  0.1086E+01  0.1086E+01
      1.184  0.1082E+00  0.1092E+00  0.1097E+01  0.1097E+01
      1.290  0.2925E+00  0.2900E+00  0.1128E+01  0.1128E+01
      1.396  0.3796E+00  0.3796E+00  0.1168E+01  0.1168E+01
      1.501  0.3372E+00  0.3397E+00  0.1204E+01  0.1204E+01
      1.607 -0.5418E-03 -0.1663E-02  0.1204E+01  0.1204E+01
      1.713  0.3159E+00  0.3162E+00  0.1238E+01  0.1238E+01
      1.819  0.6696E+00  0.6674E+00  0.1309E+01  0.1308E+01
      1.925  0.4412E+00  0.4436E+00  0.1355E+01  0.1355E+01
      2.031  0.2777E+00  0.2768E+00  0.1385E+01  0.1385E+01
      2.137  0.2483E+00  0.2484E+00  0.1411E+01  0.1411E+01
      2.243  0.2562E+00  0.2547E+00  0.1438E+01  0.1438E+01
      2.349  0.4882E+00  0.4900E+00  0.1490E+01  0.1490E+01
      2.455  0.4076E+00  0.4036E+00  0.1533E+01  0.1533E+01
      2.561  0.5677E+00  0.5728E+00  0.1593E+01  0.1593E+01
      2.667  0.5315E+00  0.5288E+00  0.1650E+01  0.1649E+01
      2.773  0.9886E-01  0.1002E+00  0.1660E+01  0.1660E+01
      2.879  0.2278E+00  0.2270E+00  0.1684E+01  0.1684E+01
      2.985  0.5186E+00  0.5184E+00  0.1739E+01  0.1739E+01
      3.091  0.1889E+00  0.1906E+00  0.1759E+01  0.1759E+01
      3.197  0.2740E+00  0.2716E+00  0.1788E+01  0.1788E+01
      3.303  0.2206E+00  0.2212E+00  0.1811E+01  0.1811E+01
      3.409  0.3905E+00  0.3908E+00  0.1853E+01  0.1853E+01
      3.515  0.5676E+00  0.5646E+00  0.1913E+01  0.1912E+01
      3.620  0.8069E+00  0.8069E+00  0.1999E+01  0.1998E+01
      3.726  0.1102E+01  0.1100E+01  0.2115E+01  0.2115E+01
      3.832  0.1871E+01  0.1857E+01  0.2313E+01  0.2311E+01
      3.938  0.2480E+01  0.2491E+01  0.2576E+01  0.2575E+01
      4.044  0.1855E+01  0.1856E+01  0.2773E+01  0.2772E+01
      4.150  0.1895E+01  0.1893E+01  0.2974E+01  0.2973E+01
      4.256  0.9612E+00  0.9642E+00  0.3075E+01  0.3075E+01
      4.362  0.1139E+01  0.1143E+01  0.3196E+01  0.3196E+01
      4.468  0.7978E+00  0.7968E+00  0.3281E+01  0.3280E+01
      4.574  0.7501E+00  0.7500E+00  0.3360E+01  0.3360E+01
      4.680  0.7887E+00  0.7896E+00  0.3444E+01  0.3443E+01
      4.786  0.5675E+00  0.5681E+00  0.3504E+01  0.3503E+01
      4.892  0.4692E+00  0.4694E+00  0.3553E+01  0.3553E+01
      4.998  0.1536E+00  0.1561E+00  0.3570E+01  0.3570E+01
      5.104  0.2750E+00  0.2730E+00  0.3599E+01  0.3599E+01
      5.210  0.1100E+00  0.1105E+00  0.3611E+01  0.3610E+01
      5.316  0.3994E+00  0.4002E+00  0.3653E+01  0.3653E+01
      5.422  0.4505E+00  0.4476E+00  0.3701E+01  0.3700E+01
      5.528  0.4177E+00  0.4186E+00  0.3745E+01  0.3745E+01
      5.634  0.5109E+00  0.5122E+00  0.3799E+01  0.3799E+01
      5.739  0.8122E-01  0.7978E-01  0.3808E+01  0.3807E+01
      5.845  0.4873E+00  0.4881E+00  0.3859E+01  0.3859E+01
      5.951  0.1936E+00  0.1942E+00  0.3880E+01  0.3880E+01
      6.057  0.1428E+00  0.1441E+00  0.3895E+01  0.3895E+01
      6.163 -0.7133E-02 -0.7170E-02  0.3894E+01  0.3894E+01
      6.269  0.1547E+00  0.1530E+00  0.3910E+01  0.3910E+01
      6.375  0.1454E+00  0.1461E+00  0.3926E+01  0.3926E+01
      6.481  0.1895E+00  0.1882E+00  0.3946E+01  0.3946E+01
      6.587  0.6786E-01  0.7018E-01  0.3953E+01  0.3953E+01
      6.693  0.3827E-01  0.3591E-01  0.3957E+01  0.3957E+01
      6.799  0.2956E+00  0.2976E+00  0.3989E+01  0.3988E+01
      6.905  0.3279E+00  0.3267E+00  0.4023E+01  0.4023E+01
      7.011  0.5927E-01  0.5943E-01  0.4030E+01  0.4029E+01
      7.117  0.9117E-01  0.9188E-01  0.4039E+01  0.4039E+01
      7.223  0.2249E+00  0.2255E+00  0.4063E+01  0.4063E+01
      7.329  0.6885E-01  0.6866E-01  0.4070E+01  0.4070E+01
      7.435 -0.1828E-02 -0.1615E-02  0.4070E+01  0.4070E+01
      7.541  0.2001E+00  0.1960E+00  0.4091E+01  0.4091E+01
      7.647  0.5182E+00  0.5192E+00  0.4146E+01  0.4146E+01
      7.753  0.6856E+00  0.6856E+00  0.4219E+01  0.4219E+01
      7.858  0.1474E+00  0.1503E+00  0.4234E+01  0.4234E+01
      7.964  0.1611E+00  0.1606E+00  0.4252E+01  0.4251E+01
      8.070  0.3310E+00  0.3311E+00  0.4287E+01  0.4287E+01
      8.176  0.9897E-01  0.9917E-01  0.4297E+01  0.4297E+01
      8.282  0.3492E-01  0.3530E-01  0.4301E+01  0.4301E+01
      8.388 -0.6000E-03 -0.6002E-03  0.4301E+01  0.4301E+01
      8.494  0.3909E-01  0.3886E-01  0.4305E+01  0.4305E+01
      8.600  0.2392E+00  0.2374E+00  0.4330E+01  0.4330E+01
      8.706  0.1154E+01  0.1152E+01  0.4453E+01  0.4452E+01
      8.812  0.6384E+00  0.6420E+00  0.4520E+01  0.4520E+01
      8.918  0.2968E+00  0.2965E+00  0.4552E+01  0.4552E+01
      9.024  0.1666E+00  0.1672E+00  0.4569E+01  0.4569E+01
      9.130  0.1347E+00  0.1344E+00  0.4584E+01  0.4583E+01
      9.236  0.2401E+00  0.2401E+00  0.4609E+01  0.4609E+01
      9.342  0.1841E+00  0.1844E+00  0.4628E+01  0.4628E+01
      9.448  0.1204E+00  0.1201E+00  0.4641E+01  0.4641E+01
      9.554  0.1271E+00  0.1275E+00  0.4655E+01  0.4655E+01
      9.660  0.3296E+00  0.3285E+00  0.4690E+01  0.4689E+01
      9.766  0.2302E+00  0.2308E+00  0.4714E+01  0.4714E+01
      9.872  0.1067E+01  0.1065E+01  0.4827E+01  0.4827E+01
      9.977  0.9096E+00  0.9123E+00  0.4923E+01  0.4923E+01
     10.083  0.2611E+00  0.2613E+00  0.4951E+01  0.4951E+01
     10.189  0.1629E+00  0.1631E+00  0.4968E+01  0.4968E+01
     10.295  0.2137E+00  0.2133E+00  0.4991E+01  0.4991E+01
     10.401  0.3397E+00  0.3386E+00  0.5027E+01  0.5027E+01
     10.507  0.7775E+00  0.7780E+00  0.5109E+01  0.5109E+01
     10.613  0.1655E+00  0.1665E+00  0.5127E+01  0.5127E+01
     10.719  0.8121E+00  0.8106E+00  0.5213E+01  0.5213E+01
     10.825  0.5480E+00  0.5494E+00  0.5271E+01  0.5271E+01
     10.931  0.8258E-01  0.8218E-01  0.5280E+01  0.5280E+01
     11.037  0.5244E+00  0.5241E+00  0.5335E+01  0.5335E+01
     11.143  0.8144E+00  0.8142E+00  0.5422E+01  0.5421E+01
     11.249  0.9023E+00  0.9021E+00  0.5517E+01  0.5517E+01
     11.355  0.3784E+00  0.3793E+00  0.5557E+01  0.5557E+01
     11.461  0.4384E+00  0.4380E+00  0.5604E+01  0.5604E+01
     11.567  0.9833E+00  0.9848E+00  0.5708E+01  0.5708E+01
     11.673  0.1217E+01  0.1216E+01  0.5837E+01  0.5837E+01
     11.779  0.6358E+00  0.6361E+00  0.5904E+01  0.5904E+01
     11.885  0.5055E+00  0.5052E+00  0.5958E+01  0.5958E+01
     11.990  0.3418E+00  0.3414E+00  0.5994E+01  0.5994E+01
     12.096  0.9171E+00  0.9181E+00  0.6091E+01  0.6091E+01
     12.202  0.1247E+01  0.1246E+01  0.6223E+01  0.6223E+01
     12.308  0.9556E+00  0.9567E+00  0.6325E+01  0.6325E+01
     12.414  0.7049E+00  0.7046E+00  0.6399E+01  0.6399E+01
     12.520  0.9592E+00  0.9592E+00  0.6501E+01  0.6501E+01
     12.626  0.8963E+00  0.8971E+00  0.6596E+01  0.6596E+01
     12.732  0.8487E+00  0.8462E+00  0.6686E+01  0.6686E+01
     12.838  0.9418E+00  0.9435E+00  0.6786E+01  0.6786E+01
     12.944  0.6822E+00  0.6825E+00  0.6858E+01  0.6858E+01
     13.050  0.7816E+00  0.7835E+00  0.6941E+01  0.6941E+01
     13.156  0.1444E+01  0.1445E+01  0.7094E+01  0.7094E+01
     13.262  0.1488E+01  0.1484E+01  0.7251E+01  0.7251E+01
     13.368  0.3910E+00  0.3909E+00  0.7293E+01  0.7293E+01
     13.474  0.1516E+00  0.1534E+00  0.7309E+01  0.7309E+01
     13.580 -0.8210E-02 -0.9131E-02  0.7308E+01  0.7308E+01
     13.686  0.5029E+00  0.5028E+00  0.7361E+01  0.7361E+01
     13.792  0.2315E+00  0.2306E+00  0.7386E+01  0.7386E+01
     13.898  0.5017E+00  0.5031E+00  0.7439E+01  0.7439E+01
     14.004  0.1080E+00  0.1077E+00  0.7450E+01  0.7450E+01
     14.109  0.3027E+00  0.3016E+00  0.7482E+01  0.7482E+01
     14.215  0.3347E+00  0.3357E+00  0.7518E+01  0.7518E+01
     14.321  0.1288E+00  0.1268E+00  0.7531E+01  0.7531E+01
     14.427  0.3362E+00  0.3386E+00  0.7567E+01  0.7567E+01
     14.533  0.3474E+00  0.3461E+00  0.7604E+01  0.7604E+01
     14.639  0.3746E+00  0.3733E+00  0.7644E+01  0.7643E+01
     14.745  0.4166E-01  0.4482E-01  0.7648E+01  0.7648E+01
     14.851  0.1844E+00  0.1814E+00  0.7668E+01  0.7667E+01
     14.957  0.3782E+00  0.3809E+00  0.7708E+01  0.7708E+01
     15.063  0.3656E+00  0.3617E+00  0.7746E+01  0.7746E+01
     15.169  0.6483E+00  0.6480E+00  0.7815E+01  0.7815E+01
     15.275  0.2640E+00  0.2673E+00  0.7843E+01  0.7843E+01
     15.381  0.1685E+00  0.1688E+00  0.7861E+01  0.7861E+01
     15.487  0.1351E+00  0.1350E+00  0.7875E+01  0.7875E+01
     15.593  0.3874E+00  0.3858E+00  0.7916E+01  0.7916E+01
     15.699  0.4369E-01  0.4593E-01  0.7921E+01  0.7921E+01
     15.805  0.5533E+00  0.5490E+00  0.7979E+01  0.7979E+01
     15.911  0.5968E+00  0.5976E+00  0.8043E+01  0.8042E+01
     16.017  0.4806E+00  0.4819E+00  0.8094E+01  0.8093E+01
     16.123  0.3324E+00  0.3304E+00  0.8129E+01  0.8128E+01
     16.228  0.9286E+00  0.9281E+00  0.8227E+01  0.8227E+01
     16.334  0.5835E+00  0.5866E+00  0.8289E+01  0.8289E+01
     16.440  0.5481E+00  0.5458E+00  0.8347E+01  0.8347E+01
     16.546  0.3241E+00  0.3245E+00  0.8381E+01  0.8381E+01
     16.652  0.5807E+00  0.5770E+00  0.8443E+01  0.8442E+01
     16.758  0.5428E+00  0.5489E+00  0.8501E+01  0.8500E+01
     16.864  0.5794E+00  0.5761E+00  0.8562E+01  0.8561E+01
     16.970  0.5385E+00  0.5396E+00  0.8619E+01  0.8619E+01
     17.076  0.1092E+01  0.1092E+01  0.8735E+01  0.8734E+01
     17.182  0.1790E+00  0.1826E+00  0.8754E+01  0.8754E+01
     17.288  0.4931E+00  0.4901E+00  0.8806E+01  0.8806E+01
     17.394  0.2136E+00  0.2174E+00  0.8829E+01  0.8829E+01
     17.500  0.1298E+00  0.1226E+00  0.8842E+01  0.8842E+01
     17.606  0.4617E+00  0.4680E+00  0.8891E+01  0.8891E+01
     17.712  0.7076E+00  0.7018E+00  0.8966E+01  0.8965E+01
     17.818  0.4537E+00  0.4592E+00  0.9014E+01  0.9014E+01
     17.924  0.2150E+00  0.2121E+00  0.9037E+01  0.9037E+01
     18.030  0.3987E+00  0.4020E+00  0.9079E+01  0.9079E+01
     18.136  0.2875E+00  0.2857E+00  0.9110E+01  0.9109E+01
     18.242  0.1158E+00  0.1138E+00  0.9122E+01  0.9122E+01
     18.347  0.4118E+00  0.4141E+00  0.9166E+01  0.9165E+01
     18.453  0.1737E+00  0.1757E+00  0.9184E+01  0.9184E+01
     18.559 -0.2694E-02 -0.4052E-02  0.9184E+01  0.9184E+01
     18.665  0.4873E+00  0.4831E+00  0.9235E+01  0.9235E+01
     18.771  0.6579E+00  0.6576E+00  0.9305E+01  0.9304E+01
     18.877  0.5722E+00  0.5752E+00  0.9366E+01  0.9365E+01
     18.983  0.2420E+00  0.2448E+00  0.9391E+01  0.9391E+01
     19.089  0.3828E-01  0.3760E-01  0.9395E+01  0.9395E+01
     19.195  0.5681E+00  0.5583E+00  0.9456E+01  0.9454E+01
     19.301  0.8181E+00  0.8256E+00  0.9542E+01  0.9542E+01
     19.407  0.3606E+00  0.3606E+00  0.9580E+01  0.9580E+01
     19.513  0.4024E+00  0.4033E+00  0.9623E+01  0.9623E+01
     19.619  0.1759E+00  0.1768E+00  0.9642E+01  0.9642E+01
     19.725  0.2869E+00  0.2855E+00  0.9672E+01  0.9672E+01
     19.831  0.6002E+00  0.5975E+00  0.9736E+01  0.9735E+01
     19.937  0.6513E+00  0.6512E+00  0.9805E+01  0.9804E+01
     20.043  0.6408E+00  0.6476E+00  0.9873E+01  0.9873E+01
     20.149  0.3061E+00  0.3031E+00  0.9905E+01  0.9905E+01
     20.255  0.9160E-01  0.9065E-01  0.9915E+01  0.9914E+01
     20.360  0.1812E+00  0.1839E+00  0.9934E+01  0.9934E+01
     20.466  0.5121E-01  0.4974E-01  0.9939E+01  0.9939E+01
     20.572  0.5271E-01  0.5405E-01  0.9945E+01  0.9945E+01
     20.678  0.1663E+00  0.1671E+00  0.9963E+01  0.9963E+01
     20.784  0.3488E+00  0.3445E+00  0.1000E+02  0.9999E+01
     20.890  0.3270E+00  0.3283E+00  0.1003E+02  0.1003E+02
     20.996  0.4850E+00  0.4820E+00  0.1009E+02  0.1009E+02
     21.102  0.3312E+00  0.3358E+00  0.1012E+02  0.1012E+02
     21.208  0.3014E+00  0.2984E+00  0.1015E+02  0.1015E+02
     21.314  0.9742E+00  0.9768E+00  0.1026E+02  0.1026E+02
     21.420  0.5736E+01  0.5758E+01  0.1086E+02  0.1087E+02
     21.526  0.4367E+01  0.4382E+01  0.1133E+02  0.1133E+02
     21.632  0.2830E+00  0.2840E+00  0.1136E+02  0.1136E+02
     21.738  0.1113E+00  0.1128E+00  0.1137E+02  0.1137E+02
     21.844  0.5419E+00  0.5357E+00  0.1143E+02  0.1143E+02
     21.950  0.1038E+01  0.1034E+01  0.1154E+02  0.1154E+02
     22.056  0.9625E+00  0.9504E+00  0.1164E+02  0.1164E+02
     22.162  0.7387E+00  0.7163E+00  0.1172E+02  0.1171E+02
     22.268  0.4753E+00  0.4808E+00  0.1177E+02  0.1177E+02
     22.374  0.1199E+00  0.1228E+00  0.1178E+02  0.1178E+02
     22.479  0.1641E+00  0.1616E+00  0.1180E+02  0.1180E+02
     22.585  0.4884E+00  0.4892E+00  0.1185E+02  0.1185E+02
     22.691  0.3606E+00  0.3587E+00  0.1189E+02  0.1189E+02
     22.797  0.2737E+00  0.2750E+00  0.1191E+02  0.1191E+02
     22.903  0.5227E+00  0.5262E+00  0.1197E+02  0.1197E+02
     23.009  0.2859E+00  0.2828E+00  0.1200E+02  0.1200E+02
     23.115 -0.5957E-02 -0.5812E-02  0.1200E+02  0.1200E+02
     23.221 -0.6098E-06 -0.5353E-06  0.1200E+02  0.1200E+02
     23.327 -0.4715E-14 -0.3807E-14  0.1200E+02  0.1200E+02
     23.433  0.0000E+00  0.0000E+00  0.1200E+02  0.1200E+02
     23.539  0.0000E+00  0.0000E+00  0.1200E+02  0.1200E+02
     23.645  0.0000E+00  0.0000E+00  0.1200E+02  0.1200E+02
     23.751  0.0000E+00  0.0000E+00  0.1200E+02  0.1200E+02
     23.857  0.0000E+00  0.0000E+00  0.1200E+02  0.1200E+02
     23.963  0.0000E+00  0.0000E+00  0.1200E+02  0.1200E+02
     24.069  0.0000E+00  0.0000E+00  0.1200E+02  0.1200E+02
     24.175  0.0000E+00  0.0000E+00  0.1200E+02  0.1200E+02
     24.281  0.0000E+00  0.0000E+00  0.1200E+02  0.1200E+02
     24.387  0.0000E+00  0.0000E+00  0.1200E+02  0.1200E+02
     24.38657680     -7.39825725  301      8.75950307      1.00000000
     -7.398  0.0000E+00  0.0000E+00  0.0000E+00  0.0000E+00  0.0000E+00  0.0000E+00  0.0000E+00  0.0000E+00  0.0000E+00  0.0000E+00  0.0000E+00  0.0000E+00  0.0000E+00  0.0000E+00  0.0000E+00  0.0000E+00  0.0000E+00  0.0000E+00
     -7.292  0.0000E+00  0.0000E+00  0.0000E+00  0.0000E+00  0.0000E+00  0.0000E+00  0.0000E+00  0.0000E+00  0.0000E+00  0.0000E+00  0.0000E+00  0.0000E+00  0.0000E+00  0.0000E+00  0.0000E+00  0.0000E+00  0.0000E+00  0.0000E+00
     -7.186  0.0000E+00  0.0000E+00  0.0000E+00  0.0000E+00  0.0000E+00  0.0000E+00  0.0000E+00  0.0000E+00  0.0000E+00  0.0000E+00  0.0000E+00  0.0000E+00  0.0000E+00  0.0000E+00  0.0000E+00  0.0000E+00  0.0000E+00  0.0000E+00
     -7.080  0.0000E+00  0.0000E+00  0.0000E+00  0.0000E+00  0.0000E+00  0.0000E+00  0.0000E+00  0.0000E+00  0.0000E+00  0.0000E+00  0.0000E+00  0.0000E+00  0.0000E+00  0.0000E+00  0.0000E+00  0.0000E+00  0.0000E+00  0.0000E+00
     -6.974  0.0000E+00  0.0000E+00  0.0000E+00  0.0000E+00  0.0000E+00  0.0000E+00  0.0000E+00  0.0000E+00  0.0000E+00  0.0000E+00  0.0000E+00  0.0000E+00  0.0000E+00  0.0000E+00  0.0000E+00  0.0000E+00  0.0000E+00  0.0000E+00
     -6.869  0.0000E+00  0.0000E+00  0.0000E+00  0.0000E+00  0.0000E+00  0.0000E+00  0.0000E+00  0.0000E+00  0.0000E+00  0.0000E+00  0.0000E+00  0.0000E+00  0.0000E+00  0.0000E+00  0.0000E+00  0.0000E+00  0.0000E+00  0.0000E+00
     -6.763  0.0000E+00  0.0000E+00  0.0000E+00  0.0000E+00  0.0000E+00  0.0000E+00  0.0000E+00  0.0000E+00  0.0000E+00  0.0000E+00  0.0000E+00  0.0000E+00  0.0000E+00  0.0000E+00  0.0000E+00  0.0000E+00  0.0000E+00  0.0000E+00
     -6.657  0.0000E+00  0.0000E+00  0.0000E+00  0.0000E+00  0.0000E+00  0.0000E+00  0.0000E+00  0.0000E+00  0.0000E+00  0.0000E+00  0.0000E+00  0.0000E+00  0.0000E+00  0.0000E+00  0.0000E+00  0.0000E+00  0.0000E+00  0.0000E+00
     -6.551  0.0000E+00  0.0000E+00  0.0000E+00  0.0000E+00  0.0000E+00  0.0000E+00  0.0000E+00  0.0000E+00  0.0000E+00  0.0000E+00  0.0000E+00  0.0000E+00  0.0000E+00  0.0000E+00  0.0000E+00  0.0000E+00  0.0000E+00  0.0000E+00
     -6.445 -0.3926E-43 -0.2838E-43 -0.3156E-46 -0.2282E-46 -0.3156E-46 -0.2282E-46 -0.3156E-46 -0.2282E-46  0.0000E+00  0.0000E+00  0.0000E+00  0.0000E+00  0.0000E+00  0.0000E+00  0.0000E+00  0.0000E+00  0.0000E+00  0.0000E+00
     -6.339 -0.4173E-27 -0.3238E-27 -0.3355E-30 -0.2604E-30 -0.3355E-30 -0.2604E-30 -0.3355E-30 -0.2604E-30  0.0000E+00  0.0000E+00  0.0000E+00  0.0000E+00  0.0000E+00  0.0000E+00  0.0000E+00  0.0000E+00  0.0000E+00  0.0000E+00
     -6.233 -0.5000E-15 -0.4164E-15 -0.4020E-18 -0.3348E-18 -0.4020E-18 -0.3348E-18 -0.4020E-18 -0.3348E-18  0.0000E+00  0.0000E+00  0.0000E+00  0.0000E+00  0.0000E+00  0.0000E+00  0.0000E+00  0.0000E+00  0.0000E+00  0.0000E+00
     -6.127 -0.6330E-07 -0.5672E-07 -0.5090E-10 -0.4561E-10 -0.5090E-10 -0.4561E-10 -0.5090E-10 -0.4561E-10  0.0000E+00  0.0000E+00  0.0000E+00  0.0000E+00  0.0000E+00  0.0000E+00  0.0000E+00  0.0000E+00  0.0000E+00  0.0000E+00
     -6.021 -0.3922E-03 -0.3863E-03 -0.3153E-06 -0.3106E-06 -0.3153E-06 -0.3106E-06 -0.3153E-06 -0.3106E-06  0.0000E+00  0.0000E+00  0.0000E+00  0.0000E+00  0.0000E+00  0.0000E+00  0.0000E+00  0.0000E+00  0.0000E+00  0.0000E+00
     -5.915  0.1190E-01  0.1184E-01  0.9568E-05  0.9519E-05  0.9568E-05  0.9519E-05  0.9568E-05  0.9519E-05  0.0000E+00  0.0000E+00  0.0000E+00  0.0000E+00  0.0000E+00  0.0000E+00  0.0000E+00  0.0000E+00  0.0000E+00  0.0000E+00
     -5.809  0.1966E-03  0.2543E-03  0.1574E-06  0.2039E-06  0.1574E-06  0.2039E-06  0.7684E-07  0.1298E-06  0.0000E+00  0.0000E+00  0.0000E+00  0.0000E+00  0.0000E+00  0.0000E+00  0.0000E+00  0.0000E+00  0.0000E+00  0.0000E+00
     -5.703  0.2905E-02  0.2638E-02  0.2464E-05  0.2238E-05  0.2464E-05  0.2238E-05  0.1822E-04  0.1655E-04  0.0000E+00  0.0000E+00  0.0000E+00  0.0000E+00  0.0000E+00  0.0000E+00  0.0000E+00  0.0000E+00  0.0000E+00  0.0000E+00
     -5.597  0.3362E-01  0.3391E-01  0.2851E-04  0.2876E-04  0.2851E-04  0.2876E-04  0.2107E-03  0.2126E-03  0.0000E+00  0.0000E+00  0.0000E+00  0.0000E+00  0.0000E+00  0.0000E+00  0.0000E+00  0.0000E+00  0.0000E+00  0.0000E+00
     -5.491 -0.1370E-02 -0.1377E-02 -0.3602E-05 -0.3489E-05 -0.3602E-05 -0.3489E-05 -0.6322E-05 -0.6474E-05  0.0000E+00  0.0000E+00  0.0000E+00  0.0000E+00  0.0000E+00  0.0000E+00  0.0000E+00  0.0000E+00  0.0000E+00  0.0000E+00
     -5.385  0.2558E-01  0.2508E-01  0.1696E-03  0.1663E-03  0.1696E-03  0.1663E-03  0.2299E-04  0.2254E-04  0.0000E+00  0.0000E+00  0.0000E+00  0.0000E+00  0.0000E+00  0.0000E+00  0.0000E+00  0.0000E+00  0.0000E+00  0.0000E+00
     -5.279  0.1073E-01  0.1122E-01  0.7171E-04  0.7491E-04  0.7060E-04  0.7387E-04  0.9637E-05  0.1008E-04  0.0000E+00  0.0000E+00  0.0000E+00  0.0000E+00  0.0000E+00  0.0000E+00  0.0000E+00  0.0000E+00  0.0000E+00  0.0000E+00
     -5.173  0.1258E-01  0.1203E-01  0.9891E-05  0.9171E-05  0.1560E-03  0.1494E-03  0.1032E-04  0.9630E-05  0.0000E+00  0.0000E+00  0.0000E+00  0.0000E+00  0.0000E+00  0.0000E+00  0.0000E+00  0.0000E+00  0.0000E+00  0.0000E+00
     -5.067  0.3695E-01  0.3750E-01  0.1117E-03  0.1124E-03  0.3875E-03  0.3942E-03  0.1117E-03  0.1124E-03  0.0000E+00  0.0000E+00  0.0000E+00  0.0000E+00  0.0000E+00  0.0000E+00  0.0000E+00  0.0000E+00  0.0000E+00  0.0000E+00
     -4.961 -0.3315E-02 -0.3298E-02 -0.2149E-04 -0.2125E-04 -0.9880E-05 -0.1007E-04 -0.3639E-04 -0.3596E-04  0.0000E+00  0.0000E+00  0.0000E+00  0.0000E+00  0.0000E+00  0.0000E+00  0.0000E+00  0.0000E+00  0.0000E+00  0.0000E+00
     -4.855  0.7566E-01  0.7528E-01  0.5430E-03  0.5404E-03  0.7403E-04  0.7367E-04  0.9885E-03  0.9837E-03  0.0000E+00  0.0000E+00  0.0000E+00  0.0000E+00  0.0000E+00  0.0000E+00  0.0000E+00  0.0000E+00  0.0000E+00  0.0000E+00
     -4.750  0.6393E-03  0.9891E-03  0.4540E-05  0.7055E-05  0.3404E-07  0.4181E-06  0.8269E-05  0.1285E-04  0.0000E+00  0.0000E+00  0.0000E+00  0.0000E+00  0.0000E+00  0.0000E+00  0.0000E+00  0.0000E+00  0.0000E+00  0.0000E+00
     -4.644  0.1166E-01  0.1116E-01  0.9286E-04  0.8886E-04  0.8846E-04  0.8469E-04  0.1687E-03  0.1614E-03  0.0000E+00  0.0000E+00  0.0000E+00  0.0000E+00  0.0000E+00  0.0000E+00  0.0000E+00  0.0000E+00  0.0000E+00  0.0000E+00
     -4.538  0.5208E-01  0.5203E-01  0.2217E-03  0.2253E-03  0.5092E-03  0.5067E-03  0.3820E-03  0.3891E-03  0.0000E+00  0.0000E+00  0.0000E+00  0.0000E+00  0.0000E+00  0.0000E+00  0.0000E+00  0.0000E+00  0.0000E+00  0.0000E+00
     -4.432  0.1675E-01  0.1693E-01  0.7188E-04  0.6720E-04  0.2093E-03  0.2107E-03  0.1126E-04  0.1110E-04  0.0000E+00  0.0000E+00  0.0000E+00  0.0000E+00  0.0000E+00  0.0000E+00  0.0000E+00  0.0000E+00  0.0000E+00  0.0000E+00
     -4.326  0.3528E-01  0.3528E-01  0.4952E-03  0.4980E-03  0.4997E-03  0.5005E-03  0.3813E-04  0.3817E-04  0.0000E+00  0.0000E+00  0.0000E+00  0.0000E+00  0.0000E+00  0.0000E+00  0.0000E+00  0.0000E+00  0.0000E+00  0.0000E+00
     -4.220  0.7760E-01  0.7800E-01  0.5589E-03  0.5619E-03  0.9664E-03  0.9714E-03  0.6975E-04  0.7033E-04  0.0000E+00  0.0000E+00  0.0000E+00  0.0000E+00  0.0000E+00  0.0000E+00  0.0000E+00  0.0000E+00  0.0000E+00  0.0000E+00
     -4.114  0.3397E-01  0.3377E-01  0.5651E-03  0.5616E-03  0.5441E-03  0.5407E-03  0.3201E-03  0.3184E-03  0.0000E+00  0.0000E+00  0.0000E+00  0.0000E+00  0.0000E+00  0.0000E+00  0.0000E+00  0.0000E+00  0.0000E+00  0.0000E+00
     -4.008  0.7138E-01  0.7063E-01  0.3178E-03  0.3169E-03  0.6341E-03  0.6289E-03  0.3124E-03  0.3101E-03  0.0000E+00  0.0000E+00  0.0000E+00  0.0000E+00  0.0000E+00  0.0000E+00  0.0000E+00  0.0000E+00  0.0000E+00  0.0000E+00
     -3.902  0.1856E-01  0.1907E-01  0.4119E-04  0.4574E-04  0.1073E-03  0.1153E-03  0.4286E-04  0.4732E-04  0.0000E+00  0.0000E+00  0.0000E+00  0.0000E+00  0.0000E+00  0.0000E+00  0.0000E+00  0.0000E+00  0.0000E+00  0.0000E+00
     -3.796  0.1761E+00  0.1731E+00  0.1031E-02  0.1007E-02  0.1603E-03  0.1539E-03  0.8726E-03  0.8554E-03  0.0000E+00  0.0000E+00  0.0000E+00  0.0000E+00  0.0000E+00  0.0000E+00  0.0000E+00  0.0000E+00  0.0000E+00  0.0000E+00
     -3.690  0.1402E+00  0.1424E+00  0.9280E-03  0.9461E-03  0.4404E-03  0.4434E-03  0.4725E-03  0.4857E-03  0.0000E+00  0.0000E+00  0.0000E+00  0.0000E+00  0.0000E+00  0.0000E+00  0.0000E+00  0.0000E+00  0.0000E+00  0.0000E+00
     -3.584  0.1659E+00  0.1638E+00  0.8674E-03  0.8485E-03  0.2721E-03  0.2661E-03  0.4205E-03  0.4086E-03  0.0000E+00  0.0000E+00  0.0000E+00  0.0000E+00  0.0000E+00  0.0000E+00  0.0000E+00  0.0000E+00  0.0000E+00  0.0000E+00
     -3.478  0.2325E+00  0.2352E+00  0.1928E-02  0.1952E-02  0.9479E-03  0.9572E-03  0.1310E-02  0.1324E-02  0.0000E+00  0.0000E+00  0.0000E+00  0.0000E+00  0.0000E+00  0.0000E+00  0.0000E+00  0.0000E+00  0.0000E+00  0.0000E+00
     -3.372  0.5158E-01  0.5079E-01  0.1362E-03  0.1304E-03 -0.1910E-04 -0.2007E-04  0.1729E-03  0.1705E-03  0.0000E+00  0.0000E+00  0.0000E+00  0.0000E+00  0.0000E+00  0.0000E+00  0.0000E+00  0.0000E+00  0.0000E+00  0.0000E+00
     -3.266  0.2643E+00  0.2647E+00  0.1909E-02  0.1908E-02  0.5053E-03  0.5001E-03  0.4865E-03  0.4892E-03  0.0000E+00  0.0000E+00  0.0000E+00  0.0000E+00  0.0000E+00  0.0000E+00  0.0000E+00  0.0000E+00  0.0000E+00  0.0000E+00
     -3.160  0.1580E+00  0.1569E+00  0.1127E-02  0.1123E-02  0.5043E-03  0.5090E-03  0.7309E-04  0.7119E-04  0.0000E+00  0.0000E+00  0.0000E+00  0.0000E+00  0.0000E+00  0.0000E+00  0.0000E+00  0.0000E+00  0.0000E+00  0.0000E+00
     -3.054  0.3049E+00  0.3042E+00  0.2686E-02  0.2684E-02  0.1203E-02  0.1199E-02  0.1636E-02  0.1629E-02  0.0000E+00  0.0000E+00  0.0000E+00  0.0000E+00  0.0000E+00  0.0000E+00  0.0000E+00  0.0000E+00  0.0000E+00  0.0000E+00
     -2.948  0.2155E+00  0.2172E+00  0.1352E-02  0.1360E-02  0.7309E-03  0.7364E-03  0.9239E-03  0.9291E-03  0.0000E+00  0.0000E+00  0.0000E+00  0.0000E+00  0.0000E+00  0.0000E+00  0.0000E+00  0.0000E+00  0.0000E+00  0.0000E+00
     -2.842  0.2789E+00  0.2774E+00  0.9855E-03  0.9846E-03  0.2446E-03  0.2404E-03  0.6344E-03  0.6373E-03  0.0000E+00  0.0000E+00  0.0000E+00  0.0000E+00  0.0000E+00  0.0000E+00  0.0000E+00  0.0000E+00  0.0000E+00  0.0000E+00
     -2.736  0.2012E+00  0.2014E+00  0.1043E-02  0.1047E-02  0.3029E-03  0.3058E-03  0.2827E-03  0.2837E-03  0.0000E+00  0.0000E+00  0.0000E+00  0.0000E+00  0.0000E+00  0.0000E+00  0.0000E+00  0.0000E+00  0.0000E+00  0.0000E+00
     -2.631  0.2219E+00  0.2224E+00  0.8918E-03  0.8863E-03  0.4443E-03  0.4432E-03  0.8466E-03  0.8364E-03  0.0000E+00  0.0000E+00  0.0000E+00  0.0000E+00  0.0000E+00  0.0000E+00  0.0000E+00  0.0000E+00  0.0000E+00  0.0000E+00
     -2.525  0.3236E+00  0.3217E+00  0.2134E-02  0.2125E-02  0.1784E-02  0.1773E-02  0.1645E-02  0.1641E-02  0.0000E+00  0.0000E+00  0.0000E+00  0.0000E+00  0.0000E+00  0.0000E+00  0.0000E+00  0.0000E+00  0.0000E+00  0.0000E+00
     -2.419  0.1574E+00  0.1595E+00  0.4504E-03  0.4706E-03  0.3802E-03  0.3910E-03  0.4538E-03  0.4659E-03  0.0000E+00  0.0000E+00  0.0000E+00  0.0000E+00  0.0000E+00  0.0000E+00  0.0000E+00  0.0000E+00  0.0000E+00  0.0000E+00
     -2.313  0.6257E-01  0.6356E-01  0.1665E-04  0.1668E-04  0.1455E-03  0.1498E-03  0.1750E-03  0.1754E-03  0.0000E+00  0.0000E+00  0.0000E+00  0.0000E+00  0.0000E+00  0.0000E+00  0.0000E+00  0.0000E+00  0.0000E+00  0.0000E+00
     -2.207  0.3639E-01  0.3666E-01 -0.2010E-04 -0.2099E-04 -0.3415E-04 -0.3501E-04  0.2067E-03  0.2085E-03  0.0000E+00  0.0000E+00  0.0000E+00  0.0000E+00  0.0000E+00  0.0000E+00  0.0000E+00  0.0000E+00  0.0000E+00  0.0000E+00
     -2.101  0.2056E+00  0.2056E+00  0.1154E-02  0.1153E-02  0.1478E-02  0.1476E-02  0.8302E-03  0.8316E-03  0.0000E+00  0.0000E+00  0.0000E+00  0.0000E+00  0.0000E+00  0.0000E+00  0.0000E+00  0.0000E+00  0.0000E+00  0.0000E+00