    2    2    1    2
  0.1075727E+02  0.3121876E-09  0.3121876E-09  0.3121876E-09  0.5000000E-15
  1.000000000000000E-004
  CAR 
 unknown system                          
    9   60   12
 
  0.6250000E-01  0.6250000E-01  0.6250000E-01  0.3906250E-02
   1       -5.953492     -5.952663
   2        6.931564      6.931981
   3        7.286394      7.286840
   4        7.286394      7.286840
   5        8.059756      8.060228
   6        8.059756      8.060228
   7        8.816596      8.817329
   8       10.472915     10.473454
   9       10.472915     10.473454
  10       16.060986     16.061753
  11       19.294935     19.293840
  12       21.420076     21.420046
 
  0.1875000E+00  0.6250000E-01  0.6250000E-01  0.1171875E-01
   1       -5.397461     -5.396605
   2        5.352255      5.352875
   3        5.808606      5.809217
   4        5.976519      5.977011
   5        8.030459      8.030594
   6        8.994452      8.994662
   7        9.658942      9.659474
   8       11.634496     11.635101
   9       13.219726     13.220491
  10       17.039000     17.039792
  11       20.671103     20.670054
  12       21.419508     21.419480
 
  0.3125000E+00  0.6250000E-01  0.6250000E-01  0.1171875E-01
   1       -4.151875     -4.150958
   2        3.118997      3.119627
   3        4.326861      4.327423
   4        4.648190      4.648750
   5        9.230588      9.230657
   6        9.836726      9.836898
   7       10.652324     10.652443
   8       14.460868     14.461666
   9       16.246663     16.247635
  10       17.940034     17.940625
  11       21.412507     21.412524
  12       22.381265     22.380745
 
  0.4375000E+00  0.6250000E-01  0.6250000E-01  0.1171875E-01
   1       -2.556976     -2.555964
   2        1.117071      1.117692
   3        3.513137      3.513684
   4        3.695261      3.695833
   5       10.813018     10.812956
   6       11.012047     11.012036
   7       12.011201     12.011137
   8       16.159880     16.160101
   9       17.320998     17.321993
  10       18.723109     18.724328
  11       21.410448     21.410484
  12       22.701721     22.702768
 
 -0.4375000E+00  0.6250000E-01  0.6250000E-01  0.1171875E-01
   1       -1.712571     -1.711428
   2        0.199892      0.200410
   3        3.360920      3.361488
   4        3.403211      3.403763
   5       11.352928     11.352810
   6       11.790518     11.790339
   7       12.665779     12.665708
   8       14.909855     14.909997
   9       18.759863     18.761054
  10       19.142675     19.143923
  11       21.407805     21.407870
  12       21.704228     21.705220
 
 -0.3125000E+00  0.6250000E-01  0.6250000E-01  0.1171875E-01
   1       -3.110266     -3.109295
   2        1.747767      1.748396
   3        3.720616      3.721178
   4        3.990029      3.990600
   5        9.877507      9.877561
   6       11.089552     11.089487
   7       11.448239     11.448271
   8       16.508126     16.509084
   9       16.811202     16.811590
  10       18.123555     18.124555
  11       21.409149     21.409194
  12       22.793677     22.794091
 
 -0.1875000E+00  0.6250000E-01  0.6250000E-01  0.1171875E-01
   1       -4.632878     -4.631985
   2        3.772100      3.772710
   3        4.805449      4.805993
   4        5.208837      5.209438
   5        8.501213      8.501376
   6        9.672197      9.672290
   7       10.254551     10.254810
   8       13.625566     13.626312
   9       14.998798     14.999665
  10       17.958527     17.959267
  11       21.415537     21.415532
  12       22.024629     22.023758
 
 -0.6250000E-01  0.6250000E-01  0.6250000E-01  0.1171875E-01
   1       -5.673216     -5.672373
   2        5.879955      5.880593
   3        6.470540      6.471002
   4        6.718376      6.718937
   5        7.559803      7.560012
   6        8.923234      8.923554
   7        9.484281      9.484860
   8       10.709977     10.710533
   9       12.205021     12.205701
  10       16.646175     16.646968
  11       20.025560     20.024490
  12       21.419622     21.419593
 
  0.1875000E+00  0.1875000E+00  0.6250000E-01  0.1171875E-01
   1       -5.164163     -5.163293
   2        4.339513      4.340118
   3        5.946886      5.947299
   4        6.363704      6.364343
   5        7.165276      7.165568
   6        9.743147      9.743359
   7       10.529136     10.529579
   8       11.239015     11.239555
   9       13.623957     13.624694
  10       17.882988     17.883846
  11       21.323980     21.322941
  12       21.419462     21.419434
 
  0.3125000E+00  0.1875000E+00  0.6250000E-01  0.2343750E-01
   1       -4.286409     -4.285494
   2        3.005665      3.006249
   3        4.891931      4.892364
   4        5.380778      5.381423
   5        7.722312      7.722618
   6       10.676665     10.676762
   7       11.500360     11.500628
   8       12.690027     12.690552
   9       15.527271     15.528112
  10       19.227408     19.228267
  11       21.415674     21.415674
  12       22.909769     22.909033
 
  0.4375000E+00  0.1875000E+00  0.6250000E-01  0.2343750E-01
   1       -3.080572     -3.079594
   2        1.780887      1.781459
   3        3.856983      3.857547
   4        4.405505      4.406109
   5        8.874163      8.874355
   6       11.703790     11.703709
   7       12.410321     12.410263
   8       15.046053     15.046815
   9       16.837198     16.837806
  10       19.310703     19.311647
  11       21.394669     21.394835
  12       22.043032     22.043660
 
 -0.4375000E+00  0.1875000E+00  0.6250000E-01  0.2343750E-01
   1       -2.161231     -2.160177
   2        0.861283      0.861813
   3        3.609887      3.610515
   4        3.779688      3.780279
   5       10.456172     10.456188
   6       11.608447     11.608326
   7       12.579440     12.579326
   8       16.322390     16.322785
   9       17.642062     17.643021
  10       18.596301     18.597151
  11       21.397541     21.397697
  12       21.938587     21.939519
 
 -0.3125000E+00  0.1875000E+00  0.6250000E-01  0.2343750E-01
   1       -2.574986     -2.573964
   2        1.267798      1.268356
   3        3.664514      3.665099
   4        3.933802      3.934379
   5       10.073279     10.073343
   6       11.554535     11.554484
   7       12.312982     12.312926
   8       15.578905     15.579696
   9       17.092009     17.092400
  10       19.255464     19.256646
  11       21.406845     21.406912
  12       22.525713     22.526678
 
 -0.1875000E+00  0.1875000E+00  0.6250000E-01  0.2343750E-01
   1       -3.810369     -3.809426
   2        2.630852      2.631455
   3        4.263537      4.264112
   4        4.544747      4.545237
   5        8.777538      8.777691
   6       11.042764     11.042978
   7       11.607134     11.607260
   8       13.242858     13.243422
   9       17.014985     17.015896
  10       18.690208     18.690991
  11       21.412356     21.412379
  12       22.837404     22.837073
 
 -0.6250000E-01  0.1875000E+00  0.6250000E-01  0.2343750E-01
   1       -4.895520     -4.894638
   2        4.117932      4.118548
   3        5.262248      5.262761
   4        5.546977      5.547546
   5        7.980984      7.981179
   6        9.790874      9.791023
   7       10.435447     10.435859
   8       12.145673     12.146264
   9       14.610753     14.611589
  10       17.950925     17.951735
  11       21.418169     21.418151
  12       21.766747     21.765744
 
  0.3125000E+00  0.3125000E+00  0.6250000E-01  0.1171875E-01
   1       -4.031485     -4.030564
   2        2.632590      2.633182
   3        5.053650      5.053802
   4        6.277453      6.278246
   5        6.743834      6.744497
   6       10.925698     10.925896
   7       12.571687     12.571798
   8       12.773063     12.773262
   9       15.436439     15.437265
  10       20.647591     20.648624
  11       21.413463     21.413486
  12       22.818337     22.818624
 
  0.4375000E+00  0.3125000E+00  0.6250000E-01  0.2343750E-01
   1       -3.560839     -3.559921
   2        2.634629      2.635273
   3        4.325250      4.325533
   4        5.578857      5.579637
   5        7.541427      7.542031
   6       12.053430     12.053506
   7       13.019292     13.019193
   8       13.371868     13.372082
   9       16.670352     16.671252
  10       19.927215     19.927955
  11       20.971719     20.972388
  12       21.435799     21.435668
 
 -0.4375000E+00  0.3125000E+00  0.6250000E-01  0.2343750E-01
   1       -3.014045     -3.013114
   2        2.418367      2.418942
   3        3.872192      3.872817
   4        4.721282      4.721963
   5        8.647797      8.648142
   6       12.144964     12.144800
   7       12.921933     12.921735
   8       15.183651     15.184345
   9       16.678638     16.679403
  10       19.455391     19.455935
  11       20.986099     20.986932
  12       21.442036     21.441893
 
 -0.3125000E+00  0.3125000E+00  0.6250000E-01  0.2343750E-01
   1       -2.604131     -2.603146
   2        1.772303      1.772864
   3        3.824746      3.825362
   4        4.102484      4.103115
   5       10.381067     10.381139
   6       10.975275     10.975259
   7       12.701493     12.701554
   8       14.891178     14.891791
   9       17.695437     17.696368
  10       19.950847     19.951215
  11       21.402491     21.402592
  12       21.954881     21.955126
 
 -0.1875000E+00  0.3125000E+00  0.6250000E-01  0.2343750E-01
   1       -2.813796     -2.812790
   2        1.639785      1.640350
   3        3.844882      3.845467
   4        4.001159      4.001691
   5        9.819836      9.819920
   6       11.876186     11.876231
   7       12.237860     12.237917
   8       14.039499     14.040122
   9       17.752798     17.753389
  10       19.375624     19.376753
  11       21.407437     21.407501
  12       22.538625     22.538447
 
 -0.6250000E-01  0.3125000E+00  0.6250000E-01  0.2343750E-01
   1       -3.563812     -3.562861
   2        2.293701      2.294308
   3        3.986024      3.986580
   4        4.418800      4.419372
   5        9.125502      9.125629
   6       10.747911     10.747975
   7       11.576224     11.576249
   8       14.830053     14.830838
   9       17.019075     17.019868
  10       18.367133     18.367872
  11       21.409767     21.409810
  12       22.650995     22.651132
 
  0.4375000E+00  0.4375000E+00  0.6250000E-01  0.1171875E-01
   1       -3.814032     -3.813165
   2        3.506004      3.506793
   3        4.346051      4.346080
   4        6.708665      6.709633
   5        7.031696      7.032652
   6       11.757335     11.757557
   7       13.224944     13.224680
   8       13.237663     13.237436
   9       16.938831     16.939885
  10       17.727850     17.728247
  11       21.416532     21.416614
  12       21.475681     21.475979
 
 -0.4375000E+00  0.4375000E+00  0.6250000E-01  0.2343750E-01
   1       -3.670483     -3.669623
   2        3.910654      3.911063
   3        4.087459      4.088094
   4        5.807497      5.808355
   5        7.716843      7.717670
   6       12.776425     12.776301
   7       12.990096     12.990327
   8       13.193532     13.193230
   9       16.237756     16.238261
  10       18.269655     18.270683
  11       21.239673     21.239909
  12       21.427566     21.427486
 
 -0.3125000E+00  0.4375000E+00  0.6250000E-01  0.2343750E-01
   1       -3.128791     -3.127883
   2        2.885663      2.886194
   3        3.929002      3.929717
   4        4.821874      4.822566
   5        8.583005      8.583371
   6       12.052347     12.052210
   7       13.058392     13.058237
   8       15.146733     15.147325
   9       15.811614     15.812298
  10       19.969193     19.970140
  11       21.310961     21.311229
  12       21.442828     21.442702
 
 -0.1875000E+00  0.4375000E+00  0.6250000E-01  0.2343750E-01
   1       -2.416228     -2.415218
   2        1.364613      1.365157
   3        3.756654      3.757293
   4        3.976535      3.977151
   5       10.410071     10.410132
   6       11.185291     11.185246
   7       12.515353     12.515271
   8       16.161592     16.162353
   9       17.517674     17.518525
  10       18.809425     18.809767
  11       21.399451     21.399589
  12       22.044877     22.045843
 
 -0.6250000E-01  0.4375000E+00  0.6250000E-01  0.2343750E-01
   1       -2.148877     -2.147814
   2        0.708370      0.708927
   3        3.475199      3.475775
   4        3.658070      3.658651
   5       10.626009     10.625987
   6       11.701148     11.700994
   7       12.462411     12.462340
   8       15.828167     15.828391
   9       17.507814     17.508816
  10       19.192795     19.194020
  11       21.406906     21.406971
  12       22.172507     22.173501
 
 -0.4375000E+00 -0.4375000E+00  0.6250000E-01  0.1171875E-01
   1       -3.881956     -3.881112
   2        4.123432      4.124149
   3        4.193607      4.193792
   4        6.879082      6.880111
   5        7.155875      7.156904
   6       11.975519     11.975769
   7       13.132488     13.132128
   8       13.186273     13.185921
   9       16.318630     16.318968
  10       17.533826     17.534952
  11       21.235326     21.235601
  12       21.426319     21.426246
 
 -0.3125000E+00 -0.4375000E+00  0.6250000E-01  0.2343750E-01
   1       -3.592005     -3.591123
   2        3.314456      3.315178
   3        4.135091      4.135342
   4        5.749226      5.750067
   5        7.635109      7.635853
   6       12.501152     12.501188
   7       13.089881     13.089797
   8       13.293820     13.293792
   9       17.020726     17.021616
  10       18.255513     18.256123
  11       21.244685     21.245196
  12       21.431673     21.431576
 
 -0.1875000E+00 -0.4375000E+00  0.6250000E-01  0.2343750E-01
   1       -2.918843     -2.917877
   2        1.882710      1.883280
   3        3.838905      3.839486
   4        4.540867      4.541513
   5        8.724274      8.724549
   6       12.194148     12.193955
   7       12.792398     12.792270
   8       15.125364     15.126099
   9       16.946605     16.947281
  10       19.733005     19.733809
  11       20.794834     20.795758
  12       21.446770     21.446597
 
 -0.3125000E+00 -0.3125000E+00  0.6250000E-01  0.1171875E-01
   1       -3.800569     -3.799666
   2        2.820718      2.821389
   3        4.647922      4.647990
   4        6.468146      6.469026
   5        6.848216      6.849046
   6       11.387996     11.388203
   7       13.105761     13.105665
   8       13.193156     13.193126
   9       16.215976     16.216890
  10       19.849351     19.850054
  11       21.418162     21.418231
  12       21.544630     21.544985
 
 -0.1875000E+00 -0.3125000E+00  0.6250000E-01  0.2343750E-01
   1       -3.777181     -3.776245
   2        2.460987      2.461571
   3        4.583139      4.583492
   4        5.416815      5.417529
   5        7.551411      7.551857
   6       11.444587     11.444670
   7       12.462061     12.462157
   8       13.185186     13.185564
   9       16.113244     16.114085
  10       20.274272     20.275165
  11       21.400580     21.400695
  12       22.201712     22.202187
 
 -0.1875000E+00 -0.1875000E+00  0.6250000E-01  0.1171875E-01
   1       -4.548202     -4.547299
   2        3.175079      3.175656
   3        5.498999      5.499288
   4        6.224904      6.225618
   5        6.841659      6.842124
   6       10.393475     10.393663
   7       11.637806     11.638100
   8       12.022944     12.023352
   9       14.622265     14.623042
  10       19.444237     19.445175
  11       21.418028     21.418012
  12       22.941812     22.940824
 
  0.1875000E+00  0.1875000E+00  0.1875000E+00  0.3906250E-02
   1       -5.126854     -5.125985
   2        4.739741      4.740331
   3        5.496840      5.497433
   4        5.496840      5.497433
   5        8.707605      8.707740
   6        8.707605      8.707740
   7        9.605357      9.605732
   8       13.362970     13.363732
   9       13.362970     13.363732
  10       17.313278     17.314053
  11       21.196660     21.195666
  12       21.420375     21.420334
 
  0.3125000E+00  0.1875000E+00  0.1875000E+00  0.1171875E-01
   1       -4.405436     -4.404528
   2        3.537609      3.538254
   3        4.517531      4.518102
   4        4.892917      4.893385
   5        8.667741      8.667826
   6       10.261199     10.261489
   7       10.780049     10.780298
   8       12.735282     12.735873
   9       16.162294     16.163266
  10       18.098876     18.099588
  11       21.416181     21.416179
  12       22.406152     22.405288
 
  0.4375000E+00  0.1875000E+00  0.1875000E+00  0.1171875E-01
   1       -3.241785     -3.240805
   2        2.030826      2.031424
   3        3.850785      3.851349
   4        4.176393      4.176894
   5        9.582857      9.582872
   6       11.289898     11.290233
   7       12.087101     12.087072
   8       13.692636     13.693227
   9       17.818003     17.818543
  10       18.612178     18.613383
  11       21.411031     21.411065
  12       22.757669     22.757312
 
 -0.4375000E+00  0.1875000E+00  0.1875000E+00  0.1171875E-01
   1       -2.292235     -2.291187
   2        1.040704      1.041238
   3        3.706632      3.707210
   4        3.768870      3.769485
   5       11.030241     11.030136
   6       11.178038     11.178005
   7       12.033529     12.033609
   8       15.915445     15.916217
   9       17.681159     17.681417
  10       18.863200     18.864356
  11       21.408309     21.408366
  12       22.282101     22.282907
 
 -0.3125000E+00  0.1875000E+00  0.1875000E+00  0.1171875E-01
   1       -2.524724     -2.523721
   2        1.324042      1.324594
   3        3.676174      3.676807
   4        4.144483      4.145095
   5        9.399321      9.399457
   6       12.095745     12.095530
   7       12.731151     12.731027
   8       16.527420     16.527916
   9       16.575451     16.576352
  10       19.186395     19.187238
  11       21.160099     21.161162
  12       21.476625     21.476454
 
 -0.1875000E+00  0.1875000E+00  0.1875000E+00  0.1171875E-01
   1       -3.527911     -3.526962
   2        2.219838      2.220410
   3        4.198891      4.199381
   4        5.104041      5.104708
   5        7.905644      7.905958
   6       11.589127     11.589076
   7       12.380423     12.380433
   8       14.166631     14.167256
   9       16.414380     16.415177
  10       19.782623     19.783387
  11       21.389042     21.389253
  12       21.930824     21.931286
 
  0.3125000E+00  0.3125000E+00  0.1875000E+00  0.1171875E-01
   1       -4.030837     -4.029910
   2        2.762141      2.762730
   3        4.420391      4.420903
   4        5.073551      5.074180
   5        8.165086      8.165308
   6       10.686818     10.686844
   7       11.348377     11.348529
   8       13.938545     13.939247
   9       15.966856     15.967709
  10       18.929192     18.929930
  11       21.412238     21.412260
  12       22.649915     22.649683
 
  0.4375000E+00  0.3125000E+00  0.1875000E+00  0.2343750E-01
   1       -3.323214     -3.322248
   2        2.109802      2.110384
   3        4.155591      4.156087
   4        4.463926      4.464523
   5        8.673105      8.673380
   6       11.870484     11.870505
   7       12.382830     12.382884
   8       13.626143     13.626672
   9       17.053271     17.054054
  10       19.654998     19.655936
  11       21.398326     21.398461
  12       22.151988     22.152692
 
 -0.4375000E+00  0.3125000E+00  0.1875000E+00  0.2343750E-01
   1       -2.739371     -2.738387
   2        1.849548      1.850124
   3        3.861290      3.861836
   4        4.107311      4.107943
   5        9.845004      9.845217
   6       11.568352     11.568299
   7       12.739666     12.739658
   8       14.344402     14.344999
   9       17.689074     17.689884
  10       19.853957     19.854562
  11       21.390549     21.390767
  12       21.933436     21.934233
 
 -0.3125000E+00  0.3125000E+00  0.1875000E+00  0.2343750E-01
   1       -2.705957     -2.704993
   2        1.984198      1.984764
   3        3.806682      3.807317
   4        4.234645      4.235289
   5        9.896436      9.896635
   6       11.160156     11.160185
   7       12.883454     12.883231
   8       15.914207     15.914914
   9       16.418592     16.419391
  10       19.840272     19.840523
  11       21.386413     21.386677
  12       21.832512     21.833320
 
 -0.1875000E+00  0.3125000E+00  0.1875000E+00  0.2343750E-01
   1       -3.149092     -3.148143
   2        2.268159      2.268765
   3        4.024571      4.025018
   4        4.614052      4.614738
   5        8.630141      8.630550
   6       12.278300     12.278163
   7       12.861042     12.860994
   8       13.771357     13.771876
   9       17.224153     17.224967
  10       20.099367     20.100180
  11       20.868768     20.869653
  12       21.446958     21.446783
 
  0.4375000E+00  0.4375000E+00  0.1875000E+00  0.1171875E-01
   1       -3.324925     -3.323991
   2        2.353121      2.353723
   3        4.064703      4.065171
   4        5.262337      5.263050
   5        7.783395      7.783823
   6       12.248783     12.248638
   7       12.942769     12.942628
   8       14.194280     14.194844
   9       16.794662     16.795489
  10       19.998429     19.999228
  11       20.466874     20.467552
  12       21.435138     21.435013
 
 -0.4375000E+00  0.4375000E+00  0.1875000E+00  0.2343750E-01
   1       -3.225473     -3.224561
   2        2.932532      2.933186
   3        3.935409      3.935846
   4        4.744438      4.745173
   5        8.672717      8.673252
   6       12.200347     12.200236
   7       13.098671     13.098457
   8       13.849358     13.849831
   9       16.873101     16.873896
  10       19.532078     19.532799
  11       21.234925     21.235566
  12       21.445249     21.445119
 
 -0.3125000E+00  0.4375000E+00  0.1875000E+00  0.2343750E-01
   1       -3.044759     -3.043840
   2        3.204648      3.205261
   3        3.847274      3.847866
   4        4.133046      4.133691
   5        9.926280      9.926696
   6       11.141031     11.141238
   7       13.172098     13.171746
   8       14.329917     14.330302
   9       15.744693     15.745469
  10       21.334781     21.335494
  11       21.571398     21.571617
  12       22.058893     22.059161
 
 -0.1875000E+00  0.4375000E+00  0.1875000E+00  0.2343750E-01
   1       -2.900961     -2.900019
   2        2.511266      2.511868
   3        3.836401      3.836946
   4        4.263262      4.263944
   5        9.883096      9.883430
   6       11.150684     11.150752
   7       13.077761     13.077534
   8       14.526965     14.527492
   9       16.608769     16.609579
  10       20.741141     20.741502
  11       21.394444     21.394646
  12       21.819319     21.820092
 
 -0.4375000E+00 -0.4375000E+00  0.1875000E+00  0.1171875E-01
   1       -3.462677     -3.461801
   2        3.435909      3.436348
   3        4.037177      4.037925
   4        5.617911      5.618703
   5        7.666805      7.667350
   6       12.609022     12.608718
   7       13.116414     13.116233
   8       14.108744     14.109306
   9       16.049605     16.050152
  10       18.819239     18.820242
  11       21.177816     21.178029
  12       21.428492     21.428406
 
 -0.3125000E+00 -0.4375000E+00  0.1875000E+00  0.2343750E-01
   1       -3.328850     -3.327961
   2        3.589010      3.589542
   3        3.947458      3.948086
   4        4.659406      4.660123
   5        8.726218      8.726834
   6       12.164295     12.164264
   7       13.169662     13.169322
   8       13.832110     13.832538
   9       15.998095     15.998754
  10       19.796752     19.797776
  11       21.420692     21.420682
  12       21.489191     21.489296
 
 -0.3125000E+00 -0.3125000E+00  0.1875000E+00  0.1171875E-01
   1       -3.373594     -3.372695
   2        2.948431      2.949035
   3        3.998954      3.999473
   4        5.469669      5.470429
   5        7.732592      7.733118
   6       12.568552     12.568300
   7       13.042535     13.042326
   8       14.121202     14.121765
   9       16.889345     16.890153
  10       18.692742     18.693418
  11       20.959110     20.959674
  12       21.430908     21.430809
 
  0.3125000E+00  0.3125000E+00  0.3125000E+00  0.3906250E-02
   1       -3.685184     -3.684247
   2        2.482202      2.482852
   3        4.109839      4.110401
   4        4.109839      4.110401
   5       10.128058     10.128077
   6       10.128058     10.128077
   7       10.528008     10.528149
   8       16.385231     16.386201
   9       16.385231     16.386201
  10       17.561339     17.561739
  11       21.409688     21.409726
  12       22.534285     22.534174
 
  0.4375000E+00  0.3125000E+00  0.3125000E+00  0.1171875E-01
   1       -3.000527     -2.999538
   2        1.671508      1.672110
   3        3.700594      3.701149
   4        4.039653      4.040212
   5       10.061919     10.061911
   6       10.758593     10.758733
   7       12.132854     12.132782
   8       15.289467     15.290265
   9       17.250687     17.251066
  10       18.656202     18.657413
  11       21.410276     21.410316
  12       22.898725     22.898916
 
 -0.4375000E+00  0.3125000E+00  0.3125000E+00  0.1171875E-01
   1       -2.517821     -2.516797
   2        1.427088      1.427639
   3        3.843802      3.844393
   4        3.854687      3.855262
   5       10.660080     10.659999
   6       11.301450     11.301416
   7       12.229077     12.229344
   8       14.482870     14.483503
   9       18.674005     18.674391
  10       18.911182     18.912337
  11       21.408610     21.408654
  12       22.082478     22.082420
 
 -0.3125000E+00  0.3125000E+00  0.3125000E+00  0.1171875E-01
   1       -2.815670     -2.814725
   2        2.201053      2.201615
   3        3.860875      3.861557
   4        4.469905      4.470564
   5        9.221217      9.221407
   6       11.738642     11.738445
   7       12.830111     12.830178
   8       15.360469     15.361081
   9       16.768591     16.769432
  10       20.147585     20.148191
  11       21.358187     21.358588
  12       21.499808     21.499806
 
  0.4375000E+00  0.4375000E+00  0.3125000E+00  0.1171875E-01
   1       -2.642649     -2.641641
   2        1.255203      1.255783
   3        3.610352      3.610938
   4        4.007986      4.008574
   5        9.581822      9.581907
   6       11.826966     11.826804
   7       12.433271     12.433204
   8       16.305560     16.305913
   9       16.550171     16.551104
  10       19.144424     19.145536
  11       21.398023     21.398162
  12       22.088208     22.088932
 
 -0.4375000E+00  0.4375000E+00  0.3125000E+00  0.2343750E-01
   1       -2.519229     -2.518222
   2        1.430162      1.430716
   3        3.742033      3.742650
   4        4.042136      4.042742
   5        9.954027      9.954163
   6       11.559484     11.559401
   7       12.599284     12.599171
   8       15.775171     15.775948
   9       17.279124     17.279734
  10       19.203523     19.204201
  11       21.390337     21.390556
  12       21.917787     21.918595
 
 -0.3125000E+00  0.4375000E+00  0.3125000E+00  0.2343750E-01
   1       -2.863061     -2.862120
   2        2.472882      2.473462
   3        3.843738      3.844373
   4        4.304540      4.305189
   5        9.853479      9.853702
   6       11.083226     11.083342
   7       13.052642     13.052444
   8       15.066101     15.066621
   9       16.180800     16.181625
  10       21.057096     21.057565
  11       21.405860     21.405940
  12       21.895052     21.895724
 
 -0.4375000E+00 -0.4375000E+00  0.3125000E+00  0.1171875E-01
   1       -2.672786     -2.671818
   2        1.793569      1.794130
   3        3.792410      3.793073
   4        4.332456      4.333095
   5        9.301565      9.301746
   6       11.949961     11.949751
   7       12.637721     12.637664
   8       16.423415     16.424158
   9       16.674356     16.675219
  10       19.089303     19.089620
  11       21.247491     21.248513
  12       21.489195     21.489114
 
  0.4375000E+00  0.4375000E+00  0.4375000E+00  0.3906250E-02
   1       -2.024209     -2.023142
   2        0.516380      0.516986
   3        3.397080      3.397626
   4        3.397080      3.397626
   5       11.509504     11.509366
   6       11.509504     11.509366
   7       12.137923     12.137915
   8       15.235367     15.235481
   9       18.765412     18.766627
  10       18.765412     18.766627
  11       22.062466     21.411851
  12       22.063178     22.064217
 
 -0.4375000E+00  0.4375000E+00  0.4375000E+00  0.1171875E-01
   1       -1.924425     -1.923323
   2        0.501613      0.502131
   3        3.525860      3.526423
   4        3.550832      3.551437
   5       11.159375     11.159286
   6       11.535438     11.535287
   7       12.361496     12.361482
   8       15.861895     15.862104
   9       18.064037     18.065000
  10       18.792802     18.793968
  11       21.407298     21.407368
  12       21.999345     22.000393
