       N       E                     dE             d eps       ncg     rms          rms(c)
DAV:   1     0.104717768092E+02    0.10472E+02   -0.39892E+03  2912   0.598E+02
DAV:   2    -0.181496047747E+02   -0.28621E+02   -0.27439E+02  3892   0.118E+02
DAV:   3    -0.189651842059E+02   -0.81558E+00   -0.81226E+00  3488   0.179E+01
DAV:   4    -0.189675870216E+02   -0.24028E-02   -0.24026E-02  3232   0.114E+00
DAV:   5    -0.189675949944E+02   -0.79729E-05   -0.79718E-05  3560   0.564E-02    0.190E+01
DAV:   6    -0.220513129634E+02   -0.30837E+01   -0.15839E+01  3208   0.197E+01    0.441E+00
DAV:   7    -0.222784391960E+02   -0.22713E+00   -0.56375E-01  3472   0.548E+00    0.155E+00
DAV:   8    -0.222224514149E+02    0.55988E-01   -0.62568E-02  3192   0.167E+00    0.846E-01
DAV:   9    -0.222125830362E+02    0.98684E-02   -0.23066E-02  3364   0.110E+00    0.257E-01
DAV:  10    -0.222104408389E+02    0.21422E-02   -0.11215E-03  3204   0.285E-01    0.545E-02
DAV:  11    -0.222102966319E+02    0.14421E-03   -0.12135E-04  2540   0.799E-02    0.295E-02
DAV:  12    -0.222102719917E+02    0.24640E-04   -0.33889E-05  1564   0.422E-02
   1 F= -.22210272E+02 E0= -.22210293E+02  d E =0.634229E-04  mag=     0.0002
