 vasp.5.2.12 11Nov11 complex                                                    
  
 executed on             LinuxIFC date 2012.10.17  12:38:11
 running on    1 nodes
 distr:  one band on    1 nodes,    1 groups


--------------------------------------------------------------------------------------------------------


 INCAR:
 POTCAR:   PAW_PBE C 08Apr2002                    
 POTCAR:    PAW_PBE Ta 17Jan2003                  
 POTCAR:   PAW_PBE C 08Apr2002                    
   VRHFIN =C: s2p2                                                              
   LEXCH  = PE                                                                  
   EATOM  =   147.1560 eV,   10.8157 Ry                                         
                                                                                
   TITEL  = PAW_PBE C 08Apr2002                                                 
   LULTRA =        F    use ultrasoft PP ?                                      
   IUNSCR =        0    unscreen: 0-lin 1-nonlin 2-no                           
   RPACOR =     .000    partial core radius                                     
   POMASS =   12.011; ZVAL   =    4.000    mass and valenz                      
   RCORE  =    1.500    outmost cutoff radius                                   
   RWIGS  =    1.630; RWIGS  =     .863    wigner-seitz radius (au A)           
   ENMAX  =  400.000; ENMIN  =  300.000 eV                                      
   ICORE  =        2    local potential                                         
   LCOR   =        T    correct aug charges                                     
   LPAW   =        T    paw PP                                                  
   EAUG   =  644.873                                                            
   DEXC   =     .000                                                            
   RMAX   =    2.266    core radius for proj-oper                               
   RAUG   =    1.300    factor for augmentation sphere                          
   RDEP   =    1.501    radius for radial grids                                 
   RDEPT  =    1.300    core radius for aug-charge                              
   QCUT   =   -5.516; QGAM   =   11.032    optimization parameters              
                                                                                
   Description                                                                  
     l     E      TYP  RCUT    TYP  RCUT                                        
     0   .000     23  1.200                                                     
     0   .000     23  1.200                                                     
     1   .000     23  1.500                                                     
     1  2.500     23  1.500                                                     
     2   .000      7  1.500                                                     
  local pseudopotential read in
  atomic valenz-charges read in
  non local Contribution for L=           0  read in
    real space projection operators read in
  non local Contribution for L=           0  read in
    real space projection operators read in
  non local Contribution for L=           1  read in
    real space projection operators read in
  non local Contribution for L=           1  read in
    real space projection operators read in
    PAW grid and wavefunctions read in
 
   number of l-projection  operators is LMAX  =           4
   number of lm-projection operators is LMMAX =           8
 
 POTCAR:    PAW_PBE Ta 17Jan2003                  
   VRHFIN =Ta:  6s5d                                                            
   LEXCH  = PE                                                                  
   EATOM  =   130.6506 eV,    9.6025 Ry                                         
                                                                                
   TITEL  = PAW_PBE Ta 17Jan2003                                                
   LULTRA =        F    use ultrasoft PP ?                                      
   IUNSCR =        1    unscreen: 0-lin 1-nonlin 2-no                           
   RPACOR =    2.330    partial core radius                                     
   POMASS =  180.948; ZVAL   =    5.000    mass and valenz                      
   RCORE  =    2.900    outmost cutoff radius                                   
   RWIGS  =    2.840; RWIGS  =    1.503    wigner-seitz radius (au A)           
   ENMAX  =  223.667; ENMIN  =  167.750 eV                                      
   RCLOC  =    2.205    cutoff for local pot                                    
   LCOR   =        T    correct aug charges                                     
   LPAW   =        T    paw PP                                                  
   EAUG   =  332.075                                                            
   DEXC   =    -.049                                                            
   RMAX   =    3.083    core radius for proj-oper                               
   RAUG   =    1.300    factor for augmentation sphere                          
   RDEP   =    3.060    radius for radial grids                                 
   QCUT   =   -4.055; QGAM   =    8.109    optimization parameters              
                                                                                
   Description                                                                  
     l     E      TYP  RCUT    TYP  RCUT                                        
     2   .000     23  2.500                                                     
     2   .000     23  2.500                                                     
     0   .000     23  2.500                                                     
     0   .000     23  2.500                                                     
     1   .000     23  2.900                                                     
     1  2.000     23  2.900                                                     
     3   .000      7   .000                                                     
  local pseudopotential read in
  partial core-charges read in
  atomic valenz-charges read in
  non local Contribution for L=           2  read in
    real space projection operators read in
  non local Contribution for L=           2  read in
    real space projection operators read in
  non local Contribution for L=           0  read in
    real space projection operators read in
  non local Contribution for L=           0  read in
    real space projection operators read in
  non local Contribution for L=           1  read in
    real space projection operators read in
  non local Contribution for L=           1  read in
    real space projection operators read in
    PAW grid and wavefunctions read in
 
   number of l-projection  operators is LMAX  =           6
   number of lm-projection operators is LMMAX =          18
 
 PAW_PBE C 08Apr2002                    :
 energy of atom  1       EATOM= -147.1560
 kinetic energy error for atom=    0.0116 (will be added to EATOM!!)
  PAW_PBE Ta 17Jan2003                  :
 energy of atom  2       EATOM= -130.6506
 kinetic energy error for atom=    0.0016 (will be added to EATOM!!)
 
 
 POSCAR:  C Ta                                   
  positions in cartesian coordinates
  No initial velocities read in
 exchange correlation table for  LEXCH =        8
   RHO(1)=    0.500       N(1)  =     2000
   RHO(2)=  100.500       N(2)  =     4000
 


--------------------------------------------------------------------------------------------------------


 ion  position               nearest neighbor table
   1  0.500  0.500  0.500-   2 2.21   2 2.21   2 2.21   2 2.21   2 2.21   2 2.21
   2  0.000  0.000  0.000-   1 2.21   1 2.21   1 2.21   1 2.21   1 2.21   1 2.21
 
  LATTYP: Found a face centered cubic cell.
 ALAT       =     4.4150000000
  
  Lattice vectors:
  
 A1 = (   0.0000000000,   2.2075000000,   2.2075000000)
 A2 = (   2.2075000000,   0.0000000000,   2.2075000000)
 A3 = (   2.2075000000,   2.2075000000,   0.0000000000)
 Subroutine PRICEL returns:
 Original cell was already a primitive cell.
 

Analysis of symmetry for initial positions (statically):

 Routine SETGRP: Setting up the symmetry group for a 
 face centered cubic supercell.


 Subroutine GETGRP returns: Found 48 space group operations
 (whereof 48 operations were pure point group operations)
 out of a pool of 48 trial point group operations.


The static configuration has the point symmetry O_h .

Analysis of symmetry for dynamics (positions and initial velocities):

 Subroutine DYNSYM returns: Found 48 space group operations
 (whereof 48 operations were pure point group operations)
 out of a pool of 48 trial space group operations
 (whereof 48 operations were pure point group operations)
 and found also     1 'primitive' translations


The dynamic configuration has the point symmetry O_h .

Analysis of magnetic symmetry:

 Subroutine MAGSYM returns: Found 48 space group operations
 (whereof 48 operations were pure point group operations)
 out of a pool of 48 trial space group operations
 (whereof 48 operations were pure point group operations)
 and found also     1 'primitive' translations


The magnetic configuration has the point symmetry O_h .
 
 
 KPOINTS: KPOINTS created by Atomic Simulation Env

Automatic generation of k-mesh.
 
 Subroutine IBZKPT returns following result:
 ===========================================
 
 Found     60 irreducible k-points:
 
 Following reciprocal coordinates:
            Coordinates               Weight
  0.062500  0.062500  0.062500     96.000000
  0.187500  0.062500  0.062500    288.000000
  0.312500  0.062500  0.062500    288.000000
  0.437500  0.062500  0.062500    288.000000
 -0.437500  0.062500  0.062500    288.000000
 -0.312500  0.062500  0.062500    288.000000
 -0.187500  0.062500  0.062500    288.000000
 -0.062500  0.062500  0.062500    288.000000
  0.187500  0.187500  0.062500    288.000000
  0.312500  0.187500  0.062500    576.000000
  0.437500  0.187500  0.062500    576.000000
 -0.437500  0.187500  0.062500    576.000000
 -0.312500  0.187500  0.062500    576.000000
 -0.187500  0.187500  0.062500    576.000000
 -0.062500  0.187500  0.062500    576.000000
  0.312500  0.312500  0.062500    288.000000
  0.437500  0.312500  0.062500    576.000000
 -0.437500  0.312500  0.062500    576.000000
 -0.312500  0.312500  0.062500    576.000000
 -0.187500  0.312500  0.062500    576.000000
 -0.062500  0.312500  0.062500    576.000000
  0.437500  0.437500  0.062500    288.000000
 -0.437500  0.437500  0.062500    576.000000
 -0.312500  0.437500  0.062500    576.000000
 -0.187500  0.437500  0.062500    576.000000
 -0.062500  0.437500  0.062500    576.000000
 -0.437500 -0.437500  0.062500    288.000000
 -0.312500 -0.437500  0.062500    576.000000
 -0.187500 -0.437500  0.062500    576.000000
 -0.312500 -0.312500  0.062500    288.000000
 -0.187500 -0.312500  0.062500    576.000000
 -0.187500 -0.187500  0.062500    288.000000
  0.187500  0.187500  0.187500     96.000000
  0.312500  0.187500  0.187500    288.000000
  0.437500  0.187500  0.187500    288.000000
 -0.437500  0.187500  0.187500    288.000000
 -0.312500  0.187500  0.187500    288.000000
 -0.187500  0.187500  0.187500    288.000000
  0.312500  0.312500  0.187500    288.000000
  0.437500  0.312500  0.187500    576.000000
 -0.437500  0.312500  0.187500    576.000000
 -0.312500  0.312500  0.187500    576.000000
 -0.187500  0.312500  0.187500    576.000000
  0.437500  0.437500  0.187500    288.000000
 -0.437500  0.437500  0.187500    576.000000
 -0.312500  0.437500  0.187500    576.000000
 -0.187500  0.437500  0.187500    576.000000
 -0.437500 -0.437500  0.187500    288.000000
 -0.312500 -0.437500  0.187500    576.000000
 -0.312500 -0.312500  0.187500    288.000000
  0.312500  0.312500  0.312500     96.000000
  0.437500  0.312500  0.312500    288.000000
 -0.437500  0.312500  0.312500    288.000000
 -0.312500  0.312500  0.312500    288.000000
  0.437500  0.437500  0.312500    288.000000
 -0.437500  0.437500  0.312500    576.000000
 -0.312500  0.437500  0.312500    576.000000
 -0.437500 -0.437500  0.312500    288.000000
  0.437500  0.437500  0.437500     96.000000
 -0.437500  0.437500  0.437500    288.000000
 
 Following cartesian coordinates:
            Coordinates               Weight
  0.014156  0.014156  0.014156     96.000000
 -0.014156  0.042469  0.042469    288.000000
 -0.042469  0.070781  0.070781    288.000000
 -0.070781  0.099094  0.099094    288.000000
  0.127407 -0.099094 -0.099094    288.000000
  0.099094 -0.070781 -0.070781    288.000000
  0.070781 -0.042469 -0.042469    288.000000
  0.042469 -0.014156 -0.014156    288.000000
  0.014156  0.014156  0.070781    288.000000
 -0.014156  0.042469  0.099094    576.000000
 -0.042469  0.070781  0.127407    576.000000
  0.155719 -0.127407 -0.070781    576.000000
  0.127407 -0.099094 -0.042469    576.000000
  0.099094 -0.070781 -0.014156    576.000000
  0.070781 -0.042469  0.014156    576.000000
  0.014156  0.014156  0.127407    288.000000
 -0.014156  0.042469  0.155719    576.000000
  0.184032 -0.155719 -0.042469    576.000000
  0.155719 -0.127407 -0.014156    576.000000
  0.127407 -0.099094  0.014156    576.000000
  0.099094 -0.070781  0.042469    576.000000
  0.014156  0.014156  0.184032    288.000000
  0.212344 -0.184032 -0.014156    576.000000
  0.184032 -0.155719  0.014156    576.000000
  0.155719 -0.127407  0.042469    576.000000
  0.127407 -0.099094  0.070781    576.000000
  0.014156  0.014156 -0.212344    288.000000
 -0.014156  0.042469 -0.184032    576.000000
 -0.042469  0.070781 -0.155719    576.000000
  0.014156  0.014156 -0.155719    288.000000
 -0.014156  0.042469 -0.127407    576.000000
  0.014156  0.014156 -0.099094    288.000000
  0.042469  0.042469  0.042469     96.000000
  0.014156  0.070781  0.070781    288.000000
 -0.014156  0.099094  0.099094    288.000000
  0.184032 -0.099094 -0.099094    288.000000
  0.155719 -0.070781 -0.070781    288.000000
  0.127407 -0.042469 -0.042469    288.000000
  0.042469  0.042469  0.099094    288.000000
  0.014156  0.070781  0.127407    576.000000
  0.212344 -0.127407 -0.070781    576.000000
  0.184032 -0.099094 -0.042469    576.000000
  0.155719 -0.070781 -0.014156    576.000000
  0.042469  0.042469  0.155719    288.000000
  0.240657 -0.155719 -0.042469    576.000000
  0.212344 -0.127407 -0.014156    576.000000
  0.184032 -0.099094  0.014156    576.000000
  0.042469  0.042469 -0.240657    288.000000
  0.014156  0.070781 -0.212344    576.000000
  0.042469  0.042469 -0.184032    288.000000
  0.070781  0.070781  0.070781     96.000000
  0.042469  0.099094  0.099094    288.000000
  0.240657 -0.099094 -0.099094    288.000000
  0.212344 -0.070781 -0.070781    288.000000
  0.070781  0.070781  0.127407    288.000000
  0.268969 -0.127407 -0.070781    576.000000
  0.240657 -0.099094 -0.042469    576.000000
  0.070781  0.070781 -0.268969    288.000000
  0.099094  0.099094  0.099094     96.000000
  0.297282 -0.099094 -0.099094    288.000000
 


--------------------------------------------------------------------------------------------------------




 Dimension of arrays:
   k-points           NKPTS =     60   k-points in BZ     NKDIM =     60   number of bands    NBANDS=     12
   number of dos      NEDOS =    301   number of ions     NIONS =      2
   non local maximal  LDIM  =      6   non local SUM 2l+1 LMDIM =     18
   total plane-waves  NPLWV =  13824
   max r-space proj   IRMAX =      1   max aug-charges    IRDMAX=  43933
   dimension x,y,z NGX =    24 NGY =   24 NGZ =   24
   dimension x,y,z NGXF=    48 NGYF=   48 NGZF=   48
   support grid    NGXF=    48 NGYF=   48 NGZF=   48
   ions per type =               1   1
 NGX,Y,Z   is equivalent  to a cutoff of  12.78, 12.78, 12.78 a.u.
 NGXF,Y,Z  is equivalent  to a cutoff of  25.56, 25.56, 25.56 a.u.


 I would recommend the setting:
   dimension x,y,z NGX =    22 NGY =   22 NGZ =   22
 SYSTEM =  unknown system                          
 POSCAR =   C Ta                                   

 Startparameter for this run:
   NWRITE =      2    write-flag & timer
   PREC   = accura    normal or accurate (medium, high low for compatibility)
   ISTART =      0    job   : 0-new  1-cont  2-samecut
   ICHARG =      2    charge: 1-file 2-atom 10-const
   ISPIN  =      2    spin polarized calculation?
   LNONCOLLINEAR =      F non collinear calculations
   LSORBIT =      F    spin-orbit coupling
   INIWAV =      1    electr: 0-lowe 1-rand  2-diag
   LASPH  =      F    aspherical Exc in radial PAW
   METAGGA=      F    non-selfconsistent MetaGGA calc.

 Electronic Relaxation 1
   ENCUT  =  450.0 eV  33.07 Ry    5.75 a.u.   5.40  5.40  5.40*2*pi/ulx,y,z
   ENINI  =  450.0     initial cutoff
   ENAUG  =  644.9 eV  augmentation charge cutoff
   NELM   =     60;   NELMIN=  2; NELMDL= -5     # of ELM steps 
   EDIFF  = 0.1E-03   stopping-criterion for ELM
   LREAL  =      F    real-space projection
   NLSPLINE    = F    spline interpolate recip. space projectors
   LCOMPAT=      F    compatible to vasp.4.4
   GGA_COMPAT  = T    GGA compatible to vasp.4.4-vasp.4.6
   LMAXPAW     = -100 max onsite density
   LMAXMIX     =    2 max onsite mixed and CHGCAR
   VOSKOWN=      0    Vosko Wilk Nusair interpolation
   ROPT   =    0.00000   0.00000
 Ionic relaxation
   EDIFFG = 0.1E-02   stopping-criterion for IOM
   NSW    =      0    number of steps for IOM
   NBLOCK =      1;   KBLOCK =      1    inner block; outer block 
   IBRION =     -1    ionic relax: 0-MD 1-quasi-New 2-CG
   NFREE  =      0    steps in history (QN), initial steepest desc. (CG)
   ISIF   =      2    stress and relaxation
   IWAVPR =     10    prediction:  0-non 1-charg 2-wave 3-comb
   ISYM   =      2    0-nonsym 1-usesym 2-fastsym
   LCORR  =      T    Harris-Foulkes like correction to forces

   POTIM  = 0.5000    time-step for ionic-motion
   TEIN   =    0.0    initial temperature
   TEBEG  =    0.0;   TEEND  =   0.0 temperature during run
   SMASS  =  -3.00    Nose mass-parameter (am)
   estimated Nose-frequenzy (Omega)   =  0.10E-29 period in steps =****** mass=  -0.223E-27a.u.
   SCALEE = 1.0000    scale energy and forces
   NPACO  =    256;   APACO  = 16.0  distance and # of slots for P.C.
   PSTRESS=    0.0 pullay stress

  Mass of Ions in am
   POMASS =  12.01180.95
  Ionic Valenz
   ZVAL   =   4.00  5.00
  Atomic Wigner-Seitz radii
   RWIGS  =  -1.00 -1.00
  virtual crystal weights 
   VCA    =   1.00  1.00
   NELECT =       9.0000    total number of electrons
   NUPDOWN=      -1.0000    fix difference up-down

 DOS related values:
   EMIN   =  10.00;   EMAX   =-10.00  energy-range for DOS
   EFERMI =   0.00
   ISMEAR =     1;   SIGMA  =   0.05  broadening in eV -4-tet -1-fermi 0-gaus

 Electronic relaxation 2 (details)
   IALGO  =     38    algorithm
   LDIAG  =      T    sub-space diagonalisation (order eigenvalues)
   LSUBROT=      T    optimize rotation matrix (better conditioning)
   TURBO    =      0    0=normal 1=particle mesh
   IRESTART =      0    0=no restart 2=restart with 2 vectors
   NREBOOT  =      0    no. of reboots
   NMIN     =      0    reboot dimension
   EREF     =   0.00    reference energy to select bands
   IMIX   =      4    mixing-type and parameters
     AMIX     =   0.40;   BMIX     =  1.00
     AMIX_MAG =   1.60;   BMIX_MAG =  1.00
     AMIN     =   0.10
     WC   =   100.;   INIMIX=   1;  MIXPRE=   1

 Intra band minimization:
   WEIMIN = 0.0000     energy-eigenvalue tresh-hold
   EBREAK =  0.21E-05  absolut break condition
   DEPER  =   0.30     relativ break condition  

   TIME   =   0.40     timestep for ELM

  volume/ion in A,a.u.               =      10.76        72.59
  Fermi-wavevector in a.u.,A,eV,Ry     =   1.224367  2.313718 20.396148  1.499075
  Thomas-Fermi vector in A             =   2.359444
 
 Write flags
   LWAVE  =      T    write WAVECAR
   LCHARG =      T    write CHGCAR
   LVTOT  =      F    write LOCPOT, total local potential
   LVHAR  =      F    write LOCPOT, Hartree potential only
   LELF   =      F    write electronic localiz. function (ELF)
   LORBIT =     11    0 simple, 1 ext, 2 COOP (PROOUT)


 Dipole corrections
   LMONO  =      F    monopole corrections only (constant potential shift)
   LDIPOL =      F    correct potential (dipole corrections)
   IDIPOL =      0    1-x, 2-y, 3-z, 4-all directions 
   EPSILON=  1.0000000 bulk dielectric constant

 Exchange correlation treatment:
   GGA     =    --    GGA type
   LEXCH   =     8    internal setting for exchange type
   VOSKOWN=      0    Vosko Wilk Nusair interpolation
   LHFCALC =     F    Hartree Fock is set to
   LHFONE  =     F    Hartree Fock one center treatment
   AEXX    =    0.0000 exact exchange contribution

 Linear response parameters
   LEPSILON=     F    determine dielectric tensor
   LRPA    =     F    only Hartree local field effects (RPA)
   LNABLA  =     F    use nabla operator in PAW spheres
   LVEL    =     F    velocity operator in full k-point grid
   LINTERFAST=   F  fast interpolation
   KINTER  =     0    interpolate to denser k-point grid
   CSHIFT  =0.1000    complex shift for real part using Kramers Kronig
   OMEGAMAX=  -1.0    maximum frequency
   RTIME   =    0.100 relaxation time in fs

 Orbital magnetization related:
   ORBITALMAG=     F  switch on orbital magnetization
   LCHIMAG   =     F  perturbation theory with respect to B field
   DQ        =  0.001000  dq finite difference perturbation B field



--------------------------------------------------------------------------------------------------------


 Static calculation
 charge density and potential will be updated during run
 spin polarized calculation
 Variant of blocked Davidson
 Davidson routine will perform the subspace rotation
 perform sub-space diagonalisation
    after iterative eigenvector-optimisation
 modified Broyden-mixing scheme, WC =      100.0
 initial mixing is a Kerker type mixing with AMIX =  0.4000 and BMIX =      1.0000
 Hartree-type preconditioning will be used
 using additional bands            7
 reciprocal scheme for non local part
 use partial core corrections
 calculate Harris-corrections to forces 
   (improved forces if not selfconsistent)
 use gradient corrections 
 use of overlap-Matrix (Vanderbilt PP)
 Methfessel and Paxton  Order N= 1 SIGMA  =   0.05


--------------------------------------------------------------------------------------------------------


  energy-cutoff  :      450.00
  volume of cell :       21.51
      direct lattice vectors                 reciprocal lattice vectors
     0.000000000  2.207500000  2.207500000    -0.226500566  0.226500566  0.226500566
     2.207500000  0.000000000  2.207500000     0.226500566 -0.226500566  0.226500566
     2.207500000  2.207500000  0.000000000     0.226500566  0.226500566 -0.226500566

  length of vectors
     3.121876439  3.121876439  3.121876439     0.392310489  0.392310489  0.392310489


 
 k-points in units of 2pi/SCALE and weight: KPOINTS created by Atomic Simulation Env
   0.01415629  0.01415629  0.01415629       0.004
  -0.01415629  0.04246886  0.04246886       0.012
  -0.04246886  0.07078143  0.07078143       0.012
  -0.07078143  0.09909400  0.09909400       0.012
   0.12740657 -0.09909400 -0.09909400       0.012
   0.09909400 -0.07078143 -0.07078143       0.012
   0.07078143 -0.04246886 -0.04246886       0.012
   0.04246886 -0.01415629 -0.01415629       0.012
   0.01415629  0.01415629  0.07078143       0.012
  -0.01415629  0.04246886  0.09909400       0.023
  -0.04246886  0.07078143  0.12740657       0.023
   0.15571914 -0.12740657 -0.07078143       0.023
   0.12740657 -0.09909400 -0.04246886       0.023
   0.09909400 -0.07078143 -0.01415629       0.023
   0.07078143 -0.04246886  0.01415629       0.023
   0.01415629  0.01415629  0.12740657       0.012
  -0.01415629  0.04246886  0.15571914       0.023
   0.18403171 -0.15571914 -0.04246886       0.023
   0.15571914 -0.12740657 -0.01415629       0.023
   0.12740657 -0.09909400  0.01415629       0.023
   0.09909400 -0.07078143  0.04246886       0.023
   0.01415629  0.01415629  0.18403171       0.012
   0.21234428 -0.18403171 -0.01415629       0.023
   0.18403171 -0.15571914  0.01415629       0.023
   0.15571914 -0.12740657  0.04246886       0.023
   0.12740657 -0.09909400  0.07078143       0.023
   0.01415629  0.01415629 -0.21234428       0.012
  -0.01415629  0.04246886 -0.18403171       0.023
  -0.04246886  0.07078143 -0.15571914       0.023
   0.01415629  0.01415629 -0.15571914       0.012
  -0.01415629  0.04246886 -0.12740657       0.023
   0.01415629  0.01415629 -0.09909400       0.012
   0.04246886  0.04246886  0.04246886       0.004
   0.01415629  0.07078143  0.07078143       0.012
  -0.01415629  0.09909400  0.09909400       0.012
   0.18403171 -0.09909400 -0.09909400       0.012
   0.15571914 -0.07078143 -0.07078143       0.012
   0.12740657 -0.04246886 -0.04246886       0.012
   0.04246886  0.04246886  0.09909400       0.012
   0.01415629  0.07078143  0.12740657       0.023
   0.21234428 -0.12740657 -0.07078143       0.023
   0.18403171 -0.09909400 -0.04246886       0.023
   0.15571914 -0.07078143 -0.01415629       0.023
   0.04246886  0.04246886  0.15571914       0.012
   0.24065685 -0.15571914 -0.04246886       0.023
   0.21234428 -0.12740657 -0.01415629       0.023
   0.18403171 -0.09909400  0.01415629       0.023
   0.04246886  0.04246886 -0.24065685       0.012
   0.01415629  0.07078143 -0.21234428       0.023
   0.04246886  0.04246886 -0.18403171       0.012
   0.07078143  0.07078143  0.07078143       0.004
   0.04246886  0.09909400  0.09909400       0.012
   0.24065685 -0.09909400 -0.09909400       0.012
   0.21234428 -0.07078143 -0.07078143       0.012
   0.07078143  0.07078143  0.12740657       0.012
   0.26896942 -0.12740657 -0.07078143       0.023
   0.24065685 -0.09909400 -0.04246886       0.023
   0.07078143  0.07078143 -0.26896942       0.012
   0.09909400  0.09909400  0.09909400       0.004
   0.29728199 -0.09909400 -0.09909400       0.012
 
 k-points in reciprocal lattice and weights: KPOINTS created by Atomic Simulation Env
   0.06250000  0.06250000  0.06250000       0.004
   0.18750000  0.06250000  0.06250000       0.012
   0.31250000  0.06250000  0.06250000       0.012
   0.43750000  0.06250000  0.06250000       0.012
  -0.43750000  0.06250000  0.06250000       0.012
  -0.31250000  0.06250000  0.06250000       0.012
  -0.18750000  0.06250000  0.06250000       0.012
  -0.06250000  0.06250000  0.06250000       0.012
   0.18750000  0.18750000  0.06250000       0.012
   0.31250000  0.18750000  0.06250000       0.023
   0.43750000  0.18750000  0.06250000       0.023
  -0.43750000  0.18750000  0.06250000       0.023
  -0.31250000  0.18750000  0.06250000       0.023
  -0.18750000  0.18750000  0.06250000       0.023
  -0.06250000  0.18750000  0.06250000       0.023
   0.31250000  0.31250000  0.06250000       0.012
   0.43750000  0.31250000  0.06250000       0.023
  -0.43750000  0.31250000  0.06250000       0.023
  -0.31250000  0.31250000  0.06250000       0.023
  -0.18750000  0.31250000  0.06250000       0.023
  -0.06250000  0.31250000  0.06250000       0.023
   0.43750000  0.43750000  0.06250000       0.012
  -0.43750000  0.43750000  0.06250000       0.023
  -0.31250000  0.43750000  0.06250000       0.023
  -0.18750000  0.43750000  0.06250000       0.023
  -0.06250000  0.43750000  0.06250000       0.023
  -0.43750000 -0.43750000  0.06250000       0.012
  -0.31250000 -0.43750000  0.06250000       0.023
  -0.18750000 -0.43750000  0.06250000       0.023
  -0.31250000 -0.31250000  0.06250000       0.012
  -0.18750000 -0.31250000  0.06250000       0.023
  -0.18750000 -0.18750000  0.06250000       0.012
   0.18750000  0.18750000  0.18750000       0.004
   0.31250000  0.18750000  0.18750000       0.012
   0.43750000  0.18750000  0.18750000       0.012
  -0.43750000  0.18750000  0.18750000       0.012
  -0.31250000  0.18750000  0.18750000       0.012
  -0.18750000  0.18750000  0.18750000       0.012
   0.31250000  0.31250000  0.18750000       0.012
   0.43750000  0.31250000  0.18750000       0.023
  -0.43750000  0.31250000  0.18750000       0.023
  -0.31250000  0.31250000  0.18750000       0.023
  -0.18750000  0.31250000  0.18750000       0.023
   0.43750000  0.43750000  0.18750000       0.012
  -0.43750000  0.43750000  0.18750000       0.023
  -0.31250000  0.43750000  0.18750000       0.023
  -0.18750000  0.43750000  0.18750000       0.023
  -0.43750000 -0.43750000  0.18750000       0.012
  -0.31250000 -0.43750000  0.18750000       0.023
  -0.31250000 -0.31250000  0.18750000       0.012
   0.31250000  0.31250000  0.31250000       0.004
   0.43750000  0.31250000  0.31250000       0.012
  -0.43750000  0.31250000  0.31250000       0.012
  -0.31250000  0.31250000  0.31250000       0.012
   0.43750000  0.43750000  0.31250000       0.012
  -0.43750000  0.43750000  0.31250000       0.023
  -0.31250000  0.43750000  0.31250000       0.023
  -0.43750000 -0.43750000  0.31250000       0.012
   0.43750000  0.43750000  0.43750000       0.004
  -0.43750000  0.43750000  0.43750000       0.012
 
 position of ions in fractional coordinates (direct lattice) 
   0.50000000  0.50000000  0.50000000
   0.00000000  0.00000000  0.00000000
 
 position of ions in cartesian coordinates  (Angst):
   2.20750000  2.20750000  2.20750000
   0.00000000  0.00000000  0.00000000
 


--------------------------------------------------------------------------------------------------------


 k-point  1 :  0.06250.06250.0625  plane waves:     477
 k-point  2 :  0.18750.06250.0625  plane waves:     477
 k-point  3 :  0.31250.06250.0625  plane waves:     475
 k-point  4 :  0.43750.06250.0625  plane waves:     471
 k-point  5 :  -.43750.06250.0625  plane waves:     468
 k-point  6 :  -.31250.06250.0625  plane waves:     470
 k-point  7 :  -.18750.06250.0625  plane waves:     477
 k-point  8 :  -.06250.06250.0625  plane waves:     482
 k-point  9 :  0.18750.18750.0625  plane waves:     476
 k-point 10 :  0.31250.18750.0625  plane waves:     474
 k-point 11 :  0.43750.18750.0625  plane waves:     464
 k-point 12 :  -.43750.18750.0625  plane waves:     460
 k-point 13 :  -.31250.18750.0625  plane waves:     465
 k-point 14 :  -.18750.18750.0625  plane waves:     471
 k-point 15 :  -.06250.18750.0625  plane waves:     475
 k-point 16 :  0.31250.31250.0625  plane waves:     462
 k-point 17 :  0.43750.31250.0625  plane waves:     465
 k-point 18 :  -.43750.31250.0625  plane waves:     466
 k-point 19 :  -.31250.31250.0625  plane waves:     467
 k-point 20 :  -.18750.31250.0625  plane waves:     466
 k-point 21 :  -.06250.31250.0625  plane waves:     467
 k-point 22 :  0.43750.43750.0625  plane waves:     457
 k-point 23 :  -.43750.43750.0625  plane waves:     462
 k-point 24 :  -.31250.43750.0625  plane waves:     465
 k-point 25 :  -.18750.43750.0625  plane waves:     466
 k-point 26 :  -.06250.43750.0625  plane waves:     463
 k-point 27 :  -.4375-.43750.0625  plane waves:     462
 k-point 28 :  -.3125-.43750.0625  plane waves:     464
 k-point 29 :  -.1875-.43750.0625  plane waves:     462
 k-point 30 :  -.3125-.31250.0625  plane waves:     463
 k-point 31 :  -.1875-.31250.0625  plane waves:     462
 k-point 32 :  -.1875-.18750.0625  plane waves:     474
 k-point 33 :  0.18750.18750.1875  plane waves:     483
 k-point 34 :  0.31250.18750.1875  plane waves:     473
 k-point 35 :  0.43750.18750.1875  plane waves:     469
 k-point 36 :  -.43750.18750.1875  plane waves:     464
 k-point 37 :  -.31250.18750.1875  plane waves:     462
 k-point 38 :  -.18750.18750.1875  plane waves:     462
 k-point 39 :  0.31250.31250.1875  plane waves:     472
 k-point 40 :  0.43750.31250.1875  plane waves:     466
 k-point 41 :  -.43750.31250.1875  plane waves:     468
 k-point 42 :  -.31250.31250.1875  plane waves:     467
 k-point 43 :  -.18750.31250.1875  plane waves:     464
 k-point 44 :  0.43750.43750.1875  plane waves:     463
 k-point 45 :  -.43750.43750.1875  plane waves:     466
 k-point 46 :  -.31250.43750.1875  plane waves:     465
 k-point 47 :  -.18750.43750.1875  plane waves:     463
 k-point 48 :  -.4375-.43750.1875  plane waves:     469
 k-point 49 :  -.3125-.43750.1875  plane waves:     467
 k-point 50 :  -.3125-.31250.1875  plane waves:     464
 k-point 51 :  0.31250.31250.3125  plane waves:     471
 k-point 52 :  0.43750.31250.3125  plane waves:     465
 k-point 53 :  -.43750.31250.3125  plane waves:     467
 k-point 54 :  -.31250.31250.3125  plane waves:     463
 k-point 55 :  0.43750.43750.3125  plane waves:     466
 k-point 56 :  -.43750.43750.3125  plane waves:     463
 k-point 57 :  -.31250.43750.3125  plane waves:     465
 k-point 58 :  -.4375-.43750.3125  plane waves:     458
 k-point 59 :  0.43750.43750.4375  plane waves:     470
 k-point 60 :  -.43750.43750.4375  plane waves:     461

 maximum and minimum number of plane-waves per node :       483      457

 maximum number of plane-waves:       483
 maximum index in each direction: 
   IXMAX=    5   IYMAX=    5   IZMAX=    5
   IXMIN=   -5   IYMIN=   -5   IZMIN=   -5

 NGX is ok and might be reduce to  22
 NGY is ok and might be reduce to  22
 NGZ is ok and might be reduce to  22

 serial   3D FFT for wavefunctions
 parallel 3D FFT for charge:
    minimum data exchange during FFTs selected (reduces bandwidth)


 total amount of memory used by VASP on root node    64332. kBytes
========================================================================

   base      :      30000. kBytes
   nonl-proj :       8361. kBytes
   fftplans  :       3916. kBytes
   grid      :      10266. kBytes
   one-center:         62. kBytes
   wavefun   :      11727. kBytes
 
 Broyden mixing: mesh for mixing (old mesh)
   NGX = 11   NGY = 11   NGZ = 11
  (NGX  = 48   NGY  = 48   NGZ  = 48)
  gives a total of   1331 points

 initial charge density was supplied:
 charge density of overlapping atoms calculated
 number of electron       9.0000000 magnetization       8.0000000
 keeping initial charge density in first step


--------------------------------------------------------------------------------------------------------


 Maximum index for augmentation-charges        42435 (set IRDMAX)


--------------------------------------------------------------------------------------------------------


 First call to EWALD:  gamma=   0.637
 Maximum number of real-space cells 3x 3x 3
 Maximum number of reciprocal cells 3x 3x 3

    FEWALD:  cpu time    0.00: real time    0.00


----------------------------------------- Iteration    1(   1)  ---------------------------------------


    POTLOK:  cpu time    0.41: real time    0.41
    SETDIJ:  cpu time    0.09: real time    0.09
     EDDAV:  cpu time    7.17: real time    7.17
       DOS:  cpu time    0.01: real time    0.01
    --------------------------------------------
      LOOP:  cpu time    7.68: real time    7.69

 eigenvalue-minimisations  :  2912
 total energy-change (2. order) : 0.1047178E+02  (-0.3989224E+03)
 number of electron       9.0000000 magnetization       8.0000000
 augmentation part        9.0000000 magnetization       8.0000000

 Free energy of the ion-electron system (eV)
  ---------------------------------------------------
  alpha Z        PSCENC =        54.91709539
  Ewald energy   TEWEN  =      -377.63753703
  -1/2 Hartree   DENC   =       -15.12778221
  -exchange  EXHF       =         0.00000000
  -V(xc)+E(xc)   XCENC  =       -48.02576859
  PAW double counting   =       180.96821906     -107.89329025
  entropy T*S    EENTRO =         0.00000590
  eigenvalues    EBANDS =        45.47741329
  atomic energy  EATOM  =       277.79342126
  ---------------------------------------------------
  free energy    TOTEN  =        10.47177681 eV

  energy without entropy =       10.47177091  energy(sigma->0) =       10.47177484


--------------------------------------------------------------------------------------------------------




----------------------------------------- Iteration    1(   2)  ---------------------------------------


     EDDAV:  cpu time    8.42: real time    8.43
       DOS:  cpu time    0.01: real time    0.01
    --------------------------------------------
      LOOP:  cpu time    8.43: real time    8.44

 eigenvalue-minimisations  :  3892
 total energy-change (2. order) :-0.2862138E+02  (-0.2743908E+02)
 number of electron       9.0000000 magnetization       8.0000000
 augmentation part        9.0000000 magnetization       8.0000000

 Free energy of the ion-electron system (eV)
  ---------------------------------------------------
  alpha Z        PSCENC =        54.91709539
  Ewald energy   TEWEN  =      -377.63753703
  -1/2 Hartree   DENC   =       -15.12778221
  -exchange  EXHF       =         0.00000000
  -V(xc)+E(xc)   XCENC  =       -48.02576859
  PAW double counting   =       180.96821906     -107.89329025
  entropy T*S    EENTRO =         0.00009636
  eigenvalues    EBANDS =        16.85594125
  atomic energy  EATOM  =       277.79342126
  ---------------------------------------------------
  free energy    TOTEN  =       -18.14960477 eV

  energy without entropy =      -18.14970113  energy(sigma->0) =      -18.14963689


--------------------------------------------------------------------------------------------------------




----------------------------------------- Iteration    1(   3)  ---------------------------------------


     EDDAV:  cpu time    7.79: real time    7.80
       DOS:  cpu time    0.01: real time    0.01
    --------------------------------------------
      LOOP:  cpu time    7.80: real time    7.82

 eigenvalue-minimisations  :  3488
 total energy-change (2. order) :-0.8155794E+00  (-0.8122562E+00)
 number of electron       9.0000000 magnetization       8.0000000
 augmentation part        9.0000000 magnetization       8.0000000

 Free energy of the ion-electron system (eV)
  ---------------------------------------------------
  alpha Z        PSCENC =        54.91709539
  Ewald energy   TEWEN  =      -377.63753703
  -1/2 Hartree   DENC   =       -15.12778221
  -exchange  EXHF       =         0.00000000
  -V(xc)+E(xc)   XCENC  =       -48.02576859
  PAW double counting   =       180.96821906     -107.89329025
  entropy T*S    EENTRO =         0.00006855
  eigenvalues    EBANDS =        16.04038962
  atomic energy  EATOM  =       277.79342126
  ---------------------------------------------------
  free energy    TOTEN  =       -18.96518421 eV

  energy without entropy =      -18.96525276  energy(sigma->0) =      -18.96520706


--------------------------------------------------------------------------------------------------------




----------------------------------------- Iteration    1(   4)  ---------------------------------------


     EDDAV:  cpu time    7.43: real time    7.43
       DOS:  cpu time    0.01: real time    0.01
    --------------------------------------------
      LOOP:  cpu time    7.44: real time    7.46

 eigenvalue-minimisations  :  3232
 total energy-change (2. order) :-0.2402816E-02  (-0.2402552E-02)
 number of electron       9.0000000 magnetization       8.0000000
 augmentation part        9.0000000 magnetization       8.0000000

 Free energy of the ion-electron system (eV)
  ---------------------------------------------------
  alpha Z        PSCENC =        54.91709539
  Ewald energy   TEWEN  =      -377.63753703
  -1/2 Hartree   DENC   =       -15.12778221
  -exchange  EXHF       =         0.00000000
  -V(xc)+E(xc)   XCENC  =       -48.02576859
  PAW double counting   =       180.96821906     -107.89329025
  entropy T*S    EENTRO =         0.00006741
  eigenvalues    EBANDS =        16.03798794
  atomic energy  EATOM  =       277.79342126
  ---------------------------------------------------
  free energy    TOTEN  =       -18.96758702 eV

  energy without entropy =      -18.96765444  energy(sigma->0) =      -18.96760949


--------------------------------------------------------------------------------------------------------




----------------------------------------- Iteration    1(   5)  ---------------------------------------


     EDDAV:  cpu time    7.93: real time    7.93
       DOS:  cpu time    0.01: real time    0.01
    CHARGE:  cpu time    0.48: real time    0.48
    MIXING:  cpu time    0.01: real time    0.01
    --------------------------------------------
      LOOP:  cpu time    8.42: real time    8.44

 eigenvalue-minimisations  :  3560
 total energy-change (2. order) :-0.7972853E-05  (-0.7971754E-05)
 number of electron       9.0000002 magnetization      -1.7450047
 augmentation part        0.3973202 magnetization      -2.5724050

 Broyden mixing:
  rms(total) = 0.19038E+01    rms(broyden)= 0.19037E+01
  rms(prec ) = 0.43604E+01
  weight for this iteration     100.00

 Free energy of the ion-electron system (eV)
  ---------------------------------------------------
  alpha Z        PSCENC =        54.91709539
  Ewald energy   TEWEN  =      -377.63753703
  -1/2 Hartree   DENC   =       -15.12778221
  -exchange  EXHF       =         0.00000000
  -V(xc)+E(xc)   XCENC  =       -48.02576859
  PAW double counting   =       180.96821906     -107.89329025
  entropy T*S    EENTRO =         0.00006742
  eigenvalues    EBANDS =        16.03797997
  atomic energy  EATOM  =       277.79342126
  ---------------------------------------------------
  free energy    TOTEN  =       -18.96759499 eV

  energy without entropy =      -18.96766241  energy(sigma->0) =      -18.96761747


--------------------------------------------------------------------------------------------------------




----------------------------------------- Iteration    1(   6)  ---------------------------------------


    POTLOK:  cpu time    0.39: real time    0.39
    SETDIJ:  cpu time    0.09: real time    0.09
     EDDAV:  cpu time    7.35: real time    7.36
       DOS:  cpu time    0.01: real time    0.01
    CHARGE:  cpu time    0.50: real time    0.50
    MIXING:  cpu time    0.01: real time    0.01
    --------------------------------------------
      LOOP:  cpu time    8.35: real time    8.37

 eigenvalue-minimisations  :  3208
 total energy-change (2. order) :-0.3083718E+01  (-0.1583863E+01)
 number of electron       9.0000001 magnetization       0.1678255
 augmentation part        0.4655266 magnetization       0.4011229

 Broyden mixing:
  rms(total) = 0.44079E+00    rms(broyden)= 0.44069E+00
  rms(prec ) = 0.74375E+00
  weight for this iteration     100.00

 eigenvalues of (default mixing * dielectric matrix)
  average eigenvalue GAMMA=   0.8176
  0.8176

 Free energy of the ion-electron system (eV)
  ---------------------------------------------------
  alpha Z        PSCENC =        54.91709539
  Ewald energy   TEWEN  =      -377.63753703
  -1/2 Hartree   DENC   =       -23.54378309
  -exchange  EXHF       =         0.00000000
  -V(xc)+E(xc)   XCENC  =       -50.97525294
  PAW double counting   =       216.92450874     -144.39171132
  entropy T*S    EENTRO =        -0.00009178
  eigenvalues    EBANDS =        24.86203781
  atomic energy  EATOM  =       277.79342126
  ---------------------------------------------------
  free energy    TOTEN  =       -22.05131296 eV

  energy without entropy =      -22.05122119  energy(sigma->0) =      -22.05128237


--------------------------------------------------------------------------------------------------------




----------------------------------------- Iteration    1(   7)  ---------------------------------------


    POTLOK:  cpu time    0.38: real time    0.39
    SETDIJ:  cpu time    0.10: real time    0.10
     EDDAV:  cpu time    7.75: real time    7.76
       DOS:  cpu time    0.01: real time    0.01
    CHARGE:  cpu time    0.49: real time    0.49
    MIXING:  cpu time    0.01: real time    0.01
    --------------------------------------------
      LOOP:  cpu time    8.74: real time    8.74

 eigenvalue-minimisations  :  3472
 total energy-change (2. order) :-0.2271262E+00  (-0.5637515E-01)
 number of electron       9.0000001 magnetization      -0.1201820
 augmentation part        0.4608304 magnetization      -0.1203832

 Broyden mixing:
  rms(total) = 0.15461E+00    rms(broyden)= 0.15459E+00
  rms(prec ) = 0.43299E+00
  weight for this iteration     100.00

 eigenvalues of (default mixing * dielectric matrix)
  average eigenvalue GAMMA=   0.8224
  0.8224  0.8224

 Free energy of the ion-electron system (eV)
  ---------------------------------------------------
  alpha Z        PSCENC =        54.91709539
  Ewald energy   TEWEN  =      -377.63753703
  -1/2 Hartree   DENC   =       -22.63321909
  -exchange  EXHF       =         0.00000000
  -V(xc)+E(xc)   XCENC  =       -51.15017860
  PAW double counting   =       237.02415438     -164.73513150
  entropy T*S    EENTRO =         0.00024901
  eigenvalues    EBANDS =        24.14270699
  atomic energy  EATOM  =       277.79342126
  ---------------------------------------------------
  free energy    TOTEN  =       -22.27843920 eV

  energy without entropy =      -22.27868821  energy(sigma->0) =      -22.27852220


--------------------------------------------------------------------------------------------------------




----------------------------------------- Iteration    1(   8)  ---------------------------------------


    POTLOK:  cpu time    0.38: real time    0.38
    SETDIJ:  cpu time    0.09: real time    0.09
     EDDAV:  cpu time    7.33: real time    7.33
       DOS:  cpu time    0.01: real time    0.01
    CHARGE:  cpu time    0.49: real time    0.49
    MIXING:  cpu time    0.01: real time    0.01
    --------------------------------------------
      LOOP:  cpu time    8.31: real time    8.33

 eigenvalue-minimisations  :  3192
 total energy-change (2. order) : 0.5598778E-01  (-0.6256770E-02)
 number of electron       9.0000001 magnetization       0.0281615
 augmentation part        0.4673344 magnetization       0.0216949

 Broyden mixing:
  rms(total) = 0.84578E-01    rms(broyden)= 0.84578E-01
  rms(prec ) = 0.17625E+00
  weight for this iteration     100.00

 eigenvalues of (default mixing * dielectric matrix)
  average eigenvalue GAMMA=   1.2340
  2.1238  0.8515  0.7267

 Free energy of the ion-electron system (eV)
  ---------------------------------------------------
  alpha Z        PSCENC =        54.91709539
  Ewald energy   TEWEN  =      -377.63753703
  -1/2 Hartree   DENC   =       -22.27061970
  -exchange  EXHF       =         0.00000000
  -V(xc)+E(xc)   XCENC  =       -51.03597721
  PAW double counting   =       259.45039398     -187.39877588
  entropy T*S    EENTRO =         0.00026263
  eigenvalues    EBANDS =        23.95928515
  atomic energy  EATOM  =       277.79342126
  ---------------------------------------------------
  free energy    TOTEN  =       -22.22245141 eV

  energy without entropy =      -22.22271404  energy(sigma->0) =      -22.22253896


--------------------------------------------------------------------------------------------------------




----------------------------------------- Iteration    1(   9)  ---------------------------------------


    POTLOK:  cpu time    0.39: real time    0.39
    SETDIJ:  cpu time    0.10: real time    0.10
     EDDAV:  cpu time    7.60: real time    7.60
       DOS:  cpu time    0.01: real time    0.01
    CHARGE:  cpu time    0.48: real time    0.49
    MIXING:  cpu time    0.01: real time    0.01
    --------------------------------------------
      LOOP:  cpu time    8.59: real time    8.60

 eigenvalue-minimisations  :  3364
 total energy-change (2. order) : 0.9868379E-02  (-0.2306611E-02)
 number of electron       9.0000001 magnetization      -0.0016580
 augmentation part        0.4728287 magnetization       0.0048856

 Broyden mixing:
  rms(total) = 0.25746E-01    rms(broyden)= 0.25745E-01
  rms(prec ) = 0.34072E-01
  weight for this iteration     100.00

 eigenvalues of (default mixing * dielectric matrix)
  average eigenvalue GAMMA=   1.2075
  2.3991  0.8837  0.8837  0.6634

 Free energy of the ion-electron system (eV)
  ---------------------------------------------------
  alpha Z        PSCENC =        54.91709539
  Ewald energy   TEWEN  =      -377.63753703
  -1/2 Hartree   DENC   =       -22.15919723
  -exchange  EXHF       =         0.00000000
  -V(xc)+E(xc)   XCENC  =       -50.95093424
  PAW double counting   =       277.24933977     -205.37365196
  entropy T*S    EENTRO =         0.00003829
  eigenvalues    EBANDS =        23.94884274
  atomic energy  EATOM  =       277.79342126
  ---------------------------------------------------
  free energy    TOTEN  =       -22.21258304 eV

  energy without entropy =      -22.21262132  energy(sigma->0) =      -22.21259580


--------------------------------------------------------------------------------------------------------




----------------------------------------- Iteration    1(  10)  ---------------------------------------


    POTLOK:  cpu time    0.38: real time    0.38
    SETDIJ:  cpu time    0.09: real time    0.09
     EDDAV:  cpu time    7.88: real time    7.88
       DOS:  cpu time    0.01: real time    0.01
    CHARGE:  cpu time    0.48: real time    0.48
    MIXING:  cpu time    0.01: real time    0.01
    --------------------------------------------
      LOOP:  cpu time    8.86: real time    8.87

 eigenvalue-minimisations  :  3204
 total energy-change (2. order) : 0.2142197E-02  (-0.1121497E-03)
 number of electron       9.0000001 magnetization       0.0000826
 augmentation part        0.4723270 magnetization      -0.0009160

 Broyden mixing:
  rms(total) = 0.54516E-02    rms(broyden)= 0.54514E-02
  rms(prec ) = 0.10281E-01
  weight for this iteration     100.00

 eigenvalues of (default mixing * dielectric matrix)
  average eigenvalue GAMMA=   1.1189
  2.3491  0.9292  0.9292  0.7500  0.6371

 Free energy of the ion-electron system (eV)
  ---------------------------------------------------
  alpha Z        PSCENC =        54.91709539
  Ewald energy   TEWEN  =      -377.63753703
  -1/2 Hartree   DENC   =       -22.17739245
  -exchange  EXHF       =         0.00000000
  -V(xc)+E(xc)   XCENC  =       -50.96134052
  PAW double counting   =       276.76662913     -204.88552852
  entropy T*S    EENTRO =         0.00007053
  eigenvalues    EBANDS =        23.97414137
  atomic energy  EATOM  =       277.79342126
  ---------------------------------------------------
  free energy    TOTEN  =       -22.21044084 eV

  energy without entropy =      -22.21051136  energy(sigma->0) =      -22.21046435


--------------------------------------------------------------------------------------------------------




----------------------------------------- Iteration    1(  11)  ---------------------------------------


    POTLOK:  cpu time    0.40: real time    0.40
    SETDIJ:  cpu time    0.09: real time    0.09
     EDDAV:  cpu time    6.54: real time    6.54
       DOS:  cpu time    0.01: real time    0.01
    CHARGE:  cpu time    0.50: real time    0.50
    MIXING:  cpu time    0.01: real time    0.01
    --------------------------------------------
      LOOP:  cpu time    7.55: real time    7.56

 eigenvalue-minimisations  :  2540
 total energy-change (2. order) : 0.1442071E-03  (-0.1213547E-04)
 number of electron       9.0000001 magnetization       0.0000757
 augmentation part        0.4722746 magnetization       0.0001726

 Broyden mixing:
  rms(total) = 0.29475E-02    rms(broyden)= 0.29474E-02
  rms(prec ) = 0.56700E-02
  weight for this iteration     100.00

 eigenvalues of (default mixing * dielectric matrix)
  average eigenvalue GAMMA=   1.2067
  2.2874  1.7734  0.9175  0.9175  0.7190  0.6254

 Free energy of the ion-electron system (eV)
  ---------------------------------------------------
  alpha Z        PSCENC =        54.91709539
  Ewald energy   TEWEN  =      -377.63753703
  -1/2 Hartree   DENC   =       -22.18916946
  -exchange  EXHF       =         0.00000000
  -V(xc)+E(xc)   XCENC  =       -50.96266391
  PAW double counting   =       277.71343856     -205.84029216
  entropy T*S    EENTRO =         0.00007118
  eigenvalues    EBANDS =        23.99533954
  atomic energy  EATOM  =       277.79342126
  ---------------------------------------------------
  free energy    TOTEN  =       -22.21029663 eV

  energy without entropy =      -22.21036781  energy(sigma->0) =      -22.21032036


--------------------------------------------------------------------------------------------------------




----------------------------------------- Iteration    1(  12)  ---------------------------------------


    POTLOK:  cpu time    0.43: real time    0.43
    SETDIJ:  cpu time    0.09: real time    0.09
     EDDAV:  cpu time    5.16: real time    5.16
       DOS:  cpu time    0.01: real time    0.01
    --------------------------------------------
      LOOP:  cpu time    5.69: real time    5.70

 eigenvalue-minimisations  :  1564
 total energy-change (2. order) : 0.2464014E-04  (-0.3388898E-05)
 number of electron       9.0000001 magnetization       0.0000757
 augmentation part        0.4722746 magnetization       0.0001726

 Free energy of the ion-electron system (eV)
  ---------------------------------------------------
  alpha Z        PSCENC =        54.91709539
  Ewald energy   TEWEN  =      -377.63753703
  -1/2 Hartree   DENC   =       -22.19905890
  -exchange  EXHF       =         0.00000000
  -V(xc)+E(xc)   XCENC  =       -50.96187996
  PAW double counting   =       278.93961391     -207.07669015
  entropy T*S    EENTRO =         0.00006342
  eigenvalues    EBANDS =        24.01470007
  atomic energy  EATOM  =       277.79342126
  ---------------------------------------------------
  free energy    TOTEN  =       -22.21027199 eV

  energy without entropy =      -22.21033541  energy(sigma->0) =      -22.21029313


--------------------------------------------------------------------------------------------------------




 average (electrostatic) potential at core
  the test charge radii are     0.6991  1.2538
  (the norm of the test charge is              1.0000)
       1 -46.1140       2 -33.4508
 
 
 
 E-fermi :   8.7595     XC(G=0): -13.1657     alpha+bet :-16.0468


 spin component 1

 k-point   1 :       0.0625    0.0625    0.0625
  band No.  band energies     occupation 
      1      -5.9535      1.00000
      2       6.9316      1.00000
      3       7.2864      1.00000
      4       7.2864      1.00000
      5       8.0598      1.00000
      6       8.0598      1.00000
      7       8.8166     -0.03428
      8      10.4729      0.00000
      9      10.4729      0.00000
     10      16.0610      0.00000
     11      19.2949      0.00000
     12      21.4201      0.00000

 k-point   2 :       0.1875    0.0625    0.0625
  band No.  band energies     occupation 
      1      -5.3975      1.00000
      2       5.3523      1.00000
      3       5.8086      1.00000
      4       5.9765      1.00000
      5       8.0305      1.00000
      6       8.9945      0.00000
      7       9.6589      0.00000
      8      11.6345      0.00000
      9      13.2197      0.00000
     10      17.0390      0.00000
     11      20.6711      0.00000
     12      21.4195      0.00000

 k-point   3 :       0.3125    0.0625    0.0625
  band No.  band energies     occupation 
      1      -4.1519      1.00000
      2       3.1190      1.00000
      3       4.3269      1.00000
      4       4.6482      1.00000
      5       9.2306      0.00000
      6       9.8367      0.00000
      7      10.6523      0.00000
      8      14.4609      0.00000
      9      16.2467      0.00000
     10      17.9400      0.00000
     11      21.4125      0.00000
     12      22.3813      0.00000

 k-point   4 :       0.4375    0.0625    0.0625
  band No.  band energies     occupation 
      1      -2.5570      1.00000
      2       1.1171      1.00000
      3       3.5131      1.00000
      4       3.6953      1.00000
      5      10.8130      0.00000
      6      11.0120      0.00000
      7      12.0112      0.00000
      8      16.1599      0.00000
      9      17.3210      0.00000
     10      18.7231      0.00000
     11      21.4104      0.00000
     12      22.7017      0.00000

 k-point   5 :      -0.4375    0.0625    0.0625
  band No.  band energies     occupation 
      1      -1.7126      1.00000
      2       0.1999      1.00000
      3       3.3609      1.00000
      4       3.4032      1.00000
      5      11.3529      0.00000
      6      11.7905      0.00000
      7      12.6658      0.00000
      8      14.9099      0.00000
      9      18.7599      0.00000
     10      19.1427      0.00000
     11      21.4078      0.00000
     12      21.7042      0.00000

 k-point   6 :      -0.3125    0.0625    0.0625
  band No.  band energies     occupation 
      1      -3.1103      1.00000
      2       1.7478      1.00000
      3       3.7206      1.00000
      4       3.9900      1.00000
      5       9.8775      0.00000
      6      11.0896      0.00000
      7      11.4482      0.00000
      8      16.5081      0.00000
      9      16.8112      0.00000
     10      18.1236      0.00000
     11      21.4091      0.00000
     12      22.7937      0.00000

 k-point   7 :      -0.1875    0.0625    0.0625
  band No.  band energies     occupation 
      1      -4.6329      1.00000
      2       3.7721      1.00000
      3       4.8054      1.00000
      4       5.2088      1.00000
      5       8.5012      1.00000
      6       9.6722      0.00000
      7      10.2546      0.00000
      8      13.6256      0.00000
      9      14.9988      0.00000
     10      17.9585      0.00000
     11      21.4155      0.00000
     12      22.0246      0.00000

 k-point   8 :      -0.0625    0.0625    0.0625
  band No.  band energies     occupation 
      1      -5.6732      1.00000
      2       5.8800      1.00000
      3       6.4705      1.00000
      4       6.7184      1.00000
      5       7.5598      1.00000
      6       8.9232     -0.00002
      7       9.4843      0.00000
      8      10.7100      0.00000
      9      12.2050      0.00000
     10      16.6462      0.00000
     11      20.0256      0.00000
     12      21.4196      0.00000

 k-point   9 :       0.1875    0.1875    0.0625
  band No.  band energies     occupation 
      1      -5.1642      1.00000
      2       4.3395      1.00000
      3       5.9469      1.00000
      4       6.3637      1.00000
      5       7.1653      1.00000
      6       9.7431      0.00000
      7      10.5291      0.00000
      8      11.2390      0.00000
      9      13.6240      0.00000
     10      17.8830      0.00000
     11      21.3240      0.00000
     12      21.4195      0.00000

 k-point  10 :       0.3125    0.1875    0.0625
  band No.  band energies     occupation 
      1      -4.2864      1.00000
      2       3.0057      1.00000
      3       4.8919      1.00000
      4       5.3808      1.00000
      5       7.7223      1.00000
      6      10.6767      0.00000
      7      11.5004      0.00000
      8      12.6900      0.00000
      9      15.5273      0.00000
     10      19.2274      0.00000
     11      21.4157      0.00000
     12      22.9098      0.00000

 k-point  11 :       0.4375    0.1875    0.0625
  band No.  band energies     occupation 
      1      -3.0806      1.00000
      2       1.7809      1.00000
      3       3.8570      1.00000
      4       4.4055      1.00000
      5       8.8742     -0.00277
      6      11.7038      0.00000
      7      12.4103      0.00000
      8      15.0461      0.00000
      9      16.8372      0.00000
     10      19.3107      0.00000
     11      21.3947      0.00000
     12      22.0430      0.00000

 k-point  12 :      -0.4375    0.1875    0.0625
  band No.  band energies     occupation 
      1      -2.1612      1.00000
      2       0.8613      1.00000
      3       3.6099      1.00000
      4       3.7797      1.00000
      5      10.4562      0.00000
      6      11.6084      0.00000
      7      12.5794      0.00000
      8      16.3224      0.00000
      9      17.6421      0.00000
     10      18.5963      0.00000
     11      21.3975      0.00000
     12      21.9386      0.00000

 k-point  13 :      -0.3125    0.1875    0.0625
  band No.  band energies     occupation 
      1      -2.5750      1.00000
      2       1.2678      1.00000
      3       3.6645      1.00000
      4       3.9338      1.00000
      5      10.0733      0.00000
      6      11.5545      0.00000
      7      12.3130      0.00000
      8      15.5789      0.00000
      9      17.0920      0.00000
     10      19.2555      0.00000
     11      21.4068      0.00000
     12      22.5257      0.00000

 k-point  14 :      -0.1875    0.1875    0.0625
  band No.  band energies     occupation 
      1      -3.8104      1.00000
      2       2.6309      1.00000
      3       4.2635      1.00000
      4       4.5447      1.00000
      5       8.7775      0.21565
      6      11.0428      0.00000
      7      11.6071      0.00000
      8      13.2429      0.00000
      9      17.0150      0.00000
     10      18.6902      0.00000
     11      21.4124      0.00000
     12      22.8374      0.00000

 k-point  15 :      -0.0625    0.1875    0.0625
  band No.  band energies     occupation 
      1      -4.8955      1.00000
      2       4.1179      1.00000
      3       5.2622      1.00000
      4       5.5470      1.00000
      5       7.9810      1.00000
      6       9.7909      0.00000
      7      10.4354      0.00000
      8      12.1457      0.00000
      9      14.6108      0.00000
     10      17.9509      0.00000
     11      21.4182      0.00000
     12      21.7667      0.00000

 k-point  16 :       0.3125    0.3125    0.0625
  band No.  band energies     occupation 
      1      -4.0315      1.00000
      2       2.6326      1.00000
      3       5.0537      1.00000
      4       6.2775      1.00000
      5       6.7438      1.00000
      6      10.9257      0.00000
      7      12.5717      0.00000
      8      12.7731      0.00000
      9      15.4364      0.00000
     10      20.6476      0.00000
     11      21.4135      0.00000
     12      22.8183      0.00000

 k-point  17 :       0.4375    0.3125    0.0625
  band No.  band energies     occupation 
      1      -3.5608      1.00000
      2       2.6346      1.00000
      3       4.3253      1.00000
      4       5.5789      1.00000
      5       7.5414      1.00000
      6      12.0534      0.00000
      7      13.0193      0.00000
      8      13.3719      0.00000
      9      16.6704      0.00000
     10      19.9272      0.00000
     11      20.9717      0.00000
     12      21.4358      0.00000

 k-point  18 :      -0.4375    0.3125    0.0625
  band No.  band energies     occupation 
      1      -3.0140      1.00000
      2       2.4184      1.00000
      3       3.8722      1.00000
      4       4.7213      1.00000
      5       8.6478      1.00349
      6      12.1450      0.00000
      7      12.9219      0.00000
      8      15.1837      0.00000
      9      16.6786      0.00000
     10      19.4554      0.00000
     11      20.9861      0.00000
     12      21.4420      0.00000

 k-point  19 :      -0.3125    0.3125    0.0625
  band No.  band energies     occupation 
      1      -2.6041      1.00000
      2       1.7723      1.00000
      3       3.8247      1.00000
      4       4.1025      1.00000
      5      10.3811      0.00000
      6      10.9753      0.00000
      7      12.7015      0.00000
      8      14.8912      0.00000
      9      17.6954      0.00000
     10      19.9508      0.00000
     11      21.4025      0.00000
     12      21.9549      0.00000

 k-point  20 :      -0.1875    0.3125    0.0625
  band No.  band energies     occupation 
      1      -2.8138      1.00000
      2       1.6398      1.00000
      3       3.8449      1.00000
      4       4.0012      1.00000
      5       9.8198      0.00000
      6      11.8762      0.00000
      7      12.2379      0.00000
      8      14.0395      0.00000
      9      17.7528      0.00000
     10      19.3756      0.00000
     11      21.4074      0.00000
     12      22.5386      0.00000

 k-point  21 :      -0.0625    0.3125    0.0625
  band No.  band energies     occupation 
      1      -3.5638      1.00000
      2       2.2937      1.00000
      3       3.9860      1.00000
      4       4.4188      1.00000
      5       9.1255      0.00000
      6      10.7479      0.00000
      7      11.5762      0.00000
      8      14.8301      0.00000
      9      17.0191      0.00000
     10      18.3671      0.00000
     11      21.4098      0.00000
     12      22.6510      0.00000

 k-point  22 :       0.4375    0.4375    0.0625
  band No.  band energies     occupation 
      1      -3.8140      1.00000
      2       3.5060      1.00000
      3       4.3461      1.00000
      4       6.7087      1.00000
      5       7.0317      1.00000
      6      11.7573      0.00000
      7      13.2249      0.00000
      8      13.2377      0.00000
      9      16.9388      0.00000
     10      17.7279      0.00000
     11      21.4165      0.00000
     12      21.4757      0.00000

 k-point  23 :      -0.4375    0.4375    0.0625
  band No.  band energies     occupation 
      1      -3.6705      1.00000
      2       3.9107      1.00000
      3       4.0875      1.00000
      4       5.8075      1.00000
      5       7.7168      1.00000
      6      12.7764      0.00000
      7      12.9901      0.00000
      8      13.1935      0.00000
      9      16.2378      0.00000
     10      18.2697      0.00000
     11      21.2397      0.00000
     12      21.4276      0.00000

 k-point  24 :      -0.3125    0.4375    0.0625
  band No.  band energies     occupation 
      1      -3.1288      1.00000
      2       2.8857      1.00000
      3       3.9290      1.00000
      4       4.8219      1.00000
      5       8.5830      1.00000
      6      12.0523      0.00000
      7      13.0584      0.00000
      8      15.1467      0.00000
      9      15.8116      0.00000
     10      19.9692      0.00000
     11      21.3110      0.00000
     12      21.4428      0.00000

 k-point  25 :      -0.1875    0.4375    0.0625
  band No.  band energies     occupation 
      1      -2.4162      1.00000
      2       1.3646      1.00000
      3       3.7567      1.00000
      4       3.9765      1.00000
      5      10.4101      0.00000
      6      11.1853      0.00000
      7      12.5154      0.00000
      8      16.1616      0.00000
      9      17.5177      0.00000
     10      18.8094      0.00000
     11      21.3995      0.00000
     12      22.0449      0.00000

 k-point  26 :      -0.0625    0.4375    0.0625
  band No.  band energies     occupation 
      1      -2.1489      1.00000
      2       0.7084      1.00000
      3       3.4752      1.00000
      4       3.6581      1.00000
      5      10.6260      0.00000
      6      11.7011      0.00000
      7      12.4624      0.00000
      8      15.8282      0.00000
      9      17.5078      0.00000
     10      19.1928      0.00000
     11      21.4069      0.00000
     12      22.1725      0.00000

 k-point  27 :      -0.4375   -0.4375    0.0625
  band No.  band energies     occupation 
      1      -3.8820      1.00000
      2       4.1234      1.00000
      3       4.1936      1.00000
      4       6.8791      1.00000
      5       7.1559      1.00000
      6      11.9755      0.00000
      7      13.1325      0.00000
      8      13.1863      0.00000
      9      16.3186      0.00000
     10      17.5338      0.00000
     11      21.2353      0.00000
     12      21.4263      0.00000

 k-point  28 :      -0.3125   -0.4375    0.0625
  band No.  band energies     occupation 
      1      -3.5920      1.00000
      2       3.3145      1.00000
      3       4.1351      1.00000
      4       5.7492      1.00000
      5       7.6351      1.00000
      6      12.5012      0.00000
      7      13.0899      0.00000
      8      13.2938      0.00000
      9      17.0207      0.00000
     10      18.2555      0.00000
     11      21.2447      0.00000
     12      21.4317      0.00000

 k-point  29 :      -0.1875   -0.4375    0.0625
  band No.  band energies     occupation 
      1      -2.9188      1.00000
      2       1.8827      1.00000
      3       3.8389      1.00000
      4       4.5409      1.00000
      5       8.7243      0.96146
      6      12.1941      0.00000
      7      12.7924      0.00000
      8      15.1254      0.00000
      9      16.9466      0.00000
     10      19.7330      0.00000
     11      20.7948      0.00000
     12      21.4468      0.00000

 k-point  30 :      -0.3125   -0.3125    0.0625
  band No.  band energies     occupation 
      1      -3.8006      1.00000
      2       2.8207      1.00000
      3       4.6479      1.00000
      4       6.4681      1.00000
      5       6.8482      1.00000
      6      11.3880      0.00000
      7      13.1058      0.00000
      8      13.1932      0.00000
      9      16.2160      0.00000
     10      19.8494      0.00000
     11      21.4182      0.00000
     12      21.5446      0.00000

 k-point  31 :      -0.1875   -0.3125    0.0625
  band No.  band energies     occupation 
      1      -3.7772      1.00000
      2       2.4610      1.00000
      3       4.5831      1.00000
      4       5.4168      1.00000
      5       7.5514      1.00000
      6      11.4446      0.00000
      7      12.4621      0.00000
      8      13.1852      0.00000
      9      16.1132      0.00000
     10      20.2743      0.00000
     11      21.4006      0.00000
     12      22.2017      0.00000

 k-point  32 :      -0.1875   -0.1875    0.0625
  band No.  band energies     occupation 
      1      -4.5482      1.00000
      2       3.1751      1.00000
      3       5.4990      1.00000
      4       6.2249      1.00000
      5       6.8417      1.00000
      6      10.3935      0.00000
      7      11.6378      0.00000
      8      12.0229      0.00000
      9      14.6223      0.00000
     10      19.4442      0.00000
     11      21.4180      0.00000
     12      22.9418      0.00000

 k-point  33 :       0.1875    0.1875    0.1875
  band No.  band energies     occupation 
      1      -5.1269      1.00000
      2       4.7397      1.00000
      3       5.4968      1.00000
      4       5.4968      1.00000
      5       8.7076      1.02863
      6       8.7076      1.02863
      7       9.6054      0.00000
      8      13.3630      0.00000
      9      13.3630      0.00000
     10      17.3133      0.00000
     11      21.1967      0.00000
     12      21.4204      0.00000

 k-point  34 :       0.3125    0.1875    0.1875
  band No.  band energies     occupation 
      1      -4.4054      1.00000
      2       3.5376      1.00000
      3       4.5175      1.00000
      4       4.8929      1.00000
      5       8.6677      1.01311
      6      10.2612      0.00000
      7      10.7800      0.00000
      8      12.7353      0.00000
      9      16.1623      0.00000
     10      18.0989      0.00000
     11      21.4162      0.00000
     12      22.4062      0.00000

 k-point  35 :       0.4375    0.1875    0.1875
  band No.  band energies     occupation 
      1      -3.2418      1.00000
      2       2.0308      1.00000
      3       3.8508      1.00000
      4       4.1764      1.00000
      5       9.5829      0.00000
      6      11.2899      0.00000
      7      12.0871      0.00000
      8      13.6926      0.00000
      9      17.8180      0.00000
     10      18.6122      0.00000
     11      21.4110      0.00000
     12      22.7577      0.00000

 k-point  36 :      -0.4375    0.1875    0.1875
  band No.  band energies     occupation 
      1      -2.2922      1.00000
      2       1.0407      1.00000
      3       3.7066      1.00000
      4       3.7689      1.00000
      5      11.0302      0.00000
      6      11.1780      0.00000
      7      12.0335      0.00000
      8      15.9154      0.00000
      9      17.6812      0.00000
     10      18.8632      0.00000
     11      21.4083      0.00000
     12      22.2821      0.00000

 k-point  37 :      -0.3125    0.1875    0.1875
  band No.  band energies     occupation 
      1      -2.5247      1.00000
      2       1.3240      1.00000
      3       3.6762      1.00000
      4       4.1445      1.00000
      5       9.3993      0.00000
      6      12.0957      0.00000
      7      12.7312      0.00000
      8      16.5274      0.00000
      9      16.5755      0.00000
     10      19.1864      0.00000
     11      21.1601      0.00000
     12      21.4766      0.00000

 k-point  38 :      -0.1875    0.1875    0.1875
  band No.  band energies     occupation 
      1      -3.5279      1.00000
      2       2.2198      1.00000
      3       4.1989      1.00000
      4       5.1040      1.00000
      5       7.9056      1.00000
      6      11.5891      0.00000
      7      12.3804      0.00000
      8      14.1666      0.00000
      9      16.4144      0.00000
     10      19.7826      0.00000
     11      21.3890      0.00000
     12      21.9308      0.00000

 k-point  39 :       0.3125    0.3125    0.1875
  band No.  band energies     occupation 
      1      -4.0308      1.00000
      2       2.7621      1.00000
      3       4.4204      1.00000
      4       5.0736      1.00000
      5       8.1651      1.00000
      6      10.6868      0.00000
      7      11.3484      0.00000
      8      13.9385      0.00000
      9      15.9669      0.00000
     10      18.9292      0.00000
     11      21.4122      0.00000
     12      22.6499      0.00000

 k-point  40 :       0.4375    0.3125    0.1875
  band No.  band energies     occupation 
      1      -3.3232      1.00000
      2       2.1098      1.00000
      3       4.1556      1.00000
      4       4.4639      1.00000
      5       8.6731      1.01735
      6      11.8705      0.00000
      7      12.3828      0.00000
      8      13.6261      0.00000
      9      17.0533      0.00000
     10      19.6550      0.00000
     11      21.3983      0.00000
     12      22.1520      0.00000

 k-point  41 :      -0.4375    0.3125    0.1875
  band No.  band energies     occupation 
      1      -2.7394      1.00000
      2       1.8495      1.00000
      3       3.8613      1.00000
      4       4.1073      1.00000
      5       9.8450      0.00000
      6      11.5684      0.00000
      7      12.7397      0.00000
      8      14.3444      0.00000
      9      17.6891      0.00000
     10      19.8540      0.00000
     11      21.3905      0.00000
     12      21.9334      0.00000

 k-point  42 :      -0.3125    0.3125    0.1875
  band No.  band energies     occupation 
      1      -2.7060      1.00000
      2       1.9842      1.00000
      3       3.8067      1.00000
      4       4.2346      1.00000
      5       9.8964      0.00000
      6      11.1602      0.00000
      7      12.8835      0.00000
      8      15.9142      0.00000
      9      16.4186      0.00000
     10      19.8403      0.00000
     11      21.3864      0.00000
     12      21.8325      0.00000

 k-point  43 :      -0.1875    0.3125    0.1875
  band No.  band energies     occupation 
      1      -3.1491      1.00000
      2       2.2682      1.00000
      3       4.0246      1.00000
      4       4.6141      1.00000
      5       8.6301      1.00078
      6      12.2783      0.00000
      7      12.8610      0.00000
      8      13.7714      0.00000
      9      17.2242      0.00000
     10      20.0994      0.00000
     11      20.8688      0.00000
     12      21.4470      0.00000

 k-point  44 :       0.4375    0.4375    0.1875
  band No.  band energies     occupation 
      1      -3.3249      1.00000
      2       2.3531      1.00000
      3       4.0647      1.00000
      4       5.2623      1.00000
      5       7.7834      1.00000
      6      12.2488      0.00000
      7      12.9428      0.00000
      8      14.1943      0.00000
      9      16.7947      0.00000
     10      19.9984      0.00000
     11      20.4669      0.00000
     12      21.4351      0.00000

 k-point  45 :      -0.4375    0.4375    0.1875
  band No.  band energies     occupation 
      1      -3.2255      1.00000
      2       2.9325      1.00000
      3       3.9354      1.00000
      4       4.7444      1.00000
      5       8.6727      1.01702
      6      12.2003      0.00000
      7      13.0987      0.00000
      8      13.8494      0.00000
      9      16.8731      0.00000
     10      19.5321      0.00000
     11      21.2349      0.00000
     12      21.4452      0.00000

 k-point  46 :      -0.3125    0.4375    0.1875
  band No.  band energies     occupation 
      1      -3.0448      1.00000
      2       3.2046      1.00000
      3       3.8473      1.00000
      4       4.1330      1.00000
      5       9.9263      0.00000
      6      11.1410      0.00000
      7      13.1721      0.00000
      8      14.3299      0.00000
      9      15.7447      0.00000
     10      21.3348      0.00000
     11      21.5714      0.00000
     12      22.0589      0.00000

 k-point  47 :      -0.1875    0.4375    0.1875
  band No.  band energies     occupation 
      1      -2.9010      1.00000
      2       2.5113      1.00000
      3       3.8364      1.00000
      4       4.2633      1.00000
      5       9.8831      0.00000
      6      11.1507      0.00000
      7      13.0778      0.00000
      8      14.5270      0.00000
      9      16.6088      0.00000
     10      20.7411      0.00000
     11      21.3944      0.00000
     12      21.8193      0.00000

 k-point  48 :      -0.4375   -0.4375    0.1875
  band No.  band energies     occupation 
      1      -3.4627      1.00000
      2       3.4359      1.00000
      3       4.0372      1.00000
      4       5.6179      1.00000
      5       7.6668      1.00000
      6      12.6090      0.00000
      7      13.1164      0.00000
      8      14.1087      0.00000
      9      16.0496      0.00000
     10      18.8192      0.00000
     11      21.1778      0.00000
     12      21.4285      0.00000

 k-point  49 :      -0.3125   -0.4375    0.1875
  band No.  band energies     occupation 
      1      -3.3288      1.00000
      2       3.5890      1.00000
      3       3.9475      1.00000
      4       4.6594      1.00000
      5       8.7262      0.94733
      6      12.1643      0.00000
      7      13.1697      0.00000
      8      13.8321      0.00000
      9      15.9981      0.00000
     10      19.7968      0.00000
     11      21.4207      0.00000
     12      21.4892      0.00000

 k-point  50 :      -0.3125   -0.3125    0.1875
  band No.  band energies     occupation 
      1      -3.3736      1.00000
      2       2.9484      1.00000
      3       3.9990      1.00000
      4       5.4697      1.00000
      5       7.7326      1.00000
      6      12.5686      0.00000
      7      13.0425      0.00000
      8      14.1212      0.00000
      9      16.8893      0.00000
     10      18.6927      0.00000
     11      20.9591      0.00000
     12      21.4309      0.00000

 k-point  51 :       0.3125    0.3125    0.3125
  band No.  band energies     occupation 
      1      -3.6852      1.00000
      2       2.4822      1.00000
      3       4.1098      1.00000
      4       4.1098      1.00000
      5      10.1281      0.00000
      6      10.1281      0.00000
      7      10.5280      0.00000
      8      16.3852      0.00000
      9      16.3852      0.00000
     10      17.5613      0.00000
     11      21.4097      0.00000
     12      22.5343      0.00000

 k-point  52 :       0.4375    0.3125    0.3125
  band No.  band energies     occupation 
      1      -3.0005      1.00000
      2       1.6715      1.00000
      3       3.7006      1.00000
      4       4.0397      1.00000
      5      10.0619      0.00000
[...]
      5       8.1653      1.00000
      6      10.6868      0.00000
      7      11.3485      0.00000
      8      13.9392      0.00000
      9      15.9677      0.00000
     10      18.9299      0.00000
     11      21.4123      0.00000
     12      22.6497      0.00000

 k-point  40 :       0.4375    0.3125    0.1875
  band No.  band energies     occupation 
      1      -3.3222      1.00000
      2       2.1104      1.00000
      3       4.1561      1.00000
      4       4.4645      1.00000
      5       8.6734      1.01758
      6      11.8705      0.00000
      7      12.3829      0.00000
      8      13.6267      0.00000
      9      17.0541      0.00000
     10      19.6559      0.00000
     11      21.3985      0.00000
     12      22.1527      0.00000

 k-point  41 :      -0.4375    0.3125    0.1875
  band No.  band energies     occupation 
      1      -2.7384      1.00000
      2       1.8501      1.00000
      3       3.8618      1.00000
      4       4.1079      1.00000
      5       9.8452      0.00000
      6      11.5683      0.00000
      7      12.7397      0.00000
      8      14.3450      0.00000
      9      17.6899      0.00000
     10      19.8546      0.00000
     11      21.3908      0.00000
     12      21.9342      0.00000

 k-point  42 :      -0.3125    0.3125    0.1875
  band No.  band energies     occupation 
      1      -2.7050      1.00000
      2       1.9848      1.00000
      3       3.8073      1.00000
      4       4.2353      1.00000
      5       9.8966      0.00000
      6      11.1602      0.00000
      7      12.8832      0.00000
      8      15.9149      0.00000
      9      16.4194      0.00000
     10      19.8405      0.00000
     11      21.3867      0.00000
     12      21.8333      0.00000

 k-point  43 :      -0.1875    0.3125    0.1875
  band No.  band energies     occupation 
      1      -3.1481      1.00000
      2       2.2688      1.00000
      3       4.0250      1.00000
      4       4.6147      1.00000
      5       8.6305      1.00081
      6      12.2782      0.00000
      7      12.8610      0.00000
      8      13.7719      0.00000
      9      17.2250      0.00000
     10      20.1002      0.00000
     11      20.8697      0.00000
     12      21.4468      0.00000

 k-point  44 :       0.4375    0.4375    0.1875
  band No.  band energies     occupation 
      1      -3.3240      1.00000
      2       2.3537      1.00000
      3       4.0652      1.00000
      4       5.2630      1.00000
      5       7.7838      1.00000
      6      12.2486      0.00000
      7      12.9426      0.00000
      8      14.1948      0.00000
      9      16.7955      0.00000
     10      19.9992      0.00000
     11      20.4676      0.00000
     12      21.4350      0.00000

 k-point  45 :      -0.4375    0.4375    0.1875
  band No.  band energies     occupation 
      1      -3.2246      1.00000
      2       2.9332      1.00000
      3       3.9358      1.00000
      4       4.7452      1.00000
      5       8.6733      1.01747
      6      12.2002      0.00000
      7      13.0985      0.00000
      8      13.8498      0.00000
      9      16.8739      0.00000
     10      19.5328      0.00000
     11      21.2356      0.00000
     12      21.4451      0.00000

 k-point  46 :      -0.3125    0.4375    0.1875
  band No.  band energies     occupation 
      1      -3.0438      1.00000
      2       3.2053      1.00000
      3       3.8479      1.00000
      4       4.1337      1.00000
      5       9.9267      0.00000
      6      11.1412      0.00000
      7      13.1717      0.00000
      8      14.3303      0.00000
      9      15.7455      0.00000
     10      21.3355      0.00000
     11      21.5716      0.00000
     12      22.0592      0.00000

 k-point  47 :      -0.1875    0.4375    0.1875
  band No.  band energies     occupation 
      1      -2.9000      1.00000
      2       2.5119      1.00000
      3       3.8369      1.00000
      4       4.2639      1.00000
      5       9.8834      0.00000
      6      11.1508      0.00000
      7      13.0775      0.00000
      8      14.5275      0.00000
      9      16.6096      0.00000
     10      20.7415      0.00000
     11      21.3946      0.00000
     12      21.8201      0.00000

 k-point  48 :      -0.4375   -0.4375    0.1875
  band No.  band energies     occupation 
      1      -3.4618      1.00000
      2       3.4363      1.00000
      3       4.0379      1.00000
      4       5.6187      1.00000
      5       7.6673      1.00000
      6      12.6087      0.00000
      7      13.1162      0.00000
      8      14.1093      0.00000
      9      16.0502      0.00000
     10      18.8202      0.00000
     11      21.1780      0.00000
     12      21.4284      0.00000

 k-point  49 :      -0.3125   -0.4375    0.1875
  band No.  band energies     occupation 
      1      -3.3280      1.00000
      2       3.5895      1.00000
      3       3.9481      1.00000
      4       4.6601      1.00000
      5       8.7268      0.94253
      6      12.1643      0.00000
      7      13.1693      0.00000
      8      13.8325      0.00000
      9      15.9988      0.00000
     10      19.7978      0.00000
     11      21.4207      0.00000
     12      21.4893      0.00000

 k-point  50 :      -0.3125   -0.3125    0.1875
  band No.  band energies     occupation 
      1      -3.3727      1.00000
      2       2.9490      1.00000
      3       3.9995      1.00000
      4       5.4704      1.00000
      5       7.7331      1.00000
      6      12.5683      0.00000
      7      13.0423      0.00000
      8      14.1218      0.00000
      9      16.8902      0.00000
     10      18.6934      0.00000
     11      20.9597      0.00000
     12      21.4308      0.00000

 k-point  51 :       0.3125    0.3125    0.3125
  band No.  band energies     occupation 
      1      -3.6842      1.00000
      2       2.4829      1.00000
      3       4.1104      1.00000
      4       4.1104      1.00000
      5      10.1281      0.00000
      6      10.1281      0.00000
      7      10.5281      0.00000
      8      16.3862      0.00000
      9      16.3862      0.00000
     10      17.5617      0.00000
     11      21.4097      0.00000
     12      22.5342      0.00000

 k-point  52 :       0.4375    0.3125    0.3125
  band No.  band energies     occupation 
      1      -2.9995      1.00000
      2       1.6721      1.00000
      3       3.7011      1.00000
      4       4.0402      1.00000
      5      10.0619      0.00000
      6      10.7587      0.00000
      7      12.1328      0.00000
      8      15.2903      0.00000
      9      17.2511      0.00000
     10      18.6574      0.00000
     11      21.4103      0.00000
     12      22.8989      0.00000

 k-point  53 :      -0.4375    0.3125    0.3125
  band No.  band energies     occupation 
      1      -2.5168      1.00000
      2       1.4276      1.00000
      3       3.8444      1.00000
      4       3.8553      1.00000
      5      10.6600      0.00000
      6      11.3014      0.00000
      7      12.2293      0.00000
      8      14.4835      0.00000
      9      18.6744      0.00000
     10      18.9123      0.00000
     11      21.4087      0.00000
     12      22.0824      0.00000

 k-point  54 :      -0.3125    0.3125    0.3125
  band No.  band energies     occupation 
      1      -2.8147      1.00000
      2       2.2016      1.00000
      3       3.8616      1.00000
      4       4.4706      1.00000
      5       9.2214      0.00000
      6      11.7384      0.00000
      7      12.8302      0.00000
      8      15.3611      0.00000
      9      16.7694      0.00000
     10      20.1482      0.00000
     11      21.3586      0.00000
     12      21.4998      0.00000

 k-point  55 :       0.4375    0.4375    0.3125
  band No.  band energies     occupation 
      1      -2.6416      1.00000
      2       1.2558      1.00000
      3       3.6109      1.00000
      4       4.0086      1.00000
      5       9.5819      0.00000
      6      11.8268      0.00000
      7      12.4332      0.00000
      8      16.3059      0.00000
      9      16.5511      0.00000
     10      19.1455      0.00000
     11      21.3982      0.00000
     12      22.0889      0.00000

 k-point  56 :      -0.4375    0.4375    0.3125
  band No.  band energies     occupation 
      1      -2.5182      1.00000
      2       1.4307      1.00000
      3       3.7426      1.00000
      4       4.0427      1.00000
      5       9.9542      0.00000
      6      11.5594      0.00000
      7      12.5992      0.00000
      8      15.7759      0.00000
      9      17.2797      0.00000
     10      19.2042      0.00000
     11      21.3906      0.00000
     12      21.9186      0.00000

 k-point  57 :      -0.3125    0.4375    0.3125
  band No.  band energies     occupation 
      1      -2.8621      1.00000
      2       2.4735      1.00000
      3       3.8444      1.00000
      4       4.3052      1.00000
      5       9.8537      0.00000
      6      11.0833      0.00000
      7      13.0524      0.00000
      8      15.0666      0.00000
      9      16.1816      0.00000
     10      21.0576      0.00000
     11      21.4059      0.00000
     12      21.8957      0.00000

 k-point  58 :      -0.4375   -0.4375    0.3125
  band No.  band energies     occupation 
      1      -2.6718      1.00000
      2       1.7941      1.00000
      3       3.7931      1.00000
      4       4.3331      1.00000
      5       9.3017      0.00000
      6      11.9498      0.00000
      7      12.6377      0.00000
      8      16.4242      0.00000
      9      16.6752      0.00000
     10      19.0896      0.00000
     11      21.2485      0.00000
     12      21.4891      0.00000

 k-point  59 :       0.4375    0.4375    0.4375
  band No.  band energies     occupation 
      1      -2.0231      1.00000
      2       0.5170      1.00000
      3       3.3976      1.00000
      4       3.3976      1.00000
      5      11.5094      0.00000
      6      11.5094      0.00000
      7      12.1379      0.00000
      8      15.2355      0.00000
      9      18.7666      0.00000
     10      18.7666      0.00000
     11      21.4119      0.00000
     12      22.0642      0.00000

 k-point  60 :      -0.4375    0.4375    0.4375
  band No.  band energies     occupation 
      1      -1.9233      1.00000
      2       0.5021      1.00000
      3       3.5264      1.00000
      4       3.5514      1.00000
      5      11.1593      0.00000
      6      11.5353      0.00000
      7      12.3615      0.00000
      8      15.8621      0.00000
      9      18.0650      0.00000
     10      18.7940      0.00000
     11      21.4074      0.00000
     12      22.0004      0.00000


--------------------------------------------------------------------------------------------------------


 soft charge-density along one line, spin component           1
         0         1         2         3         4         5         6         7         8         9
 total charge-density along one line
 
 soft charge-density along one line, spin component           2
         0         1         2         3         4         5         6         7         8         9
 total charge-density along one line
 
 pseudopotential strength for first ion, spin component:           1
  9.488  -0.004   0.000   0.000   0.000   0.000   0.000   0.000
 -0.004  -0.002   0.000   0.000   0.000   0.000   0.000   0.000
  0.000   0.000  -3.699   0.000   0.000  -0.008   0.000   0.000
  0.000   0.000   0.000  -3.699   0.000   0.000  -0.008   0.000
  0.000   0.000   0.000   0.000  -3.699   0.000   0.000  -0.008
  0.000   0.000  -0.008   0.000   0.000  -0.758   0.000   0.000
  0.000   0.000   0.000  -0.008   0.000   0.000  -0.758   0.000
  0.000   0.000   0.000   0.000  -0.008   0.000   0.000  -0.758
 pseudopotential strength for first ion, spin component:           2
  9.488  -0.004   0.000   0.000   0.000   0.000   0.000   0.000
 -0.004  -0.002   0.000   0.000   0.000   0.000   0.000   0.000
  0.000   0.000  -3.699   0.000   0.000  -0.008   0.000   0.000
  0.000   0.000   0.000  -3.699   0.000   0.000  -0.008   0.000
  0.000   0.000   0.000   0.000  -3.699   0.000   0.000  -0.008
  0.000   0.000  -0.008   0.000   0.000  -0.758   0.000   0.000
  0.000   0.000   0.000  -0.008   0.000   0.000  -0.758   0.000
  0.000   0.000   0.000   0.000  -0.008   0.000   0.000  -0.758
 total augmentation occupancy for first ion, spin component:           1
  1.527  -0.851   0.000   0.000   0.000   0.000   0.000   0.000
 -0.851   0.541   0.000   0.000   0.000   0.000   0.000   0.000
  0.000   0.000   1.044   0.000   0.000   0.134   0.000   0.000
  0.000   0.000   0.000   1.044   0.000   0.000   0.134   0.000
  0.000   0.000   0.000   0.000   1.044   0.000   0.000   0.134
  0.000   0.000   0.134   0.000   0.000   0.019   0.000   0.000
  0.000   0.000   0.000   0.134   0.000   0.000   0.019   0.000
  0.000   0.000   0.000   0.000   0.134   0.000   0.000   0.019
 total augmentation occupancy for first ion, spin component:           2
  0.000   0.000   0.000   0.000   0.000   0.000   0.000   0.000
  0.000   0.000   0.000   0.000   0.000   0.000   0.000   0.000
  0.000   0.000   0.000   0.000   0.000   0.000   0.000   0.000
  0.000   0.000   0.000   0.000   0.000   0.000   0.000   0.000
  0.000   0.000   0.000   0.000   0.000   0.000   0.000   0.000
  0.000   0.000   0.000   0.000   0.000   0.000   0.000   0.000
  0.000   0.000   0.000   0.000   0.000   0.000   0.000   0.000
  0.000   0.000   0.000   0.000   0.000   0.000   0.000   0.000


------------------------ aborting loop because EDIFF is reached ----------------------------------------


 


 total charge     
 
# of ion     s       p       d       tot
----------------------------------------
  1        0.873   1.606   0.000   2.479
  2        0.609   1.051   3.647   5.308
------------------------------------------------
tot        1.482   2.658   3.647   7.787
 


 magnetization (x)
 
# of ion     s       p       d       tot
----------------------------------------
  1        0.000   0.000   0.000   0.000
  2        0.000   0.000   0.000   0.000
------------------------------------------------
tot        0.000   0.000   0.000   0.000
 
    CHARGE:  cpu time    0.49: real time    0.49
    FORLOC:  cpu time    0.01: real time    0.01
    FORNL :  cpu time    0.88: real time    0.88
    STRESS:  cpu time    1.61: real time    1.61
    FORCOR:  cpu time    0.40: real time    0.40
    FORHAR:  cpu time    0.05: real time    0.05
    MIXING:  cpu time    0.01: real time    0.01

  FORCE on cell =-STRESS in cart. coord.  units (eV):
  Direction    XX          YY          ZZ          XY          YZ          ZX
  --------------------------------------------------------------------------------------
  Alpha Z    54.91710    54.91710    54.91710
  Ewald    -125.87922  -125.87922  -125.87922     0.00000     0.00000     0.00000
  Hartree     7.39920     7.39920     7.39920     0.00000     0.00000     0.00000
  E(xc)     -38.28523   -38.28523   -38.28523     0.00000     0.00000     0.00000
  Local     -13.49068   -13.49068   -13.49068     0.00000     0.00000     0.00000
  n-local    -5.05574    -8.37362    -1.50139     0.81753    -0.87693    -0.01128
  augment     2.60541     2.60541     2.60541     0.00000     0.00000     0.00000
  Kinetic   122.71219   125.84718   110.56208     3.77297    -4.28617     0.00251
  Fock        0.00000     0.00000     0.00000     0.00000     0.00000     0.00000
  -------------------------------------------------------------------------------------
  Total       1.99682     1.99682     1.99682     0.00000     0.00000     0.00000
  in kB     148.70194   148.70194   148.70194     0.00000     0.00000     0.00000
  external pressure =      148.70 kB  Pullay stress =        0.00 kB


 VOLUME and BASIS-vectors are now :
 -----------------------------------------------------------------------------
  energy-cutoff  :      450.00
  volume of cell :       21.51
      direct lattice vectors                 reciprocal lattice vectors
     0.000000000  2.207500000  2.207500000    -0.226500566  0.226500566  0.226500566
     2.207500000  0.000000000  2.207500000     0.226500566 -0.226500566  0.226500566
     2.207500000  2.207500000  0.000000000     0.226500566  0.226500566 -0.226500566

  length of vectors
     3.121876439  3.121876439  3.121876439     0.392310489  0.392310489  0.392310489


 FORCES acting on ions
    electron-ion (+dipol)            ewald-force                    non-local-force                 convergence-correction
 -----------------------------------------------------------------------------------------------
   -.338E-13 -.207E-12 0.909E-13   -.592E-16 0.606E-15 0.192E-14   -.775E-25 0.258E-25 0.000E+00   -.371E-14 -.251E-14 -.292E-14
   -.792E-15 -.448E-14 -.334E-14   0.138E-15 -.340E-15 -.145E-14   0.000E+00 -.414E-23 0.000E+00   0.359E-15 0.260E-15 -.194E-15
 -----------------------------------------------------------------------------------------------
   -.346E-13 -.211E-12 0.876E-13   0.786E-16 0.266E-15 0.463E-15   -.775E-25 -.411E-23 0.000E+00   -.335E-14 -.225E-14 -.311E-14
 
 
 POSITION                                       TOTAL-FORCE (eV/Angst)
 -----------------------------------------------------------------------------------
      2.20750      2.20750      2.20750         0.000000      0.000000      0.000000
      0.00000      0.00000      0.00000         0.000000      0.000000      0.000000
 -----------------------------------------------------------------------------------
    total drift:                                0.000000      0.000000      0.000000


--------------------------------------------------------------------------------------------------------



  FREE ENERGIE OF THE ION-ELECTRON SYSTEM (eV)
  ---------------------------------------------------
  free  energy   TOTEN  =       -22.210272 eV

  energy  without entropy=      -22.210335  energy(sigma->0) =      -22.210293
 


--------------------------------------------------------------------------------------------------------


    POTLOK:  cpu time    0.50: real time    0.50


--------------------------------------------------------------------------------------------------------


 writing wavefunctions
     LOOP+:  cpu time  100.46: real time  100.78
    4ORBIT:  cpu time    0.00: real time    0.00
 


 total charge     
 
# of ion     s       p       d       tot
----------------------------------------
  1        0.873   1.606   0.000   2.479
  2        0.609   1.051   3.647   5.308
------------------------------------------------
tot        1.482   2.658   3.647   7.787
 


 magnetization (x)
 
# of ion     s       p       d       tot
----------------------------------------
  1        0.000   0.000   0.000   0.000
  2        0.000   0.000   0.000   0.000
------------------------------------------------
tot        0.000   0.000   0.000   0.000
 

 total amount of memory used by VASP on root node    64332. kBytes
========================================================================

   base      :      30000. kBytes
   nonl-proj :       8361. kBytes
   fftplans  :       3916. kBytes
   grid      :      10266. kBytes
   one-center:         62. kBytes
   wavefun   :      11727. kBytes
 
  
  
 General timing and accounting informations for this job:
 ========================================================
  
                  Total CPU time used (sec):      102.021
                            User time (sec):      101.647
                          System time (sec):        0.375
                         Elapsed time (sec):      102.442
  
                   Maximum memory used (kb):           0.
                   Average memory used (kb):           0.
  
                          Minor page faults:        20273
                          Major page faults:            0
                 Voluntary context switches:        11206
