PROCAR lm decomposed
# of k-points:   60         # of bands:  12         # of ions:   2

 k-point    1 :    0.06250000 0.06250000 0.06250000     weight = 0.00390625

band   1 # energy   -5.95349207 # occ.  1.00000000
 
ion      s     py     pz     px    dxy    dyz    dz2    dxz    dx2    tot
  1  0.318  0.000  0.000  0.000  0.000  0.000  0.000  0.000  0.000  0.319
  2  0.462  0.002  0.002  0.002  0.000  0.000  0.000  0.000  0.000  0.469
tot  0.779  0.003  0.003  0.003  0.000  0.000  0.000  0.000  0.000  0.788
 
band   2 # energy    6.93156410 # occ.  1.00000000
 
ion      s     py     pz     px    dxy    dyz    dz2    dxz    dx2    tot
  1  0.005  0.049  0.049  0.049  0.000  0.000  0.000  0.000  0.000  0.151
  2  0.004  0.012  0.012  0.012  0.223  0.223  0.000  0.223  0.000  0.710
tot  0.008  0.061  0.061  0.061  0.223  0.223  0.000  0.223  0.000  0.861
 
band   3 # energy    7.28639350 # occ.  1.00000000
 
ion      s     py     pz     px    dxy    dyz    dz2    dxz    dx2    tot
  1  0.000  0.115  0.025  0.034  0.000  0.000  0.000  0.000  0.000  0.175
  2  0.000  0.019  0.004  0.006  0.079  0.107  0.023  0.362  0.082  0.682
tot  0.000  0.134  0.029  0.040  0.079  0.107  0.023  0.362  0.082  0.857
 
band   4 # energy    7.28639351 # occ.  1.00000000
 
ion      s     py     pz     px    dxy    dyz    dz2    dxz    dx2    tot
  1  0.000  0.001  0.091  0.082  0.000  0.000  0.000  0.000  0.000  0.175
  2  0.000  0.000  0.015  0.014  0.287  0.259  0.082  0.004  0.023  0.682
tot  0.000  0.001  0.106  0.096  0.287  0.259  0.082  0.004  0.023  0.857
 
band   5 # energy    8.05975563 # occ.  1.00000000
 
ion      s     py     pz     px    dxy    dyz    dz2    dxz    dx2    tot
  1  0.000  0.136  0.030  0.040  0.000  0.000  0.000  0.000  0.000  0.206
  2  0.000  0.013  0.003  0.004  0.057  0.076  0.048  0.258  0.173  0.632
tot  0.000  0.149  0.033  0.044  0.057  0.076  0.048  0.258  0.173  0.838
 
band   6 # energy    8.05975563 # occ.  1.00000000
 
ion      s     py     pz     px    dxy    dyz    dz2    dxz    dx2    tot
  1  0.000  0.001  0.107  0.097  0.000  0.000  0.000  0.000  0.000  0.206
  2  0.000  0.000  0.010  0.009  0.204  0.184  0.173  0.003  0.048  0.632
tot  0.000  0.001  0.118  0.107  0.204  0.184  0.173  0.003  0.048  0.838
 
band   7 # energy    8.81659584 # occ. -0.03427567
 
ion      s     py     pz     px    dxy    dyz    dz2    dxz    dx2    tot
  1  0.013  0.124  0.124  0.124  0.000  0.000  0.000  0.000  0.000  0.384
  2  0.011  0.015  0.015  0.015  0.089  0.089  0.000  0.089  0.000  0.323
tot  0.024  0.138  0.138  0.138  0.089  0.089  0.000  0.089  0.000  0.708
 
band   8 # energy   10.47291455 # occ.  0.00000000
 
ion      s     py     pz     px    dxy    dyz    dz2    dxz    dx2    tot
  1  0.000  0.108  0.023  0.033  0.000  0.000  0.000  0.000  0.000  0.164
  2  0.000  0.024  0.005  0.007  0.001  0.001  0.140  0.003  0.521  0.702
tot  0.000  0.133  0.028  0.040  0.001  0.001  0.140  0.003  0.521  0.866
 
band   9 # energy   10.47291455 # occ.  0.00000000
 
ion      s     py     pz     px    dxy    dyz    dz2    dxz    dx2    tot
  1  0.000  0.001  0.086  0.077  0.000  0.000  0.000  0.000  0.000  0.164
  2  0.000  0.000  0.019  0.017  0.003  0.002  0.521  0.000  0.140  0.702
tot  0.000  0.001  0.106  0.094  0.003  0.002  0.521  0.000  0.140  0.866
 
band  10 # energy   16.06098588 # occ.  0.00000000
 
ion      s     py     pz     px    dxy    dyz    dz2    dxz    dx2    tot
  1  0.400  0.010  0.010  0.010  0.000  0.000  0.000  0.000  0.000  0.429
  2  0.260  0.003  0.003  0.003  0.000  0.000  0.000  0.000  0.000  0.270
tot  0.660  0.013  0.013  0.013  0.000  0.000  0.000  0.000  0.000  0.699
 
band  11 # energy   19.29493462 # occ.  0.00000000
 
ion      s     py     pz     px    dxy    dyz    dz2    dxz    dx2    tot
  1  0.000  0.000  0.000  0.000  0.000  0.000  0.000  0.000  0.000  0.000
  2  0.000  0.000  0.000  0.000  0.005  0.005  0.000  0.005  0.000  0.015
tot  0.000  0.000  0.000  0.000  0.005  0.005  0.000  0.005  0.000  0.015
 
band  12 # energy   21.42007626 # occ.  0.00000000
 
ion      s     py     pz     px    dxy    dyz    dz2    dxz    dx2    tot
  1  0.000  0.000  0.000  0.000  0.000  0.000  0.000  0.000  0.000  0.000
  2 43.978  0.000  0.000  0.000  0.000  0.000  0.000  0.000  0.000 43.978
tot 43.978  0.000  0.000  0.000  0.000  0.000  0.000  0.000  0.000 43.978
 

 k-point    2 :    0.18750000 0.06250000 0.06250000     weight = 0.01171875

band   1 # energy   -5.39746115 # occ.  1.00000000
 
ion      s     py     pz     px    dxy    dyz    dz2    dxz    dx2    tot
  1  0.325  0.002  0.002  0.000  0.000  0.000  0.000  0.000  0.000  0.329
  2  0.421  0.021  0.021  0.002  0.000  0.001  0.000  0.000  0.001  0.468
tot  0.746  0.023  0.023  0.003  0.000  0.001  0.000  0.000  0.001  0.797
 
band   2 # energy    5.35225521 # occ.  1.00000000
 
ion      s     py     pz     px    dxy    dyz    dz2    dxz    dx2    tot
  1  0.036  0.111  0.111  0.011  0.000  0.000  0.000  0.000  0.000  0.270
  2  0.034  0.022  0.022  0.009  0.058  0.230  0.029  0.058  0.086  0.546
tot  0.070  0.133  0.133  0.020  0.058  0.230  0.029  0.058  0.086  0.816
 
band   3 # energy    5.80860551 # occ.  1.00000000
 
ion      s     py     pz     px    dxy    dyz    dz2    dxz    dx2    tot
  1  0.000  0.151  0.151  0.000  0.000  0.000  0.000  0.000  0.000  0.301
  2  0.000  0.007  0.007  0.000  0.016  0.000  0.372  0.016  0.124  0.542
tot  0.000  0.158  0.158  0.000  0.016  0.000  0.372  0.016  0.124  0.843
 
band   4 # energy    5.97651911 # occ.  1.00000000
 
ion      s     py     pz     px    dxy    dyz    dz2    dxz    dx2    tot
  1  0.000  0.015  0.015  0.167  0.000  0.000  0.000  0.000  0.000  0.198
  2  0.001  0.001  0.001  0.057  0.232  0.029  0.025  0.232  0.076  0.655
tot  0.001  0.016  0.016  0.224  0.232  0.029  0.025  0.232  0.076  0.853
 
band   5 # energy    8.03045932 # occ.  1.00000000
 
ion      s     py     pz     px    dxy    dyz    dz2    dxz    dx2    tot
  1  0.000  0.004  0.004  0.000  0.000  0.000  0.000  0.000  0.000  0.007
  2  0.000  0.000  0.000  0.000  0.452  0.000  0.017  0.452  0.006  0.928
tot  0.000  0.004  0.004  0.000  0.452  0.000  0.017  0.452  0.006  0.935
 
band   6 # energy    8.99445240 # occ.  0.00000000
 
ion      s     py     pz     px    dxy    dyz    dz2    dxz    dx2    tot
  1  0.000  0.011  0.011  0.046  0.000  0.000  0.000  0.000  0.000  0.068
  2  0.001  0.001  0.001  0.002  0.046  0.492  0.063  0.046  0.188  0.841
tot  0.001  0.012  0.012  0.047  0.046  0.492  0.063  0.046  0.188  0.909
 
band   7 # energy    9.65894223 # occ.  0.00000000
 
ion      s     py     pz     px    dxy    dyz    dz2    dxz    dx2    tot
  1  0.024  0.027  0.027  0.238  0.000  0.000  0.000  0.000  0.000  0.317
  2  0.025  0.000  0.000  0.022  0.110  0.140  0.000  0.110  0.000  0.409
tot  0.049  0.028  0.028  0.260  0.110  0.140  0.000  0.110  0.000  0.726
 
band   8 # energy   11.63449588 # occ.  0.00000000
 
ion      s     py     pz     px    dxy    dyz    dz2    dxz    dx2    tot
  1  0.028  0.048  0.048  0.080  0.000  0.000  0.000  0.000  0.000  0.205
  2  0.023  0.010  0.010  0.018  0.005  0.039  0.129  0.005  0.388  0.627
tot  0.051  0.058  0.058  0.099  0.005  0.039  0.129  0.005  0.388  0.832
 
band   9 # energy   13.21972596 # occ.  0.00000000
 
ion      s     py     pz     px    dxy    dyz    dz2    dxz    dx2    tot
  1  0.000  0.125  0.125  0.000  0.000  0.000  0.000  0.000  0.000  0.251
  2  0.000  0.035  0.035  0.000  0.001  0.000  0.367  0.001  0.122  0.561
tot  0.000  0.161  0.161  0.000  0.001  0.000  0.367  0.001  0.122  0.812
 
band  10 # energy   17.03899976 # occ.  0.00000000
 
ion      s     py     pz     px    dxy    dyz    dz2    dxz    dx2    tot
  1  0.301  0.072  0.072  0.006  0.000  0.000  0.000  0.000  0.000  0.450
  2  0.186  0.027  0.027  0.003  0.000  0.004  0.001  0.000  0.004  0.254
tot  0.487  0.099  0.099  0.008  0.000  0.004  0.001  0.000  0.004  0.704
 
band  11 # energy   20.67110278 # occ.  0.00000000
 
ion      s     py     pz     px    dxy    dyz    dz2    dxz    dx2    tot
  1  0.000  0.000  0.000  0.001  0.000  0.000  0.000  0.000  0.000  0.001
  2  0.001  0.000  0.000  0.002  0.045  0.006  0.000  0.045  0.000  0.099
tot  0.001  0.000  0.000  0.003  0.045  0.006  0.000  0.045  0.000  0.100
 
band  12 # energy   21.41950752 # occ.  0.00000000
 
ion      s     py     pz     px    dxy    dyz    dz2    dxz    dx2    tot
  1  0.000  0.000  0.000  0.000  0.000  0.000  0.000  0.000  0.000  0.000
  2 43.946  0.000  0.000  0.000  0.000  0.000  0.000  0.000  0.000 43.947
tot 43.947  0.000  0.000  0.000  0.000  0.000  0.000  0.000  0.000 43.947
 

 k-point    3 :    0.31250000 0.06250000 0.06250000     weight = 0.01171875

band   1 # energy   -4.15187478 # occ.  1.00000000
 
ion      s     py     pz     px    dxy    dyz    dz2    dxz    dx2    tot
  1  0.342  0.005  0.005  0.003  0.000  0.000  0.000  0.000  0.000  0.355
  2  0.324  0.051  0.051  0.018  0.003  0.005  0.001  0.003  0.003  0.459
tot  0.666  0.056  0.056  0.021  0.003  0.005  0.001  0.003  0.003  0.814
 
band   2 # energy    3.11899706 # occ.  1.00000000
 
ion      s     py     pz     px    dxy    dyz    dz2    dxz    dx2    tot
  1  0.076  0.086  0.086  0.020  0.000  0.000  0.000  0.000  0.000  0.268
  2  0.089  0.022  0.022  0.028  0.086  0.159  0.018  0.086  0.054  0.564
tot  0.165  0.108  0.108  0.048  0.086  0.159  0.018  0.086  0.054  0.833
 
band   3 # energy    4.32686086 # occ.  1.00000000
 
ion      s     py     pz     px    dxy    dyz    dz2    dxz    dx2    tot
  1  0.000  0.139  0.139  0.000  0.000  0.000  0.000  0.000  0.000  0.278
  2  0.000  0.001  0.001  0.000  0.035  0.000  0.411  0.035  0.137  0.621
tot  0.000  0.140  0.140  0.000  0.035  0.000  0.411  0.035  0.137  0.899
 
band   4 # energy    4.64818991 # occ.  1.00000000
 
ion      s     py     pz     px    dxy    dyz    dz2    dxz    dx2    tot
  1  0.000  0.024  0.024  0.196  0.000  0.000  0.000  0.000  0.000  0.244
  2  0.000  0.000  0.000  0.055  0.114  0.035  0.080  0.114  0.240  0.639
tot  0.000  0.024  0.024  0.250  0.114  0.035  0.080  0.114  0.240  0.883
 
band   5 # energy    9.23058831 # occ.  0.00000000
 
ion      s     py     pz     px    dxy    dyz    dz2    dxz    dx2    tot
  1  0.000  0.007  0.007  0.000  0.000  0.000  0.000  0.000  0.000  0.015
  2  0.000  0.002  0.002  0.000  0.427  0.000  0.039  0.427  0.013  0.910
tot  0.000  0.009  0.009  0.000  0.427  0.000  0.039  0.427  0.013  0.924
 
band   6 # energy    9.83672560 # occ.  0.00000000
 
ion      s     py     pz     px    dxy    dyz    dz2    dxz    dx2    tot
  1  0.025  0.002  0.002  0.101  0.000  0.000  0.000  0.000  0.000  0.129
  2  0.027  0.001  0.001  0.000  0.206  0.113  0.038  0.206  0.113  0.706
tot  0.052  0.003  0.003  0.101  0.206  0.113  0.038  0.206  0.113  0.835
 
band   7 # energy   10.65232367 # occ.  0.00000000
 
ion      s     py     pz     px    dxy    dyz    dz2    dxz    dx2    tot
  1  0.030  0.032  0.032  0.029  0.000  0.000  0.000  0.000  0.000  0.124
  2  0.052  0.005  0.005  0.002  0.012  0.587  0.008  0.012  0.025  0.707
tot  0.083  0.037  0.037  0.031  0.012  0.587  0.008  0.012  0.025  0.830
 
band   8 # energy   14.46086822 # occ.  0.00000000
 
ion      s     py     pz     px    dxy    dyz    dz2    dxz    dx2    tot
  1  0.023  0.026  0.026  0.193  0.000  0.000  0.000  0.000  0.000  0.269
  2  0.017  0.007  0.007  0.059  0.010  0.021  0.107  0.010  0.320  0.557
tot  0.040  0.034  0.034  0.252  0.010  0.021  0.107  0.010  0.320  0.827
 
band   9 # energy   16.24666262 # occ.  0.00000000
 
ion      s     py     pz     px    dxy    dyz    dz2    dxz    dx2    tot
  1  0.000  0.150  0.150  0.000  0.000  0.000  0.000  0.000  0.000  0.299
  2  0.000  0.037  0.037  0.000  0.003  0.000  0.344  0.003  0.115  0.538
tot  0.000  0.186  0.186  0.000  0.003  0.000  0.344  0.003  0.115  0.837
 
band  10 # energy   17.94003400 # occ.  0.00000000
 
ion      s     py     pz     px    dxy    dyz    dz2    dxz    dx2    tot
  1  0.154  0.105  0.105  0.018  0.000  0.000  0.000  0.000  0.000  0.382
  2  0.047  0.089  0.089  0.026  0.015  0.026  0.002  0.015  0.007  0.317
tot  0.201  0.194  0.194  0.044  0.015  0.026  0.002  0.015  0.007  0.699
 
band  11 # energy   21.41250684 # occ.  0.00000000
 
ion      s     py     pz     px    dxy    dyz    dz2    dxz    dx2    tot
  1  0.000  0.000  0.000  0.000  0.000  0.000  0.000  0.000  0.000  0.000
  2 43.345  0.000  0.000  0.000  0.000  0.000  0.000  0.000  0.000 43.347
tot 43.345  0.000  0.000  0.000  0.000  0.000  0.000  0.000  0.000 43.348
 
band  12 # energy   22.38126536 # occ.  0.00000000
 
ion      s     py     pz     px    dxy    dyz    dz2    dxz    dx2    tot
  1  0.022  0.018  0.018  0.004  0.000  0.000  0.000  0.000  0.000  0.063
  2  0.652  0.009  0.009  0.022  0.103  0.049  0.001  0.103  0.002  0.948
tot  0.675  0.027  0.027  0.026  0.103  0.049  0.001  0.103  0.002  1.011
 

 k-point    4 :    0.43750000 0.06250000 0.06250000     weight = 0.01171875

band   1 # energy   -2.55697595 # occ.  1.00000000
 
ion      s     py     pz     px    dxy    dyz    dz2    dxz    dx2    tot
  1  0.385  0.006  0.006  0.007  0.000  0.000  0.000  0.000  0.000  0.405
  2  0.168  0.083  0.083  0.045  0.009  0.011  0.004  0.009  0.011  0.421
tot  0.552  0.089  0.089  0.053  0.009  0.011  0.004  0.009  0.011  0.825
 
band   2 # energy    1.11707119 # occ.  1.00000000
 
ion      s     py     pz     px    dxy    dyz    dz2    dxz    dx2    tot
  1  0.084  0.066  0.066  0.032  0.000  0.000  0.000  0.000  0.000  0.247
  2  0.196  0.015  0.015  0.038  0.092  0.125  0.007  0.092  0.022  0.604
tot  0.280  0.081  0.081  0.070  0.092  0.125  0.007  0.092  0.022  0.851
 
band   3 # energy    3.51313679 # occ.  1.00000000
 
ion      s     py     pz     px    dxy    dyz    dz2    dxz    dx2    tot
  1  0.000  0.135  0.135  0.000  0.000  0.000  0.000  0.000  0.000  0.270
  2  0.000  0.000  0.000  0.000  0.047  0.000  0.425  0.047  0.142  0.662
tot  0.000  0.135  0.135  0.000  0.047  0.000  0.425  0.047  0.142  0.932
 
band   4 # energy    3.69526114 # occ.  1.00000000
 
ion      s     py     pz     px    dxy    dyz    dz2    dxz    dx2    tot
  1  0.002  0.034  0.034  0.191  0.000  0.000  0.000  0.000  0.000  0.260
  2  0.000  0.002  0.002  0.037  0.053  0.056  0.114  0.053  0.342  0.660
tot  0.002  0.036  0.036  0.228  0.053  0.056  0.114  0.053  0.342  0.920
 
band   5 # energy   10.81301847 # occ.  0.00000000
 
ion      s     py     pz     px    dxy    dyz    dz2    dxz    dx2    tot
  1  0.000  0.012  0.012  0.000  0.000  0.000  0.000  0.000  0.000  0.024
  2  0.000  0.003  0.003  0.000  0.424  0.000  0.047  0.424  0.016  0.917
tot  0.000  0.015  0.015  0.000  0.424  0.000  0.047  0.424  0.016  0.941
 
band   6 # energy   11.01204715 # occ.  0.00000000
 
ion      s     py     pz     px    dxy    dyz    dz2    dxz    dx2    tot
  1  0.025  0.002  0.002  0.073  0.000  0.000  0.000  0.000  0.000  0.102
  2  0.041  0.001  0.001  0.008  0.248  0.102  0.023  0.248  0.070  0.743
tot  0.066  0.003  0.003  0.082  0.248  0.102  0.023  0.248  0.070  0.845
 
band   7 # energy   12.01120101 # occ.  0.00000000
 
ion      s     py     pz     px    dxy    dyz    dz2    dxz    dx2    tot
  1  0.014  0.039  0.039  0.012  0.000  0.000  0.000  0.000  0.000  0.104
  2  0.071  0.007  0.007  0.001  0.008  0.664  0.007  0.008  0.021  0.792
tot  0.084  0.046  0.046  0.012  0.008  0.664  0.007  0.008  0.021  0.897
 
band   8 # energy   16.15988016 # occ.  0.00000000
 
ion      s     py     pz     px    dxy    dyz    dz2    dxz    dx2    tot
  1  0.086  0.018  0.018  0.054  0.000  0.000  0.000  0.000  0.000  0.176
  2  0.001  0.093  0.093  0.096  0.062  0.007  0.006  0.062  0.017  0.436
tot  0.087  0.112  0.112  0.150  0.062  0.007  0.006  0.062  0.017  0.612
 
band   9 # energy   17.32099771 # occ.  0.00000000
 
ion      s     py     pz     px    dxy    dyz    dz2    dxz    dx2    tot
  1  0.001  0.047  0.047  0.180  0.000  0.000  0.000  0.000  0.000  0.275
  2  0.009  0.041  0.041  0.040  0.000  0.016  0.107  0.000  0.322  0.576
tot  0.010  0.088  0.088  0.220  0.000  0.016  0.107  0.000  0.322  0.851
 
band  10 # energy   18.72310855 # occ.  0.00000000
 
ion      s     py     pz     px    dxy    dyz    dz2    dxz    dx2    tot
  1  0.000  0.173  0.173  0.000  0.000  0.000  0.000  0.000  0.000  0.347
  2  0.000  0.013  0.013  0.000  0.003  0.000  0.397  0.003  0.132  0.560
tot  0.000  0.186  0.186  0.000  0.003  0.000  0.397  0.003  0.132  0.907
 
band  11 # energy   21.41044811 # occ.  0.00000000
 
ion      s     py     pz     px    dxy    dyz    dz2    dxz    dx2    tot
  1  0.000  0.001  0.001  0.000  0.000  0.000  0.000  0.000  0.000  0.002
  2 43.262  0.000  0.000  0.000  0.000  0.000  0.000  0.000  0.000 43.263
tot 43.262  0.001  0.001  0.000  0.000  0.000  0.000  0.000  0.000 43.265
 
band  12 # energy   22.70172053 # occ.  0.00000000
 
ion      s     py     pz     px    dxy    dyz    dz2    dxz    dx2    tot
  1  0.000  0.032  0.032  0.004  0.000  0.000  0.000  0.000  0.000  0.068
  2  0.146  0.052  0.052  0.208  0.015  0.007  0.020  0.015  0.060  0.575
tot  0.146  0.084  0.084  0.212  0.015  0.007  0.020  0.015  0.060  0.643
 

 k-point    5 :   -0.43750000 0.06250000 0.06250000     weight = 0.01171875

band   1 # energy   -1.71257118 # occ.  1.00000000
 
ion      s     py     pz     px    dxy    dyz    dz2    dxz    dx2    tot
  1  0.472  0.002  0.002  0.000  0.000  0.000  0.000  0.000  0.000  0.476
  2  0.017  0.094  0.094  0.101  0.002  0.002  0.008  0.002  0.025  0.345
tot  0.488  0.096  0.096  0.101  0.002  0.002  0.008  0.002  0.025  0.820
 
band   2 # energy    0.19989245 # occ.  1.00000000
 
ion      s     py     pz     px    dxy    dyz    dz2    dxz    dx2    tot
  1  0.012  0.056  0.056  0.062  0.000  0.000  0.000  0.000  0.000  0.185
  2  0.331  0.009  0.009  0.000  0.110  0.112  0.000  0.110  0.001  0.681
tot  0.343  0.064  0.064  0.062  0.110  0.112  0.000  0.110  0.001  0.866
 
band   3 # energy    3.36091964 # occ.  1.00000000
 
ion      s     py     pz     px    dxy    dyz    dz2    dxz    dx2    tot
  1  0.003  0.045  0.045  0.173  0.000  0.000  0.000  0.000  0.000  0.265
  2  0.000  0.006  0.006  0.019  0.019  0.087  0.129  0.019  0.386  0.669
tot  0.003  0.050  0.050  0.192  0.019  0.087  0.129  0.019  0.386  0.934
 
band   4 # energy    3.40321127 # occ.  1.00000000
 
ion      s     py     pz     px    dxy    dyz    dz2    dxz    dx2    tot
  1  0.000  0.134  0.134  0.000  0.000  0.000  0.000  0.000  0.000  0.267
  2  0.000  0.003  0.003  0.000  0.058  0.000  0.412  0.058  0.137  0.670
tot  0.000  0.136  0.136  0.000  0.058  0.000  0.412  0.058  0.137  0.937
 
band   5 # energy   11.35292801 # occ.  0.00000000
 
ion      s     py     pz     px    dxy    dyz    dz2    dxz    dx2    tot
  1  0.009  0.016  0.016  0.012  0.000  0.000  0.000  0.000  0.000  0.053
  2  0.006  0.004  0.004  0.000  0.073  0.624  0.020  0.073  0.061  0.867
tot  0.016  0.020  0.020  0.012  0.073  0.624  0.020  0.073  0.061  0.919
 
band   6 # energy   11.79051809 # occ.  0.00000000
 
ion      s     py     pz     px    dxy    dyz    dz2    dxz    dx2    tot
  1  0.000  0.016  0.016  0.000  0.000  0.000  0.000  0.000  0.000  0.031
  2  0.000  0.000  0.000  0.000  0.432  0.000  0.061  0.432  0.020  0.946
tot  0.000  0.016  0.016  0.000  0.432  0.000  0.061  0.432  0.020  0.977
 
band   7 # energy   12.66577852 # occ.  0.00000000
 
ion      s     py     pz     px    dxy    dyz    dz2    dxz    dx2    tot
  1  0.001  0.047  0.047  0.067  0.000  0.000  0.000  0.000  0.000  0.164
  2  0.128  0.001  0.001  0.000  0.280  0.069  0.001  0.280  0.003  0.763
tot  0.129  0.048  0.048  0.068  0.280  0.069  0.001  0.280  0.003  0.926
 
band   8 # energy   14.90985535 # occ.  0.00000000
 
ion      s     py     pz     px    dxy    dyz    dz2    dxz    dx2    tot
  1  0.091  0.003  0.003  0.001  0.000  0.000  0.000  0.000  0.000  0.098
  2  0.002  0.097  0.097  0.117  0.001  0.069  0.001  0.001  0.002  0.387
tot  0.093  0.100  0.100  0.118  0.001  0.069  0.001  0.001  0.002  0.485
 
band   9 # energy   18.75986318 # occ.  0.00000000
 
ion      s     py     pz     px    dxy    dyz    dz2    dxz    dx2    tot
  1  0.000  0.154  0.154  0.000  0.000  0.000  0.000  0.000  0.000  0.308
  2  0.000  0.032  0.032  0.000  0.002  0.000  0.397  0.002  0.132  0.598
tot  0.000  0.186  0.186  0.000  0.002  0.000  0.397  0.002  0.132  0.907
 
band  10 # energy   19.14267456 # occ.  0.00000000
 
ion      s     py     pz     px    dxy    dyz    dz2    dxz    dx2    tot
  1  0.003  0.049  0.049  0.233  0.000  0.000  0.000  0.000  0.000  0.335
  2  0.000  0.005  0.005  0.006  0.001  0.000  0.143  0.001  0.429  0.589
tot  0.003  0.054  0.054  0.239  0.001  0.000  0.143  0.001  0.429  0.924
 
band  11 # energy   21.40780504 # occ.  0.00000000
 
ion      s     py     pz     px    dxy    dyz    dz2    dxz    dx2    tot
  1  0.000  0.002  0.002  0.000  0.000  0.000  0.000  0.000  0.000  0.004
  2 42.515  0.001  0.001  0.004  0.000  0.000  0.000  0.000  0.000 42.521
tot 42.515  0.003  0.003  0.004  0.000  0.000  0.000  0.000  0.000 42.525
 
band  12 # energy   21.70422843 # occ.  0.00000000
 
ion      s     py     pz     px    dxy    dyz    dz2    dxz    dx2    tot
  1  0.001  0.021  0.021  0.001  0.000  0.000  0.000  0.000  0.000  0.044
  2  0.972  0.077  0.077  0.285  0.000  0.017  0.001  0.000  0.003  1.433
tot  0.972  0.098  0.098  0.286  0.000  0.017  0.001  0.000  0.003  1.476
 

 k-point    6 :   -0.31250000 0.06250000 0.06250000     weight = 0.01171875

band   1 # energy   -3.11026626 # occ.  1.00000000
 
ion      s     py     pz     px    dxy    dyz    dz2    dxz    dx2    tot
  1  0.364  0.007  0.007  0.006  0.000  0.000  0.000  0.000  0.000  0.384
  2  0.227  0.047  0.047  0.083  0.008  0.007  0.003  0.008  0.010  0.441
tot  0.591  0.053  0.053  0.089  0.008  0.007  0.003  0.008  0.010  0.824
 
band   2 # energy    1.74776674 # occ.  1.00000000
 
ion      s     py     pz     px    dxy    dyz    dz2    dxz    dx2    tot
  1  0.088  0.038  0.038  0.095  0.000  0.000  0.000  0.000  0.000  0.259
  2  0.150  0.034  0.034  0.009  0.113  0.087  0.012  0.113  0.036  0.588
tot  0.238  0.071  0.071  0.104  0.113  0.087  0.012  0.113  0.036  0.846
 
band   3 # energy    3.72061641 # occ.  1.00000000
 
ion      s     py     pz     px    dxy    dyz    dz2    dxz    dx2    tot
  1  0.003  0.059  0.059  0.143  0.000  0.000  0.000  0.000  0.000  0.264
  2  0.000  0.012  0.012  0.007  0.001  0.132  0.122  0.001  0.367  0.654
tot  0.003  0.070  0.070  0.150  0.001  0.132  0.122  0.001  0.367  0.918
 
band   4 # energy    3.99002927 # occ.  1.00000000
 
ion      s     py     pz     px    dxy    dyz    dz2    dxz    dx2    tot
  1  0.000  0.134  0.134  0.000  0.000  0.000  0.000  0.000  0.000  0.268
  2  0.000  0.009  0.009  0.000  0.070  0.000  0.366  0.070  0.122  0.646
tot  0.000  0.143  0.143  0.000  0.070  0.000  0.366  0.070  0.122  0.913
 
band   5 # energy    9.87750744 # occ.  0.00000000
 
ion      s     py     pz     px    dxy    dyz    dz2    dxz    dx2    tot
  1  0.016  0.028  0.028  0.002  0.000  0.000  0.000  0.000  0.000  0.075
  2  0.023  0.002  0.002  0.001  0.026  0.641  0.017  0.026  0.050  0.788
tot  0.040  0.030  0.030  0.003  0.026  0.641  0.017  0.026  0.050  0.863
 
band   6 # energy   11.08955238 # occ.  0.00000000
 
ion      s     py     pz     px    dxy    dyz    dz2    dxz    dx2    tot
  1  0.000  0.013  0.013  0.000  0.000  0.000  0.000  0.000  0.000  0.026
  2  0.000  0.004  0.004  0.000  0.394  0.000  0.095  0.394  0.032  0.924
tot  0.000  0.017  0.017  0.000  0.394  0.000  0.095  0.394  0.032  0.950
 
band   7 # energy   11.44823946 # occ.  0.00000000
 
ion      s     py     pz     px    dxy    dyz    dz2    dxz    dx2    tot
  1  0.032  0.030  0.030  0.038  0.000  0.000  0.000  0.000  0.000  0.129
  2  0.080  0.002  0.002  0.011  0.297  0.000  0.001  0.297  0.003  0.694
tot  0.112  0.032  0.032  0.049  0.297  0.000  0.001  0.297  0.003  0.823
 
band   8 # energy   16.50812639 # occ.  0.00000000
 
ion      s     py     pz     px    dxy    dyz    dz2    dxz    dx2    tot
  1  0.000  0.145  0.145  0.000  0.000  0.000  0.000  0.000  0.000  0.290
  2  0.000  0.050  0.050  0.000  0.015  0.000  0.331  0.015  0.110  0.572
tot  0.000  0.195  0.195  0.000  0.015  0.000  0.331  0.015  0.110  0.862
 
band   9 # energy   16.81120249 # occ.  0.00000000
 
ion      s     py     pz     px    dxy    dyz    dz2    dxz    dx2    tot
  1  0.100  0.069  0.069  0.006  0.000  0.000  0.000  0.000  0.000  0.243
  2  0.002  0.090  0.090  0.065  0.026  0.055  0.020  0.026  0.059  0.432
tot  0.102  0.158  0.158  0.070  0.026  0.055  0.020  0.026  0.059  0.675
 
band  10 # energy   18.12355487 # occ.  0.00000000
 
ion      s     py     pz     px    dxy    dyz    dz2    dxz    dx2    tot
  1  0.001  0.028  0.028  0.249  0.000  0.000  0.000  0.000  0.000  0.307
  2  0.004  0.001  0.001  0.093  0.010  0.001  0.102  0.010  0.305  0.527
tot  0.005  0.029  0.029  0.342  0.010  0.001  0.102  0.010  0.305  0.834
 
band  11 # energy   21.40914868 # occ.  0.00000000
 
ion      s     py     pz     px    dxy    dyz    dz2    dxz    dx2    tot
  1  0.000  0.000  0.000  0.001  0.000  0.000  0.000  0.000  0.000  0.002
  2 43.110  0.000  0.000  0.000  0.000  0.000  0.000  0.000  0.000 43.111
tot 43.110  0.000  0.000  0.001  0.000  0.000  0.000  0.000  0.000 43.113
 
band  12 # energy   22.79367747 # occ.  0.00000000
 
ion      s     py     pz     px    dxy    dyz    dz2    dxz    dx2    tot
  1  0.035  0.053  0.053  0.123  0.000  0.000  0.000  0.000  0.000  0.263
  2  1.191  0.000  0.000  0.028  0.045  0.042  0.006  0.045  0.018  1.375
tot  1.226  0.053  0.053  0.152  0.045  0.042  0.006  0.045  0.018  1.639
 

 k-point    7 :   -0.18750000 0.06250000 0.06250000     weight = 0.01171875

band   1 # energy   -4.63287817 # occ.  1.00000000
 
ion      s     py     pz     px    dxy    dyz    dz2    dxz    dx2    tot
  1  0.335  0.003  0.003  0.005  0.000  0.000  0.000  0.000  0.000  0.345
  2  0.362  0.019  0.019  0.052  0.002  0.001  0.001  0.002  0.003  0.463
tot  0.697  0.022  0.022  0.057  0.002  0.001  0.001  0.002  0.003  0.809
 
band   2 # energy    3.77210005 # occ.  1.00000000
 
ion      s     py     pz     px    dxy    dyz    dz2    dxz    dx2    tot
  1  0.057  0.021  0.021  0.174  0.000  0.000  0.000  0.000  0.000  0.273
  2  0.065  0.019  0.019  0.012  0.113  0.055  0.042  0.113  0.125  0.563
tot  0.122  0.040  0.040  0.186  0.113  0.055  0.042  0.113  0.125  0.836
 
band   3 # energy    4.80544922 # occ.  1.00000000
 
ion      s     py     pz     px    dxy    dyz    dz2    dxz    dx2    tot
  1  0.004  0.079  0.079  0.084  0.000  0.000  0.000  0.000  0.000  0.247
  2  0.001  0.022  0.022  0.001  0.014  0.214  0.085  0.014  0.254  0.628
tot  0.005  0.101  0.101  0.086  0.014  0.214  0.085  0.014  0.254  0.874
 
band   4 # energy    5.20883723 # occ.  1.00000000
 
ion      s     py     pz     px    dxy    dyz    dz2    dxz    dx2    tot
  1  0.000  0.135  0.135  0.000  0.000  0.000  0.000  0.000  0.000  0.269
  2  0.000  0.019  0.019  0.000  0.099  0.000  0.273  0.099  0.091  0.599
tot  0.000  0.154  0.154  0.000  0.099  0.000  0.273  0.099  0.091  0.868
 
band   5 # energy    8.50121343 # occ.  1.00000000
 
ion      s     py     pz     px    dxy    dyz    dz2    dxz    dx2    tot
  1  0.008  0.027  0.027  0.002  0.000  0.000  0.000  0.000  0.000  0.063
  2  0.007  0.000  0.000  0.003  0.067  0.615  0.016  0.067  0.047  0.823
tot  0.015  0.027  0.027  0.006  0.067  0.615  0.016  0.067  0.047  0.886
 
band   6 # energy    9.67219686 # occ.  0.00000000
 
ion      s     py     pz     px    dxy    dyz    dz2    dxz    dx2    tot
  1  0.000  0.015  0.015  0.000  0.000  0.000  0.000  0.000  0.000  0.029
  2  0.000  0.003  0.003  0.000  0.345  0.000  0.152  0.345  0.051  0.899
tot  0.000  0.018  0.018  0.000  0.345  0.000  0.152  0.345  0.051  0.929
 
band   7 # energy   10.25455122 # occ.  0.00000000
 
ion      s     py     pz     px    dxy    dyz    dz2    dxz    dx2    tot
  1  0.047  0.062  0.062  0.027  0.000  0.000  0.000  0.000  0.000  0.198
  2  0.061  0.000  0.000  0.001  0.251  0.007  0.000  0.251  0.000  0.573
tot  0.108  0.062  0.062  0.028  0.251  0.007  0.000  0.251  0.000  0.771
 
band   8 # energy   13.62556573 # occ.  0.00000000
 
ion      s     py     pz     px    dxy    dyz    dz2    dxz    dx2    tot
  1  0.000  0.132  0.132  0.000  0.000  0.000  0.000  0.000  0.000  0.263
  2  0.000  0.036  0.036  0.000  0.024  0.000  0.328  0.024  0.109  0.558
tot  0.000  0.168  0.168  0.000  0.024  0.000  0.328  0.024  0.109  0.821
 
band   9 # energy   14.99879818 # occ.  0.00000000
 
ion      s     py     pz     px    dxy    dyz    dz2    dxz    dx2    tot
  1  0.041  0.064  0.064  0.112  0.000  0.000  0.000  0.000  0.000  0.280
  2  0.025  0.020  0.020  0.028  0.000  0.006  0.109  0.000  0.326  0.533
tot  0.066  0.083  0.083  0.140  0.000  0.006  0.109  0.000  0.326  0.813
 
band  10 # energy   17.95852724 # occ.  0.00000000
 
ion      s     py     pz     px    dxy    dyz    dz2    dxz    dx2    tot
  1  0.188  0.028  0.028  0.190  0.000  0.000  0.000  0.000  0.000  0.434
  2  0.090  0.025  0.025  0.088  0.010  0.005  0.007  0.010  0.022  0.282
tot  0.278  0.052  0.052  0.278  0.010  0.005  0.007  0.010  0.022  0.715
 
band  11 # energy   21.41553702 # occ.  0.00000000
 
ion      s     py     pz     px    dxy    dyz    dz2    dxz    dx2    tot
  1  0.000  0.000  0.000  0.000  0.000  0.000  0.000  0.000  0.000  0.000
  2 43.543  0.000  0.000  0.000  0.000  0.000  0.000  0.000  0.000 43.545
tot 43.543  0.000  0.000  0.000  0.000  0.000  0.000  0.000  0.000 43.545
 
band  12 # energy   22.02462853 # occ.  0.00000000
 
ion      s     py     pz     px    dxy    dyz    dz2    dxz    dx2    tot
  1  0.008  0.001  0.001  0.005  0.000  0.000  0.000  0.000  0.000  0.014