<?xml version="1.0" encoding="ISO-8859-1"?>
<modeling>
 <generator>
  <i name="program" type="string">vasp </i>
  <i name="version" type="string">5.2.12  </i>
  <i name="subversion" type="string">11Nov11 complex                                                      parallel </i>
  <i name="platform" type="string">LinuxIFC </i>
  <i name="date" type="string">2012 10 17 </i>
  <i name="time" type="string">12:38:11 </i>
 </generator>
 <incar>
  <i type="int" name="ISTART">     0</i>
  <i type="string" name="PREC">accurate</i>
  <i type="int" name="ISPIN">     2</i>
  <i name="ENCUT">    450.00000000</i>
  <i type="int" name="NBANDS">    12</i>
  <v name="MAGMOM">      2.00000000      6.00000000</v>
  <i type="logical" name="LREAL"> F  </i>
  <i type="int" name="ISMEAR">     1</i>
  <i name="SIGMA">      0.05000000</i>
  <i type="logical" name="LORBIT"> F  </i>
 </incar>
 <kpoints>
  <generation param="Monkhorst-Pack">
   <v type="int" name="divisions">       8        8        8 </v>
   <v name="usershift">      0.00000000       0.00000000       0.00000000 </v>
   <v name="genvec1">      0.12500000       0.00000000       0.00000000 </v>
   <v name="genvec2">      0.00000000       0.12500000       0.00000000 </v>
   <v name="genvec3">      0.00000000       0.00000000       0.12500000 </v>
   <v name="shift">      0.50000000       0.50000000       0.50000000 </v>
  </generation>
  <varray name="kpointlist" >
   <v>       0.06250000       0.06250000       0.06250000 </v>
   <v>       0.18750000       0.06250000       0.06250000 </v>
   <v>       0.31250000       0.06250000       0.06250000 </v>
   <v>       0.43750000       0.06250000       0.06250000 </v>
   <v>      -0.43750000       0.06250000       0.06250000 </v>
   <v>      -0.31250000       0.06250000       0.06250000 </v>
   <v>      -0.18750000       0.06250000       0.06250000 </v>
   <v>      -0.06250000       0.06250000       0.06250000 </v>
   <v>       0.18750000       0.18750000       0.06250000 </v>
   <v>       0.31250000       0.18750000       0.06250000 </v>
   <v>       0.43750000       0.18750000       0.06250000 </v>
   <v>      -0.43750000       0.18750000       0.06250000 </v>
   <v>      -0.31250000       0.18750000       0.06250000 </v>
   <v>      -0.18750000       0.18750000       0.06250000 </v>
   <v>      -0.06250000       0.18750000       0.06250000 </v>
   <v>       0.31250000       0.31250000       0.06250000 </v>
   <v>       0.43750000       0.31250000       0.06250000 </v>
   <v>      -0.43750000       0.31250000       0.06250000 </v>
   <v>      -0.31250000       0.31250000       0.06250000 </v>
   <v>      -0.18750000       0.31250000       0.06250000 </v>
   <v>      -0.06250000       0.31250000       0.06250000 </v>
   <v>       0.43750000       0.43750000       0.06250000 </v>
   <v>      -0.43750000       0.43750000       0.06250000 </v>
   <v>      -0.31250000       0.43750000       0.06250000 </v>
   <v>      -0.18750000       0.43750000       0.06250000 </v>
   <v>      -0.06250000       0.43750000       0.06250000 </v>
   <v>      -0.43750000      -0.43750000       0.06250000 </v>
   <v>      -0.31250000      -0.43750000       0.06250000 </v>
   <v>      -0.18750000      -0.43750000       0.06250000 </v>
   <v>      -0.31250000      -0.31250000       0.06250000 </v>
   <v>      -0.18750000      -0.31250000       0.06250000 </v>
   <v>      -0.18750000      -0.18750000       0.06250000 </v>
   <v>       0.18750000       0.18750000       0.18750000 </v>
   <v>       0.31250000       0.18750000       0.18750000 </v>
   <v>       0.43750000       0.18750000       0.18750000 </v>
   <v>      -0.43750000       0.18750000       0.18750000 </v>
   <v>      -0.31250000       0.18750000       0.18750000 </v>
   <v>      -0.18750000       0.18750000       0.18750000 </v>
   <v>       0.31250000       0.31250000       0.18750000 </v>
   <v>       0.43750000       0.31250000       0.18750000 </v>
   <v>      -0.43750000       0.31250000       0.18750000 </v>
   <v>      -0.31250000       0.31250000       0.18750000 </v>
   <v>      -0.18750000       0.31250000       0.18750000 </v>
   <v>       0.43750000       0.43750000       0.18750000 </v>
   <v>      -0.43750000       0.43750000       0.18750000 </v>
   <v>      -0.31250000       0.43750000       0.18750000 </v>
   <v>      -0.18750000       0.43750000       0.18750000 </v>
   <v>      -0.43750000      -0.43750000       0.18750000 </v>
   <v>      -0.31250000      -0.43750000       0.18750000 </v>
   <v>      -0.31250000      -0.31250000       0.18750000 </v>
   <v>       0.31250000       0.31250000       0.31250000 </v>
   <v>       0.43750000       0.31250000       0.31250000 </v>
   <v>      -0.43750000       0.31250000       0.31250000 </v>
   <v>      -0.31250000       0.31250000       0.31250000 </v>
   <v>       0.43750000       0.43750000       0.31250000 </v>
   <v>      -0.43750000       0.43750000       0.31250000 </v>
   <v>      -0.31250000       0.43750000       0.31250000 </v>
   <v>      -0.43750000      -0.43750000       0.31250000 </v>
   <v>       0.43750000       0.43750000       0.43750000 </v>
   <v>      -0.43750000       0.43750000       0.43750000 </v>
  </varray>
  <varray name="weights" >
   <v>       0.00390625 </v>
   <v>       0.01171875 </v>
   <v>       0.01171875 </v>
   <v>       0.01171875 </v>
   <v>       0.01171875 </v>
   <v>       0.01171875 </v>
   <v>       0.01171875 </v>
   <v>       0.01171875 </v>
   <v>       0.01171875 </v>
   <v>       0.02343750 </v>
   <v>       0.02343750 </v>
   <v>       0.02343750 </v>
   <v>       0.02343750 </v>
   <v>       0.02343750 </v>
   <v>       0.02343750 </v>
   <v>       0.01171875 </v>
   <v>       0.02343750 </v>
   <v>       0.02343750 </v>
   <v>       0.02343750 </v>
   <v>       0.02343750 </v>
   <v>       0.02343750 </v>
   <v>       0.01171875 </v>
   <v>       0.02343750 </v>
   <v>       0.02343750 </v>
   <v>       0.02343750 </v>
   <v>       0.02343750 </v>
   <v>       0.01171875 </v>
   <v>       0.02343750 </v>
   <v>       0.02343750 </v>
   <v>       0.01171875 </v>
   <v>       0.02343750 </v>
   <v>       0.01171875 </v>
   <v>       0.00390625 </v>
   <v>       0.01171875 </v>
   <v>       0.01171875 </v>
   <v>       0.01171875 </v>
   <v>       0.01171875 </v>
   <v>       0.01171875 </v>
   <v>       0.01171875 </v>
   <v>       0.02343750 </v>
   <v>       0.02343750 </v>
   <v>       0.02343750 </v>
   <v>       0.02343750 </v>
   <v>       0.01171875 </v>
   <v>       0.02343750 </v>
   <v>       0.02343750 </v>
   <v>       0.02343750 </v>
   <v>       0.01171875 </v>
   <v>       0.02343750 </v>
   <v>       0.01171875 </v>
   <v>       0.00390625 </v>
   <v>       0.01171875 </v>
   <v>       0.01171875 </v>
   <v>       0.01171875 </v>
   <v>       0.01171875 </v>
   <v>       0.02343750 </v>
   <v>       0.02343750 </v>
   <v>       0.01171875 </v>
   <v>       0.00390625 </v>
   <v>       0.01171875 </v>
  </varray>
 </kpoints>
 <parameters>
  <separator name="general" >
   <i type="string" name="SYSTEM">unknown system</i>
   <i type="logical" name="LCOMPAT"> F  </i>
  </separator>
  <separator name="electronic" >
   <i type="string" name="PREC">accura</i>
   <i name="ENMAX">    450.00000000</i>
   <i name="ENAUG">    644.87300000</i>
   <i name="EDIFF">      0.00010000</i>
   <i type="int" name="IALGO">    38</i>
   <i type="int" name="IWAVPR">    10</i>
   <i type="int" name="NBANDS">    12</i>
   <i name="NELECT">      9.00000000</i>
   <i type="int" name="TURBO">     0</i>
   <i type="int" name="IRESTART">     0</i>
   <i type="int" name="NREBOOT">     0</i>
   <i type="int" name="NMIN">     0</i>
   <i name="EREF">      0.00000000</i>
   <separator name="electronic smearing" >
    <i type="int" name="ISMEAR">     1</i>
    <i name="SIGMA">      0.05000000</i>
    <i name="KSPACING">      0.50000000</i>
    <i type="logical" name="KGAMMA"> T  </i>
   </separator>
   <separator name="electronic projectors" >
    <i type="logical" name="LREAL"> F  </i>
    <v name="ROPT">      0.00000000      0.00000000</v>
    <i type="int" name="LMAXPAW">  -100</i>
    <i type="int" name="LMAXMIX">     2</i>
    <i type="logical" name="NLSPLINE"> F  </i>
   </separator>
   <separator name="electronic startup" >
    <i type="int" name="ISTART">     0</i>
    <i type="int" name="ICHARG">     2</i>
    <i type="int" name="INIWAV">     1</i>
   </separator>
   <separator name="electronic spin" >
    <i type="int" name="ISPIN">     2</i>
    <i type="logical" name="LNONCOLLINEAR"> F  </i>
    <v name="MAGMOM">      2.00000000      6.00000000</v>
    <i name="NUPDOWN">     -1.00000000</i>
    <i type="logical" name="LSORBIT"> F  </i>
    <v name="SAXIS">      0.00000000      0.00000000      1.00000000</v>
    <i type="logical" name="LSPIRAL"> F  </i>
    <v name="QSPIRAL">      0.00000000      0.00000000      0.00000000</v>
    <i type="logical" name="LZEROZ"> F  </i>
   </separator>
   <separator name="electronic exchange-correlation" >
    <i type="logical" name="LASPH"> F  </i>
    <i type="logical" name="LMETAGGA"> F  </i>
   </separator>
   <separator name="electronic convergence" >
    <i type="int" name="NELM">    60</i>
    <i type="int" name="NELMDL">    -5</i>
    <i type="int" name="NELMIN">     2</i>
    <i name="ENINI">    450.00000000</i>
    <separator name="electronic convergence detail" >
     <i type="logical" name="LDIAG"> T  </i>
     <i type="logical" name="LSUBROT"> T  </i>
     <i name="WEIMIN">      0.00000000</i>
     <i name="EBREAK">      0.00000208</i>
     <i name="DEPER">      0.30000000</i>
     <i type="int" name="NRMM">     4</i>
     <i name="TIME">      0.40000000</i>
    </separator>
   </separator>
   <separator name="electronic mixer" >
    <i name="AMIX">      0.40000000</i>
    <i name="BMIX">      1.00000000</i>
    <i name="AMIN">      0.10000000</i>
    <i name="AMIX_MAG">      1.60000000</i>
    <i name="BMIX_MAG">      1.00000000</i>
    <separator name="electronic mixer details" >
     <i type="int" name="IMIX">     4</i>
     <i type="int" name="MAXMIX">   -45</i>
     <i name="WC">    100.00000000</i>
     <i type="int" name="INIMIX">     1</i>
     <i type="int" name="MIXPRE">     1</i>
     <i type="int" name="MREMOVE">     5</i>
    </separator>
   </separator>
   <separator name="electronic dipolcorrection" >
    <i type="logical" name="LDIPOL"> F  </i>
    <i type="logical" name="LMONO"> F  </i>
    <i type="int" name="IDIPOL">     0</i>
    <i name="EPSILON">      1.00000000</i>
    <v name="DIPOL">   -100.00000000   -100.00000000   -100.00000000</v>
    <i name="EFIELD">      0.00000000</i>
   </separator>
  </separator>
  <separator name="grids" >
   <i type="int" name="NGX">    24</i>
   <i type="int" name="NGY">    24</i>
   <i type="int" name="NGZ">    24</i>
   <i type="int" name="NGXF">    48</i>
   <i type="int" name="NGYF">    48</i>
   <i type="int" name="NGZF">    48</i>
   <i type="logical" name="ADDGRID"> F  </i>
  </separator>
  <separator name="ionic" >
   <i type="int" name="NSW">     0</i>
   <i type="int" name="IBRION">    -1</i>
   <i type="int" name="ISIF">     2</i>
   <i name="PSTRESS">      0.00000000</i>
   <i name="EDIFFG">      0.00100000</i>
   <i type="int" name="NFREE">     0</i>
   <i name="POTIM">      0.50000000</i>
   <i name="SMASS">     -3.00000000</i>
   <i name="SCALEE">      1.00000000</i>
  </separator>
  <separator name="ionic md" >
   <i name="TEBEG">      0.00010000</i>
   <i name="TEEND">      0.00010000</i>
   <i type="int" name="NBLOCK">     1</i>
   <i type="int" name="KBLOCK">     1</i>
   <i type="int" name="NPACO">   256</i>
   <i name="APACO">     16.00000000</i>
  </separator>
  <separator name="symmetry" >
   <i type="int" name="ISYM">     2</i>
   <i name="SYMPREC">      0.00001000</i>
  </separator>
  <separator name="dos" >
   <i type="logical" name="LORBIT"> F  </i>
   <v name="RWIGS">     -1.00000000     -1.00000000</v>
   <i type="int" name="NEDOS">   301</i>
   <i name="EMIN">     10.00000000</i>
   <i name="EMAX">    -10.00000000</i>
   <i name="EFERMI">      0.00000000</i>
  </separator>
  <separator name="writing" >
   <i type="int" name="NWRITE">     2</i>
   <i type="logical" name="LWAVE"> T  </i>
   <i type="logical" name="LCHARG"> T  </i>
   <i type="logical" name="LPARD"> F  </i>
   <i type="logical" name="LVTOT"> F  </i>
   <i type="logical" name="LVHAR"> F  </i>
   <i type="logical" name="LELF"> F  </i>
   <i type="logical" name="LOPTICS"> F  </i>
   <v name="STM">      0.00000000      0.00000000      0.00000000      0.00000000      0.00000000      0.00000000      0.00000000</v>
  </separator>
  <separator name="performance" >
   <i type="int" name="NPAR">     1</i>
   <i type="int" name="NSIM">     4</i>
   <i type="int" name="NBLK">    -1</i>
   <i type="logical" name="LPLANE"> T  </i>
   <i type="logical" name="LSCALAPACK"> F  </i>
   <i type="logical" name="LSCAAWARE"> F  </i>
   <i type="logical" name="LSCALU"> F  </i>
   <i type="logical" name="LASYNC"> F  </i>
   <i type="logical" name="LORBITALREAL"> F  </i>
  </separator>
  <separator name="miscellaneous" >
   <i type="int" name="IDIOT">     3</i>
   <i type="logical" name="LMUSIC"> F  </i>
   <v name="POMASS">     12.01100000    180.94800000</v>
   <v name="DARWINR">      0.00000000      0.00000000</v>
   <v name="DARWINV">      1.00000000      1.00000000</v>
   <i type="logical" name="LCORR"> T  </i>
  </separator>
  <i type="logical" name="GGA_COMPAT"> T  </i>
  <i type="logical" name="LBERRY"> F  </i>
  <i type="int" name="ICORELEVEL">     0</i>
  <i type="logical" name="LDAU"> F  </i>
  <i type="int" name="I_CONSTRAINED_M">     0</i>
  <separator name="electronic exchange-correlation" >
   <i type="string" name="GGA">--</i>
   <i type="int" name="VOSKOWN">     0</i>
   <i type="logical" name="LHFCALC"> F  </i>
   <i type="string" name="PRECFOCK"></i>
   <i type="logical" name="LHFONE"> F  </i>
   <i type="logical" name="LRHFCALC"> F  </i>
   <i type="logical" name="LTHOMAS"> F  </i>
   <i type="logical" name="LMODELHF"> F  </i>
   <i name="ENCUT4O">     -1.00000000</i>
   <i type="int" name="EXXOEP">     0</i>
   <i type="int" name="FOURORBIT">     0</i>
   <i name="AEXX">      0.00000000</i>
   <i name="HFALPHA">      0.00000000</i>
   <i name="ALDAX">      1.00000000</i>
   <i name="AGGAX">      1.00000000</i>
   <i name="ALDAC">      1.00000000</i>
   <i name="AGGAC">      1.00000000</i>
   <i type="int" name="NKREDX">     1</i>
   <i type="int" name="NKREDY">     1</i>
   <i type="int" name="NKREDZ">     1</i>
   <i type="logical" name="SHIFTRED"> F  </i>
   <i type="logical" name="ODDONLY"> F  </i>
   <i type="logical" name="EVENONLY"> F  </i>
   <i type="int" name="LMAXFOCK">     0</i>
   <i type="int" name="NMAXFOCKAE">     0</i>
   <i type="logical" name="LFOCKAEDFT"> F  </i>
   <i name="HFSCREEN">      0.00000000</i>
   <i name="HFSCREENC">      0.00000000</i>
  </separator>
  <separator name="vdW DFT" >
   <i type="logical" name="LUSE_VDW"> F  </i>
   <i name="Zab_VDW">     -0.84910000</i>
   <i name="PARAM1">      0.12340000</i>
   <i name="PARAM2">      1.00000000</i>
   <i name="PARAM3">      0.00000000</i>
  </separator>
  <separator name="model GW" >
   <i type="int" name="MODEL_GW">     0</i>
   <i name="MODEL_EPS0">      6.45436300</i>
   <i name="MODEL_ALPHA">      1.00000000</i>
  </separator>
  <separator name="linear response parameters" >
   <i type="logical" name="LEPSILON"> F  </i>
   <i type="logical" name="LRPA"> F  </i>
   <i type="logical" name="LNABLA"> F  </i>
   <i type="logical" name="LVEL"> F  </i>
   <i type="int" name="KINTER">     0</i>
   <i name="CSHIFT">      0.10000000</i>
   <i name="OMEGAMAX">     -1.00000000</i>
  </separator>
  <separator name="orbital magnetization" >
   <i type="logical" name="NUCIND"> F  </i>
   <v name="MAGPOS">      0.00000000      0.00000000      0.00000000</v>
   <i type="logical" name="LNICSALL"> T  </i>
   <i type="logical" name="ORBITALMAG"> F  </i>
   <i type="logical" name="LMAGBLOCH"> F  </i>
   <i type="logical" name="LCHIMAG"> F  </i>
   <i type="logical" name="LGAUGE"> T  </i>
   <i type="int" name="MAGATOM">     0</i>
   <v name="MAGDIPOL">      0.00000000      0.00000000      0.00000000</v>
   <v name="AVECCONST">      0.00000000      0.00000000      0.00000000</v>
  </separator>
  <separator name="response functions" >
   <i type="logical" name="LADDER"> F  </i>
   <i type="logical" name="LHARTREE"> T  </i>
   <i type="int" name="IBSE">     0</i>
   <i type="logical" name="LTCTE"> F  </i>
   <i type="logical" name="LTETE"> F  </i>
   <i type="logical" name="LFXCEPS"> F  </i>
   <i type="logical" name="L2ORDER"> F  </i>
   <i type="logical" name="LUSEW"> F  </i>
   <i name="ENCUTGW">     -2.00000000</i>
   <i name="ENCUTGWSOFT">     -2.00000000</i>
   <i name="ENCUTLF">     -1.00000000</i>
   <i type="int" name="LMAXMP2">    -1</i>
   <i name="SCISSOR">      0.00000000</i>
   <i type="int" name="NOMEGA">     0</i>
   <i type="int" name="NOMEGAR">     0</i>
   <i type="int" name="NBANDSGW">    -1</i>
   <i type="int" name="NBANDSO">    -1</i>
   <i type="int" name="NBANDSV">    -1</i>
   <i name="OPTEMAX">      0.00000000</i>
   <i type="int" name="NELM">     1</i>
   <i type="int" name="DIM">     3</i>
   <i type="int" name="ANTIRES">     0</i>
   <i name="OMEGAMAX">    -30.00000000</i>
   <i name="OMEGATL">   -200.00000000</i>
   <i type="int" name="OMEGAGRID">     0</i>
   <i name="CSHIFT">     -0.10000000</i>
   <i type="logical" name="SELFENERGY"> F  </i>
   <i type="logical" name="LSPECTRAL"> F  </i>
   <i type="logical" name="ODDONLYGW"> F  </i>
   <i type="logical" name="EVENONLYGW"> F  </i>
   <i type="int" name="NKREDLFX">     1</i>
   <i type="int" name="NKREDLFY">     1</i>
   <i type="int" name="NKREDLFZ">     1</i>
   <i type="int" name="MAXMEM">  1800</i>
   <i type="int" name="TELESCOPE">     0</i>
  </separator>
 </parameters>
 <atominfo>
  <atoms>       2 </atoms>
  <types>       2 </types>
  <array name="atoms" >
   <dimension dim="1">ion</dimension>
   <field type="string">element</field>
   <field type="int">atomtype</field>
   <set>
    <rc><c>C </c><c>   1</c></rc>
    <rc><c>Ta</c><c>   2</c></rc>
   </set>
  </array>
  <array name="atomtypes" >
   <dimension dim="1">type</dimension>
   <field type="int">atomspertype</field>
   <field type="string">element</field>
   <field>mass</field>
   <field>valence</field>
   <field type="string">pseudopotential</field>
   <set>
    <rc><c>   1</c><c>C </c><c>     12.01100000</c><c>      4.00000000</c><c> PAW_PBE C 08Apr2002                    </c></rc>
    <rc><c>   1</c><c>Ta</c><c>    180.94800000</c><c>      5.00000000</c><c>  PAW_PBE Ta 17Jan2003                  </c></rc>
   </set>
  </array>
 </atominfo>
 <structure name="initialpos" >
  <crystal>
   <varray name="basis" >
    <v>       0.00000000       2.20750000       2.20750000 </v>
    <v>       2.20750000       0.00000000       2.20750000 </v>
    <v>       2.20750000       2.20750000       0.00000000 </v>
   </varray>
   <i name="volume">     21.51454334 </i>
   <varray name="rec_basis" >
    <v>      -0.22650057       0.22650057       0.22650057 </v>
    <v>       0.22650057      -0.22650057       0.22650057 </v>
    <v>       0.22650057       0.22650057      -0.22650057 </v>
   </varray>
  </crystal>
  <varray name="positions" >
   <v>       0.50000000       0.50000000       0.50000000 </v>
   <v>       0.00000000       0.00000000       0.00000000 </v>
  </varray>
 </structure>
 <calculation>
  <scstep>
   <time name="dav">    7.17    7.17</time>
   <time name="total">    7.68    7.69</time>
   <energy>
    <i name="alphaZ">     54.91709539 </i>
    <i name="ewald">   -377.63753703 </i>
    <i name="hartreedc">    -15.12778221 </i>
    <i name="XCdc">    -48.02576859 </i>
    <i name="pawpsdc">    180.96821906 </i>
    <i name="pawaedc">   -107.89329025 </i>
    <i name="eentropy">      0.00000590 </i>
    <i name="bandstr">     45.47741329 </i>
    <i name="atom">    277.79342126 </i>
    <i name="e_fr_energy">     10.47177681 </i>
    <i name="e_wo_entrp">     10.47177091 </i>
    <i name="e_0_energy">     10.47177484 </i>
   </energy>
  </scstep>
  <scstep>
   <time name="dav">    8.42    8.43</time>
   <time name="total">    8.43    8.44</time>
   <energy>
    <i name="e_fr_energy">    -18.14960477 </i>
    <i name="e_wo_entrp">    -18.14970113 </i>
    <i name="e_0_energy">    -18.14963689 </i>
   </energy>
  </scstep>
  <scstep>
   <time name="dav">    7.79    7.80</time>
   <time name="total">    7.80    7.82</time>
   <energy>
    <i name="e_fr_energy">    -18.96518421 </i>
    <i name="e_wo_entrp">    -18.96525276 </i>
    <i name="e_0_energy">    -18.96520706 </i>
   </energy>
  </scstep>
  <scstep>
   <time name="dav">    7.43    7.43</time>
   <time name="total">    7.44    7.46</time>
   <energy>
    <i name="e_fr_energy">    -18.96758702 </i>
    <i name="e_wo_entrp">    -18.96765444 </i>
    <i name="e_0_energy">    -18.96760949 </i>
   </energy>
  </scstep>
  <scstep>
   <time name="dav">    7.93    7.93</time>
   <time name="total">    8.42    8.44</time>
   <energy>
    <i name="e_fr_energy">    -18.96759499 </i>
    <i name="e_wo_entrp">    -18.96766241 </i>
    <i name="e_0_energy">    -18.96761747 </i>
   </energy>
  </scstep>
  <scstep>
   <time name="dav">    7.35    7.36</time>
   <time name="total">    8.35    8.37</time>
   <energy>
    <i name="e_fr_energy">    -22.05131296 </i>
    <i name="e_wo_entrp">    -22.05122119 </i>
    <i name="e_0_energy">    -22.05128237 </i>
   </energy>
  </scstep>
  <scstep>
   <time name="dav">    7.75    7.76</time>
   <time name="total">    8.74    8.74</time>
   <energy>
    <i name="e_fr_energy">    -22.27843920 </i>
    <i name="e_wo_entrp">    -22.27868821 </i>
    <i name="e_0_energy">    -22.27852220 </i>
   </energy>
  </scstep>
  <scstep>
   <time name="dav">    7.33    7.33</time>
   <time name="total">    8.31    8.33</time>
   <energy>
    <i name="e_fr_energy">    -22.22245141 </i>
    <i name="e_wo_entrp">    -22.22271404 </i>
    <i name="e_0_energy">    -22.22253896 </i>
   </energy>
  </scstep>
  <scstep>
   <time name="dav">    7.60    7.60</time>
   <time name="total">    8.59    8.60</time>
   <energy>
    <i name="e_fr_energy">    -22.21258304 </i>
    <i name="e_wo_entrp">    -22.21262132 </i>
    <i name="e_0_energy">    -22.21259580 </i>
   </energy>
  </scstep>
  <scstep>
   <time name="dav">    7.88    7.88</time>
   <time name="total">    8.86    8.87</time>
   <energy>
    <i name="e_fr_energy">    -22.21044084 </i>
    <i name="e_wo_entrp">    -22.21051136 </i>
    <i name="e_0_energy">    -22.21046435 </i>
   </energy>
  </scstep>
  <scstep>
   <time name="dav">    6.54    6.54</time>
   <time name="total">    7.55    7.56</time>
   <energy>
    <i name="e_fr_energy">    -22.21029663 </i>
    <i name="e_wo_entrp">    -22.21036781 </i>
    <i name="e_0_energy">    -22.21032036 </i>
   </energy>
  </scstep>
  <scstep>
   <time name="dav">    5.16    5.16</time>
   <time name="total">    5.69    5.70</time>
   <energy>
    <i name="alphaZ">     54.91709539 </i>
    <i name="ewald">   -377.63753703 </i>
    <i name="hartreedc">    -22.19905890 </i>
    <i name="XCdc">    -50.96187996 </i>
    <i name="pawpsdc">    278.93961391 </i>
    <i name="pawaedc">   -207.07669015 </i>
    <i name="eentropy">      0.00006342 </i>
    <i name="bandstr">     24.01470007 </i>
    <i name="atom">    277.79342126 </i>
    <i name="e_fr_energy">    -22.21027199 </i>
    <i name="e_wo_entrp">    -22.21033541 </i>
    <i name="e_0_energy">    -22.21029313 </i>
   </energy>
  </scstep>
  <parameters_embedded>
   <separator name="dft+d2" >
    <i type="logical" name="LVDW"> F  </i>
   </separator>
  </parameters_embedded>
  <structure>
   <crystal>
    <varray name="basis" >
     <v>       0.00000000       2.20750000       2.20750000 </v>
     <v>       2.20750000       0.00000000       2.20750000 </v>
     <v>       2.20750000       2.20750000       0.00000000 </v>
    </varray>
    <i name="volume">     21.51454334 </i>
    <varray name="rec_basis" >
     <v>      -0.22650057       0.22650057       0.22650057 </v>
     <v>       0.22650057      -0.22650057       0.22650057 </v>
     <v>       0.22650057       0.22650057      -0.22650057 </v>
    </varray>
   </crystal>
   <varray name="positions" >
    <v>       0.50000000       0.50000000       0.50000000 </v>
    <v>       0.00000000       0.00000000       0.00000000 </v>
   </varray>
  </structure>
  <varray name="forces" >
   <v>       0.00000000       0.00000000       0.00000000 </v>
   <v>       0.00000000       0.00000000       0.00000000 </v>
  </varray>
  <varray name="stress" >
   <v>     148.70193526       0.00000000       0.00000000 </v>
   <v>       0.00000000     148.70193526       0.00000000 </v>
   <v>       0.00000000       0.00000000     148.70193526 </v>
  </varray>
  <energy>
   <i name="e_fr_energy">    -22.21027199 </i>
   <i name="e_wo_entrp">    -22.21029313 </i>
   <i name="e_0_energy">      0.00006342 </i>
  </energy>
  <time name="totalsc">  100.46  100.78</time>
  <eigenvalues>
   <array>
    <dimension dim="1">band</dimension>
    <dimension dim="2">kpoint</dimension>
    <dimension dim="3">spin</dimension>
    <field>eigene</field>
    <field>occ</field>
    <set>
     <set comment="spin 1">
      <set comment="kpoint 1">
       <r>   -5.9535    1.0000 </r>
       <r>    6.9316    1.0000 </r>
       <r>    7.2864    1.0000 </r>
       <r>    7.2864    1.0000 </r>
       <r>    8.0598    1.0000 </r>
       <r>    8.0598    1.0000 </r>
       <r>    8.8166   -0.0343 </r>
       <r>   10.4729    0.0000 </r>
       <r>   10.4729    0.0000 </r>
       <r>   16.0610    0.0000 </r>
       <r>   19.2949    0.0000 </r>
       <r>   21.4201    0.0000 </r>
      </set>
      <set comment="kpoint 2">
       <r>   -5.3975    1.0000 </r>
       <r>    5.3523    1.0000 </r>
       <r>    5.8086    1.0000 </r>
       <r>    5.9765    1.0000 </r>
       <r>    8.0305    1.0000 </r>
       <r>    8.9945    0.0000 </r>
       <r>    9.6589    0.0000 </r>
       <r>   11.6345    0.0000 </r>
       <r>   13.2197    0.0000 </r>
       <r>   17.0390    0.0000 </r>
       <r>   20.6711    0.0000 </r>
       <r>   21.4195    0.0000 </r>
      </set>
      <set comment="kpoint 3">
       <r>   -4.1519    1.0000 </r>
       <r>    3.1190    1.0000 </r>
       <r>    4.3269    1.0000 </r>
       <r>    4.6482    1.0000 </r>
       <r>    9.2306    0.0000 </r>
       <r>    9.8367    0.0000 </r>
       <r>   10.6523    0.0000 </r>
       <r>   14.4609    0.0000 </r>
       <r>   16.2467    0.0000 </r>
       <r>   17.9400    0.0000 </r>
       <r>   21.4125    0.0000 </r>
       <r>   22.3813    0.0000 </r>
      </set>
      <set comment="kpoint 4">
       <r>   -2.5570    1.0000 </r>
       <r>    1.1171    1.0000 </r>
       <r>    3.5131    1.0000 </r>
       <r>    3.6953    1.0000 </r>
       <r>   10.8130    0.0000 </r>
       <r>   11.0120    0.0000 </r>
       <r>   12.0112    0.0000 </r>
       <r>   16.1599    0.0000 </r>
       <r>   17.3210    0.0000 </r>
       <r>   18.7231    0.0000 </r>
       <r>   21.4104    0.0000 </r>
       <r>   22.7017    0.0000 </r>
      </set>
      <set comment="kpoint 5">
       <r>   -1.7126    1.0000 </r>
       <r>    0.1999    1.0000 </r>
       <r>    3.3609    1.0000 </r>
       <r>    3.4032    1.0000 </r>
       <r>   11.3529    0.0000 </r>
       <r>   11.7905    0.0000 </r>
       <r>   12.6658    0.0000 </r>
       <r>   14.9099    0.0000 </r>
       <r>   18.7599    0.0000 </r>
       <r>   19.1427    0.0000 </r>
       <r>   21.4078    0.0000 </r>
       <r>   21.7042    0.0000 </r>
      </set>
      <set comment="kpoint 6">
       <r>   -3.1103    1.0000 </r>
       <r>    1.7478    1.0000 </r>
       <r>    3.7206    1.0000 </r>
       <r>    3.9900    1.0000 </r>
       <r>    9.8775    0.0000 </r>
       <r>   11.0896    0.0000 </r>
       <r>   11.4482    0.0000 </r>
       <r>   16.5081    0.0000 </r>
       <r>   16.8112    0.0000 </r>
       <r>   18.1236    0.0000 </r>
       <r>   21.4091    0.0000 </r>
       <r>   22.7937    0.0000 </r>
      </set>
      <set comment="kpoint 7">
       <r>   -4.6329    1.0000 </r>
       <r>    3.7721    1.0000 </r>
       <r>    4.8054    1.0000 </r>
       <r>    5.2088    1.0000 </r>
       <r>    8.5012    1.0000 </r>
       <r>    9.6722    0.0000 </r>
       <r>   10.2546    0.0000 </r>
       <r>   13.6256    0.0000 </r>
       <r>   14.9988    0.0000 </r>
       <r>   17.9585    0.0000 </r>
       <r>   21.4155    0.0000 </r>
       <r>   22.0246    0.0000 </r>
      </set>
      <set comment="kpoint 8">
       <r>   -5.6732    1.0000 </r>
       <r>    5.8800    1.0000 </r>
       <r>    6.4705    1.0000 </r>
       <r>    6.7184    1.0000 </r>
       <r>    7.5598    1.0000 </r>
       <r>    8.9232    0.0000 </r>
       <r>    9.4843    0.0000 </r>
       <r>   10.7100    0.0000 </r>
       <r>   12.2050    0.0000 </r>
       <r>   16.6462    0.0000 </r>
       <r>   20.0256    0.0000 </r>
       <r>   21.4196    0.0000 </r>
      </set>
      <set comment="kpoint 9">
       <r>   -5.1642    1.0000 </r>
       <r>    4.3395    1.0000 </r>
       <r>    5.9469    1.0000 </r>
       <r>    6.3637    1.0000 </r>
       <r>    7.1653    1.0000 </r>
       <r>    9.7431    0.0000 </r>
       <r>   10.5291    0.0000 </r>
       <r>   11.2390    0.0000 </r>
       <r>   13.6240    0.0000 </r>
       <r>   17.8830    0.0000 </r>
       <r>   21.3240    0.0000 </r>
       <r>   21.4195    0.0000 </r>
      </set>
      <set comment="kpoint 10">
       <r>   -4.2864    1.0000 </r>
       <r>    3.0057    1.0000 </r>
       <r>    4.8919    1.0000 </r>
       <r>    5.3808    1.0000 </r>
       <r>    7.7223    1.0000 </r>
       <r>   10.6767    0.0000 </r>
       <r>   11.5004    0.0000 </r>
       <r>   12.6900    0.0000 </r>
       <r>   15.5273    0.0000 </r>
       <r>   19.2274    0.0000 </r>
       <r>   21.4157    0.0000 </r>
       <r>   22.9098    0.0000 </r>
      </set>
      <set comment="kpoint 11">
       <r>   -3.0806    1.0000 </r>
       <r>    1.7809    1.0000 </r>
       <r>    3.8570    1.0000 </r>
       <r>    4.4055    1.0000 </r>
       <r>    8.8742   -0.0028 </r>
       <r>   11.7038    0.0000 </r>
       <r>   12.4103    0.0000 </r>
       <r>   15.0461    0.0000 </r>
       <r>   16.8372    0.0000 </r>
       <r>   19.3107    0.0000 </r>
       <r>   21.3947    0.0000 </r>
       <r>   22.0430    0.0000 </r>
      </set>
      <set comment="kpoint 12">
       <r>   -2.1612    1.0000 </r>
       <r>    0.8613    1.0000 </r>
       <r>    3.6099    1.0000 </r>
       <r>    3.7797    1.0000 </r>
       <r>   10.4562    0.0000 </r>
       <r>   11.6084    0.0000 </r>
       <r>   12.5794    0.0000 </r>
       <r>   16.3224    0.0000 </r>
       <r>   17.6421    0.0000 </r>
       <r>   18.5963    0.0000 </r>
       <r>   21.3975    0.0000 </r>
       <r>   21.9386    0.0000 </r>
      </set>
      <set comment="kpoint 13">
       <r>   -2.5750    1.0000 </r>
       <r>    1.2678    1.0000 </r>
       <r>    3.6645    1.0000 </r>
       <r>    3.9338    1.0000 </r>
       <r>   10.0733    0.0000 </r>
       <r>   11.5545    0.0000 </r>
       <r>   12.3130    0.0000 </r>
       <r>   15.5789    0.0000 </r>
       <r>   17.0920    0.0000 </r>
       <r>   19.2555    0.0000 </r>
       <r>   21.4068    0.0000 </r>
       <r>   22.5257    0.0000 </r>
      </set>
      <set comment="kpoint 14">
       <r>   -3.8104    1.0000 </r>
       <r>    2.6309    1.0000 </r>
       <r>    4.2635    1.0000 </r>
       <r>    4.5447    1.0000 </r>
       <r>    8.7775    0.2157 </r>
       <r>   11.0428    0.0000 </r>
       <r>   11.6071    0.0000 </r>
       <r>   13.2429    0.0000 </r>
       <r>   17.0150    0.0000 </r>
       <r>   18.6902    0.0000 </r>
       <r>   21.4124    0.0000 </r>
       <r>   22.8374    0.0000 </r>
      </set>
      <set comment="kpoint 15">
       <r>   -4.8955    1.0000 </r>
       <r>    4.1179    1.0000 </r>
       <r>    5.2622    1.0000 </r>
       <r>    5.5470    1.0000 </r>
       <r>    7.9810    1.0000 </r>
       <r>    9.7909    0.0000 </r>
       <r>   10.4354    0.0000 </r>
       <r>   12.1457    0.0000 </r>
       <r>   14.6108    0.0000 </r>
       <r>   17.9509    0.0000 </r>
       <r>   21.4182    0.0000 </r>
       <r>   21.7667    0.0000 </r>
      </set>
      <set comment="kpoint 16">
       <r>   -4.0315    1.0000 </r>
       <r>    2.6326    1.0000 </r>
       <r>    5.0537    1.0000 </r>
       <r>    6.2775    1.0000 </r>
       <r>    6.7438    1.0000 </r>
       <r>   10.9257    0.0000 </r>
       <r>   12.5717    0.0000 </r>
       <r>   12.7731    0.0000 </r>
       <r>   15.4364    0.0000 </r>
       <r>   20.6476    0.0000 </r>
       <r>   21.4135    0.0000 </r>
       <r>   22.8183    0.0000 </r>
      </set>
      <set comment="kpoint 17">
       <r>   -3.5608    1.0000 </r>
       <r>    2.6346    1.0000 </r>
       <r>    4.3253    1.0000 </r>
       <r>    5.5789    1.0000 </r>
       <r>    7.5414    1.0000 </r>
       <r>   12.0534    0.0000 </r>
       <r>   13.0193    0.0000 </r>
       <r>   13.3719    0.0000 </r>
       <r>   16.6704    0.0000 </r>
       <r>   19.9272    0.0000 </r>
       <r>   20.9717    0.0000 </r>
       <r>   21.4358    0.0000 </r>
      </set>
      <set comment="kpoint 18">
       <r>   -3.0140    1.0000 </r>
       <r>    2.4184    1.0000 </r>
       <r>    3.8722    1.0000 </r>
       <r>    4.7213    1.0000 </r>
       <r>    8.6478    1.0035 </r>
       <r>   12.1450    0.0000 </r>
       <r>   12.9219    0.0000 </r>
       <r>   15.1837    0.0000 </r>
       <r>   16.6786    0.0000 </r>
       <r>   19.4554    0.0000 </r>
       <r>   20.9861    0.0000 </r>
       <r>   21.4420    0.0000 </r>
      </set>
      <set comment="kpoint 19">
       <r>   -2.6041    1.0000 </r>
       <r>    1.7723    1.0000 </r>
       <r>    3.8247    1.0000 </r>
       <r>    4.1025    1.0000 </r>
       <r>   10.3811    0.0000 </r>
       <r>   10.9753    0.0000 </r>
       <r>   12.7015    0.0000 </r>
       <r>   14.8912    0.0000 </r>
       <r>   17.6954    0.0000 </r>
       <r>   19.9508    0.0000 </r>
       <r>   21.4025    0.0000 </r>
       <r>   21.9549    0.0000 </r>
      </set>
      <set comment="kpoint 20">
       <r>   -2.8138    1.0000 </r>
       <r>    1.6398    1.0000 </r>
       <r>    3.8449    1.0000 </r>
       <r>    4.0012    1.0000 </r>
       <r>    9.8198    0.0000 </r>
       <r>   11.8762    0.0000 </r>
       <r>   12.2379    0.0000 </r>
       <r>   14.0395    0.0000 </r>
       <r>   17.7528    0.0000 </r>
       <r>   19.3756    0.0000 </r>
       <r>   21.4074    0.0000 </r>
       <r>   22.5386    0.0000 </r>
      </set>
      <set comment="kpoint 21">
       <r>   -3.5638    1.0000 </r>
       <r>    2.2937    1.0000 </r>
       <r>    3.9860    1.0000 </r>
       <r>    4.4188    1.0000 </r>
       <r>    9.1255    0.0000 </r>
       <r>   10.7479    0.0000 </r>
       <r>   11.5762    0.0000 </r>
       <r>   14.8301    0.0000 </r>
       <r>   17.0191    0.0000 </r>
       <r>   18.3671    0.0000 </r>
       <r>   21.4098    0.0000 </r>
       <r>   22.6510    0.0000 </r>
      </set>
      <set comment="kpoint 22">
       <r>   -3.8140    1.0000 </r>
       <r>    3.5060    1.0000 </r>
       <r>    4.3461    1.0000 </r>
       <r>    6.7087    1.0000 </r>
       <r>    7.0317    1.0000 </r>
       <r>   11.7573    0.0000 </r>
       <r>   13.2249    0.0000 </r>
       <r>   13.2377    0.0000 </r>
       <r>   16.9388    0.0000 </r>
       <r>   17.7279    0.0000 </r>
       <r>   21.4165    0.0000 </r>
       <r>   21.4757    0.0000 </r>
      </set>
      <set comment="kpoint 23">
       <r>   -3.6705    1.0000 </r>
       <r>    3.9107    1.0000 </r>
       <r>    4.0875    1.0000 </r>
       <r>    5.8075    1.0000 </r>
       <r>    7.7168    1.0000 </r>
       <r>   12.7764    0.0000 </r>
       <r>   12.9901    0.0000 </r>
       <r>   13.1935    0.0000 </r>
       <r>   16.2378    0.0000 </r>
       <r>   18.2697    0.0000 </r>
       <r>   21.2397    0.0000 </r>
       <r>   21.4276    0.0000 </r>
      </set>
      <set comment="kpoint 24">
       <r>   -3.1288    1.0000 </r>
       <r>    2.8857    1.0000 </r>
       <r>    3.9290    1.0000 </r>
       <r>    4.8219    1.0000 </r>
       <r>    8.5830    1.0000 </r>
       <r>   12.0523    0.0000 </r>
       <r>   13.0584    0.0000 </r>
       <r>   15.1467    0.0000 </r>
       <r>   15.8116    0.0000 </r>
       <r>   19.9692    0.0000 </r>
       <r>   21.3110    0.0000 </r>
       <r>   21.4428    0.0000 </r>
      </set>
      <set comment="kpoint 25">
       <r>   -2.4162    1.0000 </r>
       <r>    1.3646    1.0000 </r>
       <r>    3.7567    1.0000 </r>
       <r>    3.9765    1.0000 </r>
       <r>   10.4101    0.0000 </r>
       <r>   11.1853    0.0000 </r>
       <r>   12.5154    0.0000 </r>
       <r>   16.1616    0.0000 </r>
       <r>   17.5177    0.0000 </r>
       <r>   18.8094    0.0000 </r>
       <r>   21.3995    0.0000 </r>
       <r>   22.0449    0.0000 </r>
      </set>
      <set comment="kpoint 26">
       <r>   -2.1489    1.0000 </r>
       <r>    0.7084    1.0000 </r>
       <r>    3.4752    1.0000 </r>
       <r>    3.6581    1.0000 </r>
       <r>   10.6260    0.0000 </r>
       <r>   11.7011    0.0000 </r>
       <r>   12.4624    0.0000 </r>
       <r>   15.8282    0.0000 </r>
       <r>   17.5078    0.0000 </r>
       <r>   19.1928    0.0000 </r>
       <r>   21.4069    0.0000 </r>
       <r>   22.1725    0.0000 </r>
      </set>
      <set comment="kpoint 27">
       <r>   -3.8820    1.0000 </r>
       <r>    4.1234    1.0000 </r>
       <r>    4.1936    1.0000 </r>
       <r>    6.8791    1.0000 </r>
       <r>    7.1559    1.0000 </r>
       <r>   11.9755    0.0000 </r>
       <r>   13.1325    0.0000 </r>
       <r>   13.1863    0.0000 </r>
       <r>   16.3186    0.0000 </r>
       <r>   17.5338    0.0000 </r>
       <r>   21.2353    0.0000 </r>
       <r>   21.4263    0.0000 </r>
      </set>
      <set comment="kpoint 28">
       <r>   -3.5920    1.0000 </r>
       <r>    3.3145    1.0000 </r>
       <r>    4.1351    1.0000 </r>
       <r>    5.7492    1.0000 </r>
       <r>    7.6351    1.0000 </r>
       <r>   12.5012    0.0000 </r>
       <r>   13.0899    0.0000 </r>
       <r>   13.2938    0.0000 </r>
       <r>   17.0207    0.0000 </r>
       <r>   18.2555    0.0000 </r>
       <r>   21.2447    0.0000 </r>
       <r>   21.4317    0.0000 </r>
      </set>
      <set comment="kpoint 29">
       <r>   -2.9188    1.0000 </r>
       <r>    1.8827    1.0000 </r>
       <r>    3.8389    1.0000 </r>
       <r>    4.5409    1.0000 </r>
       <r>    8.7243    0.9615 </r>
       <r>   12.1941    0.0000 </r>
       <r>   12.7924    0.0000 </r>
       <r>   15.1254    0.0000 </r>
       <r>   16.9466    0.0000 </r>
       <r>   19.7330    0.0000 </r>
       <r>   20.7948    0.0000 </r>
       <r>   21.4468    0.0000 </r>
      </set>
      <set comment="kpoint 30">
       <r>   -3.8006    1.0000 </r>
       <r>    2.8207    1.0000 </r>
       <r>    4.6479    1.0000 </r>
       <r>    6.4681    1.0000 </r>
       <r>    6.8482    1.0000 </r>
       <r>   11.3880    0.0000 </r>
       <r>   13.1058    0.0000 </r>
       <r>   13.1932    0.0000 </r>
       <r>   16.2160    0.0000 </r>
       <r>   19.8494    0.0000 </r>
       <r>   21.4182    0.0000 </r>
       <r>   21.5446    0.0000 </r>
      </set>
      <set comment="kpoint 31">
       <r>   -3.7772    1.0000 </r>
       <r>    2.4610    1.0000 </r>
       <r>    4.5831    1.0000 </r>
       <r>    5.4168    1.0000 </r>
       <r>    7.5514    1.0000 </r>
       <r>   11.4446    0.0000 </r>
       <r>   12.4621    0.0000 </r>
       <r>   13.1852    0.0000 </r>
       <r>   16.1132    0.0000 </r>
       <r>   20.2743    0.0000 </r>
       <r>   21.4006    0.0000 </r>
       <r>   22.2017    0.0000 </r>
      </set>
      <set comment="kpoint 32">
       <r>   -4.5482    1.0000 </r>
       <r>    3.1751    1.0000 </r>
       <r>    5.4990    1.0000 </r>
       <r>    6.2249    1.0000 </r>
       <r>    6.8417    1.0000 </r>
       <r>   10.3935    0.0000 </r>
       <r>   11.6378    0.0000 </r>
       <r>   12.0229    0.0000 </r>
       <r>   14.6223    0.0000 </r>
       <r>   19.4442    0.0000 </r>
       <r>   21.4180    0.0000 </r>
       <r>   22.9418    0.0000 </r>
      </set>
      <set comment="kpoint 33">
       <r>   -5.1269    1.0000 </r>
       <r>    4.7397    1.0000 </r>
       <r>    5.4968    1.0000 </r>
       <r>    5.4968    1.0000 </r>
       <r>    8.7076    1.0286 </r>
       <r>    8.7076    1.0286 </r>
       <r>    9.6054    0.0000 </r>
       <r>   13.3630    0.0000 </r>
       <r>   13.3630    0.0000 </r>
       <r>   17.3133    0.0000 </r>
       <r>   21.1967    0.0000 </r>
       <r>   21.4204    0.0000 </r>
      </set>
      <set comment="kpoint 34">
       <r>   -4.4054    1.0000 </r>
       <r>    3.5376    1.0000 </r>
       <r>    4.5175    1.0000 </r>
       <r>    4.8929    1.0000 </r>
       <r>    8.6677    1.0131 </r>
       <r>   10.2612    0.0000 </r>
       <r>   10.7800    0.0000 </r>
       <r>   12.7353    0.0000 </r>
       <r>   16.1623    0.0000 </r>
       <r>   18.0989    0.0000 </r>
       <r>   21.4162    0.0000 </r>
       <r>   22.4062    0.0000 </r>
      </set>
      <set comment="kpoint 35">
       <r>   -3.2418    1.0000 </r>
       <r>    2.0308    1.0000 </r>
       <r>    3.8508    1.0000 </r>
       <r>    4.1764    1.0000 </r>
       <r>    9.5829    0.0000 </r>
       <r>   11.2899    0.0000 </r>
       <r>   12.0871    0.0000 </r>
       <r>   13.6926    0.0000 </r>
       <r>   17.8180    0.0000 </r>
       <r>   18.6122    0.0000 </r>
       <r>   21.4110    0.0000 </r>
       <r>   22.7577    0.0000 </r>
      </set>
      <set comment="kpoint 36">
       <r>   -2.2922    1.0000 </r>
       <r>    1.0407    1.0000 </r>
       <r>    3.7066    1.0000 </r>
       <r>    3.7689    1.0000 </r>
       <r>   11.0302    0.0000 </r>
       <r>   11.1780    0.0000 </r>
       <r>   12.0335    0.0000 </r>
       <r>   15.9154    0.0000 </r>
       <r>   17.6812    0.0000 </r>
       <r>   18.8632    0.0000 </r>
       <r>   21.4083    0.0000 </r>
       <r>   22.2821    0.0000 </r>
      </set>
      <set comment="kpoint 37">
       <r>   -2.5247    1.0000 </r>
       <r>    1.3240    1.0000 </r>
       <r>    3.6762    1.0000 </r>
       <r>    4.1445    1.0000 </r>
       <r>    9.3993    0.0000 </r>
       <r>   12.0957    0.0000 </r>
       <r>   12.7312    0.0000 </r>
       <r>   16.5274    0.0000 </r>
       <r>   16.5755    0.0000 </r>
       <r>   19.1864    0.0000 </r>
       <r>   21.1601    0.0000 </r>
       <r>   21.4766    0.0000 </r>
      </set>
      <set comment="kpoint 38">
       <r>   -3.5279    1.0000 </r>
       <r>    2.2198    1.0000 </r>
       <r>    4.1989    1.0000 </r>
       <r>    5.1040    1.0000 </r>
       <r>    7.9056    1.0000 </r>
       <r>   11.5891    0.0000 </r>
       <r>   12.3804    0.0000 </r>
       <r>   14.1666    0.0000 </r>
       <r>   16.4144    0.0000 </r>
       <r>   19.7826    0.0000 </r>
       <r>   21.3890    0.0000 </r>
       <r>   21.9308    0.0000 </r>
      </set>
      <set comment="kpoint 39">
       <r>   -4.0308    1.0000 </r>
       <r>    2.7621    1.0000 </r>
       <r>    4.4204    1.0000 </r>
       <r>    5.0736    1.0000 </r>
       <r>    8.1651    1.0000 </r>
       <r>   10.6868    0.0000 </r>
       <r>   11.3484    0.0000 </r>
       <r>   13.9385    0.0000 </r>
       <r>   15.9669    0.0000 </r>
       <r>   18.9292    0.0000 </r>
       <r>   21.4122    0.0000 </r>
       <r>   22.6499    0.0000 </r>
      </set>
      <set comment="kpoint 40">
       <r>   -3.3232    1.0000 </r>
       <r>    2.1098    1.0000 </r>
       <r>    4.1556    1.0000 </r>
       <r>    4.4639    1.0000 </r>
       <r>    8.6731    1.0173 </r>
       <r>   11.8705    0.0000 </r>
       <r>   12.3828    0.0000 </r>
       <r>   13.6261    0.0000 </r>
       <r>   17.0533    0.0000 </r>
       <r>   19.6550    0.0000 </r>
       <r>   21.3983    0.0000 </r>
       <r>   22.1520    0.0000 </r>
      </set>
      <set comment="kpoint 41">
       <r>   -2.7394    1.0000 </r>
       <r>    1.8495    1.0000 </r>
       <r>    3.8613    1.0000 </r>
       <r>    4.1073    1.0000 </r>
       <r>    9.8450    0.0000 </r>
       <r>   11.5684    0.0000 </r>
       <r>   12.7397    0.0000 </r>
       <r>   14.3444    0.0000 </r>
       <r>   17.6891    0.0000 </r>
       <r>   19.8540    0.0000 </r>
       <r>   21.3905    0.0000 </r>
       <r>   21.9334    0.0000 </r>
      </set>
      <set comment="kpoint 42">
       <r>   -2.7060    1.0000 </r>
       <r>    1.9842    1.0000 </r>
       <r>    3.8067    1.0000 </r>
       <r>    4.2346    1.0000 </r>
       <r>    9.8964    0.0000 </r>
       <r>   11.1602    0.0000 </r>
       <r>   12.8835    0.0000 </r>
       <r>   15.9142    0.0000 </r>
       <r>   16.4186    0.0000 </r>
       <r>   19.8403    0.0000 </r>
       <r>   21.3864    0.0000 </r>
       <r>   21.8325    0.0000 </r>
      </set>
      <set comment="kpoint 43">
       <r>   -3.1491    1.0000 </r>
       <r>    2.2682    1.0000 </r>
       <r>    4.0246    1.0000 </r>
       <r>    4.6141    1.0000 </r>
       <r>    8.6301    1.0008 </r>
       <r>   12.2783    0.0000 </r>
       <r>   12.8610    0.0000 </r>
       <r>   13.7714    0.0000 </r>
       <r>   17.2242    0.0000 </r>
       <r>   20.0994    0.0000 </r>
       <r>   20.8688    0.0000 </r>
       <r>   21.4470    0.0000 </r>
      </set>
      <set comment="kpoint 44">
       <r>   -3.3249    1.0000 </r>
       <r>    2.3531    1.0000 </r>
       <r>    4.0647    1.0000 </r>
       <r>    5.2623    1.0000 </r>
       <r>    7.7834    1.0000 </r>
       <r>   12.2488    0.0000 </r>
       <r>   12.9428    0.0000 </r>
       <r>   14.1943    0.0000 </r>
       <r>   16.7947    0.0000 </r>
       <r>   19.9984    0.0000 </r>
       <r>   20.4669    0.0000 </r>
       <r>   21.4351    0.0000 </r>
      </set>
      <set comment="kpoint 45">
       <r>   -3.2255    1.0000 </r>
       <r>    2.9325    1.0000 </r>
       <r>    3.9354    1.0000 </r>
       <r>    4.7444    1.0000 </r>
       <r>    8.6727    1.0170 </r>
       <r>   12.2003    0.0000 </r>
       <r>   13.0987    0.0000 </r>
       <r>   13.8494    0.0000 </r>
       <r>   16.8731    0.0000 </r>
       <r>   19.5321    0.0000 </r>
       <r>   21.2349    0.0000 </r>
       <r>   21.4452    0.0000 </r>
      </set>
      <set comment="kpoint 46">
       <r>   -3.0448    1.0000 </r>
       <r>    3.2046    1.0000 </r>
       <r>    3.8473    1.0000 </r>
       <r>    4.1330    1.0000 </r>
       <r>    9.9263    0.0000 </r>
       <r>   11.1410    0.0000 </r>
       <r>   13.1721    0.0000 </r>
       <r>   14.3299    0.0000 </r>
       <r>   15.7447    0.0000 </r>
       <r>   21.3348    0.0000 </r>
       <r>   21.5714    0.0000 </r>
       <r>   22.0589    0.0000 </r>
      </set>
      <set comment="kpoint 47">
       <r>   -2.9010    1.0000 </r>
       <r>    2.5113    1.0000 </r>
       <r>    3.8364    1.0000 </r>
       <r>    4.2633    1.0000 </r>
       <r>    9.8831    0.0000 </r>
       <r>   11.1507    0.0000 </r>
       <r>   13.0778    0.0000 </r>
       <r>   14.5270    0.0000 </r>
       <r>   16.6088    0.0000 </r>
       <r>   20.7411    0.0000 </r>
       <r>   21.3944    0.0000 </r>
       <r>   21.8193    0.0000 </r>
      </set>
      <set comment="kpoint 48">
       <r>   -3.4627    1.0000 </r>
       <r>    3.4359    1.0000 </r>
       <r>    4.0372    1.0000 </r>
       <r>    5.6179    1.0000 </r>
       <r>    7.6668    1.0000 </r>
       <r>   12.6090    0.0000 </r>
       <r>   13.1164    0.0000 </r>
       <r>   14.1087    0.0000 </r>
       <r>   16.0496    0.0000 </r>
       <r>   18.8192    0.0000 </r>
       <r>   21.1778    0.0000 </r>
       <r>   21.4285    0.0000 </r>
      </set>
      <set comment="kpoint 49">
       <r>   -3.3288    1.0000 </r>
       <r>    3.5890    1.0000 </r>
       <r>    3.9475    1.0000 </r>
       <r>    4.6594    1.0000 </r>
       <r>    8.7262    0.9473 </r>
       <r>   12.1643    0.0000 </r>
       <r>   13.1697    0.0000 </r>
       <r>   13.8321    0.0000 </r>
       <r>   15.9981    0.0000 </r>
       <r>   19.7968    0.0000 </r>
       <r>   21.4207    0.0000 </r>
       <r>   21.4892    0.0000 </r>
      </set>
      <set comment="kpoint 50">
       <r>   -3.3736    1.0000 </r>
       <r>    2.9484    1.0000 </r>
       <r>    3.9990    1.0000 </r>
       <r>    5.4697    1.0000 </r>
       <r>    7.7326    1.0000 </r>
       <r>   12.5686    0.0000 </r>
       <r>   13.0425    0.0000 </r>
       <r>   14.1212    0.0000 </r>
       <r>   16.8893    0.0000 </r>
       <r>   18.6927    0.0000 </r>
       <r>   20.9591    0.0000 </r>
       <r>   21.4309    0.0000 </r>
      </set>
      <set comment="kpoint 51">
       <r>   -3.6852    1.0000 </r>
       <r>    2.4822    1.0000 </r>
       <r>    4.1098    1.0000 </r>
       <r>    4.1098    1.0000 </r>
       <r>   10.1281    0.0000 </r>
       <r>   10.1281    0.0000 </r>
       <r>   10.5280    0.0000 </r>
       <r>   16.3852    0.0000 </r>
       <r>   16.3852    0.0000 </r>
       <r>   17.5613    0.0000 </r>
       <r>   21.4097    0.0000 </r>
       <r>   22.5343    0.0000 </r>
      </set>
      <set comment="kpoint 52">
       <r>   -3.0005    1.0000 </r>
       <r>    1.6715    1.0000 </r>
       <r>    3.7006    1.0000 </r>
       <r>    4.0397    1.0000 </r>
       <r>   10.0619    0.0000 </r>
       <r>   10.7586    0.0000 </r>
       <r>   12.1329    0.0000 </r>
       <r>   15.2895    0.0000 </r>
       <r>   17.2507    0.0000 </r>
       <r>   18.6562    0.0000 </r>
       <r>   21.4103    0.0000 </r>
       <r>   22.8987    0.0000 </r>
      </set>
      <set comment="kpoint 53">
       <r>   -2.5178    1.0000 </r>
       <r>    1.4271    1.0000 </r>
       <r>    3.8438    1.0000 </r>
       <r>    3.8547    1.0000 </r>
       <r>   10.6601    0.0000 </r>
       <r>   11.3015    0.0000 </r>
       <r>   12.2291    0.0000 </r>
       <r>   14.4829    0.0000 </r>
       <r>   18.6740    0.0000 </r>
       <r>   18.9112    0.0000 </r>
       <r>   21.4086    0.0000 </r>
       <r>   22.0825    0.0000 </r>
      </set>
      <set comment="kpoint 54">
       <r>   -2.8157    1.0000 </r>
       <r>    2.2011    1.0000 </r>
       <r>    3.8609    1.0000 </r>
       <r>    4.4699    1.0000 </r>
       <r>    9.2212    0.0000 </r>
       <r>   11.7386    0.0000 </r>
       <r>   12.8301    0.0000 </r>
       <r>   15.3605    0.0000 </r>
       <r>   16.7686    0.0000 </r>
       <r>   20.1476    0.0000 </r>
       <r>   21.3582    0.0000 </r>
       <r>   21.4998    0.0000 </r>
      </set>
      <set comment="kpoint 55">
       <r>   -2.6426    1.0000 </r>
       <r>    1.2552    1.0000 </r>
       <r>    3.6104    1.0000 </r>
       <r>    4.0080    1.0000 </r>
       <r>    9.5818    0.0000 </r>
       <r>   11.8270    0.0000 </r>
       <r>   12.4333    0.0000 </r>
       <r>   16.3056    0.0000 </r>
       <r>   16.5502    0.0000 </r>
       <r>   19.1444    0.0000 </r>
       <r>   21.3980    0.0000 </r>
       <r>   22.0882    0.0000 </r>
      </set>
      <set comment="kpoint 56">
       <r>   -2.5192    1.0000 </r>
       <r>    1.4302    1.0000 </r>
       <r>    3.7420    1.0000 </r>
       <r>    4.0421    1.0000 </r>
       <r>    9.9540    0.0000 </r>
       <r>   11.5595    0.0000 </r>
       <r>   12.5993    0.0000 </r>
       <r>   15.7752    0.0000 </r>
       <r>   17.2791    0.0000 </r>
       <r>   19.2035    0.0000 </r>
       <r>   21.3903    0.0000 </r>
       <r>   21.9178    0.0000 </r>
      </set>
      <set comment="kpoint 57">
       <r>   -2.8631    1.0000 </r>
       <r>    2.4729    1.0000 </r>
       <r>    3.8437    1.0000 </r>
       <r>    4.3045    1.0000 </r>
       <r>    9.8535    0.0000 </r>
       <r>   11.0832    0.0000 </r>
       <r>   13.0526    0.0000 </r>
       <r>   15.0661    0.0000 </r>
       <r>   16.1808    0.0000 </r>
       <r>   21.0571    0.0000 </r>
       <r>   21.4059    0.0000 </r>
       <r>   21.8951    0.0000 </r>
      </set>
      <set comment="kpoint 58">
       <r>   -2.6728    1.0000 </r>
       <r>    1.7936    1.0000 </r>
       <r>    3.7924    1.0000 </r>
       <r>    4.3325    1.0000 </r>
       <r>    9.3016    0.0000 </r>
       <r>   11.9500    0.0000 </r>
       <r>   12.6377    0.0000 </r>
       <r>   16.4234    0.0000 </r>
       <r>   16.6744    0.0000 </r>
       <r>   19.0893    0.0000 </r>
       <r>   21.2475    0.0000 </r>
       <r>   21.4892    0.0000 </r>
      </set>
      <set comment="kpoint 59">
       <r>   -2.0242    1.0000 </r>
       <r>    0.5164    1.0000 </r>
       <r>    3.3971    1.0000 </r>
       <r>    3.3971    1.0000 </r>
       <r>   11.5095    0.0000 </r>
       <r>   11.5095    0.0000 </r>
       <r>   12.1379    0.0000 </r>
       <r>   15.2354    0.0000 </r>
       <r>   18.7654    0.0000 </r>
       <r>   18.7654    0.0000 </r>
       <r>   22.0625    0.0000 </r>
       <r>   22.0632    0.0000 </r>
      </set>
      <set comment="kpoint 60">
       <r>   -1.9244    1.0000 </r>
       <r>    0.5016    1.0000 </r>
       <r>    3.5259    1.0000 </r>
       <r>    3.5508    1.0000 </r>
       <r>   11.1594    0.0000 </r>
       <r>   11.5354    0.0000 </r>
       <r>   12.3615    0.0000 </r>
       <r>   15.8619    0.0000 </r>
       <r>   18.0640    0.0000 </r>
       <r>   18.7928    0.0000 </r>
       <r>   21.4073    0.0000 </r>
       <r>   21.9993    0.0000 </r>
      </set>
     </set>
     <set comment="spin 2">
      <set comment="kpoint 1">
       <r>   -5.9527    1.0000 </r>
       <r>    6.9320    1.0000 </r>
       <r>    7.2868    1.0000 </r>
       <r>    7.2868    1.0000 </r>
       <r>    8.0602    1.0000 </r>
       <r>    8.0602    1.0000 </r>
       <r>    8.8173   -0.0347 </r>
       <r>   10.4735    0.0000 </r>
       <r>   10.4735    0.0000 </r>
       <r>   16.0618    0.0000 </r>
       <r>   19.2938    0.0000 </r>
       <r>   21.4200    0.0000 </r>
      </set>
      <set comment="kpoint 2">
       <r>   -5.3966    1.0000 </r>
       <r>    5.3529    1.0000 </r>
       <r>    5.8092    1.0000 </r>
       <r>    5.9770    1.0000 </r>
       <r>    8.0306    1.0000 </r>
       <r>    8.9947    0.0000 </r>
       <r>    9.6595    0.0000 </r>
       <r>   11.6351    0.0000 </r>
       <r>   13.2205    0.0000 </r>
       <r>   17.0398    0.0000 </r>
       <r>   20.6701    0.0000 </r>
       <r>   21.4195    0.0000 </r>
      </set>
      <set comment="kpoint 3">
       <r>   -4.1510    1.0000 </r>
       <r>    3.1196    1.0000 </r>
       <r>    4.3274    1.0000 </r>
       <r>    4.6487    1.0000 </r>
       <r>    9.2307    0.0000 </r>
       <r>    9.8369    0.0000 </r>
       <r>   10.6524    0.0000 </r>
       <r>   14.4617    0.0000 </r>
       <r>   16.2476    0.0000 </r>
       <r>   17.9406    0.0000 </r>
       <r>   21.4125    0.0000 </r>
       <r>   22.3807    0.0000 </r>
      </set>
      <set comment="kpoint 4">
       <r>   -2.5560    1.0000 </r>
       <r>    1.1177    1.0000 </r>
       <r>    3.5137    1.0000 </r>
       <r>    3.6958    1.0000 </r>
       <r>   10.8130    0.0000 </r>
       <r>   11.0120    0.0000 </r>
       <r>   12.0111    0.0000 </r>
       <r>   16.1601    0.0000 </r>
       <r>   17.3220    0.0000 </r>
       <r>   18.7243    0.0000 </r>
       <r>   21.4105    0.0000 </r>
       <r>   22.7028    0.0000 </r>
      </set>
      <set comment="kpoint 5">
       <r>   -1.7114    1.0000 </r>
       <r>    0.2004    1.0000 </r>
       <r>    3.3615    1.0000 </r>
       <r>    3.4038    1.0000 </r>
       <r>   11.3528    0.0000 </r>
       <r>   11.7903    0.0000 </r>
       <r>   12.6657    0.0000 </r>
       <r>   14.9100    0.0000 </r>
       <r>   18.7611    0.0000 </r>
       <r>   19.1439    0.0000 </r>
       <r>   21.4079    0.0000 </r>
       <r>   21.7052    0.0000 </r>
      </set>
      <set comment="kpoint 6">
       <r>   -3.1093    1.0000 </r>
       <r>    1.7484    1.0000 </r>
       <r>    3.7212    1.0000 </r>
       <r>    3.9906    1.0000 </r>
       <r>    9.8776    0.0000 </r>
       <r>   11.0895    0.0000 </r>
       <r>   11.4483    0.0000 </r>
       <r>   16.5091    0.0000 </r>
       <r>   16.8116    0.0000 </r>
       <r>   18.1246    0.0000 </r>
       <r>   21.4092    0.0000 </r>
       <r>   22.7941    0.0000 </r>
      </set>
      <set comment="kpoint 7">
       <r>   -4.6320    1.0000 </r>
       <r>    3.7727    1.0000 </r>
       <r>    4.8060    1.0000 </r>
       <r>    5.2094    1.0000 </r>
       <r>    8.5014    1.0000 </r>
       <r>    9.6723    0.0000 </r>
       <r>   10.2548    0.0000 </r>
       <r>   13.6263    0.0000 </r>
       <r>   14.9997    0.0000 </r>
       <r>   17.9593    0.0000 </r>
       <r>   21.4155    0.0000 </r>
       <r>   22.0238    0.0000 </r>
      </set>
      <set comment="kpoint 8">
       <r>   -5.6724    1.0000 </r>
       <r>    5.8806    1.0000 </r>
       <r>    6.4710    1.0000 </r>
       <r>    6.7189    1.0000 </r>
       <r>    7.5600    1.0000 </r>
       <r>    8.9236    0.0000 </r>
       <r>    9.4849    0.0000 </r>
       <r>   10.7105    0.0000 </r>
       <r>   12.2057    0.0000 </r>
       <r>   16.6470    0.0000 </r>
       <r>   20.0245    0.0000 </r>
       <r>   21.4196    0.0000 </r>
      </set>
      <set comment="kpoint 9">
       <r>   -5.1633    1.0000 </r>
       <r>    4.3401    1.0000 </r>
       <r>    5.9473    1.0000 </r>
       <r>    6.3643    1.0000 </r>
       <r>    7.1656    1.0000 </r>
       <r>    9.7434    0.0000 </r>
       <r>   10.5296    0.0000 </r>
       <r>   11.2396    0.0000 </r>
       <r>   13.6247    0.0000 </r>
       <r>   17.8838    0.0000 </r>
       <r>   21.3229    0.0000 </r>
       <r>   21.4194    0.0000 </r>
      </set>
      <set comment="kpoint 10">
       <r>   -4.2855    1.0000 </r>
       <r>    3.0062    1.0000 </r>
       <r>    4.8924    1.0000 </r>
       <r>    5.3814    1.0000 </r>
       <r>    7.7226    1.0000 </r>
       <r>   10.6768    0.0000 </r>
       <r>   11.5006    0.0000 </r>
       <r>   12.6906    0.0000 </r>
       <r>   15.5281    0.0000 </r>
       <r>   19.2283    0.0000 </r>
       <r>   21.4157    0.0000 </r>
       <r>   22.9090    0.0000 </r>
      </set>
      <set comment="kpoint 11">
       <r>   -3.0796    1.0000 </r>
       <r>    1.7815    1.0000 </r>
       <r>    3.8575    1.0000 </r>
       <r>    4.4061    1.0000 </r>
       <r>    8.8744   -0.0027 </r>
       <r>   11.7037    0.0000 </r>
       <r>   12.4103    0.0000 </r>
       <r>   15.0468    0.0000 </r>
       <r>   16.8378    0.0000 </r>
       <r>   19.3116    0.0000 </r>
       <r>   21.3948    0.0000 </r>
       <r>   22.0437    0.0000 </r>
      </set>
      <set comment="kpoint 12">
       <r>   -2.1602    1.0000 </r>
       <r>    0.8618    1.0000 </r>
       <r>    3.6105    1.0000 </r>
       <r>    3.7803    1.0000 </r>
       <r>   10.4562    0.0000 </r>
       <r>   11.6083    0.0000 </r>
       <r>   12.5793    0.0000 </r>
       <r>   16.3228    0.0000 </r>
       <r>   17.6430    0.0000 </r>
       <r>   18.5972    0.0000 </r>
       <r>   21.3977    0.0000 </r>
       <r>   21.9395    0.0000 </r>
      </set>
      <set comment="kpoint 13">
       <r>   -2.5740    1.0000 </r>
       <r>    1.2684    1.0000 </r>
       <r>    3.6651    1.0000 </r>
       <r>    3.9344    1.0000 </r>
       <r>   10.0733    0.0000 </r>
       <r>   11.5545    0.0000 </r>
       <r>   12.3129    0.0000 </r>
       <r>   15.5797    0.0000 </r>
       <r>   17.0924    0.0000 </r>
       <r>   19.2566    0.0000 </r>
       <r>   21.4069    0.0000 </r>
       <r>   22.5267    0.0000 </r>
      </set>
      <set comment="kpoint 14">
       <r>   -3.8094    1.0000 </r>
       <r>    2.6315    1.0000 </r>
       <r>    4.2641    1.0000 </r>
       <r>    4.5452    1.0000 </r>
       <r>    8.7777    0.2136 </r>
       <r>   11.0430    0.0000 </r>
       <r>   11.6073    0.0000 </r>
       <r>   13.2434    0.0000 </r>
       <r>   17.0159    0.0000 </r>
       <r>   18.6910    0.0000 </r>
       <r>   21.4124    0.0000 </r>
       <r>   22.8371    0.0000 </r>
      </set>
      <set comment="kpoint 15">
       <r>   -4.8946    1.0000 </r>
       <r>    4.1185    1.0000 </r>
       <r>    5.2628    1.0000 </r>
       <r>    5.5475    1.0000 </r>
       <r>    7.9812    1.0000 </r>
       <r>    9.7910    0.0000 </r>
       <r>   10.4359    0.0000 </r>
       <r>   12.1463    0.0000 </r>
       <r>   14.6116    0.0000 </r>
       <r>   17.9517    0.0000 </r>
       <r>   21.4182    0.0000 </r>
       <r>   21.7657    0.0000 </r>
      </set>
      <set comment="kpoint 16">
       <r>   -4.0306    1.0000 </r>
       <r>    2.6332    1.0000 </r>
       <r>    5.0538    1.0000 </r>
       <r>    6.2782    1.0000 </r>
       <r>    6.7445    1.0000 </r>
       <r>   10.9259    0.0000 </r>
       <r>   12.5718    0.0000 </r>
       <r>   12.7733    0.0000 </r>
       <r>   15.4373    0.0000 </r>
       <r>   20.6486    0.0000 </r>
       <r>   21.4135    0.0000 </r>
       <r>   22.8186    0.0000 </r>
      </set>
      <set comment="kpoint 17">
       <r>   -3.5599    1.0000 </r>
       <r>    2.6353    1.0000 </r>
       <r>    4.3255    1.0000 </r>
       <r>    5.5796    1.0000 </r>
       <r>    7.5420    1.0000 </r>
       <r>   12.0535    0.0000 </r>
       <r>   13.0192    0.0000 </r>
       <r>   13.3721    0.0000 </r>
       <r>   16.6713    0.0000 </r>
       <r>   19.9280    0.0000 </r>
       <r>   20.9724    0.0000 </r>
       <r>   21.4357    0.0000 </r>
      </set>
      <set comment="kpoint 18">
       <r>   -3.0131    1.0000 </r>
       <r>    2.4189    1.0000 </r>
       <r>    3.8728    1.0000 </r>
       <r>    4.7220    1.0000 </r>
       <r>    8.6481    1.0036 </r>
       <r>   12.1448    0.0000 </r>
       <r>   12.9217    0.0000 </r>
       <r>   15.1843    0.0000 </r>
       <r>   16.6794    0.0000 </r>
       <r>   19.4559    0.0000 </r>
       <r>   20.9869    0.0000 </r>
       <r>   21.4419    0.0000 </r>
      </set>
      <set comment="kpoint 19">
       <r>   -2.6031    1.0000 </r>
       <r>    1.7729    1.0000 </r>
       <r>    3.8254    1.0000 </r>
       <r>    4.1031    1.0000 </r>
       <r>   10.3811    0.0000 </r>
       <r>   10.9753    0.0000 </r>
       <r>   12.7016    0.0000 </r>
       <r>   14.8918    0.0000 </r>
       <r>   17.6964    0.0000 </r>
       <r>   19.9512    0.0000 </r>
       <r>   21.4026    0.0000 </r>
       <r>   21.9551    0.0000 </r>
      </set>
      <set comment="kpoint 20">
       <r>   -2.8128    1.0000 </r>
       <r>    1.6403    1.0000 </r>
       <r>    3.8455    1.0000 </r>
       <r>    4.0017    1.0000 </r>
       <r>    9.8199    0.0000 </r>
       <r>   11.8762    0.0000 </r>
       <r>   12.2379    0.0000 </r>
       <r>   14.0401    0.0000 </r>
       <r>   17.7534    0.0000 </r>
       <r>   19.3768    0.0000 </r>
       <r>   21.4075    0.0000 </r>
       <r>   22.5384    0.0000 </r>
      </set>
      <set comment="kpoint 21">
       <r>   -3.5629    1.0000 </r>
       <r>    2.2943    1.0000 </r>
       <r>    3.9866    1.0000 </r>
       <r>    4.4194    1.0000 </r>
       <r>    9.1256    0.0000 </r>
       <r>   10.7480    0.0000 </r>
       <r>   11.5762    0.0000 </r>
       <r>   14.8308    0.0000 </r>
       <r>   17.0199    0.0000 </r>
       <r>   18.3679    0.0000 </r>
       <r>   21.4098    0.0000 </r>
       <r>   22.6511    0.0000 </r>
      </set>
      <set comment="kpoint 22">
       <r>   -3.8132    1.0000 </r>
       <r>    3.5068    1.0000 </r>
       <r>    4.3461    1.0000 </r>
       <r>    6.7096    1.0000 </r>
       <r>    7.0327    1.0000 </r>
       <r>   11.7576    0.0000 </r>
       <r>   13.2247    0.0000 </r>
       <r>   13.2374    0.0000 </r>
       <r>   16.9399    0.0000 </r>
       <r>   17.7282    0.0000 </r>
       <r>   21.4166    0.0000 </r>
       <r>   21.4760    0.0000 </r>
      </set>
      <set comment="kpoint 23">
       <r>   -3.6696    1.0000 </r>
       <r>    3.9111    1.0000 </r>
       <r>    4.0881    1.0000 </r>
       <r>    5.8084    1.0000 </r>
       <r>    7.7177    1.0000 </r>
       <r>   12.7763    0.0000 </r>
       <r>   12.9903    0.0000 </r>
       <r>   13.1932    0.0000 </r>
       <r>   16.2383    0.0000 </r>
       <r>   18.2707    0.0000 </r>
       <r>   21.2399    0.0000 </r>
       <r>   21.4275    0.0000 </r>
      </set>
      <set comment="kpoint 24">
       <r>   -3.1279    1.0000 </r>
       <r>    2.8862    1.0000 </r>
       <r>    3.9297    1.0000 </r>
       <r>    4.8226    1.0000 </r>
       <r>    8.5834    1.0000 </r>
       <r>   12.0522    0.0000 </r>
       <r>   13.0582    0.0000 </r>
       <r>   15.1473    0.0000 </r>
       <r>   15.8123    0.0000 </r>
       <r>   19.9701    0.0000 </r>
       <r>   21.3112    0.0000 </r>
       <r>   21.4427    0.0000 </r>
      </set>
      <set comment="kpoint 25">
       <r>   -2.4152    1.0000 </r>
       <r>    1.3652    1.0000 </r>
       <r>    3.7573    1.0000 </r>
       <r>    3.9772    1.0000 </r>
       <r>   10.4101    0.0000 </r>
       <r>   11.1852    0.0000 </r>
       <r>   12.5153    0.0000 </r>
       <r>   16.1624    0.0000 </r>
       <r>   17.5185    0.0000 </r>
       <r>   18.8098    0.0000 </r>
       <r>   21.3996    0.0000 </r>
       <r>   22.0458    0.0000 </r>
      </set>
      <set comment="kpoint 26">
       <r>   -2.1478    1.0000 </r>
       <r>    0.7089    1.0000 </r>
       <r>    3.4758    1.0000 </r>
       <r>    3.6587    1.0000 </r>
       <r>   10.6260    0.0000 </r>
       <r>   11.7010    0.0000 </r>
       <r>   12.4623    0.0000 </r>
       <r>   15.8284    0.0000 </r>
       <r>   17.5088    0.0000 </r>
       <r>   19.1940    0.0000 </r>
       <r>   21.4070    0.0000 </r>
       <r>   22.1735    0.0000 </r>
      </set>
      <set comment="kpoint 27">
       <r>   -3.8811    1.0000 </r>
       <r>    4.1241    1.0000 </r>
       <r>    4.1938    1.0000 </r>
       <r>    6.8801    1.0000 </r>
       <r>    7.1569    1.0000 </r>
       <r>   11.9758    0.0000 </r>
       <r>   13.1321    0.0000 </r>
       <r>   13.1859    0.0000 </r>
       <r>   16.3190    0.0000 </r>
       <r>   17.5350    0.0000 </r>
       <r>   21.2356    0.0000 </r>
       <r>   21.4262    0.0000 </r>
      </set>
      <set comment="kpoint 28">
       <r>   -3.5911    1.0000 </r>
       <r>    3.3152    1.0000 </r>
       <r>    4.1353    1.0000 </r>
       <r>    5.7501    1.0000 </r>
       <r>    7.6359    1.0000 </r>
       <r>   12.5012    0.0000 </r>
       <r>   13.0898    0.0000 </r>
       <r>   13.2938    0.0000 </r>
       <r>   17.0216    0.0000 </r>
       <r>   18.2561    0.0000 </r>
       <r>   21.2452    0.0000 </r>
       <r>   21.4316    0.0000 </r>
      </set>
      <set comment="kpoint 29">
       <r>   -2.9179    1.0000 </r>
       <r>    1.8833    1.0000 </r>
       <r>    3.8395    1.0000 </r>
       <r>    4.5415    1.0000 </r>
       <r>    8.7245    0.9596 </r>
       <r>   12.1940    0.0000 </r>
       <r>   12.7923    0.0000 </r>
       <r>   15.1261    0.0000 </r>
       <r>   16.9473    0.0000 </r>
       <r>   19.7338    0.0000 </r>
       <r>   20.7958    0.0000 </r>
       <r>   21.4466    0.0000 </r>
      </set>
      <set comment="kpoint 30">
       <r>   -3.7997    1.0000 </r>
       <r>    2.8214    1.0000 </r>
       <r>    4.6480    1.0000 </r>
       <r>    6.4690    1.0000 </r>
       <r>    6.8490    1.0000 </r>
       <r>   11.3882    0.0000 </r>
       <r>   13.1057    0.0000 </r>
       <r>   13.1931    0.0000 </r>
       <r>   16.2169    0.0000 </r>
       <r>   19.8501    0.0000 </r>
       <r>   21.4182    0.0000 </r>
       <r>   21.5450    0.0000 </r>
      </set>
      <set comment="kpoint 31">
       <r>   -3.7762    1.0000 </r>
       <r>    2.4616    1.0000 </r>
       <r>    4.5835    1.0000 </r>
       <r>    5.4175    1.0000 </r>
       <r>    7.5519    1.0000 </r>
       <r>   11.4447    0.0000 </r>
       <r>   12.4622    0.0000 </r>
       <r>   13.1856    0.0000 </r>
       <r>   16.1141    0.0000 </r>
       <r>   20.2752    0.0000 </r>
       <r>   21.4007    0.0000 </r>
       <r>   22.2022    0.0000 </r>
      </set>
      <set comment="kpoint 32">
       <r>   -4.5473    1.0000 </r>
       <r>    3.1757    1.0000 </r>
       <r>    5.4993    1.0000 </r>
       <r>    6.2256    1.0000 </r>
       <r>    6.8421    1.0000 </r>
       <r>   10.3937    0.0000 </r>
       <r>   11.6381    0.0000 </r>
       <r>   12.0234    0.0000 </r>
       <r>   14.6230    0.0000 </r>
       <r>   19.4452    0.0000 </r>
       <r>   21.4180    0.0000 </r>
       <r>   22.9408    0.0000 </r>
      </set>
      <set comment="kpoint 33">
       <r>   -5.1260    1.0000 </r>
       <r>    4.7403    1.0000 </r>
       <r>    5.4974    1.0000 </r>
       <r>    5.4974    1.0000 </r>
       <r>    8.7077    1.0284 </r>
       <r>    8.7077    1.0284 </r>
       <r>    9.6057    0.0000 </r>
       <r>   13.3637    0.0000 </r>
       <r>   13.3637    0.0000 </r>
       <r>   17.3141    0.0000 </r>
       <r>   21.1957    0.0000 </r>
       <r>   21.4203    0.0000 </r>
      </set>
      <set comment="kpoint 34">
       <r>   -4.4045    1.0000 </r>
       <r>    3.5383    1.0000 </r>
       <r>    4.5181    1.0000 </r>
       <r>    4.8934    1.0000 </r>
       <r>    8.6678    1.0132 </r>
       <r>   10.2615    0.0000 </r>
       <r>   10.7803    0.0000 </r>
       <r>   12.7359    0.0000 </r>
       <r>   16.1633    0.0000 </r>
       <r>   18.0996    0.0000 </r>
       <r>   21.4162    0.0000 </r>
       <r>   22.4053    0.0000 </r>
      </set>
      <set comment="kpoint 35">
       <r>   -3.2408    1.0000 </r>
       <r>    2.0314    1.0000 </r>
       <r>    3.8513    1.0000 </r>
       <r>    4.1769    1.0000 </r>
       <r>    9.5829    0.0000 </r>
       <r>   11.2902    0.0000 </r>
       <r>   12.0871    0.0000 </r>
       <r>   13.6932    0.0000 </r>
       <r>   17.8185    0.0000 </r>
       <r>   18.6134    0.0000 </r>
       <r>   21.4111    0.0000 </r>
       <r>   22.7573    0.0000 </r>
      </set>
      <set comment="kpoint 36">
       <r>   -2.2912    1.0000 </r>
       <r>    1.0412    1.0000 </r>
       <r>    3.7072    1.0000 </r>
       <r>    3.7695    1.0000 </r>
       <r>   11.0301    0.0000 </r>
       <r>   11.1780    0.0000 </r>
       <r>   12.0336    0.0000 </r>
       <r>   15.9162    0.0000 </r>
       <r>   17.6814    0.0000 </r>
       <r>   18.8644    0.0000 </r>
       <r>   21.4084    0.0000 </r>
       <r>   22.2829    0.0000 </r>
      </set>
      <set comment="kpoint 37">
       <r>   -2.5237    1.0000 </r>
       <r>    1.3246    1.0000 </r>
       <r>    3.6768    1.0000 </r>
       <r>    4.1451    1.0000 </r>
       <r>    9.3995    0.0000 </r>
       <r>   12.0955    0.0000 </r>
       <r>   12.7310    0.0000 </r>
       <r>   16.5279    0.0000 </r>
       <r>   16.5764    0.0000 </r>
       <r>   19.1872    0.0000 </r>
       <r>   21.1612    0.0000 </r>
       <r>   21.4765    0.0000 </r>
      </set>
      <set comment="kpoint 38">
       <r>   -3.5270    1.0000 </r>
       <r>    2.2204    1.0000 </r>
       <r>    4.1994    1.0000 </r>
       <r>    5.1047    1.0000 </r>
       <r>    7.9060    1.0000 </r>
       <r>   11.5891    0.0000 </r>
       <r>   12.3804    0.0000 </r>
       <r>   14.1673    0.0000 </r>
       <r>   16.4152    0.0000 </r>
       <r>   19.7834    0.0000 </r>
       <r>   21.3893    0.0000 </r>
       <r>   21.9313    0.0000 </r>
      </set>
      <set comment="kpoint 39">
       <r>   -4.0299    1.0000 </r>
       <r>    2.7627    1.0000 </r>
       <r>    4.4209    1.0000 </r>
       <r>    5.0742    1.0000 </r>
       <r>    8.1653    1.0000 </r>
       <r>   10.6868    0.0000 </r>
       <r>   11.3485    0.0000 </r>
       <r>   13.9392    0.0000 </r>
       <r>   15.9677    0.0000 </r>
       <r>   18.9299    0.0000 </r>
       <r>   21.4123    0.0000 </r>
       <r>   22.6497    0.0000 </r>
      </set>
      <set comment="kpoint 40">
       <r>   -3.3222    1.0000 </r>
       <r>    2.1104    1.0000 </r>
       <r>    4.1561    1.0000 </r>
       <r>    4.4645    1.0000 </r>
       <r>    8.6734    1.0176 </r>
       <r>   11.8705    0.0000 </r>
       <r>   12.3829    0.0000 </r>
       <r>   13.6267    0.0000 </r>
       <r>   17.0541    0.0000 </r>
       <r>   19.6559    0.0000 </r>
       <r>   21.3985    0.0000 </r>
       <r>   22.1527    0.0000 </r>
      </set>
      <set comment="kpoint 41">
       <r>   -2.7384    1.0000 </r>
       <r>    1.8501    1.0000 </r>
       <r>    3.8618    1.0000 </r>
       <r>    4.1079    1.0000 </r>
       <r>    9.8452    0.0000 </r>
       <r>   11.5683    0.0000 </r>
       <r>   12.7397    0.0000 </r>
       <r>   14.3450    0.0000 </r>
       <r>   17.6899    0.0000 </r>
       <r>   19.8546    0.0000 </r>
       <r>   21.3908    0.0000 </r>
       <r>   21.9342    0.0000 </r>
      </set>
      <set comment="kpoint 42">
       <r>   -2.7050    1.0000 </r>
       <r>    1.9848    1.0000 </r>
       <r>    3.8073    1.0000 </r>
       <r>    4.2353    1.0000 </r>
       <r>    9.8966    0.0000 </r>
       <r>   11.1602    0.0000 </r>
       <r>   12.8832    0.0000 </r>
       <r>   15.9149    0.0000 </r>
       <r>   16.4194    0.0000 </r>
       <r>   19.8405    0.0000 </r>
       <r>   21.3867    0.0000 </r>
       <r>   21.8333    0.0000 </r>
      </set>
      <set comment="kpoint 43">
       <r>   -3.1481    1.0000 </r>
       <r>    2.2688    1.0000 </r>
       <r>    4.0250    1.0000 </r>
       <r>    4.6147    1.0000 </r>
       <r>    8.6305    1.0008 </r>
       <r>   12.2782    0.0000 </r>
       <r>   12.8610    0.0000 </r>
       <r>   13.7719    0.0000 </r>
       <r>   17.2250    0.0000 </r>
       <r>   20.1002    0.0000 </r>
       <r>   20.8697    0.0000 </r>
       <r>   21.4468    0.0000 </r>
      </set>
      <set comment="kpoint 44">
       <r>   -3.3240    1.0000 </r>
       <r>    2.3537    1.0000 </r>
       <r>    4.0652    1.0000 </r>
       <r>    5.2630    1.0000 </r>
       <r>    7.7838    1.0000 </r>
       <r>   12.2486    0.0000 </r>
       <r>   12.9426    0.0000 </r>
       <r>   14.1948    0.0000 </r>
       <r>   16.7955    0.0000 </r>
       <r>   19.9992    0.0000 </r>
       <r>   20.4676    0.0000 </r>
       <r>   21.4350    0.0000 </r>
      </set>
      <set comment="kpoint 45">
       <r>   -3.2246    1.0000 </r>
       <r>    2.9332    1.0000 </r>
       <r>    3.9358    1.0000 </r>
       <r>    4.7452    1.0000 </r>
       <r>    8.6733    1.0175 </r>
       <r>   12.2002    0.0000 </r>
       <r>   13.0985    0.0000 </r>
       <r>   13.8498    0.0000 </r>
       <r>   16.8739    0.0000 </r>
       <r>   19.5328    0.0000 </r>
       <r>   21.2356    0.0000 </r>
       <r>   21.4451    0.0000 </r>
      </set>
      <set comment="kpoint 46">
       <r>   -3.0438    1.0000 </r>
       <r>    3.2053    1.0000 </r>
       <r>    3.8479    1.0000 </r>
       <r>    4.1337    1.0000 </r>
       <r>    9.9267    0.0000 </r>
       <r>   11.1412    0.0000 </r>
       <r>   13.1717    0.0000 </r>
       <r>   14.3303    0.0000 </r>
       <r>   15.7455    0.0000 </r>
       <r>   21.3355    0.0000 </r>
       <r>   21.5716    0.0000 </r>
       <r>   22.0592    0.0000 </r>
      </set>
      <set comment="kpoint 47">
       <r>   -2.9000    1.0000 </r>
       <r>    2.5119    1.0000 </r>
       <r>    3.8369    1.0000 </r>
       <r>    4.2639    1.0000 </r>
       <r>    9.8834    0.0000 </r>
       <r>   11.1508    0.0000 </r>
       <r>   13.0775    0.0000 </r>
       <r>   14.5275    0.0000 </r>
       <r>   16.6096    0.0000 </r>
       <r>   20.7415    0.0000 </r>
       <r>   21.3946    0.0000 </r>
       <r>   21.8201    0.0000 </r>
      </set>
      <set comment="kpoint 48">
       <r>   -3.4618    1.0000 </r>
       <r>    3.4363    1.0000 </r>
       <r>    4.0379    1.0000 </r>
       <r>    5.6187    1.0000 </r>
       <r>    7.6673    1.0000 </r>
       <r>   12.6087    0.0000 </r>
       <r>   13.1162    0.0000 </r>
       <r>   14.1093    0.0000 </r>
       <r>   16.0502    0.0000 </r>
       <r>   18.8202    0.0000 </r>
       <r>   21.1780    0.0000 </r>
       <r>   21.4284    0.0000 </r>
      </set>
      <set comment="kpoint 49">
       <r>   -3.3280    1.0000 </r>
       <r>    3.5895    1.0000 </r>
       <r>    3.9481    1.0000 </r>
       <r>    4.6601    1.0000 </r>
       <r>    8.7268    0.9425 </r>
       <r>   12.1643    0.0000 </r>
       <r>   13.1693    0.0000 </r>
       <r>   13.8325    0.0000 </r>
       <r>   15.9988    0.0000 </r>
       <r>   19.7978    0.0000 </r>
       <r>   21.4207    0.0000 </r>
       <r>   21.4893    0.0000 </r>
      </set>
      <set comment="kpoint 50">
       <r>   -3.3727    1.0000 </r>
       <r>    2.9490    1.0000 </r>
       <r>    3.9995    1.0000 </r>
       <r>    5.4704    1.0000 </r>
       <r>    7.7331    1.0000 </r>
       <r>   12.5683    0.0000 </r>
       <r>   13.0423    0.0000 </r>
       <r>   14.1218    0.0000 </r>
       <r>   16.8902    0.0000 </r>
       <r>   18.6934    0.0000 </r>
       <r>   20.9597    0.0000 </r>
       <r>   21.4308    0.0000 </r>
      </set>
      <set comment="kpoint 51">
       <r>   -3.6842    1.0000 </r>
       <r>    2.4829    1.0000 </r>
       <r>    4.1104    1.0000 </r>
       <r>    4.1104    1.0000 </r>
       <r>   10.1281    0.0000 </r>
       <r>   10.1281    0.0000 </r>
       <r>   10.5281    0.0000 </r>
       <r>   16.3862    0.0000 </r>
       <r>   16.3862    0.0000 </r>
       <r>   17.5617    0.0000 </r>
       <r>   21.4097    0.0000 </r>
       <r>   22.5342    0.0000 </r>
      </set>
      <set comment="kpoint 52">
       <r>   -2.9995    1.0000 </r>
       <r>    1.6721    1.0000 </r>
       <r>    3.7011    1.0000 </r>
       <r>    4.0402    1.0000 </r>
       <r>   10.0619    0.0000 </r>
       <r>   10.7587    0.0000 </r>
       <r>   12.1328    0.0000 </r>
       <r>   15.2903    0.0000 </r>
       <r>   17.2511    0.0000 </r>
       <r>   18.6574    0.0000 </r>
       <r>   21.4103    0.0000 </r>
       <r>   22.8989    0.0000 </r>
      </set>
      <set comment="kpoint 53">
       <r>   -2.5168    1.0000 </r>
       <r>    1.4276    1.0000 </r>
       <r>    3.8444    1.0000 </r>
       <r>    3.8553    1.0000 </r>
       <r>   10.6600    0.0000 </r>
       <r>   11.3014    0.0000 </r>
       <r>   12.2293    0.0000 </r>
       <r>   14.4835    0.0000 </r>
       <r>   18.6744    0.0000 </r>
       <r>   18.9123    0.0000 </r>
       <r>   21.4087    0.0000 </r>
       <r>   22.0824    0.0000 </r>
      </set>
      <set comment="kpoint 54">
       <r>   -2.8147    1.0000 </r>
       <r>    2.2016    1.0000 </r>
       <r>    3.8616    1.0000 </r>
       <r>    4.4706    1.0000 </r>
       <r>    9.2214    0.0000 </r>
       <r>   11.7384    0.0000 </r>
       <r>   12.8302    0.0000 </r>
       <r>   15.3611    0.0000 </r>
       <r>   16.7694    0.0000 </r>
       <r>   20.1482    0.0000 </r>
       <r>   21.3586    0.0000 </r>
       <r>   21.4998    0.0000 </r>
      </set>
      <set comment="kpoint 55">
       <r>   -2.6416    1.0000 </r>
       <r>    1.2558    1.0000 </r>
       <r>    3.6109    1.0000 </r>
[...]
        <r>  0.0075  0.0096  0.0096  0.2078  0.1583  0.0091  0.0014  0.1583  0.0043 </r>
       </set>
      </set>
      <set comment="kpoint 54">
       <set comment="band 1">
        <r>  0.4384  0.0015  0.0015  0.0001  0.0000  0.0000  0.0000  0.0000  0.0000 </r>
        <r>  0.0044  0.0516  0.0516  0.0026  0.0000  0.0005  0.0862  0.0000  0.2586 </r>
       </set>
       <set comment="band 2">
        <r>  0.0063  0.0926  0.0926  0.0073  0.0000  0.0000  0.0000  0.0000  0.0000 </r>
        <r>  0.1987  0.0582  0.0582  0.0102  0.0101  0.2871  0.0092  0.0101  0.0277 </r>
       </set>
       <set comment="band 3">
        <r>  0.0011  0.0039  0.0039  0.2210  0.0000  0.0000  0.0000  0.0000  0.0000 </r>
        <r>  0.0000  0.0044  0.0044  0.3562  0.1162  0.0185  0.0053  0.1162  0.0158 </r>
       </set>
       <set comment="band 4">
        <r>  0.0000  0.1549  0.1549  0.0000  0.0000  0.0000  0.0000  0.0000  0.0000 </r>
        <r>  0.0000  0.0380  0.0380  0.0000  0.0027  0.0000  0.3748  0.0027  0.1249 </r>
       </set>
       <set comment="band 5">
        <r>  0.0111  0.0667  0.0667  0.0011  0.0000  0.0000  0.0000  0.0000  0.0000 </r>
        <r>  0.1028  0.0007  0.0007  0.0015  0.0002  0.5397  0.0064  0.0002  0.0193 </r>
       </set>
       <set comment="band 6">
        <r>  0.0000  0.0008  0.0008  0.0000  0.0000  0.0000  0.0000  0.0000  0.0000 </r>
        <r>  0.0000  0.0001  0.0001  0.0000  0.4690  0.0000  0.0028  0.4690  0.0009 </r>
       </set>
       <set comment="band 7">
        <r>  0.0036  0.0007  0.0007  0.1986  0.0000  0.0000  0.0000  0.0000  0.0000 </r>
        <r>  0.0202  0.0001  0.0001  0.0291  0.3043  0.0001  0.0057  0.3043  0.0171 </r>
       </set>
       <set comment="band 8">
        <r>  0.1000  0.0000  0.0000  0.0206  0.0000  0.0000  0.0000  0.0000  0.0000 </r>
        <r>  0.1715  0.0068  0.0068  0.0195  0.0086  0.0003  0.1485  0.0086  0.4455 </r>
       </set>
       <set comment="band 9">
        <r>  0.0000  0.0945  0.0945  0.0000  0.0000  0.0000  0.0000  0.0000  0.0000 </r>
        <r>  0.0000  0.0661  0.0661  0.0000  0.0001  0.0000  0.4537  0.0001  0.1512 </r>
       </set>
       <set comment="band 10">
        <r>  0.0742  0.0224  0.0224  0.0323  0.0000  0.0000  0.0000  0.0000  0.0000 </r>
        <r>  0.1324  0.1413  0.1413  0.0222  0.0205  0.0888  0.0037  0.0205  0.0112 </r>
       </set>
       <set comment="band 11">
        <r>  0.0040  0.0270  0.0270  0.0462  0.0000  0.0000  0.0000  0.0000  0.0000 </r>
        <r> 22.2765  0.0004  0.0004  0.0663  0.0331  0.0008  0.0076  0.0331  0.0229 </r>
       </set>
       <set comment="band 12">
        <r>  0.0092  0.0288  0.0288  0.0544  0.0000  0.0000  0.0000  0.0000  0.0000 </r>
        <r> 21.6295  0.0067  0.0067  0.0812  0.0393  0.0009  0.0075  0.0393  0.0225 </r>
       </set>
      </set>
      <set comment="kpoint 55">
       <set comment="band 1">
        <r>  0.4019  0.0060  0.0019  0.0060  0.0000  0.0000  0.0000  0.0000  0.0000 </r>
        <r>  0.1327  0.0478  0.0972  0.0478  0.0057  0.0055  0.0808  0.0055  0.0000 </r>
       </set>
       <set comment="band 2">
        <r>  0.0514  0.0363  0.1048  0.0363  0.0000  0.0000  0.0000  0.0000  0.0000 </r>
        <r>  0.2102  0.0286  0.0026  0.0286  0.0868  0.1028  0.0702  0.1028  0.0000 </r>
       </set>
       <set comment="band 3">
        <r>  0.0086  0.0581  0.1333  0.0581  0.0000  0.0000  0.0000  0.0000  0.0000 </r>
        <r>  0.0002  0.0258  0.0454  0.0258  0.1624  0.0009  0.3924  0.0009  0.0000 </r>
       </set>
       <set comment="band 4">
        <r>  0.0000  0.1368  0.0000  0.1368  0.0000  0.0000  0.0000  0.0000  0.0000 </r>
        <r>  0.0000  0.0159  0.0000  0.0159  0.0000  0.0636  0.0000  0.0636  0.4792 </r>
       </set>
       <set comment="band 5">
        <r>  0.0205  0.0389  0.0047  0.0389  0.0000  0.0000  0.0000  0.0000  0.0000 </r>
        <r>  0.0305  0.0005  0.0017  0.0005  0.5936  0.0203  0.0675  0.0203  0.0000 </r>
       </set>
       <set comment="band 6">
        <r>  0.0000  0.0126  0.0000  0.0126  0.0000  0.0000  0.0000  0.0000  0.0000 </r>
        <r>  0.0000  0.0018  0.0000  0.0018  0.0000  0.4109  0.0000  0.4109  0.1233 </r>
       </set>
       <set comment="band 7">
        <r>  0.0105  0.0327  0.0446  0.0327  0.0000  0.0000  0.0000  0.0000  0.0000 </r>
        <r>  0.0862  0.0007  0.0049  0.0007  0.0002  0.3480  0.0041  0.3480  0.0000 </r>
       </set>
       <set comment="band 8">
        <r>  0.1093  0.0262  0.0082  0.0262  0.0000  0.0000  0.0000  0.0000  0.0000 </r>
        <r>  0.0000  0.0780  0.1160  0.0780  0.0620  0.0047  0.0825  0.0047  0.0000 </r>
       </set>
       <set comment="band 9">
        <r>  0.0000  0.1291  0.0000  0.1291  0.0000  0.0000  0.0000  0.0000  0.0000 </r>
        <r>  0.0000  0.0635  0.0000  0.0635  0.0000  0.0159  0.0000  0.0159  0.4560 </r>
       </set>
       <set comment="band 10">
        <r>  0.0056  0.0472  0.2263  0.0472  0.0000  0.0000  0.0000  0.0000  0.0000 </r>
        <r>  0.0064  0.0030  0.0291  0.0030  0.0048  0.0021  0.4791  0.0021  0.0000 </r>
       </set>
       <set comment="band 11">
        <r>  0.0004  0.0020  0.0040  0.0020  0.0000  0.0000  0.0000  0.0000  0.0000 </r>
        <r> 41.5572  0.0005  0.0040  0.0005  0.0000  0.0001  0.0016  0.0001  0.0000 </r>
       </set>
       <set comment="band 12">
        <r>  0.0120  0.0589  0.0902  0.0589  0.0000  0.0000  0.0000  0.0000  0.0000 </r>
        <r>  2.7472  0.0267  0.1628  0.0267  0.0009  0.0057  0.0431  0.0057  0.0000 </r>
       </set>
      </set>
      <set comment="kpoint 56">
       <set comment="band 1">
        <r>  0.4424  0.0015  0.0001  0.0021  0.0000  0.0000  0.0000  0.0000  0.0000 </r>
        <r>  0.0286  0.0844  0.0634  0.0193  0.0011  0.0008  0.1847  0.0004  0.0386 </r>
       </set>
       <set comment="band 2">
        <r>  0.0069  0.0808  0.0884  0.0249  0.0000  0.0000  0.0000  0.0000  0.0000 </r>
        <r>  0.2550  0.0026  0.0433  0.0296  0.0810  0.1520  0.0143  0.0456  0.0427 </r>
       </set>
       <set comment="band 3">
        <r>  0.0074  0.0278  0.1265  0.0831  0.0000  0.0000  0.0000  0.0000  0.0000 </r>
        <r>  0.0000  0.0089  0.0940  0.0936  0.1733  0.0351  0.2416  0.0025  0.0005 </r>
       </set>
       <set comment="band 4">
        <r>  0.0000  0.1520  0.0225  0.1021  0.0000  0.0000  0.0000  0.0000  0.0000 </r>
        <r>  0.0010  0.0003  0.0084  0.0750  0.0276  0.0128  0.0664  0.0656  0.3676 </r>
       </set>
       <set comment="band 5">
        <r>  0.0142  0.0116  0.0063  0.0963  0.0000  0.0000  0.0000  0.0000  0.0000 </r>
        <r>  0.0261  0.0003  0.0031  0.0069  0.5569  0.0038  0.0448  0.0599  0.0111 </r>
       </set>
       <set comment="band 6">
        <r>  0.0072  0.0268  0.0470  0.0022  0.0000  0.0000  0.0000  0.0000  0.0000 </r>
        <r>  0.0343  0.0008  0.0000  0.0001  0.0035  0.6437  0.0215  0.0786  0.0442 </r>
       </set>
       <set comment="band 7">
        <r>  0.0030  0.0078  0.0275  0.0589  0.0000  0.0000  0.0000  0.0000  0.0000 </r>
        <r>  0.0726  0.0009  0.0000  0.0001  0.0015  0.0419  0.0015  0.6795  0.0415 </r>
       </set>
       <set comment="band 8">
        <r>  0.0598  0.0201  0.0002  0.1208  0.0000  0.0000  0.0000  0.0000  0.0000 </r>
        <r>  0.0507  0.0123  0.0003  0.0935  0.0150  0.0071  0.0658  0.0260  0.4162 </r>
       </set>
       <set comment="band 9">
        <r>  0.0743  0.0349  0.0187  0.0062  0.0000  0.0000  0.0000  0.0000  0.0000 </r>
        <r>  0.0162  0.0484  0.1764  0.0053  0.0206  0.0589  0.2254  0.0000  0.0694 </r>
       </set>
       <set comment="band 10">
        <r>  0.0007  0.0143  0.1993  0.0092  0.0000  0.0000  0.0000  0.0000  0.0000 </r>
        <r>  0.0108  0.1125  0.0059  0.0286  0.0316  0.0246  0.3254  0.0035  0.0014 </r>
       </set>
       <set comment="band 11">
        <r>  0.0002  0.0174  0.0009  0.0010  0.0000  0.0000  0.0000  0.0000  0.0000 </r>
        <r> 40.0819  0.0008  0.0042  0.0002  0.0000  0.0000  0.0009  0.0001  0.0051 </r>
       </set>
       <set comment="band 12">
        <r>  0.0042  0.2753  0.0147  0.0129  0.0000  0.0000  0.0000  0.0000  0.0000 </r>
        <r>  4.2963  0.0174  0.0884  0.0113  0.0003  0.0003  0.0081  0.0015  0.0742 </r>
       </set>
      </set>
      <set comment="kpoint 57">
       <set comment="band 1">
        <r>  0.4400  0.0003  0.0010  0.0001  0.0000  0.0000  0.0000  0.0000  0.0000 </r>
        <r>  0.0008  0.0799  0.0207  0.0025  0.0000  0.0001  0.2071  0.0000  0.1474 </r>
       </set>
       <set comment="band 2">
        <r>  0.0020  0.1266  0.0731  0.0098  0.0000  0.0000  0.0000  0.0000  0.0000 </r>
        <r>  0.1910  0.0118  0.0931  0.0149  0.0222  0.2288  0.0043  0.0064  0.0836 </r>
       </set>
       <set comment="band 3">
        <r>  0.0011  0.0003  0.0183  0.1970  0.0000  0.0000  0.0000  0.0000  0.0000 </r>
        <r>  0.0000  0.0016  0.0234  0.3150  0.2277  0.0335  0.0126  0.0309  0.0080 </r>
       </set>
       <set comment="band 4">
        <r>  0.0002  0.1564  0.1229  0.0094  0.0000  0.0000  0.0000  0.0000  0.0000 </r>
        <r>  0.0107  0.0019  0.1119  0.0127  0.0021  0.0527  0.2093  0.0081  0.1857 </r>
       </set>
       <set comment="band 5">
        <r>  0.0079  0.0163  0.1413  0.0003  0.0000  0.0000  0.0000  0.0000  0.0000 </r>
        <r>  0.0751  0.0001  0.0171  0.0007  0.0006  0.5268  0.0324  0.0033  0.0014 </r>
       </set>
       <set comment="band 6">
        <r>  0.0018  0.0011  0.0012  0.1300  0.0000  0.0000  0.0000  0.0000  0.0000 </r>
        <r>  0.0062  0.0000  0.0007  0.0320  0.5898  0.0001  0.0056  0.0916  0.0038 </r>
       </set>
       <set comment="band 7">
        <r>  0.0009  0.0005  0.0017  0.0769  0.0000  0.0000  0.0000  0.0000  0.0000 </r>
        <r>  0.0158  0.0000  0.0000  0.0109  0.0135  0.0000  0.0001  0.8170  0.0167 </r>
       </set>
       <set comment="band 8">
        <r>  0.0445  0.0120  0.0176  0.0197  0.0000  0.0000  0.0000  0.0000  0.0000 </r>
        <r>  0.2343  0.0026  0.0274  0.0182  0.0052  0.0010  0.0017  0.0106  0.5487 </r>
       </set>
       <set comment="band 9">
        <r>  0.0946  0.0172  0.0658  0.0005  0.0000  0.0000  0.0000  0.0000  0.0000 </r>
        <r>  0.0154  0.0234  0.0651  0.0010  0.0009  0.0107  0.6295  0.0001  0.0026 </r>
       </set>
       <set comment="band 10">
        <r>  0.0298  0.0635  0.0145  0.0514  0.0000  0.0000  0.0000  0.0000  0.0000 </r>
        <r>  0.7263  0.1381  0.0829  0.0488  0.0633  0.0874  0.0276  0.0079  0.0175 </r>
       </set>
       <set comment="band 11">
        <r>  0.0002  0.0055  0.0039  0.0048  0.0000  0.0000  0.0000  0.0000  0.0000 </r>
        <r> 40.1655  0.0039  0.0027  0.0069  0.0065  0.0052  0.0001  0.0008  0.0047 </r>
       </set>
       <set comment="band 12">
        <r>  0.0047  0.2329  0.0241  0.0374  0.0000  0.0000  0.0000  0.0000  0.0000 </r>
        <r>  3.3835  0.0018  0.0015  0.0733  0.0526  0.0018  0.0044  0.0080  0.1205 </r>
       </set>
      </set>
      <set comment="kpoint 58">
       <set comment="band 1">
        <r>  0.4391  0.0020  0.0005  0.0020  0.0000  0.0000  0.0000  0.0000  0.0000 </r>
        <r>  0.0126  0.0515  0.0241  0.0515  0.0010  0.0001  0.3011  0.0001  0.0000 </r>
       </set>
       <set comment="band 2">
        <r>  0.0064  0.0703  0.0478  0.0703  0.0000  0.0000  0.0000  0.0000  0.0000 </r>
        <r>  0.2300  0.0382  0.0473  0.0382  0.1953  0.0591  0.0020  0.0591  0.0000 </r>
       </set>
       <set comment="band 3">
        <r>  0.0069  0.0256  0.1836  0.0256  0.0000  0.0000  0.0000  0.0000  0.0000 </r>
        <r>  0.0000  0.0247  0.2335  0.0247  0.1082  0.0531  0.1438  0.0531  0.0000 </r>
       </set>
       <set comment="band 4">
        <r>  0.0000  0.1496  0.0000  0.1496  0.0000  0.0000  0.0000  0.0000  0.0000 </r>
        <r>  0.0000  0.0325  0.0000  0.0325  0.0000  0.0210  0.0000  0.0210  0.4908 </r>
       </set>
       <set comment="band 5">
        <r>  0.0164  0.0625  0.0068  0.0625  0.0000  0.0000  0.0000  0.0000  0.0000 </r>
        <r>  0.0699  0.0006  0.0061  0.0006  0.5389  0.0037  0.0467  0.0037  0.0000 </r>
       </set>
       <set comment="band 6">
        <r>  0.0000  0.0056  0.0000  0.0056  0.0000  0.0000  0.0000  0.0000  0.0000 </r>
        <r>  0.0000  0.0002  0.0000  0.0002  0.0000  0.4571  0.0000  0.4571  0.0323 </r>
       </set>
       <set comment="band 7">
        <r>  0.0062  0.0087  0.1189  0.0087  0.0000  0.0000  0.0000  0.0000  0.0000 </r>
        <r>  0.0775  0.0000  0.0028  0.0000  0.0017  0.3179  0.0501  0.3179  0.0000 </r>
       </set>
       <set comment="band 8">
        <r>  0.1096  0.0006  0.0532  0.0006  0.0000  0.0000  0.0000  0.0000  0.0000 </r>
        <r>  0.0588  0.0004  0.1094  0.0004  0.0078  0.0291  0.4883  0.0291  0.0000 </r>
       </set>
       <set comment="band 9">
        <r>  0.0000  0.0979  0.0000  0.0979  0.0000  0.0000  0.0000  0.0000  0.0000 </r>
        <r>  0.0000  0.0696  0.0000  0.0696  0.0000  0.0012  0.0000  0.0012  0.5722 </r>
       </set>
       <set comment="band 10">
        <r>  0.0280  0.0012  0.1165  0.0012  0.0000  0.0000  0.0000  0.0000  0.0000 </r>
        <r>  0.0829  0.1219  0.0169  0.1219  0.0735  0.0200  0.0403  0.0200  0.0000 </r>
       </set>
       <set comment="band 11">
        <r>  0.0168  0.0950  0.0137  0.0950  0.0000  0.0000  0.0000  0.0000  0.0000 </r>
        <r> 10.1245  0.0066  0.0687  0.0066  0.0003  0.0066  0.0849  0.0066  0.0000 </r>
       </set>
       <set comment="band 12">
        <r>  0.0073  0.0355  0.0049  0.0355  0.0000  0.0000  0.0000  0.0000  0.0000 </r>
        <r> 34.2077  0.0048  0.0291  0.0048  0.0000  0.0025  0.0279  0.0025  0.0000 </r>
       </set>
      </set>
      <set comment="kpoint 59">
       <set comment="band 1">
        <r>  0.4118  0.0062  0.0062  0.0062  0.0000  0.0000  0.0000  0.0000  0.0000 </r>
        <r>  0.1085  0.0841  0.0841  0.0841  0.0098  0.0098  0.0000  0.0098  0.0000 </r>
       </set>
       <set comment="band 2">
        <r>  0.0718  0.0528  0.0528  0.0528  0.0000  0.0000  0.0000  0.0000  0.0000 </r>
        <r>  0.2513  0.0197  0.0197  0.0197  0.1048  0.1048  0.0000  0.1048  0.0000 </r>
       </set>
       <set comment="band 3">
        <r>  0.0000  0.1367  0.1284  0.0002  0.0000  0.0000  0.0000  0.0000  0.0000 </r>
        <r>  0.0000  0.0005  0.0004  0.0000  0.0576  0.0001  0.4010  0.0613  0.1512 </r>
       </set>
       <set comment="band 4">
        <r>  0.0000  0.0402  0.0485  0.1767  0.0000  0.0000  0.0000  0.0000  0.0000 </r>
        <r>  0.0000  0.0001  0.0002  0.0006  0.0217  0.0792  0.1512  0.0180  0.4010 </r>
       </set>
       <set comment="band 5">
        <r>  0.0000  0.0158  0.0149  0.0000  0.0000  0.0000  0.0000  0.0000  0.0000 </r>
        <r>  0.0000  0.0015  0.0014  0.0000  0.4115  0.0006  0.0613  0.4362  0.0229 </r>
       </set>
       <set comment="band 6">
        <r>  0.0000  0.0047  0.0056  0.0205  0.0000  0.0000  0.0000  0.0000  0.0000 </r>
        <r>  0.0000  0.0004  0.0005  0.0019  0.1540  0.5649  0.0229  0.1293  0.0613 </r>
       </set>
       <set comment="band 7">
        <r>  0.0275  0.0440  0.0440  0.0440  0.0000  0.0000  0.0000  0.0000  0.0000 </r>
        <r>  0.1161  0.0115  0.0115  0.0115  0.1665  0.1665  0.0000  0.1665  0.0000 </r>
       </set>
       <set comment="band 8">
        <r>  0.0769  0.0192  0.0192  0.0192  0.0000  0.0000  0.0000  0.0000  0.0000 </r>
        <r>  0.0099  0.0973  0.0973  0.0973  0.0399  0.0399  0.0000  0.0399  0.0000 </r>
       </set>
       <set comment="band 9">
        <r>  0.0000  0.1742  0.1641  0.0002  0.0000  0.0000  0.0000  0.0000  0.0000 </r>
        <r>  0.0000  0.0219  0.0206  0.0000  0.0041  0.0000  0.3779  0.0043  0.1419 </r>
       </set>
       <set comment="band 10">
        <r>  0.0000  0.0515  0.0616  0.2255  0.0000  0.0000  0.0000  0.0000  0.0000 </r>
        <r>  0.0000  0.0065  0.0077  0.0284  0.0015  0.0056  0.1419  0.0013  0.3779 </r>
       </set>
       <set comment="band 11">
        <r>  0.0000  0.0005  0.0005  0.0005  0.0000  0.0000  0.0000  0.0000  0.0000 </r>
        <r> 43.4435  0.0000  0.0000  0.0000  0.0000  0.0000  0.0000  0.0000  0.0000 </r>
       </set>
       <set comment="band 12">
        <r>  0.0000  0.0052  0.0049  0.0000  0.0000  0.0000  0.0000  0.0000  0.0000 </r>
        <r>  0.0000  0.2172  0.2046  0.0003  0.0084  0.0000  0.0314  0.0090  0.0118 </r>
       </set>
      </set>
      <set comment="kpoint 60">
       <set comment="band 1">
        <r>  0.4686  0.0000  0.0000  0.0027  0.0000  0.0000  0.0000  0.0000  0.0000 </r>
        <r>  0.0063  0.0960  0.0960  0.0576  0.0006  0.0003  0.0271  0.0006  0.0813 </r>
       </set>
       <set comment="band 2">
        <r>  0.0028  0.0680  0.0680  0.0441  0.0000  0.0000  0.0000  0.0000  0.0000 </r>
        <r>  0.3213  0.0027  0.0027  0.0242  0.0930  0.1364  0.0028  0.0930  0.0085 </r>
       </set>
       <set comment="band 3">
        <r>  0.0000  0.1372  0.1372  0.0000  0.0000  0.0000  0.0000  0.0000  0.0000 </r>
        <r>  0.0000  0.0067  0.0067  0.0000  0.0433  0.0000  0.4176  0.0433  0.1392 </r>
       </set>
       <set comment="band 4">
        <r>  0.0064  0.0351  0.0351  0.1826  0.0000  0.0000  0.0000  0.0000  0.0000 </r>
        <r>  0.0000  0.0128  0.0128  0.0862  0.0446  0.0754  0.0949  0.0446  0.2848 </r>
       </set>
       <set comment="band 5">
        <r>  0.0186  0.0170  0.0170  0.0261  0.0000  0.0000  0.0000  0.0000  0.0000 </r>
        <r>  0.0032  0.0033  0.0033  0.0004  0.0817  0.5247  0.0266  0.0817  0.0797 </r>
       </set>
       <set comment="band 6">
        <r>  0.0000  0.0121  0.0121  0.0000  0.0000  0.0000  0.0000  0.0000  0.0000 </r>
        <r>  0.0000  0.0010  0.0010  0.0000  0.4384  0.0000  0.0422  0.4384  0.0141 </r>
       </set>
       <set comment="band 7">
        <r>  0.0038  0.0432  0.0432  0.0753  0.0000  0.0000  0.0000  0.0000  0.0000 </r>
        <r>  0.1375  0.0001  0.0001  0.0020  0.2103  0.1580  0.0022  0.2103  0.0065 </r>
       </set>
       <set comment="band 8">
        <r>  0.0941  0.0001  0.0001  0.0100  0.0000  0.0000  0.0000  0.0000  0.0000 </r>
        <r>  0.0000  0.0844  0.0844  0.1180  0.0478  0.0675  0.0075  0.0478  0.0225 </r>
       </set>
       <set comment="band 9">
        <r>  0.0043  0.0190  0.0190  0.1940  0.0000  0.0000  0.0000  0.0000  0.0000 </r>
        <r>  0.0193  0.0455  0.0455  0.0353  0.0005  0.0043  0.1175  0.0005  0.3524 </r>
       </set>
       <set comment="band 10">
        <r>  0.0000  0.1443  0.1443  0.0000  0.0000  0.0000  0.0000  0.0000  0.0000 </r>
        <r>  0.0000  0.0304  0.0304  0.0000  0.0003  0.0000  0.4285  0.0003  0.1428 </r>
       </set>
       <set comment="band 11">
        <r>  0.0000  0.0024  0.0024  0.0000  0.0000  0.0000  0.0000  0.0000  0.0000 </r>
        <r> 42.7106  0.0003  0.0003  0.0012  0.0000  0.0000  0.0003  0.0000  0.0010 </r>
       </set>
       <set comment="band 12">
        <r>  0.0030  0.0703  0.0703  0.0122  0.0000  0.0000  0.0000  0.0000  0.0000 </r>
        <r>  0.8624  0.0554  0.0553  0.1944  0.0085  0.0164  0.0173  0.0085  0.0518 </r>
       </set>
      </set>
     </set>
    </set>
   </array>
  </projected>
 </calculation>
 <structure name="finalpos" >
  <crystal>
   <varray name="basis" >
    <v>       0.00000000       2.20750000       2.20750000 </v>
    <v>       2.20750000       0.00000000       2.20750000 </v>
    <v>       2.20750000       2.20750000       0.00000000 </v>
   </varray>
   <i name="volume">     21.51454334 </i>
   <varray name="rec_basis" >
    <v>      -0.22650057       0.22650057       0.22650057 </v>
    <v>       0.22650057      -0.22650057       0.22650057 </v>
    <v>       0.22650057       0.22650057      -0.22650057 </v>
   </varray>
  </crystal>
  <varray name="positions" >
   <v>       0.50000000       0.50000000       0.50000000 </v>
   <v>       0.00000000       0.00000000       0.00000000 </v>
  </varray>
 </structure>
</modeling>
