   1   1   1   0
  0.1748289E+02  0.2831903E-09  0.2831903E-09  0.2831903E-09  0.5000000E-15
  1.000000000000000E-004
  CAR 
 unknown system                          
     27.37948796     -2.81129296  301      5.93070652      1.00000000
     -2.811  0.0000E+00  0.0000E+00  0.0000E+00  0.0000E+00
     -2.711  0.0000E+00  0.0000E+00  0.0000E+00  0.0000E+00
     -2.610  0.0000E+00  0.0000E+00  0.0000E+00  0.0000E+00
     -2.509  0.0000E+00  0.0000E+00  0.0000E+00  0.0000E+00
     -2.409  0.0000E+00  0.0000E+00  0.0000E+00  0.0000E+00
     -2.308  0.0000E+00  0.0000E+00  0.0000E+00  0.0000E+00
     -2.207  0.0000E+00  0.0000E+00  0.0000E+00  0.0000E+00
     -2.107  0.0000E+00  0.0000E+00  0.0000E+00  0.0000E+00
     -2.006  0.0000E+00  0.0000E+00  0.0000E+00  0.0000E+00
     -1.906 -0.1103E-37  0.0000E+00 -0.1110E-38  0.0000E+00
     -1.805 -0.3103E-23 -0.3508E-38 -0.3123E-24 -0.3530E-39
     -1.704 -0.2358E-12 -0.1266E-23 -0.2373E-13 -0.1274E-24
     -1.604 -0.4548E-05 -0.1238E-12 -0.4577E-06 -0.1246E-13
     -1.503 -0.9659E-02 -0.3088E-05 -0.9725E-03 -0.3107E-06
     -1.402  0.2775E+00 -0.9285E-02  0.2696E-01 -0.9347E-03
     -1.302  0.8238E-02  0.2713E+00  0.2779E-01  0.2636E-01
     -1.201 -0.1000E-03  0.1419E-01  0.2778E-01  0.2779E-01
     -1.100 -0.5253E-10 -0.1357E-03  0.2778E-01  0.2778E-01
     -1.000  0.0000E+00 -0.9267E-10  0.2778E-01  0.2778E-01
     -0.899  0.0000E+00  0.0000E+00  0.2778E-01  0.2778E-01
     -0.799 -0.9069E-36  0.0000E+00  0.2778E-01  0.2778E-01
     -0.698 -0.1025E-21 -0.3357E-36  0.2778E-01  0.2778E-01
     -0.597 -0.3102E-11 -0.4735E-22  0.2778E-01  0.2778E-01
     -0.497 -0.2329E-04 -0.1794E-11  0.2778E-01  0.2778E-01
     -0.396 -0.1102E-01 -0.1695E-04  0.2667E-01  0.2778E-01
     -0.295  0.3864E+00 -0.1218E-01  0.6556E-01  0.2655E-01
     -0.195 -0.7333E-02  0.3845E+00  0.6482E-01  0.6525E-01
     -0.094 -0.4073E-04 -0.4267E-02  0.6481E-01  0.6482E-01
      0.007 -0.8243E-11 -0.5493E-04  0.6481E-01  0.6481E-01
      0.107 -0.1721E-33 -0.1401E-10  0.6481E-01  0.6481E-01
      0.208 -0.7582E-20 -0.9324E-34  0.6481E-01  0.6481E-01
      0.308 -0.8864E-10 -0.4729E-20  0.6481E-01  0.6481E-01
      0.409 -0.2496E-03 -0.6374E-10  0.6479E-01  0.6481E-01
      0.510  0.4760E-02 -0.2079E-03  0.6527E-01  0.6479E-01
      0.610  0.1138E+01 -0.3717E-02  0.1798E+00  0.6442E-01
      0.711 -0.3889E-01  0.1146E+01  0.1759E+00  0.1798E+00
      0.812 -0.3197E-04 -0.3818E-01  0.1759E+00  0.1759E+00
      0.912 -0.2437E-11 -0.3936E-04  0.1759E+00  0.1759E+00
      1.013  0.0000E+00 -0.3469E-11  0.1759E+00  0.1759E+00
      1.114  0.0000E+00  0.0000E+00  0.1759E+00  0.1759E+00
      1.214  0.0000E+00  0.0000E+00  0.1759E+00  0.1759E+00
      1.315 -0.2655E-31  0.0000E+00  0.1759E+00  0.1759E+00
      1.415 -0.3597E-18 -0.3778E-31  0.1759E+00  0.1759E+00
      1.516 -0.1275E-08 -0.4706E-18  0.1759E+00  0.1759E+00
      1.617 -0.1040E-02 -0.1531E-08  0.1758E+00  0.1759E+00
      1.717  0.1009E+00 -0.1142E-02  0.1860E+00  0.1758E+00
      1.818  0.1918E+01  0.1148E+00  0.3790E+00  0.1874E+00
      1.919  0.1925E+00  0.1876E+01  0.3984E+00  0.3762E+00
      2.019 -0.6703E-02  0.2206E+00  0.3977E+00  0.3984E+00
      2.120  0.2933E+00 -0.7074E-02  0.4272E+00  0.3977E+00
      2.221  0.3994E+00  0.2942E+00  0.4674E+00  0.4273E+00
      2.321  0.1973E+00  0.4147E+00  0.4872E+00  0.4690E+00
      2.422  0.2713E+00  0.2685E+00  0.5145E+00  0.4960E+00
      2.522  0.1375E+01  0.2249E+00  0.6529E+00  0.5187E+00
      2.623 -0.4740E-01  0.1331E+01  0.6482E+00  0.6526E+00
      2.724 -0.2357E-04 -0.4460E-01  0.6481E+00  0.6481E+00
      2.824 -0.3516E-04 -0.1454E-04  0.6481E+00  0.6481E+00
      2.925 -0.4103E-01 -0.5350E-04  0.6440E+00  0.6481E+00
      3.026  0.1398E+01 -0.4296E-01  0.7847E+00  0.6438E+00
      3.126  0.8937E+00  0.1653E+01  0.8746E+00  0.8102E+00
      3.227  0.7193E+00  0.7732E+00  0.9470E+00  0.8880E+00
      3.327 -0.4801E-01  0.5754E+00  0.9422E+00  0.9459E+00
      3.428  0.1159E+01 -0.4583E-01  0.1059E+01  0.9413E+00
      3.529 -0.3295E-01  0.1161E+01  0.1056E+01  0.1058E+01
      3.629 -0.7038E-04 -0.2526E-01  0.1056E+01  0.1056E+01
      3.730 -0.6657E-05 -0.1071E-03  0.1056E+01  0.1056E+01
      3.831 -0.3345E-01 -0.6622E-04  0.1052E+01  0.1056E+01
      3.931  0.1036E+01 -0.3377E-01  0.1156E+01  0.1052E+01
      4.032  0.1021E+00  0.1159E+01  0.1167E+01  0.1169E+01
      4.133 -0.8667E-03 -0.2060E-01  0.1167E+01  0.1167E+01
      4.233 -0.1932E-01 -0.1333E-03  0.1165E+01  0.1167E+01
      4.334  0.5552E+00 -0.1780E-01  0.1221E+01  0.1165E+01
      4.434  0.1462E-01  0.5319E+00  0.1222E+01  0.1218E+01
      4.535  0.1664E+00  0.3570E-01  0.1239E+01  0.1222E+01
      4.636  0.2090E+01  0.2710E+00  0.1449E+01  0.1249E+01
      4.736  0.1196E+01  0.1975E+01  0.1569E+01  0.1448E+01
      4.837  0.1173E+01  0.1201E+01  0.1688E+01  0.1569E+01
      4.938  0.1267E+01  0.1113E+01  0.1815E+01  0.1681E+01
      5.038  0.1876E+00  0.1438E+01  0.1834E+01  0.1826E+01
      5.139 -0.1161E-01  0.7803E-01  0.1833E+01  0.1833E+01
      5.240  0.4149E+00 -0.7813E-02  0.1875E+01  0.1833E+01
      5.340  0.2450E+01  0.5088E+00  0.2121E+01  0.1884E+01
      5.441  0.4604E+00  0.2416E+01  0.2167E+01  0.2127E+01
      5.541 -0.7485E-02  0.3995E+00  0.2167E+01  0.2167E+01
      5.642  0.2014E-01 -0.5870E-02  0.2169E+01  0.2167E+01
      5.743  0.1494E+01 -0.6832E-02  0.2319E+01  0.2166E+01
      5.843  0.1391E+01  0.1485E+01  0.2459E+01  0.2315E+01
      5.944  0.1162E+01  0.1537E+01  0.2576E+01  0.2470E+01
      6.045 -0.1886E-01  0.1048E+01  0.2574E+01  0.2576E+01
      6.145 -0.3955E-06 -0.1509E-01  0.2574E+01  0.2574E+01
      6.246 -0.7156E-02 -0.5880E-06  0.2573E+01  0.2574E+01
      6.347  0.5120E+00 -0.1458E-01  0.2625E+01  0.2573E+01
      6.447  0.6092E+00  0.7318E+00  0.2686E+01  0.2646E+01
      6.548 -0.1046E-01  0.3914E+00  0.2685E+01  0.2686E+01
      6.648  0.6058E-01 -0.4853E-02  0.2691E+01  0.2685E+01
      6.749  0.5150E+00  0.3890E-01  0.2743E+01  0.2689E+01
      6.850  0.3574E+00  0.5317E+00  0.2779E+01  0.2743E+01
      6.950  0.6511E-01  0.3618E+00  0.2786E+01  0.2779E+01
      7.051  0.5727E+00  0.8774E-01  0.2843E+01  0.2788E+01
      7.152  0.1469E+00  0.5334E+00  0.2858E+01  0.2841E+01
      7.252  0.1054E+01  0.1668E+00  0.2964E+01  0.2858E+01
      7.353  0.6530E+00  0.1023E+01  0.3030E+01  0.2961E+01
      7.454 -0.2000E-01  0.6806E+00  0.3028E+01  0.3030E+01
      7.554 -0.1783E-04 -0.1941E-01  0.3028E+01  0.3028E+01
      7.655 -0.1502E-11 -0.2371E-04  0.3028E+01  0.3028E+01
      7.755 -0.2437E-05 -0.2473E-11  0.3028E+01  0.3028E+01
      7.856 -0.2610E-01 -0.4266E-05  0.3025E+01  0.3028E+01
      7.957  0.9384E+00 -0.3027E-01  0.3120E+01  0.3025E+01
      8.057  0.1935E+00  0.9955E+00  0.3139E+01  0.3125E+01
      8.158 -0.1680E-02  0.1400E+00  0.3139E+01  0.3139E+01
      8.259 -0.3292E-08 -0.1167E-02  0.3139E+01  0.3139E+01
      8.359 -0.3390E-05 -0.1606E-08  0.3139E+01  0.3139E+01
      8.460 -0.2857E-01 -0.4227E-04  0.3136E+01  0.3139E+01
      8.561  0.9601E+00 -0.3781E-01  0.3233E+01  0.3135E+01
      8.661  0.8483E+00  0.1125E+01  0.3318E+01  0.3248E+01
      8.762  0.4337E+00  0.8913E+00  0.3362E+01  0.3338E+01
      8.862 -0.1074E-01  0.2317E+00  0.3361E+01  0.3361E+01
      8.963  0.2551E+00 -0.7482E-02  0.3386E+01  0.3361E+01
      9.064  0.1161E+00  0.2542E+00  0.3398E+01  0.3386E+01
      9.164  0.2706E+00  0.2134E+00  0.3425E+01  0.3408E+01
      9.265  0.7335E+00  0.1551E+00  0.3499E+01  0.3423E+01
      9.366  0.1722E+01  0.9615E+00  0.3672E+01  0.3520E+01
      9.466  0.1055E+01  0.1520E+01  0.3778E+01  0.3673E+01
      9.567  0.8624E-01  0.1160E+01  0.3787E+01  0.3790E+01
      9.668 -0.7434E-03 -0.2668E-01  0.3787E+01  0.3787E+01
      9.768 -0.6652E-02 -0.1150E-03  0.3786E+01  0.3787E+01
      9.869  0.4066E+00 -0.2589E-01  0.3827E+01  0.3784E+01
      9.969  0.3354E+00  0.7434E+00  0.3861E+01  0.3859E+01
     10.070  0.4377E+00 -0.7364E-02  0.3905E+01  0.3858E+01
     10.171  0.6791E+00  0.9396E+00  0.3973E+01  0.3953E+01
     10.271  0.4792E-01  0.1877E+00  0.3978E+01  0.3972E+01
     10.372  0.5080E+00  0.2859E+00  0.4029E+01  0.4001E+01
     10.473  0.8644E-03  0.2693E+00  0.4029E+01  0.4028E+01
     10.573  0.3169E+00  0.1746E+00  0.4061E+01  0.4045E+01
     10.674  0.1077E+01  0.5645E+00  0.4170E+01  0.4102E+01
     10.775  0.1100E+01  0.1075E+01  0.4280E+01  0.4210E+01
     10.875  0.5930E+00  0.6730E+00  0.4340E+01  0.4278E+01
     10.976  0.1646E+01  0.9164E+00  0.4506E+01  0.4370E+01
     11.076  0.5503E+00  0.1834E+01  0.4561E+01  0.4555E+01
     11.177  0.1848E+01  0.5997E+00  0.4747E+01  0.4615E+01
     11.278  0.7533E+00  0.1500E+01  0.4823E+01  0.4766E+01
     11.378  0.1982E+00  0.6568E+00  0.4843E+01  0.4832E+01
     11.479  0.3214E+00  0.8134E-01  0.4875E+01  0.4840E+01
     11.580  0.7685E+00  0.8919E+00  0.4953E+01  0.4930E+01
     11.680  0.1143E+01  0.2964E+00  0.5068E+01  0.4960E+01
     11.781 -0.2715E-01  0.1078E+01  0.5065E+01  0.5069E+01
     11.882 -0.9837E-04 -0.3677E-01  0.5065E+01  0.5065E+01
     11.982 -0.1689E-10 -0.1147E-04  0.5065E+01  0.5065E+01
     12.083 -0.4856E-22 -0.4379E-12  0.5065E+01  0.5065E+01
     12.183 -0.1680E-11 -0.1876E-20  0.5065E+01  0.5065E+01
     12.284 -0.1447E-04 -0.2200E-10  0.5065E+01  0.5065E+01
     12.385 -0.9064E-02 -0.6215E-04  0.5064E+01  0.5065E+01
     12.485  0.2460E+00  0.5393E-03  0.5089E+01  0.5065E+01
     12.586  0.2209E+01  0.3075E+00  0.5311E+01  0.5096E+01
     12.687  0.2287E+01  0.2243E+01  0.5541E+01  0.5322E+01
     12.787 -0.3989E-01  0.2218E+01  0.5537E+01  0.5545E+01
     12.888 -0.2649E-03 -0.7712E-01  0.5537E+01  0.5537E+01
     12.989 -0.8219E-02 -0.7330E-04  0.5536E+01  0.5537E+01
     13.089  0.5513E+00 -0.1797E-01  0.5592E+01  0.5535E+01
     13.190  0.6191E+00  0.8031E+00  0.5654E+01  0.5616E+01
     13.290  0.2241E+00  0.3499E+00  0.5677E+01  0.5651E+01
     13.391  0.2283E-01  0.2532E+00  0.5679E+01  0.5677E+01
     13.492  0.6445E-01  0.3309E-02  0.5685E+01  0.5677E+01
     13.592 -0.1373E-02  0.8316E-01  0.5685E+01  0.5685E+01
     13.693 -0.4928E-07 -0.2538E-02  0.5685E+01  0.5685E+01
     13.794 -0.3064E-15 -0.3646E-06  0.5685E+01  0.5685E+01
     13.894  0.0000E+00 -0.7539E-14  0.5685E+01  0.5685E+01
     13.995  0.0000E+00  0.0000E+00  0.5685E+01  0.5685E+01
     14.096  0.0000E+00  0.0000E+00  0.5685E+01  0.5685E+01
     14.196  0.0000E+00  0.0000E+00  0.5685E+01  0.5685E+01
     14.297  0.0000E+00  0.0000E+00  0.5685E+01  0.5685E+01
     14.397  0.0000E+00  0.0000E+00  0.5685E+01  0.5685E+01
     14.498  0.0000E+00  0.0000E+00  0.5685E+01  0.5685E+01
     14.599  0.0000E+00  0.0000E+00  0.5685E+01  0.5685E+01
     14.699 -0.3172E-30 -0.5282E-43  0.5685E+01  0.5685E+01
     14.800 -0.2001E-17 -0.2271E-27  0.5685E+01  0.5685E+01
     14.901 -0.3267E-08 -0.2771E-15  0.5685E+01  0.5685E+01
     15.001 -0.1178E-02 -0.8518E-07  0.5685E+01  0.5685E+01
     15.102  0.1261E+00 -0.5110E-02  0.5698E+01  0.5685E+01
     15.203  0.4382E+00  0.3086E+00  0.5742E+01  0.5716E+01
     15.303 -0.1103E-01  0.2520E+00  0.5741E+01  0.5741E+01
     15.404 -0.6981E-06 -0.3477E-02  0.5741E+01  0.5741E+01
     15.504 -0.4029E-10 -0.3407E-07  0.5741E+01  0.5741E+01
     15.605 -0.1609E-03 -0.1169E-10  0.5741E+01  0.5741E+01
     15.706 -0.1363E-01 -0.7968E-04  0.5739E+01  0.5741E+01
     15.806  0.1154E+01 -0.3108E-01  0.5856E+01  0.5738E+01
     15.907 -0.3682E-01  0.1161E+01  0.5852E+01  0.5854E+01
     16.008  0.5240E-01 -0.2818E-01  0.5857E+01  0.5852E+01
     16.108  0.1090E+01  0.3008E+00  0.5967E+01  0.5882E+01
     16.209 -0.3747E-01  0.8253E+00  0.5963E+01  0.5965E+01
     16.310 -0.3536E-01 -0.1919E-01  0.5959E+01  0.5963E+01
     16.410  0.1282E+01 -0.4885E-01  0.6088E+01  0.5958E+01
     16.511  0.2506E+00  0.1515E+01  0.6114E+01  0.6110E+01
     16.611  0.1118E+01  0.6679E-01  0.6226E+01  0.6117E+01
     16.712 -0.3901E-01  0.1081E+01  0.6222E+01  0.6226E+01
     16.813 -0.3833E-04 -0.3685E-01  0.6222E+01  0.6222E+01
     16.913 -0.1940E-01 -0.4014E-04  0.6220E+01  0.6222E+01
     17.014  0.5699E+00 -0.1774E-01  0.6278E+01  0.6220E+01
     17.115  0.1677E-02  0.5781E+00  0.6278E+01  0.6279E+01
     17.215 -0.1213E-03 -0.8173E-02  0.6278E+01  0.6278E+01
     17.316 -0.3216E-05 -0.7414E-04  0.6278E+01  0.6278E+01
     17.417 -0.2078E-01 -0.6652E-05  0.6276E+01  0.6278E+01
     17.517  0.6715E+00 -0.2400E-01  0.6343E+01  0.6275E+01
     17.618  0.8606E-01  0.7129E+00  0.6352E+01  0.6347E+01
     17.718 -0.9774E-02  0.4759E-01  0.6351E+01  0.6352E+01
     17.819  0.4031E+00 -0.9021E-02  0.6392E+01  0.6351E+01
     17.920  0.1597E+00  0.3940E+00  0.6408E+01  0.6391E+01
     18.020 -0.1645E-02  0.1685E+00  0.6407E+01  0.6408E+01
     18.121 -0.6553E-08 -0.1783E-02  0.6407E+01  0.6407E+01
     18.222 -0.9155E-34 -0.7776E-08  0.6407E+01  0.6407E+01
     18.322 -0.4663E-20 -0.2668E-31  0.6407E+01  0.6407E+01
     18.423 -0.6312E-10 -0.3610E-18  0.6407E+01  0.6407E+01
     18.524 -0.2068E-03 -0.1278E-08  0.6407E+01  0.6407E+01
     18.624 -0.3997E-02 -0.1039E-02  0.6407E+01  0.6407E+01
     18.725  0.1132E+01  0.1249E+00  0.6521E+01  0.6420E+01
     18.825  0.5423E+00  0.1012E+01  0.6575E+01  0.6522E+01
     18.926 -0.1371E-01  0.5392E+00  0.6574E+01  0.6576E+01
     19.027 -0.4878E-04 -0.1935E-01  0.6574E+01  0.6574E+01
     19.127 -0.7699E-02 -0.1810E-04  0.6573E+01  0.6574E+01
     19.228  0.5392E+00 -0.2087E-01  0.6628E+01  0.6572E+01
     19.329  0.1698E+01  0.9198E+00  0.6798E+01  0.6665E+01
     19.429  0.2576E+00  0.1512E+01  0.6824E+01  0.6817E+01
     19.530 -0.2647E-02  0.7356E-01  0.6824E+01  0.6824E+01
     19.631 -0.8303E-08 -0.6898E-03  0.6824E+01  0.6824E+01
     19.731 -0.1741E-07 -0.5821E-09  0.6824E+01  0.6824E+01
     19.832 -0.3760E-02 -0.1511E-06  0.6824E+01  0.6824E+01
     19.932  0.3488E+00 -0.9731E-02  0.6859E+01  0.6823E+01
     20.033  0.7757E+00  0.6022E+00  0.6937E+01  0.6884E+01
     20.134 -0.5574E-01  0.5187E+00  0.6931E+01  0.6936E+01
     20.234  0.1090E+01  0.3448E-02  0.7041E+01  0.6936E+01
     20.335  0.9735E+00  0.1369E+01  0.7139E+01  0.7074E+01
     20.436  0.7415E+01  0.1812E+01  0.7885E+01  0.7256E+01
     20.536  0.3793E+01  0.8405E+01  0.8267E+01  0.8102E+01
     20.637  0.1046E+01  0.2239E+01  0.8372E+01  0.8327E+01
     20.738 -0.1797E-01  0.4308E+00  0.8370E+01  0.8371E+01
     20.838 -0.6529E-02 -0.3984E-02  0.8370E+01  0.8370E+01
     20.939  0.2346E+00 -0.9687E-02  0.8393E+01  0.8369E+01
     21.039  0.4832E-01  0.2852E+00  0.8398E+01  0.8398E+01
     21.140 -0.4194E-03  0.6092E-03  0.8398E+01  0.8398E+01
     21.241 -0.3824E-02 -0.5958E-04  0.8398E+01  0.8398E+01
     21.341  0.3526E+00 -0.6941E-02  0.8433E+01  0.8397E+01
     21.442  0.7716E+00  0.5035E+00  0.8511E+01  0.8448E+01
     21.543 -0.2379E-01  0.6177E+00  0.8508E+01  0.8510E+01
     21.643  0.1149E+01 -0.3581E-01  0.8624E+01  0.8507E+01
     21.744 -0.3765E-01  0.1161E+01  0.8620E+01  0.8623E+01
     21.845 -0.4344E-04 -0.3078E-01  0.8620E+01  0.8620E+01
     21.945 -0.6554E-11 -0.8112E-04  0.8620E+01  0.8620E+01
     22.046 -0.2407E-04 -0.1225E-10  0.8620E+01  0.8620E+01
     22.146 -0.1956E-01 -0.4042E-05  0.8618E+01  0.8620E+01
     22.247  0.6816E+00 -0.1095E-01  0.8687E+01  0.8619E+01
     22.348  0.2643E+00  0.4167E+00  0.8714E+01  0.8661E+01
     22.448 -0.6179E-02  0.5281E+00  0.8713E+01  0.8714E+01
     22.549 -0.2643E-06 -0.1373E-01  0.8713E+01  0.8713E+01
     22.650 -0.1961E-14 -0.1234E-05  0.8713E+01  0.8713E+01
     22.750 -0.1040E-37 -0.1943E-13  0.8713E+01  0.8713E+01
     22.851 -0.4005E-23 -0.2031E-34  0.8713E+01  0.8713E+01
     22.952 -0.4180E-12 -0.1459E-20  0.8713E+01  0.8713E+01
     23.052 -0.1115E-04 -0.2793E-10  0.8713E+01  0.8713E+01
     23.153 -0.3662E-01 -0.1309E-03  0.8709E+01  0.8713E+01
     23.253  0.1078E+01 -0.2011E-01  0.8818E+01  0.8711E+01
     23.354  0.6363E-01  0.1158E+01  0.8824E+01  0.8828E+01
     23.455 -0.5528E-02 -0.3400E-01  0.8824E+01  0.8824E+01
     23.555  0.2884E+00 -0.8248E-02  0.8853E+01  0.8823E+01
     23.656  0.1228E+01  0.4763E+00  0.8976E+01  0.8871E+01
     23.757 -0.3896E-01  0.1031E+01  0.8972E+01  0.8975E+01
     23.857 -0.1264E-04 -0.2661E-01  0.8972E+01  0.8972E+01
     23.958 -0.5138E-12 -0.2286E-05  0.8972E+01  0.8972E+01
     24.059  0.0000E+00 -0.3163E-13  0.8972E+01  0.8972E+01
     24.159  0.0000E+00  0.0000E+00  0.8972E+01  0.8972E+01
     24.260  0.0000E+00  0.0000E+00  0.8972E+01  0.8972E+01
     24.360  0.0000E+00  0.0000E+00  0.8972E+01  0.8972E+01
     24.461  0.0000E+00  0.0000E+00  0.8972E+01  0.8972E+01
     24.562  0.0000E+00  0.0000E+00  0.8972E+01  0.8972E+01
     24.662  0.0000E+00  0.0000E+00  0.8972E+01  0.8972E+01
     24.763  0.0000E+00  0.0000E+00  0.8972E+01  0.8972E+01
     24.864  0.0000E+00  0.0000E+00  0.8972E+01  0.8972E+01
     24.964  0.0000E+00  0.0000E+00  0.8972E+01  0.8972E+01
     25.065  0.0000E+00  0.0000E+00  0.8972E+01  0.8972E+01
     25.165  0.0000E+00  0.0000E+00  0.8972E+01  0.8972E+01
     25.266  0.0000E+00  0.0000E+00  0.8972E+01  0.8972E+01
     25.367  0.0000E+00  0.0000E+00  0.8972E+01  0.8972E+01
     25.467 -0.1718E-34  0.0000E+00  0.8972E+01  0.8972E+01
     25.568 -0.9343E-21 -0.2162E-33  0.8972E+01  0.8972E+01
     25.669 -0.1351E-10 -0.6556E-20  0.8972E+01  0.8972E+01
     25.769 -0.4743E-04 -0.5253E-10  0.8972E+01  0.8972E+01
     25.870 -0.1880E-02 -0.1000E-03  0.8972E+01  0.8972E+01
     25.971  0.2874E+00  0.8238E-02  0.9001E+01  0.8973E+01
     26.071 -0.9407E-02  0.2775E+00  0.9000E+01  0.9001E+01
     26.172 -0.1090E-04 -0.9659E-02  0.9000E+01  0.9000E+01
     26.272 -0.1033E-11 -0.4548E-05  0.9000E+01  0.9000E+01
     26.373  0.0000E+00 -0.2358E-12  0.9000E+01  0.9000E+01
     26.474  0.0000E+00  0.0000E+00  0.9000E+01  0.9000E+01
     26.574  0.0000E+00  0.0000E+00  0.9000E+01  0.9000E+01
     26.675  0.0000E+00  0.0000E+00  0.9000E+01  0.9000E+01
     26.776  0.0000E+00  0.0000E+00  0.9000E+01  0.9000E+01
     26.876  0.0000E+00  0.0000E+00  0.9000E+01  0.9000E+01
     26.977  0.0000E+00  0.0000E+00  0.9000E+01  0.9000E+01
     27.078  0.0000E+00  0.0000E+00  0.9000E+01  0.9000E+01
     27.178  0.0000E+00  0.0000E+00  0.9000E+01  0.9000E+01
     27.279  0.0000E+00  0.0000E+00  0.9000E+01  0.9000E+01
     27.379  0.0000E+00  0.0000E+00  0.9000E+01  0.9000E+01
     27.37948796     -2.81129296  301      5.93070652      1.00000000
     -2.811  0.0000E+00  0.0000E+00  0.0000E+00  0.0000E+00  0.0000E+00  0.0000E+00  0.0000E+00  0.0000E+00  0.0000E+00  0.0000E+00  0.0000E+00  0.0000E+00  0.0000E+00  0.0000E+00  0.0000E+00  0.0000E+00  0.0000E+00  0.0000E+00
     -2.711  0.0000E+00  0.0000E+00  0.0000E+00  0.0000E+00  0.0000E+00  0.0000E+00  0.0000E+00  0.0000E+00  0.0000E+00  0.0000E+00  0.0000E+00  0.0000E+00  0.0000E+00  0.0000E+00  0.0000E+00  0.0000E+00  0.0000E+00  0.0000E+00
     -2.610  0.0000E+00  0.0000E+00  0.0000E+00  0.0000E+00  0.0000E+00  0.0000E+00  0.0000E+00  0.0000E+00  0.0000E+00  0.0000E+00  0.0000E+00  0.0000E+00  0.0000E+00  0.0000E+00  0.0000E+00  0.0000E+00  0.0000E+00  0.0000E+00
     -2.509  0.0000E+00  0.0000E+00  0.0000E+00  0.0000E+00  0.0000E+00  0.0000E+00  0.0000E+00  0.0000E+00  0.0000E+00  0.0000E+00  0.0000E+00  0.0000E+00  0.0000E+00  0.0000E+00  0.0000E+00  0.0000E+00  0.0000E+00  0.0000E+00
     -2.409  0.0000E+00  0.0000E+00  0.0000E+00  0.0000E+00  0.0000E+00  0.0000E+00  0.0000E+00  0.0000E+00  0.0000E+00  0.0000E+00  0.0000E+00  0.0000E+00  0.0000E+00  0.0000E+00  0.0000E+00  0.0000E+00  0.0000E+00  0.0000E+00
     -2.308  0.0000E+00  0.0000E+00  0.0000E+00  0.0000E+00  0.0000E+00  0.0000E+00  0.0000E+00  0.0000E+00  0.0000E+00  0.0000E+00  0.0000E+00  0.0000E+00  0.0000E+00  0.0000E+00  0.0000E+00  0.0000E+00  0.0000E+00  0.0000E+00
     -2.207  0.0000E+00  0.0000E+00  0.0000E+00  0.0000E+00  0.0000E+00  0.0000E+00  0.0000E+00  0.0000E+00  0.0000E+00  0.0000E+00  0.0000E+00  0.0000E+00  0.0000E+00  0.0000E+00  0.0000E+00  0.0000E+00  0.0000E+00  0.0000E+00
     -2.107  0.0000E+00  0.0000E+00  0.0000E+00  0.0000E+00  0.0000E+00  0.0000E+00  0.0000E+00  0.0000E+00  0.0000E+00  0.0000E+00  0.0000E+00  0.0000E+00  0.0000E+00  0.0000E+00  0.0000E+00  0.0000E+00  0.0000E+00  0.0000E+00
     -2.006  0.0000E+00  0.0000E+00  0.0000E+00  0.0000E+00  0.0000E+00  0.0000E+00  0.0000E+00  0.0000E+00  0.0000E+00  0.0000E+00  0.0000E+00  0.0000E+00  0.0000E+00  0.0000E+00  0.0000E+00  0.0000E+00  0.0000E+00  0.0000E+00
     -1.906 -0.9454E-38  0.0000E+00 -0.7788E-51  0.0000E+00 -0.8483E-51  0.0000E+00 -0.5443E-39  0.0000E+00 -0.1453E-49  0.0000E+00 -0.1523E-49  0.0000E+00 -0.5436E-41  0.0000E+00 -0.1470E-49  0.0000E+00 -0.1631E-40  0.0000E+00
     -1.805 -0.2659E-23 -0.3000E-38 -0.2190E-36 -0.2836E-51 -0.2386E-36 -0.2798E-51 -0.1531E-24 -0.1730E-39 -0.4085E-35 -0.5910E-50 -0.4283E-35 -0.6077E-50 -0.1529E-26 -0.1736E-41 -0.4135E-35 -0.5715E-50 -0.4587E-26 -0.5209E-41
     -1.704 -0.2020E-12 -0.1083E-23 -0.1664E-25 -0.1024E-36 -0.1813E-25 -0.1010E-36 -0.1163E-13 -0.6245E-25 -0.3105E-24 -0.2133E-35 -0.3255E-24 -0.2193E-35 -0.1162E-15 -0.6268E-27 -0.3142E-24 -0.2063E-35 -0.3485E-15 -0.1880E-26
     -1.604 -0.3897E-05 -0.1059E-12 -0.3210E-18 -0.1001E-25 -0.3497E-18 -0.9872E-26 -0.2244E-06 -0.6104E-14 -0.5988E-17 -0.2085E-24 -0.6278E-17 -0.2144E-24 -0.2241E-08 -0.6127E-16 -0.6060E-17 -0.2017E-24 -0.6723E-08 -0.1838E-15
     -1.503 -0.8276E-02 -0.2641E-05 -0.6818E-15 -0.2497E-18 -0.7426E-15 -0.2463E-18 -0.4765E-03 -0.1523E-06 -0.1272E-13 -0.5202E-17 -0.1333E-13 -0.5349E-17 -0.4759E-05 -0.1528E-08 -0.1287E-13 -0.5031E-17 -0.1428E-04 -0.4585E-08
     -1.402  0.2378E+00 -0.7941E-02  0.1959E-13 -0.7508E-15  0.2134E-13 -0.7406E-15  0.1369E-01 -0.4580E-03  0.3654E-12 -0.1564E-13  0.3831E-12 -0.1609E-13  0.1368E-03 -0.4596E-05  0.3698E-12 -0.1513E-13  0.4103E-03 -0.1379E-04
     -1.302  0.7059E-02  0.2320E+00  0.5815E-15  0.2193E-13  0.6334E-15  0.2164E-13  0.4064E-03  0.1338E-01  0.1085E-13  0.4570E-12  0.1137E-13  0.4699E-12  0.4059E-05  0.1343E-03  0.1098E-13  0.4420E-12  0.1218E-04  0.4028E-03
     -1.201 -0.8572E-04  0.1213E-01 -0.7062E-17  0.1147E-14 -0.7692E-17  0.1132E-14 -0.4935E-05  0.6997E-03 -0.1317E-15  0.2390E-13 -0.1381E-15  0.2458E-13 -0.4929E-07  0.7023E-05 -0.1333E-15  0.2312E-13 -0.1479E-06  0.2107E-04
     -1.100 -0.4501E-10 -0.1161E-03 -0.3708E-23 -0.1097E-16 -0.4039E-23 -0.1083E-16 -0.2591E-11 -0.6694E-05 -0.6917E-22 -0.2287E-15 -0.7251E-22 -0.2351E-15 -0.2589E-13 -0.6719E-07 -0.7000E-22 -0.2211E-15 -0.7766E-13 -0.2016E-06
     -1.000  0.0000E+00 -0.7926E-10  0.0000E+00 -0.7493E-23  0.0000E+00 -0.7392E-23  0.0000E+00 -0.4571E-11  0.0000E+00 -0.1561E-21  0.0000E+00 -0.1605E-21  0.0000E+00 -0.4587E-13  0.0000E+00 -0.1510E-21  0.0000E+00 -0.1376E-12
     -0.899  0.0000E+00  0.0000E+00  0.0000E+00  0.0000E+00  0.0000E+00  0.0000E+00  0.0000E+00  0.0000E+00  0.0000E+00  0.0000E+00  0.0000E+00  0.0000E+00  0.0000E+00  0.0000E+00  0.0000E+00  0.0000E+00  0.0000E+00  0.0000E+00
     -0.799 -0.7055E-36  0.0000E+00 -0.3732E-37  0.0000E+00 -0.3732E-37  0.0000E+00 -0.3732E-37  0.0000E+00 -0.8752E-38  0.0000E+00 -0.8752E-38  0.0000E+00 -0.7658E-55  0.0000E+00 -0.8752E-38  0.0000E+00 -0.1239E-54  0.0000E+00
     -0.698 -0.7971E-22 -0.2606E-36 -0.4216E-23 -0.1382E-37 -0.4216E-23 -0.1382E-37 -0.4216E-23 -0.1382E-37 -0.9888E-24 -0.3231E-38 -0.9888E-24 -0.3231E-38 -0.8653E-41 -0.3873E-55 -0.9888E-24 -0.3231E-38 -0.1400E-40 -0.3684E-57
     -0.597 -0.2413E-11 -0.3677E-22 -0.1276E-12 -0.1949E-23 -0.1276E-12 -0.1949E-23 -0.1276E-12 -0.1949E-23 -0.2994E-13 -0.4558E-24 -0.2994E-13 -0.4558E-24 -0.2619E-30 -0.5464E-41 -0.2994E-13 -0.4558E-24 -0.4239E-30 -0.5197E-43
     -0.497 -0.1812E-04 -0.1393E-11 -0.9584E-06 -0.7384E-13 -0.9584E-06 -0.7384E-13 -0.9584E-06 -0.7384E-13 -0.2248E-06 -0.1727E-13 -0.2248E-06 -0.1727E-13 -0.1967E-23 -0.2070E-30 -0.2248E-06 -0.1727E-13 -0.3183E-23 -0.1969E-32
     -0.396 -0.8572E-02 -0.1316E-04 -0.4534E-03 -0.6979E-06 -0.4534E-03 -0.6979E-06 -0.4534E-03 -0.6979E-06 -0.1063E-03 -0.1632E-06 -0.1063E-03 -0.1632E-06 -0.9305E-21 -0.1956E-23 -0.1063E-03 -0.1632E-06 -0.1506E-20 -0.1861E-25
     -0.295  0.3006E+00 -0.9453E-02  0.1590E-01 -0.5012E-03  0.1590E-01 -0.5012E-03  0.1590E-01 -0.5012E-03  0.3730E-02 -0.1172E-03  0.3730E-02 -0.1172E-03  0.3263E-19 -0.1405E-20  0.3730E-02 -0.1172E-03  0.5281E-19 -0.1336E-22
     -0.195 -0.5705E-02  0.2986E+00 -0.3018E-03  0.1583E-01 -0.3018E-03  0.1583E-01 -0.3018E-03  0.1583E-01 -0.7077E-04  0.3702E-02 -0.7077E-04  0.3702E-02 -0.6193E-21  0.4437E-19 -0.7077E-04  0.3702E-02 -0.1002E-20  0.4220E-21
     -0.094 -0.3169E-04 -0.3313E-02 -0.1676E-05 -0.1757E-03 -0.1676E-05 -0.1757E-03 -0.1676E-05 -0.1757E-03 -0.3931E-06 -0.4108E-04 -0.3931E-06 -0.4108E-04 -0.3440E-23 -0.4924E-21 -0.3931E-06 -0.4108E-04 -0.5566E-23 -0.4683E-23
      0.007 -0.6413E-11 -0.4265E-04 -0.3392E-12 -0.2261E-05 -0.3392E-12 -0.2261E-05 -0.3392E-12 -0.2261E-05 -0.7955E-13 -0.5287E-06 -0.7955E-13 -0.5287E-06 -0.6961E-30 -0.6338E-23 -0.7955E-13 -0.5287E-06 -0.1126E-29 -0.6028E-25
      0.107 -0.1165E-33 -0.1088E-10 -0.4260E-35 -0.5767E-12 -0.1333E-46 -0.5767E-12 -0.2482E-34 -0.5767E-12 -0.1177E-34 -0.1349E-12 -0.3452E-45 -0.1349E-12 -0.4199E-35 -0.1616E-29 -0.3054E-45 -0.1349E-12 -0.1916E-35 -0.1537E-31
      0.208 -0.5131E-20 -0.6295E-34 -0.1877E-21 -0.2311E-35 -0.5874E-33 -0.1339E-46 -0.1094E-20 -0.1345E-34 -0.5187E-21 -0.6360E-35 -0.1521E-31 -0.2488E-45 -0.1850E-21 -0.2288E-35 -0.1346E-31 -0.2232E-45 -0.8441E-22 -0.1043E-35
      0.308 -0.5999E-10 -0.3193E-20 -0.2195E-11 -0.1172E-21 -0.6867E-23 -0.6790E-33 -0.1279E-10 -0.6821E-21 -0.6063E-11 -0.3226E-21 -0.1778E-21 -0.1262E-31 -0.2163E-11 -0.1160E-21 -0.1573E-21 -0.1132E-31 -0.9868E-12 -0.5292E-22
      0.409 -0.1689E-03 -0.4304E-10 -0.6181E-05 -0.1580E-11 -0.1934E-16 -0.9151E-23 -0.3601E-04 -0.9194E-11 -0.1708E-04 -0.4348E-11 -0.5007E-15 -0.1701E-21 -0.6091E-05 -0.1564E-11 -0.4430E-15 -0.1526E-21 -0.2779E-05 -0.7133E-12
      0.510  0.3221E-02 -0.1404E-03  0.1179E-03 -0.5155E-05  0.3687E-15 -0.2985E-16  0.6866E-03 -0.2999E-04  0.3256E-03 -0.1418E-04  0.9548E-14 -0.5548E-15  0.1161E-03 -0.5102E-05  0.8448E-14 -0.4977E-15  0.5299E-04 -0.2327E-05
      0.610  0.7705E+00 -0.2510E-02  0.2819E-01 -0.9215E-04  0.8819E-13 -0.5337E-15  0.1642E+00 -0.5362E-03  0.7788E-01 -0.2536E-03  0.2284E-11 -0.9918E-14  0.2778E-01 -0.9121E-04  0.2021E-11 -0.8897E-14  0.1267E-01 -0.4160E-04
      0.711 -0.2632E-01  0.7739E+00 -0.9628E-03  0.2841E-01 -0.3012E-14  0.1646E-12 -0.5609E-02  0.1653E+00 -0.2660E-02  0.7819E-01 -0.7800E-13  0.3058E-11 -0.9488E-03  0.2813E-01 -0.6901E-13  0.2744E-11 -0.4329E-03  0.1283E-01
      0.812 -0.2164E-04 -0.2578E-01 -0.7916E-06 -0.9464E-03 -0.2477E-17 -0.5481E-14 -0.4612E-05 -0.5507E-02 -0.2187E-05 -0.2604E-02 -0.6413E-16 -0.1019E-12 -0.7801E-06 -0.9368E-03 -0.5674E-16 -0.9138E-13 -0.3559E-06 -0.4272E-03
      0.912 -0.1649E-11 -0.2657E-04 -0.6033E-13 -0.9756E-06 -0.1888E-24 -0.5650E-17 -0.3515E-12 -0.5677E-05 -0.1667E-12 -0.2685E-05 -0.4888E-23 -0.1050E-15 -0.5946E-13 -0.9657E-06 -0.4325E-23 -0.9420E-16 -0.2713E-13 -0.4404E-06
      1.013  0.0000E+00 -0.2343E-11  0.0000E+00 -0.8600E-13  0.0000E+00 -0.4981E-24  0.0000E+00 -0.5004E-12  0.0000E+00 -0.2367E-12  0.0000E+00 -0.9257E-23  0.0000E+00 -0.8513E-13  0.0000E+00 -0.8304E-23  0.0000E+00 -0.3883E-13
      1.114  0.0000E+00  0.0000E+00  0.0000E+00  0.0000E+00  0.0000E+00  0.0000E+00  0.0000E+00  0.0000E+00  0.0000E+00  0.0000E+00  0.0000E+00  0.0000E+00  0.0000E+00  0.0000E+00  0.0000E+00  0.0000E+00  0.0000E+00  0.0000E+00
      1.214  0.0000E+00  0.0000E+00  0.0000E+00  0.0000E+00  0.0000E+00  0.0000E+00  0.0000E+00  0.0000E+00  0.0000E+00  0.0000E+00  0.0000E+00  0.0000E+00  0.0000E+00  0.0000E+00  0.0000E+00  0.0000E+00  0.0000E+00  0.0000E+00
      1.315 -0.8661E-32  0.0000E+00 -0.5642E-35  0.0000E+00 -0.3544E-41  0.0000E+00 -0.1274E-32  0.0000E+00 -0.1053E-31  0.0000E+00 -0.1518E-40  0.0000E+00 -0.6148E-32  0.0000E+00 -0.3218E-42  0.0000E+00 -0.5570E-34  0.0000E+00
      1.415 -0.1173E-18 -0.1227E-31 -0.7644E-22 -0.8070E-35 -0.4106E-26 -0.1779E-41 -0.1725E-19 -0.1809E-32 -0.1426E-18 -0.1494E-31 -0.1755E-25 -0.7658E-41 -0.8329E-19 -0.8802E-32 -0.3158E-27 -0.2414E-42 -0.7546E-21 -0.7933E-34
      1.516 -0.4158E-09 -0.1528E-18 -0.2722E-12 -0.1005E-21 -0.1302E-14 -0.2376E-26 -0.6114E-10 -0.2253E-19 -0.5053E-09 -0.1860E-18 -0.5566E-14 -0.1013E-25 -0.2952E-09 -0.1096E-18 -0.9996E-16 -0.1834E-27 -0.2675E-11 -0.9880E-21
      1.617 -0.3394E-03 -0.4973E-09 -0.3282E-06 -0.3279E-12 -0.1077E-06 -0.8701E-15 -0.4986E-04 -0.7333E-10 -0.4114E-03 -0.6054E-09 -0.4601E-06 -0.3710E-14 -0.2404E-03 -0.3568E-09 -0.8263E-08 -0.6666E-16 -0.2266E-05 -0.3216E-11
      1.717  0.2896E-01 -0.3710E-03 -0.1394E-02 -0.3273E-06 -0.1421E-02 -0.8374E-07  0.4922E-02 -0.5467E-04  0.4937E-01 -0.4509E-03 -0.6071E-02 -0.3571E-06  0.2851E-01 -0.2657E-03 -0.1090E-03 -0.6416E-08 -0.9144E-03 -0.2464E-05
      1.818  0.7751E+00  0.3364E-01  0.5401E-01 -0.1285E-02  0.5379E-01 -0.1314E-02  0.8886E-01  0.5573E-02  0.4052E+00  0.5405E-01  0.2299E+00 -0.5605E-02  0.2491E+00  0.3154E-01  0.4128E-02 -0.1007E-03  0.4666E-01 -0.8078E-03
      1.919  0.9976E-01  0.7542E+00  0.1329E-01  0.5233E-01  0.1330E-01  0.5211E-01  0.8460E-02  0.8690E-01 -0.1148E-01  0.3989E+00  0.5683E-01  0.2222E+00 -0.3630E-02  0.2472E+00  0.1021E-02  0.3993E-02  0.1095E-01  0.4553E-01
      2.019 -0.2218E-02  0.1131E+00 -0.1197E-03  0.1491E-01 -0.1197E-03  0.1491E-01 -0.3321E-03  0.9720E-02 -0.1119E-04 -0.1092E-01 -0.2845E-02  0.6360E-01 -0.2691E-03 -0.2968E-02 -0.9184E-05  0.1143E-02 -0.8039E-03  0.1236E-01
      2.120  0.7641E-01 -0.2381E-02 -0.2821E-09 -0.1391E-03 -0.2821E-09 -0.1391E-03  0.1467E-01 -0.3489E-03 -0.2164E-10 -0.1240E-04  0.1472E+00 -0.2944E-02  0.1472E-01 -0.2783E-03 -0.2160E-10 -0.1066E-04  0.4417E-01 -0.8318E-03
      2.221  0.1315E+00  0.7620E-01 -0.3352E-11 -0.3834E-09 -0.3354E-11 -0.3834E-09  0.5501E-01  0.1456E-01 -0.3576E-10 -0.2936E-10  0.1322E+00  0.1476E+00  0.1922E-01  0.1486E-01 -0.3575E-10 -0.2932E-10  0.5860E-01  0.4458E-01