    1    1    1    2
  0.1748289E+02  0.2831903E-09  0.2831903E-09  0.2831903E-09  0.5000000E-15
  1.000000000000000E-004
  CAR 
 unknown system                          
    5   14    9
 
  0.8333333E-01  0.8333333E-01  0.8333333E-01  0.3703704E-01
   1       -0.343232     -0.239859
   2        5.741240      5.844471
   3        5.741240      5.844471
   4        8.952285      9.052891
   5        9.866271      9.932199
   6        9.866271      9.932199
   7       20.405795     20.454169
   8       22.260348     22.371001
   9       23.548059     23.641564
 
  0.2500000E+00  0.8333333E-01  0.8333333E-01  0.1111111E+00
   1        1.798835      1.901267
   2        4.680043      4.785095
   3        5.337500      5.434917
   4       10.076322     10.149384
   5       10.717534     10.781539
   6       12.528328     12.620449
   7       20.287599     20.352550
   8       20.526655     20.617133
   9       20.544066     20.618030
 
  0.4166667E+00  0.8333333E-01  0.8333333E-01  0.5555556E-01
   1        2.118310      2.218794
   2        4.297239      4.403199
   3        6.974318      7.071635
   4       10.298408     10.371260
   5       11.158437     11.220562
   6       15.119163     15.199592
   7       16.972519     17.068550
   8       18.775561     18.867237
   9       20.415934     20.464682
 
 -0.8333333E-01  0.8333333E-01  0.8333333E-01  0.2777778E-01
   1       -1.438985     -1.335271
   2        6.675454      6.780262
   3        6.675458      6.780267
   4        7.063024      7.167400
   5        9.109180      9.174240
   6       10.504741     10.563883
   7       20.407838     20.456198
   8       22.202419     22.312051
   9       22.202430     22.359448
 
  0.2500000E+00  0.2500000E+00  0.8333333E-01  0.1111111E+00
   1        3.375400      3.479748
   2        4.556584      4.654184
   3        5.245858      5.346174
   4       10.607725     10.678467
   5       11.109058     11.174383
   6       15.751040     15.858005
   7       16.391616     16.471499
   8       20.195716     20.274022
   9       20.413409     20.462090
 
 -0.2500000E+00  0.2500000E+00  0.8333333E-01  0.1111111E+00
   1        0.550889      0.653258
   2        5.679678      5.785230
   3        5.849078      5.942251
   4        8.536892      8.617674
   5        9.326367      9.426036
   6       10.974710     11.036509
   7       20.402538     20.450974
   8       21.352516     21.444944
   9       23.589015     23.676741
 
 -0.4166667E+00  0.4166667E+00  0.8333333E-01  0.1111111E+00
   1        1.743994      1.843594
   2        4.810551      4.916719
   3        6.349106      6.438217
   4        9.436037      9.517452
   5       11.491661     11.561237
   6       13.089642     13.176867
   7       18.667143     18.751453
   8       19.943831     20.030900
   9       20.427807     20.477794
 
 -0.2500000E+00  0.4166667E+00  0.8333333E-01  0.1111111E+00
   1        2.456438      2.556786
   2        4.583669      4.671807
   3        5.840125      5.942330
   4        8.654593      8.743249
   5       10.908310     10.984767
   6       12.642687     12.729230
   7       19.312771     19.398209
   8       20.419923     20.469035
   9       23.220699     23.300626
 
 -0.4166667E+00 -0.4166667E+00  0.8333333E-01  0.1111111E+00
   1        2.983607      3.080705
   2        4.870688      4.970571
   3        5.285651      5.371804
   4        9.253608      9.340222
   5       11.630497     11.713217
   6       16.041663     16.122482
   7       16.548864     16.644500
   8       20.412267     20.462642
   9       20.458751     20.542030
 
  0.2500000E+00  0.2500000E+00  0.2500000E+00  0.9259259E-02
   1        4.737462      4.839372
   2        4.737462      4.839380
   3        4.737468      4.839380
   4       11.325077     11.386355
   5       11.325077     11.386355
   6       13.402366     13.517297
   7       19.251800     19.329936
   8       19.251801     19.329937
   9       19.251803     19.329937
 
 -0.2500000E+00  0.2500000E+00  0.2500000E+00  0.2777778E-01
   1        2.221650      2.318433
   2        4.956650      5.033354
   3        7.294404      7.397438
   4        7.294408      7.397443
   5        9.303063      9.402264
   6       11.245182     11.318521
   7       20.400098     20.448785
   8       20.917515     20.997775
   9       25.913740     26.007180
 
 -0.4166667E+00  0.4166667E+00  0.2500000E+00  0.1111111E+00
   1        3.042602      3.129381
   2        3.902580      3.984579
   3        7.221543      7.324445
   4        7.935494      8.032008
   5       12.546549     12.635270
   6       12.634853     12.728530
   7       19.230087     19.314620
   8       20.421246     20.470260
   9       21.586365     21.692384
 
 -0.4166667E+00 -0.4166667E+00  0.2500000E+00  0.3703704E-01
   1        3.163106      3.244290
   2        3.163108      3.244292
   3        6.787388      6.891536
   4       11.179839     11.274346
   5       11.179845     11.274353
   6       16.364529     16.460868
   7       17.490854     17.585940
   8       17.490878     17.585966
   9       20.415682     20.464244
 
 -0.4166667E+00  0.4166667E+00  0.4166667E+00  0.2777778E-01
   1        2.340263      2.420566
   2        2.464224      2.545361
   3       10.822433     10.919738
   4       10.822439     10.919745
   5       12.439162     12.526604
   6       13.210679     13.318343
   7       17.805946     17.907613
   8       17.805968     17.907637
   9       20.408439     20.456674
