       N       E                     dE             d eps       ncg     rms          rms(c)
DAV:   1     0.224867483831E+01    0.22487E+01   -0.14601E+03   642   0.220E+02
DAV:   2    -0.146014033667E+01   -0.37088E+01   -0.34502E+01   584   0.321E+01
DAV:   3    -0.149373204354E+01   -0.33592E-01   -0.33272E-01   640   0.254E+00
DAV:   4    -0.149375870485E+01   -0.26661E-04   -0.26660E-04   659   0.622E-02
DAV:   5    -0.149375872259E+01   -0.17736E-07   -0.18892E-07   560   0.138E-03    0.840E+00
DAV:   6    -0.118006428511E+02   -0.10307E+02   -0.34573E+00   539   0.548E+00    0.346E+00
DAV:   7    -0.118983181289E+02   -0.97675E-01   -0.66234E-02   568   0.145E+00    0.273E+00
DAV:   8    -0.117851617386E+02    0.11316E+00   -0.64044E-01   544   0.394E+00    0.164E+00
DAV:   9    -0.118722048600E+02   -0.87043E-01   -0.33176E-02   565   0.891E-01    0.458E-01
DAV:  10    -0.118611629397E+02    0.11042E-01   -0.11585E-02   616   0.514E-01    0.744E-01
DAV:  11    -0.118737801064E+02   -0.12617E-01   -0.29945E-02   564   0.841E-01    0.319E-01
DAV:  12    -0.118756853847E+02   -0.19053E-02   -0.37413E-03   541   0.297E-01    0.155E-01
DAV:  13    -0.118760632841E+02   -0.37790E-03   -0.12276E-04   328   0.548E-02    0.209E-02
DAV:  14    -0.118759383449E+02    0.12494E-03   -0.42509E-05   255   0.331E-02    0.739E-02
DAV:  15    -0.118760228956E+02   -0.84551E-04   -0.76061E-06   255   0.146E-02
   1 F= -.11876023E+02 E0= -.11875759E+02  d E =-.791331E-03  mag=     0.1527
