<?xml version="1.0" encoding="ISO-8859-1"?>
<modeling>
 <generator>
  <i name="program" type="string">vasp </i>
  <i name="version" type="string">5.2.12  </i>
  <i name="subversion" type="string">11Nov11 complex                                                      parallel </i>
  <i name="platform" type="string">LinuxIFC </i>
  <i name="date" type="string">2012 10 17 </i>
  <i name="time" type="string">10:22:30 </i>
 </generator>
 <incar>
  <i type="int" name="ISTART">     0</i>
  <i type="string" name="PREC">accurate</i>
  <i type="int" name="ISPIN">     2</i>
  <i name="ENCUT">    200.00000000</i>
  <v name="MAGMOM">      6.00000000</v>
  <i type="logical" name="LREAL"> F  </i>
  <i type="int" name="ISMEAR">     1</i>
  <i name="SIGMA">      0.05000000</i>
  <i type="logical" name="LORBIT"> F  </i>
 </incar>
 <kpoints>
  <generation param="Monkhorst-Pack">
   <v type="int" name="divisions">       6        6        6 </v>
   <v name="usershift">      0.00000000       0.00000000       0.00000000 </v>
   <v name="genvec1">      0.16666667       0.00000000       0.00000000 </v>
   <v name="genvec2">      0.00000000       0.16666667       0.00000000 </v>
   <v name="genvec3">      0.00000000       0.00000000       0.16666667 </v>
   <v name="shift">      0.50000000       0.50000000       0.50000000 </v>
  </generation>
  <varray name="kpointlist" >
   <v>       0.08333333       0.08333333       0.08333333 </v>
   <v>       0.25000000       0.08333333       0.08333333 </v>
   <v>       0.41666667       0.08333333       0.08333333 </v>
   <v>      -0.08333333       0.08333333       0.08333333 </v>
   <v>       0.25000000       0.25000000       0.08333333 </v>
   <v>      -0.25000000       0.25000000       0.08333333 </v>
   <v>      -0.41666667       0.41666667       0.08333333 </v>
   <v>      -0.25000000       0.41666667       0.08333333 </v>
   <v>      -0.41666667      -0.41666667       0.08333333 </v>
   <v>       0.25000000       0.25000000       0.25000000 </v>
   <v>      -0.25000000       0.25000000       0.25000000 </v>
   <v>      -0.41666667       0.41666667       0.25000000 </v>
   <v>      -0.41666667      -0.41666667       0.25000000 </v>
   <v>      -0.41666667       0.41666667       0.41666667 </v>
  </varray>
  <varray name="weights" >
   <v>       0.03703704 </v>
   <v>       0.11111111 </v>
   <v>       0.05555556 </v>
   <v>       0.02777778 </v>
   <v>       0.11111111 </v>
   <v>       0.11111111 </v>
   <v>       0.11111111 </v>
   <v>       0.11111111 </v>
   <v>       0.11111111 </v>
   <v>       0.00925926 </v>
   <v>       0.02777778 </v>
   <v>       0.11111111 </v>
   <v>       0.03703704 </v>
   <v>       0.02777778 </v>
  </varray>
 </kpoints>
 <parameters>
  <separator name="general" >
   <i type="string" name="SYSTEM">unknown system</i>
   <i type="logical" name="LCOMPAT"> F  </i>
  </separator>
  <separator name="electronic" >
   <i type="string" name="PREC">accura</i>
   <i name="ENMAX">    200.00000000</i>
   <i name="ENAUG">    332.07500000</i>
   <i name="EDIFF">      0.00010000</i>
   <i type="int" name="IALGO">    38</i>
   <i type="int" name="IWAVPR">    10</i>
   <i type="int" name="NBANDS">     9</i>
   <i name="NELECT">      5.00000000</i>
   <i type="int" name="TURBO">     0</i>
   <i type="int" name="IRESTART">     0</i>
   <i type="int" name="NREBOOT">     0</i>
   <i type="int" name="NMIN">     0</i>
   <i name="EREF">      0.00000000</i>
   <separator name="electronic smearing" >
    <i type="int" name="ISMEAR">     1</i>
    <i name="SIGMA">      0.05000000</i>
    <i name="KSPACING">      0.50000000</i>
    <i type="logical" name="KGAMMA"> T  </i>
   </separator>
   <separator name="electronic projectors" >
    <i type="logical" name="LREAL"> F  </i>
    <v name="ROPT">      0.00000000</v>
    <i type="int" name="LMAXPAW">  -100</i>
    <i type="int" name="LMAXMIX">     2</i>
    <i type="logical" name="NLSPLINE"> F  </i>
   </separator>
   <separator name="electronic startup" >
    <i type="int" name="ISTART">     0</i>
    <i type="int" name="ICHARG">     2</i>
    <i type="int" name="INIWAV">     1</i>
   </separator>
   <separator name="electronic spin" >
    <i type="int" name="ISPIN">     2</i>
    <i type="logical" name="LNONCOLLINEAR"> F  </i>
    <v name="MAGMOM">      6.00000000</v>
    <i name="NUPDOWN">     -1.00000000</i>
    <i type="logical" name="LSORBIT"> F  </i>
    <v name="SAXIS">      0.00000000      0.00000000      1.00000000</v>
    <i type="logical" name="LSPIRAL"> F  </i>
    <v name="QSPIRAL">      0.00000000      0.00000000      0.00000000</v>
    <i type="logical" name="LZEROZ"> F  </i>
   </separator>
   <separator name="electronic exchange-correlation" >
    <i type="logical" name="LASPH"> F  </i>
    <i type="logical" name="LMETAGGA"> F  </i>
   </separator>
   <separator name="electronic convergence" >
    <i type="int" name="NELM">    60</i>
    <i type="int" name="NELMDL">    -5</i>
    <i type="int" name="NELMIN">     2</i>
    <i name="ENINI">    200.00000000</i>
    <separator name="electronic convergence detail" >
     <i type="logical" name="LDIAG"> T  </i>
     <i type="logical" name="LSUBROT"> T  </i>
     <i name="WEIMIN">      0.00000000</i>
     <i name="EBREAK">      0.00000278</i>
     <i name="DEPER">      0.30000000</i>
     <i type="int" name="NRMM">     4</i>
     <i name="TIME">      0.40000000</i>
    </separator>
   </separator>
   <separator name="electronic mixer" >
    <i name="AMIX">      0.40000000</i>
    <i name="BMIX">      1.00000000</i>
    <i name="AMIN">      0.10000000</i>
    <i name="AMIX_MAG">      1.60000000</i>
    <i name="BMIX_MAG">      1.00000000</i>
    <separator name="electronic mixer details" >
     <i type="int" name="IMIX">     4</i>
     <i type="int" name="MAXMIX">   -45</i>
     <i name="WC">    100.00000000</i>
     <i type="int" name="INIMIX">     1</i>
     <i type="int" name="MIXPRE">     1</i>
     <i type="int" name="MREMOVE">     5</i>
    </separator>
   </separator>
   <separator name="electronic dipolcorrection" >
    <i type="logical" name="LDIPOL"> F  </i>
    <i type="logical" name="LMONO"> F  </i>
    <i type="int" name="IDIPOL">     0</i>
    <i name="EPSILON">      1.00000000</i>
    <v name="DIPOL">   -100.00000000   -100.00000000   -100.00000000</v>
    <i name="EFIELD">      0.00000000</i>
   </separator>
  </separator>
  <separator name="grids" >
   <i type="int" name="NGX">    14</i>
   <i type="int" name="NGY">    14</i>
   <i type="int" name="NGZ">    14</i>
   <i type="int" name="NGXF">    28</i>
   <i type="int" name="NGYF">    28</i>
   <i type="int" name="NGZF">    28</i>
   <i type="logical" name="ADDGRID"> F  </i>
  </separator>
  <separator name="ionic" >
   <i type="int" name="NSW">     0</i>
   <i type="int" name="IBRION">    -1</i>
   <i type="int" name="ISIF">     2</i>
   <i name="PSTRESS">      0.00000000</i>
   <i name="EDIFFG">      0.00100000</i>
   <i type="int" name="NFREE">     0</i>
   <i name="POTIM">      0.50000000</i>
   <i name="SMASS">     -3.00000000</i>
   <i name="SCALEE">      1.00000000</i>
  </separator>
  <separator name="ionic md" >
   <i name="TEBEG">      0.00010000</i>
   <i name="TEEND">      0.00010000</i>
   <i type="int" name="NBLOCK">     1</i>
   <i type="int" name="KBLOCK">     1</i>
   <i type="int" name="NPACO">   256</i>
   <i name="APACO">     16.00000000</i>
  </separator>
  <separator name="symmetry" >
   <i type="int" name="ISYM">     2</i>
   <i name="SYMPREC">      0.00001000</i>
  </separator>
  <separator name="dos" >
   <i type="logical" name="LORBIT"> F  </i>
   <v name="RWIGS">     -1.00000000</v>
   <i type="int" name="NEDOS">   301</i>
   <i name="EMIN">     10.00000000</i>
   <i name="EMAX">    -10.00000000</i>
   <i name="EFERMI">      0.00000000</i>
  </separator>
  <separator name="writing" >
   <i type="int" name="NWRITE">     2</i>
   <i type="logical" name="LWAVE"> T  </i>
   <i type="logical" name="LCHARG"> T  </i>
   <i type="logical" name="LPARD"> F  </i>
   <i type="logical" name="LVTOT"> F  </i>
   <i type="logical" name="LVHAR"> F  </i>
   <i type="logical" name="LELF"> F  </i>
   <i type="logical" name="LOPTICS"> F  </i>
   <v name="STM">      0.00000000      0.00000000      0.00000000      0.00000000      0.00000000      0.00000000      0.00000000</v>
  </separator>
  <separator name="performance" >
   <i type="int" name="NPAR">     1</i>
   <i type="int" name="NSIM">     4</i>
   <i type="int" name="NBLK">    -1</i>
   <i type="logical" name="LPLANE"> T  </i>
   <i type="logical" name="LSCALAPACK"> F  </i>
   <i type="logical" name="LSCAAWARE"> F  </i>
   <i type="logical" name="LSCALU"> F  </i>
   <i type="logical" name="LASYNC"> F  </i>
   <i type="logical" name="LORBITALREAL"> F  </i>
  </separator>
  <separator name="miscellaneous" >
   <i type="int" name="IDIOT">     3</i>
   <i type="logical" name="LMUSIC"> F  </i>
   <v name="POMASS">    180.94800000</v>
   <v name="DARWINR">      0.00000000</v>
   <v name="DARWINV">      1.00000000</v>
   <i type="logical" name="LCORR"> T  </i>
  </separator>
  <i type="logical" name="GGA_COMPAT"> T  </i>
  <i type="logical" name="LBERRY"> F  </i>
  <i type="int" name="ICORELEVEL">     0</i>
  <i type="logical" name="LDAU"> F  </i>
  <i type="int" name="I_CONSTRAINED_M">     0</i>
  <separator name="electronic exchange-correlation" >
   <i type="string" name="GGA">--</i>
   <i type="int" name="VOSKOWN">     0</i>
   <i type="logical" name="LHFCALC"> F  </i>
   <i type="string" name="PRECFOCK"></i>
   <i type="logical" name="LHFONE"> F  </i>
   <i type="logical" name="LRHFCALC"> F  </i>
   <i type="logical" name="LTHOMAS"> F  </i>
   <i type="logical" name="LMODELHF"> F  </i>
   <i name="ENCUT4O">     -1.00000000</i>
   <i type="int" name="EXXOEP">     0</i>
   <i type="int" name="FOURORBIT">     0</i>
   <i name="AEXX">      0.00000000</i>
   <i name="HFALPHA">      0.00000000</i>
   <i name="ALDAX">      1.00000000</i>
   <i name="AGGAX">      1.00000000</i>
   <i name="ALDAC">      1.00000000</i>
   <i name="AGGAC">      1.00000000</i>
   <i type="int" name="NKREDX">     1</i>
   <i type="int" name="NKREDY">     1</i>
   <i type="int" name="NKREDZ">     1</i>
   <i type="logical" name="SHIFTRED"> F  </i>
   <i type="logical" name="ODDONLY"> F  </i>
   <i type="logical" name="EVENONLY"> F  </i>
   <i type="int" name="LMAXFOCK">     0</i>
   <i type="int" name="NMAXFOCKAE">     0</i>
   <i type="logical" name="LFOCKAEDFT"> F  </i>
   <i name="HFSCREEN">      0.00000000</i>
   <i name="HFSCREENC">      0.00000000</i>
  </separator>
  <separator name="vdW DFT" >
   <i type="logical" name="LUSE_VDW"> F  </i>
   <i name="Zab_VDW">     -0.84910000</i>
   <i name="PARAM1">      0.12340000</i>
   <i name="PARAM2">      1.00000000</i>
   <i name="PARAM3">      0.00000000</i>
  </separator>
  <separator name="model GW" >
   <i type="int" name="MODEL_GW">     0</i>
   <i name="MODEL_EPS0">     10.48973490</i>
   <i name="MODEL_ALPHA">      1.00000000</i>
  </separator>
  <separator name="linear response parameters" >
   <i type="logical" name="LEPSILON"> F  </i>
   <i type="logical" name="LRPA"> F  </i>
   <i type="logical" name="LNABLA"> F  </i>
   <i type="logical" name="LVEL"> F  </i>
   <i type="int" name="KINTER">     0</i>
   <i name="CSHIFT">      0.10000000</i>
   <i name="OMEGAMAX">     -1.00000000</i>
  </separator>
  <separator name="orbital magnetization" >
   <i type="logical" name="NUCIND"> F  </i>
   <v name="MAGPOS">      0.00000000      0.00000000      0.00000000</v>
   <i type="logical" name="LNICSALL"> T  </i>
   <i type="logical" name="ORBITALMAG"> F  </i>
   <i type="logical" name="LMAGBLOCH"> F  </i>
   <i type="logical" name="LCHIMAG"> F  </i>
   <i type="logical" name="LGAUGE"> T  </i>
   <i type="int" name="MAGATOM">     0</i>
   <v name="MAGDIPOL">      0.00000000      0.00000000      0.00000000</v>
   <v name="AVECCONST">      0.00000000      0.00000000      0.00000000</v>
  </separator>
  <separator name="response functions" >
   <i type="logical" name="LADDER"> F  </i>
   <i type="logical" name="LHARTREE"> T  </i>
   <i type="int" name="IBSE">     0</i>
   <i type="logical" name="LTCTE"> F  </i>
   <i type="logical" name="LTETE"> F  </i>
   <i type="logical" name="LFXCEPS"> F  </i>
   <i type="logical" name="L2ORDER"> F  </i>
   <i type="logical" name="LUSEW"> F  </i>
   <i name="ENCUTGW">     -2.00000000</i>
   <i name="ENCUTGWSOFT">     -2.00000000</i>
   <i name="ENCUTLF">     -1.00000000</i>
   <i type="int" name="LMAXMP2">    -1</i>
   <i name="SCISSOR">      0.00000000</i>
   <i type="int" name="NOMEGA">     0</i>
   <i type="int" name="NOMEGAR">     0</i>
   <i type="int" name="NBANDSGW">    -1</i>
   <i type="int" name="NBANDSO">    -1</i>
   <i type="int" name="NBANDSV">    -1</i>
   <i name="OPTEMAX">      0.00000000</i>
   <i type="int" name="NELM">     1</i>
   <i type="int" name="DIM">     3</i>
   <i type="int" name="ANTIRES">     0</i>
   <i name="OMEGAMAX">    -30.00000000</i>
   <i name="OMEGATL">   -200.00000000</i>
   <i type="int" name="OMEGAGRID">     0</i>
   <i name="CSHIFT">     -0.10000000</i>
   <i type="logical" name="SELFENERGY"> F  </i>
   <i type="logical" name="LSPECTRAL"> F  </i>
   <i type="logical" name="ODDONLYGW"> F  </i>
   <i type="logical" name="EVENONLYGW"> F  </i>
   <i type="int" name="NKREDLFX">     1</i>
   <i type="int" name="NKREDLFY">     1</i>
   <i type="int" name="NKREDLFZ">     1</i>
   <i type="int" name="MAXMEM">  1800</i>
   <i type="int" name="TELESCOPE">     0</i>
  </separator>
 </parameters>
 <atominfo>
  <atoms>       1 </atoms>
  <types>       1 </types>
  <array name="atoms" >
   <dimension dim="1">ion</dimension>
   <field type="string">element</field>
   <field type="int">atomtype</field>
   <set>
    <rc><c>Ta</c><c>   1</c></rc>
   </set>
  </array>
  <array name="atomtypes" >
   <dimension dim="1">type</dimension>
   <field type="int">atomspertype</field>
   <field type="string">element</field>
   <field>mass</field>
   <field>valence</field>
   <field type="string">pseudopotential</field>
   <set>
    <rc><c>   1</c><c>Ta</c><c>    180.94800000</c><c>      5.00000000</c><c>  PAW_PBE Ta 17Jan2003                  </c></rc>
   </set>
  </array>
 </atominfo>
 <structure name="initialpos" >
  <crystal>
   <varray name="basis" >
    <v>      -1.63500000       1.63500000       1.63500000 </v>
    <v>       1.63500000      -1.63500000       1.63500000 </v>
    <v>       1.63500000       1.63500000      -1.63500000 </v>
   </varray>
   <i name="volume">     17.48289150 </i>
   <varray name="rec_basis" >
    <v>       0.00000000       0.30581040       0.30581040 </v>
    <v>       0.30581040       0.00000000       0.30581040 </v>
    <v>       0.30581040       0.30581040       0.00000000 </v>
   </varray>
  </crystal>
  <varray name="positions" >
   <v>       0.00000000       0.00000000       0.00000000 </v>
  </varray>
 </structure>
 <calculation>
  <scstep>
   <time name="dav">    0.31    0.31</time>
   <time name="total">    0.41    0.42</time>
   <energy>
    <i name="alphaZ">     31.71944984 </i>
    <i name="ewald">   -200.32181620 </i>
    <i name="hartreedc">     -2.29986085 </i>
    <i name="XCdc">    -60.68499672 </i>
    <i name="pawpsdc">    143.51874798 </i>
    <i name="pawaedc">    -69.33493833 </i>
    <i name="eentropy">     -0.00031978 </i>
    <i name="bandstr">     29.07290858 </i>
    <i name="atom">    130.57950032 </i>
    <i name="e_fr_energy">      2.24867484 </i>
    <i name="e_wo_entrp">      2.24899462 </i>
    <i name="e_0_energy">      2.24878143 </i>
   </energy>
  </scstep>
  <scstep>
   <time name="dav">    0.29    0.29</time>
   <time name="total">    0.29    0.31</time>
   <energy>
    <i name="e_fr_energy">     -1.46014034 </i>
    <i name="e_wo_entrp">     -1.45964227 </i>
    <i name="e_0_energy">     -1.45997431 </i>
   </energy>
  </scstep>
  <scstep>
   <time name="dav">    0.31    0.31</time>
   <time name="total">    0.31    1.25</time>
   <energy>
    <i name="e_fr_energy">     -1.49373204 </i>
    <i name="e_wo_entrp">     -1.49315937 </i>
    <i name="e_0_energy">     -1.49354115 </i>
   </energy>
  </scstep>
  <scstep>
   <time name="dav">    0.32    0.32</time>
   <time name="total">    0.32    0.33</time>
   <energy>
    <i name="e_fr_energy">     -1.49375870 </i>
    <i name="e_wo_entrp">     -1.49318603 </i>
    <i name="e_0_energy">     -1.49356781 </i>
   </energy>
  </scstep>
  <scstep>
   <time name="dav">    0.28    0.28</time>
   <time name="total">    0.31    0.33</time>
   <energy>
    <i name="e_fr_energy">     -1.49375872 </i>
    <i name="e_wo_entrp">     -1.49318604 </i>
    <i name="e_0_energy">     -1.49356783 </i>
   </energy>
  </scstep>
  <scstep>
   <time name="dav">    0.27    0.27</time>
   <time name="total">    0.39    0.40</time>
   <energy>
    <i name="e_fr_energy">    -11.80064285 </i>
    <i name="e_wo_entrp">    -11.80072960 </i>
    <i name="e_0_energy">    -11.80067177 </i>
   </energy>
  </scstep>
  <scstep>
   <time name="dav">    0.28    0.28</time>
   <time name="total">    0.40    0.41</time>
   <energy>
    <i name="e_fr_energy">    -11.89831813 </i>
    <i name="e_wo_entrp">    -11.89708697 </i>
    <i name="e_0_energy">    -11.89790774 </i>
   </energy>
  </scstep>
  <scstep>
   <time name="dav">    0.27    0.27</time>
   <time name="total">    0.39    0.42</time>
   <energy>
    <i name="e_fr_energy">    -11.78516174 </i>
    <i name="e_wo_entrp">    -11.78496310 </i>
    <i name="e_0_energy">    -11.78509552 </i>
   </energy>
  </scstep>
  <scstep>
   <time name="dav">    0.28    0.28</time>
   <time name="total">    0.40    0.41</time>
   <energy>
    <i name="e_fr_energy">    -11.87220486 </i>
    <i name="e_wo_entrp">    -11.87149947 </i>
    <i name="e_0_energy">    -11.87196973 </i>
   </energy>
  </scstep>
  <scstep>
   <time name="dav">    0.30    0.30</time>
   <time name="total">    0.42    0.44</time>
   <energy>
    <i name="e_fr_energy">    -11.86116294 </i>
    <i name="e_wo_entrp">    -11.86006269 </i>
    <i name="e_0_energy">    -11.86079619 </i>
   </energy>
  </scstep>
  <scstep>
   <time name="dav">    0.28    0.28</time>
   <time name="total">    0.40    0.41</time>
   <energy>
    <i name="e_fr_energy">    -11.87378011 </i>
    <i name="e_wo_entrp">    -11.87266727 </i>
    <i name="e_0_energy">    -11.87340916 </i>
   </energy>
  </scstep>
  <scstep>
   <time name="dav">    0.27    0.27</time>
   <time name="total">    0.39    0.40</time>
   <energy>
    <i name="e_fr_energy">    -11.87568538 </i>
    <i name="e_wo_entrp">    -11.87523448 </i>
    <i name="e_0_energy">    -11.87553508 </i>
   </energy>
  </scstep>
  <scstep>
   <time name="dav">    0.19    0.19</time>
   <time name="total">    0.31    0.33</time>
   <energy>
    <i name="e_fr_energy">    -11.87606328 </i>
    <i name="e_wo_entrp">    -11.87515000 </i>
    <i name="e_0_energy">    -11.87575885 </i>
   </energy>
  </scstep>
  <scstep>
   <time name="dav">    0.17    0.17</time>
   <time name="total">    0.29    0.33</time>
   <energy>
    <i name="e_fr_energy">    -11.87593834 </i>
    <i name="e_wo_entrp">    -11.87529980 </i>
    <i name="e_0_energy">    -11.87572550 </i>
   </energy>
  </scstep>
  <scstep>
   <time name="dav">    0.17    0.17</time>
   <time name="total">    0.26    0.27</time>
   <energy>
    <i name="alphaZ">     31.71944984 </i>
    <i name="ewald">   -200.32181620 </i>
    <i name="hartreedc">     -0.55399051 </i>
    <i name="XCdc">    -65.93302127 </i>
    <i name="pawpsdc">    200.73636974 </i>
    <i name="pawaedc">   -127.34751215 </i>
    <i name="eentropy">     -0.00079133 </i>
    <i name="bandstr">     19.24578866 </i>
    <i name="atom">    130.57950032 </i>
    <i name="e_fr_energy">    -11.87602290 </i>
    <i name="e_wo_entrp">    -11.87523156 </i>
    <i name="e_0_energy">    -11.87575912 </i>
   </energy>
  </scstep>
  <parameters_embedded>
   <separator name="dft+d2" >
    <i type="logical" name="LVDW"> F  </i>
   </separator>
  </parameters_embedded>
  <structure>
   <crystal>
    <varray name="basis" >
     <v>      -1.63500000       1.63500000       1.63500000 </v>
     <v>       1.63500000      -1.63500000       1.63500000 </v>
     <v>       1.63500000       1.63500000      -1.63500000 </v>
    </varray>
    <i name="volume">     17.48289150 </i>
    <varray name="rec_basis" >
     <v>       0.00000000       0.30581040       0.30581040 </v>
     <v>       0.30581040       0.00000000       0.30581040 </v>
     <v>       0.30581040       0.30581040       0.00000000 </v>
    </varray>
   </crystal>
   <varray name="positions" >
    <v>       0.00000000       0.00000000       0.00000000 </v>
   </varray>
  </structure>
  <varray name="forces" >
   <v>       0.00000000       0.00000000       0.00000000 </v>
  </varray>
  <varray name="stress" >
   <v>      16.85915712       0.00000000       0.00000000 </v>
   <v>       0.00000000      16.85915712       0.00000000 </v>
   <v>       0.00000000       0.00000000      16.85915712 </v>
  </varray>
  <energy>
   <i name="e_fr_energy">    -11.87602290 </i>
   <i name="e_wo_entrp">    -11.87575912 </i>
   <i name="e_0_energy">     -0.00079133 </i>
  </energy>
  <time name="totalsc">    5.81    7.11</time>
  <eigenvalues>
   <array>
    <dimension dim="1">band</dimension>
    <dimension dim="2">kpoint</dimension>
    <dimension dim="3">spin</dimension>
    <field>eigene</field>
    <field>occ</field>
    <set>
     <set comment="spin 1">
      <set comment="kpoint 1">
       <r>   -0.3432    1.0000 </r>
       <r>    5.7412    1.0000 </r>
       <r>    5.7412    1.0000 </r>
       <r>    8.9523    0.0000 </r>
       <r>    9.8663    0.0000 </r>
       <r>    9.8663    0.0000 </r>
       <r>   20.4058    0.0000 </r>
       <r>   22.2603    0.0000 </r>
       <r>   23.5481    0.0000 </r>
      </set>
      <set comment="kpoint 2">
       <r>    1.7988    1.0000 </r>
       <r>    4.6800    1.0000 </r>
       <r>    5.3375    1.0000 </r>
       <r>   10.0763    0.0000 </r>
       <r>   10.7175    0.0000 </r>
       <r>   12.5283    0.0000 </r>
       <r>   20.2876    0.0000 </r>
       <r>   20.5267    0.0000 </r>
       <r>   20.5441    0.0000 </r>
      </set>
      <set comment="kpoint 3">
       <r>    2.1183    1.0000 </r>
       <r>    4.2972    1.0000 </r>
       <r>    6.9743    0.0000 </r>
       <r>   10.2984    0.0000 </r>
       <r>   11.1584    0.0000 </r>
       <r>   15.1192    0.0000 </r>
       <r>   16.9725    0.0000 </r>
       <r>   18.7756    0.0000 </r>
       <r>   20.4159    0.0000 </r>
      </set>
      <set comment="kpoint 4">
       <r>   -1.4390    1.0000 </r>
       <r>    6.6755    0.0000 </r>
       <r>    6.6755    0.0000 </r>
       <r>    7.0630    0.0000 </r>
       <r>    9.1092    0.0000 </r>
       <r>   10.5047    0.0000 </r>
       <r>   20.4078    0.0000 </r>
       <r>   22.2024    0.0000 </r>
       <r>   22.2024    0.0000 </r>
      </set>
      <set comment="kpoint 5">
       <r>    3.3754    1.0000 </r>
       <r>    4.5566    1.0000 </r>
       <r>    5.2459    1.0000 </r>
       <r>   10.6077    0.0000 </r>
       <r>   11.1091    0.0000 </r>
       <r>   15.7510    0.0000 </r>
       <r>   16.3916    0.0000 </r>
       <r>   20.1957    0.0000 </r>
       <r>   20.4134    0.0000 </r>
      </set>
      <set comment="kpoint 6">
       <r>    0.5509    1.0000 </r>
       <r>    5.6797    1.0000 </r>
       <r>    5.8491    1.0216 </r>
       <r>    8.5369    0.0000 </r>
       <r>    9.3264    0.0000 </r>
       <r>   10.9747    0.0000 </r>
       <r>   20.4025    0.0000 </r>
       <r>   21.3525    0.0000 </r>
       <r>   23.5890    0.0000 </r>
      </set>
      <set comment="kpoint 7">
       <r>    1.7440    1.0000 </r>
       <r>    4.8106    1.0000 </r>
       <r>    6.3491    0.0000 </r>
       <r>    9.4360    0.0000 </r>
       <r>   11.4917    0.0000 </r>
       <r>   13.0896    0.0000 </r>
       <r>   18.6671    0.0000 </r>
       <r>   19.9438    0.0000 </r>
       <r>   20.4278    0.0000 </r>
      </set>
      <set comment="kpoint 8">
       <r>    2.4564    1.0000 </r>
       <r>    4.5837    1.0000 </r>
       <r>    5.8401    1.0140 </r>
       <r>    8.6546    0.0000 </r>
       <r>   10.9083    0.0000 </r>
       <r>   12.6427    0.0000 </r>
       <r>   19.3128    0.0000 </r>
       <r>   20.4199    0.0000 </r>
       <r>   23.2207    0.0000 </r>
      </set>
      <set comment="kpoint 9">
       <r>    2.9836    1.0000 </r>
       <r>    4.8707    1.0000 </r>
       <r>    5.2857    1.0000 </r>
       <r>    9.2536    0.0000 </r>
       <r>   11.6305    0.0000 </r>
       <r>   16.0417    0.0000 </r>
       <r>   16.5489    0.0000 </r>
       <r>   20.4123    0.0000 </r>
       <r>   20.4588    0.0000 </r>
      </set>
      <set comment="kpoint 10">
       <r>    4.7375    1.0000 </r>
       <r>    4.7375    1.0000 </r>
       <r>    4.7375    1.0000 </r>
       <r>   11.3251    0.0000 </r>
       <r>   11.3251    0.0000 </r>
       <r>   13.4024    0.0000 </r>
       <r>   19.2518    0.0000 </r>
       <r>   19.2518    0.0000 </r>
       <r>   19.2518    0.0000 </r>
      </set>
      <set comment="kpoint 11">
       <r>    2.2217    1.0000 </r>
       <r>    4.9567    1.0000 </r>
       <r>    7.2944    0.0000 </r>
       <r>    7.2944    0.0000 </r>
       <r>    9.3031    0.0000 </r>
       <r>   11.2452    0.0000 </r>
       <r>   20.4001    0.0000 </r>
       <r>   20.9175    0.0000 </r>
       <r>   25.9137    0.0000 </r>
      </set>
      <set comment="kpoint 12">
       <r>    3.0426    1.0000 </r>
       <r>    3.9026    1.0000 </r>
       <r>    7.2215    0.0000 </r>
       <r>    7.9355    0.0000 </r>
       <r>   12.5465    0.0000 </r>
       <r>   12.6349    0.0000 </r>
       <r>   19.2301    0.0000 </r>
       <r>   20.4212    0.0000 </r>
       <r>   21.5864    0.0000 </r>
      </set>
      <set comment="kpoint 13">
       <r>    3.1631    1.0000 </r>
       <r>    3.1631    1.0000 </r>
       <r>    6.7874    0.0000 </r>
       <r>   11.1798    0.0000 </r>
       <r>   11.1798    0.0000 </r>
       <r>   16.3645    0.0000 </r>
       <r>   17.4909    0.0000 </r>
       <r>   17.4909    0.0000 </r>
       <r>   20.4157    0.0000 </r>
      </set>
      <set comment="kpoint 14">
       <r>    2.3403    1.0000 </r>
       <r>    2.4642    1.0000 </r>
       <r>   10.8224    0.0000 </r>
       <r>   10.8224    0.0000 </r>
       <r>   12.4392    0.0000 </r>
       <r>   13.2107    0.0000 </r>
       <r>   17.8059    0.0000 </r>
       <r>   17.8060    0.0000 </r>
       <r>   20.4084    0.0000 </r>
      </set>
     </set>
     <set comment="spin 2">
      <set comment="kpoint 1">
       <r>   -0.2399    1.0000 </r>
       <r>    5.8445    1.0175 </r>
       <r>    5.8445    1.0175 </r>
       <r>    9.0529    0.0000 </r>
       <r>    9.9322    0.0000 </r>
       <r>    9.9322    0.0000 </r>
       <r>   20.4542    0.0000 </r>
       <r>   22.3710    0.0000 </r>
       <r>   23.6416    0.0000 </r>
      </set>
      <set comment="kpoint 2">
       <r>    1.9013    1.0000 </r>
       <r>    4.7851    1.0000 </r>
       <r>    5.4349    1.0000 </r>
       <r>   10.1494    0.0000 </r>
       <r>   10.7815    0.0000 </r>
       <r>   12.6204    0.0000 </r>
       <r>   20.3525    0.0000 </r>
       <r>   20.6171    0.0000 </r>
       <r>   20.6180    0.0000 </r>
      </set>
      <set comment="kpoint 3">
       <r>    2.2188    1.0000 </r>
       <r>    4.4032    1.0000 </r>
       <r>    7.0716    0.0000 </r>
       <r>   10.3713    0.0000 </r>
       <r>   11.2206    0.0000 </r>
       <r>   15.1996    0.0000 </r>
       <r>   17.0685    0.0000 </r>
       <r>   18.8672    0.0000 </r>
       <r>   20.4647    0.0000 </r>
      </set>
      <set comment="kpoint 4">
       <r>   -1.3353    1.0000 </r>
       <r>    6.7803    0.0000 </r>
       <r>    6.7803    0.0000 </r>
       <r>    7.1674    0.0000 </r>
       <r>    9.1742    0.0000 </r>
       <r>   10.5639    0.0000 </r>
       <r>   20.4562    0.0000 </r>
       <r>   22.3121    0.0000 </r>
       <r>   22.3594    0.0000 </r>
      </set>
      <set comment="kpoint 5">
       <r>    3.4797    1.0000 </r>
       <r>    4.6542    1.0000 </r>
       <r>    5.3462    1.0000 </r>
       <r>   10.6785    0.0000 </r>
       <r>   11.1744    0.0000 </r>
       <r>   15.8580    0.0000 </r>
       <r>   16.4715    0.0000 </r>
       <r>   20.2740    0.0000 </r>
       <r>   20.4621    0.0000 </r>
      </set>
      <set comment="kpoint 6">
       <r>    0.6533    1.0000 </r>
       <r>    5.7852    1.0002 </r>
       <r>    5.9423    0.3103 </r>
       <r>    8.6177    0.0000 </r>
       <r>    9.4260    0.0000 </r>
       <r>   11.0365    0.0000 </r>
       <r>   20.4510    0.0000 </r>
       <r>   21.4449    0.0000 </r>
       <r>   23.6767    0.0000 </r>
      </set>
      <set comment="kpoint 7">
       <r>    1.8436    1.0000 </r>
       <r>    4.9167    1.0000 </r>
       <r>    6.4382    0.0000 </r>
       <r>    9.5175    0.0000 </r>
       <r>   11.5612    0.0000 </r>
       <r>   13.1769    0.0000 </r>
       <r>   18.7515    0.0000 </r>
       <r>   20.0309    0.0000 </r>
       <r>   20.4778    0.0000 </r>
      </set>
      <set comment="kpoint 8">
       <r>    2.5568    1.0000 </r>
       <r>    4.6718    1.0000 </r>
       <r>    5.9423    0.3090 </r>
       <r>    8.7432    0.0000 </r>
       <r>   10.9848    0.0000 </r>
       <r>   12.7292    0.0000 </r>
       <r>   19.3982    0.0000 </r>
       <r>   20.4690    0.0000 </r>
       <r>   23.3006    0.0000 </r>
      </set>
      <set comment="kpoint 9">
       <r>    3.0807    1.0000 </r>
       <r>    4.9706    1.0000 </r>
       <r>    5.3718    1.0000 </r>
       <r>    9.3402    0.0000 </r>
       <r>   11.7132    0.0000 </r>
       <r>   16.1225    0.0000 </r>
       <r>   16.6445    0.0000 </r>
       <r>   20.4626    0.0000 </r>
       <r>   20.5420    0.0000 </r>
      </set>
      <set comment="kpoint 10">
       <r>    4.8394    1.0000 </r>
       <r>    4.8394    1.0000 </r>
       <r>    4.8394    1.0000 </r>
       <r>   11.3864    0.0000 </r>
       <r>   11.3864    0.0000 </r>
       <r>   13.5173    0.0000 </r>
       <r>   19.3299    0.0000 </r>
       <r>   19.3299    0.0000 </r>
       <r>   19.3299    0.0000 </r>
      </set>
      <set comment="kpoint 11">
       <r>    2.3184    1.0000 </r>
       <r>    5.0334    1.0000 </r>
       <r>    7.3974    0.0000 </r>
       <r>    7.3974    0.0000 </r>
       <r>    9.4023    0.0000 </r>
       <r>   11.3185    0.0000 </r>
       <r>   20.4488    0.0000 </r>
       <r>   20.9978    0.0000 </r>
       <r>   26.0072    0.0000 </r>
      </set>
      <set comment="kpoint 12">
       <r>    3.1294    1.0000 </r>
       <r>    3.9846    1.0000 </r>
       <r>    7.3244    0.0000 </r>
       <r>    8.0320    0.0000 </r>
       <r>   12.6353    0.0000 </r>
       <r>   12.7285    0.0000 </r>
       <r>   19.3146    0.0000 </r>
       <r>   20.4703    0.0000 </r>
       <r>   21.6924    0.0000 </r>
      </set>
      <set comment="kpoint 13">
       <r>    3.2443    1.0000 </r>
       <r>    3.2443    1.0000 </r>
       <r>    6.8915    0.0000 </r>
       <r>   11.2743    0.0000 </r>
       <r>   11.2744    0.0000 </r>
       <r>   16.4609    0.0000 </r>
       <r>   17.5859    0.0000 </r>
       <r>   17.5860    0.0000 </r>
       <r>   20.4642    0.0000 </r>
      </set>
      <set comment="kpoint 14">
       <r>    2.4206    1.0000 </r>
       <r>    2.5454    1.0000 </r>
       <r>   10.9197    0.0000 </r>
       <r>   10.9197    0.0000 </r>
       <r>   12.5266    0.0000 </r>
       <r>   13.3183    0.0000 </r>
       <r>   17.9076    0.0000 </r>
       <r>   17.9076    0.0000 </r>
       <r>   20.4567    0.0000 </r>
      </set>
     </set>
    </set>
   </array>
  </eigenvalues>
  <separator name="orbital magnetization" >
   <v name="MAGDIPOLOUT">      0.00000000      0.00000000      0.00000000</v>
  </separator>
  <dos>
   <i name="efermi">      5.93070652 </i>
   <total>
    <array>
     <dimension dim="1">gridpoints</dimension>
     <dimension dim="2">spin</dimension>
     <field>energy</field>
     <field>total</field>
     <field>integrated</field>
     <set>
      <set comment="spin 1">
       <r>    -2.8113     0.0000     0.0000 </r>
       <r>    -2.7107     0.0000     0.0000 </r>
       <r>    -2.6100     0.0000     0.0000 </r>
       <r>    -2.5094     0.0000     0.0000 </r>
       <r>    -2.4087     0.0000     0.0000 </r>
       <r>    -2.3081     0.0000     0.0000 </r>
       <r>    -2.2075     0.0000     0.0000 </r>
       <r>    -2.1068     0.0000     0.0000 </r>
       <r>    -2.0062     0.0000     0.0000 </r>
       <r>    -1.9056     0.0000     0.0000 </r>
       <r>    -1.8049     0.0000     0.0000 </r>
       <r>    -1.7043     0.0000     0.0000 </r>
       <r>    -1.6037     0.0000     0.0000 </r>
       <r>    -1.5030    -0.0097    -0.0010 </r>
       <r>    -1.4024     0.2775     0.0270 </r>
       <r>    -1.3018     0.0082     0.0278 </r>
       <r>    -1.2011    -0.0001     0.0278 </r>
       <r>    -1.1005     0.0000     0.0278 </r>
       <r>    -0.9998     0.0000     0.0278 </r>
       <r>    -0.8992     0.0000     0.0278 </r>
       <r>    -0.7986     0.0000     0.0278 </r>
       <r>    -0.6979     0.0000     0.0278 </r>
       <r>    -0.5973     0.0000     0.0278 </r>
       <r>    -0.4967     0.0000     0.0278 </r>
       <r>    -0.3960    -0.0110     0.0267 </r>
       <r>    -0.2954     0.3864     0.0656 </r>
       <r>    -0.1948    -0.0073     0.0648 </r>
       <r>    -0.0941     0.0000     0.0648 </r>
       <r>     0.0065     0.0000     0.0648 </r>
       <r>     0.1071     0.0000     0.0648 </r>
       <r>     0.2078     0.0000     0.0648 </r>
       <r>     0.3084     0.0000     0.0648 </r>
       <r>     0.4091    -0.0002     0.0648 </r>
       <r>     0.5097     0.0048     0.0653 </r>
       <r>     0.6103     1.1385     0.1798 </r>
       <r>     0.7110    -0.0389     0.1759 </r>
       <r>     0.8116     0.0000     0.1759 </r>
       <r>     0.9122     0.0000     0.1759 </r>
       <r>     1.0129     0.0000     0.1759 </r>
       <r>     1.1135     0.0000     0.1759 </r>
       <r>     1.2141     0.0000     0.1759 </r>
       <r>     1.3148     0.0000     0.1759 </r>
       <r>     1.4154     0.0000     0.1759 </r>
       <r>     1.5161     0.0000     0.1759 </r>
       <r>     1.6167    -0.0010     0.1758 </r>
       <r>     1.7173     0.1009     0.1860 </r>
       <r>     1.8180     1.9179     0.3790 </r>
       <r>     1.9186     0.1925     0.3984 </r>
       <r>     2.0192    -0.0067     0.3977 </r>
       <r>     2.1199     0.2933     0.4272 </r>
       <r>     2.2205     0.3994     0.4674 </r>
       <r>     2.3211     0.1973     0.4872 </r>
       <r>     2.4218     0.2713     0.5145 </r>
       <r>     2.5224     1.3750     0.6529 </r>
       <r>     2.6230    -0.0474     0.6482 </r>
       <r>     2.7237     0.0000     0.6481 </r>
       <r>     2.8243     0.0000     0.6481 </r>
       <r>     2.9250    -0.0410     0.6440 </r>
       <r>     3.0256     1.3980     0.7847 </r>
       <r>     3.1262     0.8937     0.8746 </r>
       <r>     3.2269     0.7193     0.9470 </r>
       <r>     3.3275    -0.0480     0.9422 </r>
       <r>     3.4281     1.1594     1.0589 </r>
       <r>     3.5288    -0.0330     1.0556 </r>
       <r>     3.6294    -0.0001     1.0556 </r>
       <r>     3.7300     0.0000     1.0556 </r>
       <r>     3.8307    -0.0335     1.0522 </r>
       <r>     3.9313     1.0363     1.1565 </r>
       <r>     4.0320     0.1021     1.1668 </r>
       <r>     4.1326    -0.0009     1.1667 </r>
       <r>     4.2332    -0.0193     1.1647 </r>
       <r>     4.3339     0.5552     1.2206 </r>
       <r>     4.4345     0.0146     1.2221 </r>
       <r>     4.5351     0.1664     1.2388 </r>
       <r>     4.6358     2.0899     1.4491 </r>
       <r>     4.7364     1.1961     1.5695 </r>
       <r>     4.8370     1.1726     1.6875 </r>
       <r>     4.9377     1.2674     1.8150 </r>
       <r>     5.0383     0.1876     1.8339 </r>
       <r>     5.1389    -0.0116     1.8328 </r>
       <r>     5.2396     0.4149     1.8745 </r>
       <r>     5.3402     2.4497     2.1210 </r>
       <r>     5.4409     0.4604     2.1674 </r>
       <r>     5.5415    -0.0075     2.1666 </r>
       <r>     5.6421     0.0201     2.1687 </r>
       <r>     5.7428     1.4940     2.3190 </r>
       <r>     5.8434     1.3912     2.4590 </r>
       <r>     5.9440     1.1622     2.5760 </r>
       <r>     6.0447    -0.0189     2.5741 </r>
       <r>     6.1453     0.0000     2.5741 </r>
       <r>     6.2459    -0.0072     2.5734 </r>
       <r>     6.3466     0.5120     2.6249 </r>
       <r>     6.4472     0.6092     2.6862 </r>
       <r>     6.5478    -0.0105     2.6851 </r>
       <r>     6.6485     0.0606     2.6912 </r>
       <r>     6.7491     0.5150     2.7431 </r>
       <r>     6.8498     0.3574     2.7790 </r>
       <r>     6.9504     0.0651     2.7856 </r>
       <r>     7.0510     0.5727     2.8432 </r>
       <r>     7.1517     0.1469     2.8580 </r>
       <r>     7.2523     1.0541     2.9641 </r>
       <r>     7.3529     0.6530     3.0298 </r>
       <r>     7.4536    -0.0200     3.0278 </r>
       <r>     7.5542     0.0000     3.0278 </r>
       <r>     7.6548     0.0000     3.0278 </r>
       <r>     7.7555     0.0000     3.0278 </r>
       <r>     7.8561    -0.0261     3.0252 </r>
       <r>     7.9568     0.9384     3.1196 </r>
       <r>     8.0574     0.1935     3.1391 </r>
       <r>     8.1580    -0.0017     3.1389 </r>
       <r>     8.2587     0.0000     3.1389 </r>
       <r>     8.3593     0.0000     3.1389 </r>
       <r>     8.4599    -0.0286     3.1360 </r>
       <r>     8.5606     0.9601     3.2326 </r>
       <r>     8.6612     0.8483     3.3180 </r>
       <r>     8.7618     0.4337     3.3617 </r>
       <r>     8.8625    -0.0107     3.3606 </r>
       <r>     8.9631     0.2551     3.3862 </r>
       <r>     9.0637     0.1161     3.3979 </r>
       <r>     9.1644     0.2706     3.4252 </r>
       <r>     9.2650     0.7335     3.4990 </r>
       <r>     9.3657     1.7220     3.6723 </r>
       <r>     9.4663     1.0549     3.7784 </r>
       <r>     9.5669     0.0862     3.7871 </r>
       <r>     9.6676    -0.0007     3.7870 </r>
       <r>     9.7682    -0.0067     3.7864 </r>
       <r>     9.8688     0.4066     3.8273 </r>
       <r>     9.9695     0.3354     3.8610 </r>
       <r>    10.0701     0.4377     3.9051 </r>
       <r>    10.1707     0.6791     3.9734 </r>
       <r>    10.2714     0.0479     3.9782 </r>
       <r>    10.3720     0.5080     4.0294 </r>
       <r>    10.4727     0.0009     4.0295 </r>
       <r>    10.5733     0.3169     4.0613 </r>
       <r>    10.6739     1.0772     4.1698 </r>
       <r>    10.7746     1.0995     4.2804 </r>
       <r>    10.8752     0.5930     4.3401 </r>
       <r>    10.9758     1.6463     4.5058 </r>
       <r>    11.0765     0.5503     4.5611 </r>
       <r>    11.1771     1.8476     4.7471 </r>
       <r>    11.2777     0.7533     4.8229 </r>
       <r>    11.3784     0.1982     4.8428 </r>
       <r>    11.4790     0.3214     4.8752 </r>
       <r>    11.5796     0.7685     4.9525 </r>
       <r>    11.6803     1.1432     5.0676 </r>
       <r>    11.7809    -0.0271     5.0648 </r>
       <r>    11.8816    -0.0001     5.0648 </r>
       <r>    11.9822     0.0000     5.0648 </r>
       <r>    12.0828     0.0000     5.0648 </r>
       <r>    12.1835     0.0000     5.0648 </r>
       <r>    12.2841     0.0000     5.0648 </r>
       <r>    12.3847    -0.0091     5.0639 </r>
       <r>    12.4854     0.2460     5.0887 </r>
       <r>    12.5860     2.2089     5.3110 </r>
       <r>    12.6866     2.2867     5.5411 </r>
       <r>    12.7873    -0.0399     5.5371 </r>
       <r>    12.8879    -0.0003     5.5370 </r>
       <r>    12.9885    -0.0082     5.5362 </r>
       <r>    13.0892     0.5513     5.5917 </r>
       <r>    13.1898     0.6191     5.6540 </r>
       <r>    13.2905     0.2241     5.6765 </r>
       <r>    13.3911     0.0228     5.6788 </r>
       <r>    13.4917     0.0644     5.6853 </r>
       <r>    13.5924    -0.0014     5.6852 </r>
       <r>    13.6930     0.0000     5.6852 </r>
       <r>    13.7936     0.0000     5.6852 </r>
       <r>    13.8943     0.0000     5.6852 </r>
       <r>    13.9949     0.0000     5.6852 </r>
       <r>    14.0955     0.0000     5.6852 </r>
       <r>    14.1962     0.0000     5.6852 </r>
       <r>    14.2968     0.0000     5.6852 </r>
       <r>    14.3975     0.0000     5.6852 </r>
       <r>    14.4981     0.0000     5.6852 </r>
       <r>    14.5987     0.0000     5.6852 </r>
       <r>    14.6994     0.0000     5.6852 </r>
       <r>    14.8000     0.0000     5.6852 </r>
       <r>    14.9006     0.0000     5.6852 </r>
       <r>    15.0013    -0.0012     5.6851 </r>
       <r>    15.1019     0.1261     5.6978 </r>
       <r>    15.2025     0.4382     5.7419 </r>
       <r>    15.3032    -0.0110     5.7407 </r>
       <r>    15.4038     0.0000     5.7407 </r>
       <r>    15.5044     0.0000     5.7407 </r>
       <r>    15.6051    -0.0002     5.7407 </r>
       <r>    15.7057    -0.0136     5.7394 </r>
       <r>    15.8064     1.1542     5.8555 </r>
       <r>    15.9070    -0.0368     5.8518 </r>
       <r>    16.0076     0.0524     5.8571 </r>
       <r>    16.1083     1.0896     5.9667 </r>
       <r>    16.2089    -0.0375     5.9630 </r>
       <r>    16.3095    -0.0354     5.9594 </r>
       <r>    16.4102     1.2818     6.0884 </r>
       <r>    16.5108     0.2506     6.1136 </r>
       <r>    16.6114     1.1182     6.2262 </r>
       <r>    16.7121    -0.0390     6.2222 </r>
       <r>    16.8127     0.0000     6.2222 </r>
       <r>    16.9134    -0.0194     6.2203 </r>
       <r>    17.0140     0.5699     6.2776 </r>
       <r>    17.1146     0.0017     6.2778 </r>
       <r>    17.2153    -0.0001     6.2778 </r>
       <r>    17.3159     0.0000     6.2778 </r>
       <r>    17.4165    -0.0208     6.2757 </r>
       <r>    17.5172     0.6715     6.3433 </r>
       <r>    17.6178     0.0861     6.3519 </r>
       <r>    17.7184    -0.0098     6.3509 </r>
       <r>    17.8191     0.4031     6.3915 </r>
       <r>    17.9197     0.1597     6.4076 </r>
       <r>    18.0203    -0.0016     6.4074 </r>
       <r>    18.1210     0.0000     6.4074 </r>
       <r>    18.2216     0.0000     6.4074 </r>
       <r>    18.3223     0.0000     6.4074 </r>
       <r>    18.4229     0.0000     6.4074 </r>
       <r>    18.5235    -0.0002     6.4074 </r>
       <r>    18.6242    -0.0040     6.4070 </r>
       <r>    18.7248     1.1318     6.5209 </r>
       <r>    18.8254     0.5423     6.5755 </r>
       <r>    18.9261    -0.0137     6.5741 </r>
       <r>    19.0267     0.0000     6.5741 </r>
       <r>    19.1273    -0.0077     6.5733 </r>
       <r>    19.2280     0.5392     6.6276 </r>
       <r>    19.3286     1.6978     6.7984 </r>
       <r>    19.4292     0.2576     6.8243 </r>
       <r>    19.5299    -0.0026     6.8241 </r>
       <r>    19.6305     0.0000     6.8241 </r>
       <r>    19.7312     0.0000     6.8241 </r>
       <r>    19.8318    -0.0038     6.8237 </r>
       <r>    19.9324     0.3488     6.8588 </r>
       <r>    20.0331     0.7757     6.9369 </r>
       <r>    20.1337    -0.0557     6.9312 </r>
       <r>    20.2343     1.0902     7.0410 </r>
       <r>    20.3350     0.9735     7.1389 </r>
       <r>    20.4356     7.4152     7.8852 </r>
       <r>    20.5362     3.7933     8.2669 </r>
       <r>    20.6369     1.0461     8.3722 </r>
       <r>    20.7375    -0.0180     8.3704 </r>
       <r>    20.8382    -0.0065     8.3697 </r>
       <r>    20.9388     0.2346     8.3933 </r>
       <r>    21.0394     0.0483     8.3982 </r>
       <r>    21.1401    -0.0004     8.3981 </r>
       <r>    21.2407    -0.0038     8.3978 </r>
       <r>    21.3413     0.3526     8.4332 </r>
       <r>    21.4420     0.7716     8.5109 </r>
       <r>    21.5426    -0.0238     8.5085 </r>
       <r>    21.6432     1.1494     8.6242 </r>
       <r>    21.7439    -0.0377     8.6204 </r>
       <r>    21.8445     0.0000     8.6204 </r>
       <r>    21.9451     0.0000     8.6204 </r>
       <r>    22.0458     0.0000     8.6204 </r>
       <r>    22.1464    -0.0196     8.6184 </r>
       <r>    22.2471     0.6816     8.6870 </r>
       <r>    22.3477     0.2643     8.7136 </r>
       <r>    22.4483    -0.0062     8.7130 </r>
       <r>    22.5490     0.0000     8.7130 </r>
       <r>    22.6496     0.0000     8.7130 </r>
       <r>    22.7502     0.0000     8.7130 </r>
       <r>    22.8509     0.0000     8.7130 </r>
       <r>    22.9515     0.0000     8.7130 </r>
       <r>    23.0521     0.0000     8.7130 </r>
       <r>    23.1528    -0.0366     8.7093 </r>
       <r>    23.2534     1.0777     8.8177 </r>
       <r>    23.3541     0.0636     8.8241 </r>
       <r>    23.4547    -0.0055     8.8236 </r>
       <r>    23.5553     0.2884     8.8526 </r>
       <r>    23.6560     1.2276     8.9761 </r>
       <r>    23.7566    -0.0390     8.9722 </r>
       <r>    23.8572     0.0000     8.9722 </r>
       <r>    23.9579     0.0000     8.9722 </r>
       <r>    24.0585     0.0000     8.9722 </r>
       <r>    24.1591     0.0000     8.9722 </r>
       <r>    24.2598     0.0000     8.9722 </r>
       <r>    24.3604     0.0000     8.9722 </r>
       <r>    24.4610     0.0000     8.9722 </r>
       <r>    24.5617     0.0000     8.9722 </r>
       <r>    24.6623     0.0000     8.9722 </r>
       <r>    24.7630     0.0000     8.9722 </r>
       <r>    24.8636     0.0000     8.9722 </r>
       <r>    24.9642     0.0000     8.9722 </r>
       <r>    25.0649     0.0000     8.9722 </r>
       <r>    25.1655     0.0000     8.9722 </r>
       <r>    25.2661     0.0000     8.9722 </r>
       <r>    25.3668     0.0000     8.9722 </r>
       <r>    25.4674     0.0000     8.9722 </r>
       <r>    25.5680     0.0000     8.9722 </r>
       <r>    25.6687     0.0000     8.9722 </r>
       <r>    25.7693     0.0000     8.9722 </r>
       <r>    25.8699    -0.0019     8.9720 </r>
       <r>    25.9706     0.2874     9.0009 </r>
       <r>    26.0712    -0.0094     9.0000 </r>
       <r>    26.1719     0.0000     9.0000 </r>
       <r>    26.2725     0.0000     9.0000 </r>
       <r>    26.3731     0.0000     9.0000 </r>
       <r>    26.4738     0.0000     9.0000 </r>
       <r>    26.5744     0.0000     9.0000 </r>
       <r>    26.6750     0.0000     9.0000 </r>
       <r>    26.7757     0.0000     9.0000 </r>
       <r>    26.8763     0.0000     9.0000 </r>
       <r>    26.9769     0.0000     9.0000 </r>
       <r>    27.0776     0.0000     9.0000 </r>
       <r>    27.1782     0.0000     9.0000 </r>
       <r>    27.2789     0.0000     9.0000 </r>
       <r>    27.3795     0.0000     9.0000 </r>
      </set>
      <set comment="spin 2">
       <r>    -2.8113     0.0000     0.0000 </r>
       <r>    -2.7107     0.0000     0.0000 </r>
       <r>    -2.6100     0.0000     0.0000 </r>
       <r>    -2.5094     0.0000     0.0000 </r>
       <r>    -2.4087     0.0000     0.0000 </r>
       <r>    -2.3081     0.0000     0.0000 </r>
       <r>    -2.2075     0.0000     0.0000 </r>
       <r>    -2.1068     0.0000     0.0000 </r>
       <r>    -2.0062     0.0000     0.0000 </r>
       <r>    -1.9056     0.0000     0.0000 </r>
       <r>    -1.8049     0.0000     0.0000 </r>
       <r>    -1.7043     0.0000     0.0000 </r>
       <r>    -1.6037     0.0000     0.0000 </r>
       <r>    -1.5030     0.0000     0.0000 </r>
       <r>    -1.4024    -0.0093    -0.0009 </r>
       <r>    -1.3018     0.2713     0.0264 </r>
       <r>    -1.2011     0.0142     0.0278 </r>
       <r>    -1.1005    -0.0001     0.0278 </r>
       <r>    -0.9998     0.0000     0.0278 </r>
       <r>    -0.8992     0.0000     0.0278 </r>
       <r>    -0.7986     0.0000     0.0278 </r>
       <r>    -0.6979     0.0000     0.0278 </r>
       <r>    -0.5973     0.0000     0.0278 </r>
       <r>    -0.4967     0.0000     0.0278 </r>
       <r>    -0.3960     0.0000     0.0278 </r>
       <r>    -0.2954    -0.0122     0.0266 </r>
       <r>    -0.1948     0.3845     0.0652 </r>
       <r>    -0.0941    -0.0043     0.0648 </r>
       <r>     0.0065    -0.0001     0.0648 </r>
       <r>     0.1071     0.0000     0.0648 </r>
       <r>     0.2078     0.0000     0.0648 </r>
       <r>     0.3084     0.0000     0.0648 </r>
       <r>     0.4091     0.0000     0.0648 </r>
       <r>     0.5097    -0.0002     0.0648 </r>
       <r>     0.6103    -0.0037     0.0644 </r>
       <r>     0.7110     1.1462     0.1798 </r>
       <r>     0.8116    -0.0382     0.1759 </r>
       <r>     0.9122     0.0000     0.1759 </r>
       <r>     1.0129     0.0000     0.1759 </r>
       <r>     1.1135     0.0000     0.1759 </r>
       <r>     1.2141     0.0000     0.1759 </r>
       <r>     1.3148     0.0000     0.1759 </r>
       <r>     1.4154     0.0000     0.1759 </r>
       <r>     1.5161     0.0000     0.1759 </r>
       <r>     1.6167     0.0000     0.1759 </r>
       <r>     1.7173    -0.0011     0.1758 </r>
       <r>     1.8180     0.1148     0.1874 </r>
       <r>     1.9186     1.8763     0.3762 </r>
       <r>     2.0192     0.2206     0.3984 </r>
       <r>     2.1199    -0.0071     0.3977 </r>
       <r>     2.2205     0.2942     0.4273 </r>
       <r>     2.3211     0.4147     0.4690 </r>
       <r>     2.4218     0.2685     0.4960 </r>
       <r>     2.5224     0.2249     0.5187 </r>
       <r>     2.6230     1.3313     0.6526 </r>
       <r>     2.7237    -0.0446     0.6481 </r>
       <r>     2.8243     0.0000     0.6481 </r>
       <r>     2.9250    -0.0001     0.6481 </r>
       <r>     3.0256    -0.0430     0.6438 </r>
       <r>     3.1262     1.6533     0.8102 </r>
       <r>     3.2269     0.7732     0.8880 </r>
       <r>     3.3275     0.5754     0.9459 </r>
       <r>     3.4281    -0.0458     0.9413 </r>
       <r>     3.5288     1.1605     1.0581 </r>
       <r>     3.6294    -0.0253     1.0556 </r>
       <r>     3.7300    -0.0001     1.0556 </r>
       <r>     3.8307    -0.0001     1.0555 </r>
       <r>     3.9313    -0.0338     1.0522 </r>
       <r>     4.0320     1.1587     1.1688 </r>
       <r>     4.1326    -0.0206     1.1667 </r>
       <r>     4.2332    -0.0001     1.1667 </r>
       <r>     4.3339    -0.0178     1.1649 </r>
       <r>     4.4345     0.5319     1.2184 </r>
       <r>     4.5351     0.0357     1.2220 </r>
       <r>     4.6358     0.2710     1.2493 </r>
       <r>     4.7364     1.9747     1.4480 </r>
       <r>     4.8370     1.2012     1.5689 </r>
       <r>     4.9377     1.1128     1.6809 </r>
       <r>     5.0383     1.4385     1.8256 </r>
       <r>     5.1389     0.0780     1.8335 </r>
       <r>     5.2396    -0.0078     1.8327 </r>
       <r>     5.3402     0.5088     1.8839 </r>
       <r>     5.4409     2.4159     2.1270 </r>
       <r>     5.5415     0.3995     2.1672 </r>
       <r>     5.6421    -0.0059     2.1666 </r>
       <r>     5.7428    -0.0068     2.1660 </r>
       <r>     5.8434     1.4853     2.3154 </r>
       <r>     5.9440     1.5372     2.4701 </r>
       <r>     6.0447     1.0480     2.5756 </r>
       <r>     6.1453    -0.0151     2.5741 </r>
       <r>     6.2459     0.0000     2.5741 </r>
       <r>     6.3466    -0.0146     2.5726 </r>
       <r>     6.4472     0.7318     2.6462 </r>
       <r>     6.5478     0.3914     2.6856 </r>
       <r>     6.6485    -0.0049     2.6852 </r>
       <r>     6.7491     0.0389     2.6891 </r>
       <r>     6.8498     0.5317     2.7426 </r>
       <r>     6.9504     0.3618     2.7790 </r>
       <r>     7.0510     0.0877     2.7878 </r>
       <r>     7.1517     0.5334     2.8415 </r>
       <r>     7.2523     0.1668     2.8583 </r>
       <r>     7.3529     1.0232     2.9612 </r>
       <r>     7.4536     0.6806     3.0297 </r>
       <r>     7.5542    -0.0194     3.0278 </r>
       <r>     7.6548     0.0000     3.0278 </r>
       <r>     7.7555     0.0000     3.0278 </r>
       <r>     7.8561     0.0000     3.0278 </r>
       <r>     7.9568    -0.0303     3.0247 </r>
       <r>     8.0574     0.9955     3.1249 </r>
       <r>     8.1580     0.1400     3.1390 </r>
       <r>     8.2587    -0.0012     3.1389 </r>
       <r>     8.3593     0.0000     3.1389 </r>
       <r>     8.4599     0.0000     3.1389 </r>
       <r>     8.5606    -0.0378     3.1351 </r>
       <r>     8.6612     1.1251     3.2483 </r>
       <r>     8.7618     0.8913     3.3380 </r>
       <r>     8.8625     0.2317     3.3613 </r>
       <r>     8.9631    -0.0075     3.3606 </r>
       <r>     9.0637     0.2542     3.3862 </r>
       <r>     9.1644     0.2134     3.4076 </r>
       <r>     9.2650     0.1551     3.4232 </r>
       <r>     9.3657     0.9615     3.5200 </r>
       <r>     9.4663     1.5204     3.6730 </r>
       <r>     9.5669     1.1598     3.7897 </r>
       <r>     9.6676    -0.0267     3.7870 </r>
       <r>     9.7682    -0.0001     3.7870 </r>
       <r>     9.8688    -0.0259     3.7844 </r>
       <r>     9.9695     0.7434     3.8592 </r>
       <r>    10.0701    -0.0074     3.8585 </r>
       <r>    10.1707     0.9396     3.9531 </r>
       <r>    10.2714     0.1877     3.9719 </r>
       <r>    10.3720     0.2859     4.0007 </r>
       <r>    10.4727     0.2693     4.0278 </r>
       <r>    10.5733     0.1746     4.0454 </r>
       <r>    10.6739     0.5645     4.1022 </r>
       <r>    10.7746     1.0749     4.2104 </r>
       <r>    10.8752     0.6730     4.2781 </r>
       <r>    10.9758     0.9164     4.3703 </r>
       <r>    11.0765     1.8340     4.5549 </r>
       <r>    11.1771     0.5997     4.6152 </r>
       <r>    11.2777     1.5003     4.7662 </r>
       <r>    11.3784     0.6568     4.8323 </r>
       <r>    11.4790     0.0813     4.8405 </r>
       <r>    11.5796     0.8919     4.9302 </r>
       <r>    11.6803     0.2964     4.9601 </r>
       <r>    11.7809     1.0776     5.0685 </r>
       <r>    11.8816    -0.0368     5.0648 </r>
       <r>    11.9822     0.0000     5.0648 </r>
       <r>    12.0828     0.0000     5.0648 </r>
       <r>    12.1835     0.0000     5.0648 </r>
       <r>    12.2841     0.0000     5.0648 </r>
       <r>    12.3847    -0.0001     5.0648 </r>
       <r>    12.4854     0.0005     5.0649 </r>
       <r>    12.5860     0.3075     5.0958 </r>
       <r>    12.6866     2.2432     5.3216 </r>
       <r>    12.7873     2.2184     5.5448 </r>
       <r>    12.8879    -0.0771     5.5370 </r>
       <r>    12.9885    -0.0001     5.5370 </r>
       <r>    13.0892    -0.0180     5.5352 </r>
       <r>    13.1898     0.8031     5.6160 </r>
       <r>    13.2905     0.3499     5.6513 </r>
       <r>    13.3911     0.2532     5.6767 </r>
       <r>    13.4917     0.0033     5.6771 </r>
       <r>    13.5924     0.0832     5.6854 </r>
       <r>    13.6930    -0.0025     5.6852 </r>
       <r>    13.7936     0.0000     5.6852 </r>
       <r>    13.8943     0.0000     5.6852 </r>
       <r>    13.9949     0.0000     5.6852 </r>
       <r>    14.0955     0.0000     5.6852 </r>
       <r>    14.1962     0.0000     5.6852 </r>
       <r>    14.2968     0.0000     5.6852 </r>
       <r>    14.3975     0.0000     5.6852 </r>
       <r>    14.4981     0.0000     5.6852 </r>
       <r>    14.5987     0.0000     5.6852 </r>
       <r>    14.6994     0.0000     5.6852 </r>
       <r>    14.8000     0.0000     5.6852 </r>
       <r>    14.9006     0.0000     5.6852 </r>
       <r>    15.0013     0.0000     5.6852 </r>
       <r>    15.1019    -0.0051     5.6847 </r>
       <r>    15.2025     0.3086     5.7157 </r>
       <r>    15.3032     0.2520     5.7411 </r>
       <r>    15.4038    -0.0035     5.7407 </r>
       <r>    15.5044     0.0000     5.7407 </r>
       <r>    15.6051     0.0000     5.7407 </r>
       <r>    15.7057    -0.0001     5.7407 </r>
       <r>    15.8064    -0.0311     5.7376 </r>
       <r>    15.9070     1.1605     5.8544 </r>
       <r>    16.0076    -0.0282     5.8516 </r>
       <r>    16.1083     0.3008     5.8818 </r>
       <r>    16.2089     0.8253     5.9649 </r>
       <r>    16.3095    -0.0192     5.9630 </r>
       <r>    16.4102    -0.0489     5.9580 </r>
       <r>    16.5108     1.5147     6.1105 </r>
       <r>    16.6114     0.0668     6.1172 </r>
       <r>    16.7121     1.0805     6.2259 </r>
       <r>    16.8127    -0.0368     6.2222 </r>
       <r>    16.9134     0.0000     6.2222 </r>
       <r>    17.0140    -0.0177     6.2204 </r>
       <r>    17.1146     0.5781     6.2786 </r>
       <r>    17.2153    -0.0082     6.2778 </r>
       <r>    17.3159    -0.0001     6.2778 </r>
       <r>    17.4165     0.0000     6.2778 </r>
       <r>    17.5172    -0.0240     6.2754 </r>
       <r>    17.6178     0.7129     6.3471 </r>
       <r>    17.7184     0.0476     6.3519 </r>
       <r>    17.8191    -0.0090     6.3510 </r>
       <r>    17.9197     0.3940     6.3906 </r>
       <r>    18.0203     0.1685     6.4076 </r>
       <r>    18.1210    -0.0018     6.4074 </r>
       <r>    18.2216     0.0000     6.4074 </r>
       <r>    18.3223     0.0000     6.4074 </r>
       <r>    18.4229     0.0000     6.4074 </r>
       <r>    18.5235     0.0000     6.4074 </r>
       <r>    18.6242    -0.0010     6.4073 </r>
       <r>    18.7248     0.1249     6.4199 </r>
       <r>    18.8254     1.0125     6.5218 </r>
       <r>    18.9261     0.5392     6.5760 </r>
       <r>    19.0267    -0.0194     6.5741 </r>
       <r>    19.1273     0.0000     6.5741 </r>
       <r>    19.2280    -0.0209     6.5720 </r>
       <r>    19.3286     0.9198     6.6645 </r>
       <r>    19.4292     1.5124     6.8167 </r>
       <r>    19.5299     0.0736     6.8241 </r>
       <r>    19.6305    -0.0007     6.8241 </r>
       <r>    19.7312     0.0000     6.8241 </r>
       <r>    19.8318     0.0000     6.8241 </r>
       <r>    19.9324    -0.0097     6.8231 </r>
       <r>    20.0331     0.6022     6.8837 </r>
       <r>    20.1337     0.5187     6.9359 </r>
       <r>    20.2343     0.0034     6.9362 </r>
       <r>    20.3350     1.3686     7.0740 </r>
       <r>    20.4356     1.8117     7.2563 </r>
       <r>    20.5362     8.4048     8.1021 </r>
       <r>    20.6369     2.2389     8.3274 </r>
       <r>    20.7375     0.4308     8.3708 </r>
       <r>    20.8382    -0.0040     8.3704 </r>
       <r>    20.9388    -0.0097     8.3694 </r>
       <r>    21.0394     0.2852     8.3981 </r>
       <r>    21.1401     0.0006     8.3982 </r>
       <r>    21.2407    -0.0001     8.3981 </r>
       <r>    21.3413    -0.0069     8.3974 </r>
       <r>    21.4420     0.5035     8.4481 </r>
       <r>    21.5426     0.6177     8.5103 </r>
       <r>    21.6432    -0.0358     8.5067 </r>
       <r>    21.7439     1.1606     8.6235 </r>
       <r>    21.8445    -0.0308     8.6204 </r>
       <r>    21.9451    -0.0001     8.6204 </r>
       <r>    22.0458     0.0000     8.6204 </r>
       <r>    22.1464     0.0000     8.6204 </r>
       <r>    22.2471    -0.0109     8.6193 </r>
       <r>    22.3477     0.4167     8.6612 </r>
       <r>    22.4483     0.5281     8.7143 </r>
       <r>    22.5490    -0.0137     8.7130 </r>
       <r>    22.6496     0.0000     8.7130 </r>
       <r>    22.7502     0.0000     8.7130 </r>
       <r>    22.8509     0.0000     8.7130 </r>
       <r>    22.9515     0.0000     8.7130 </r>
       <r>    23.0521     0.0000     8.7130 </r>
       <r>    23.1528    -0.0001     8.7129 </r>
       <r>    23.2534    -0.0201     8.7109 </r>
       <r>    23.3541     1.1584     8.8275 </r>
       <r>    23.4547    -0.0340     8.8241 </r>
       <r>    23.5553    -0.0082     8.8233 </r>
       <r>    23.6560     0.4763     8.8712 </r>
       <r>    23.7566     1.0307     8.9749 </r>
       <r>    23.8572    -0.0266     8.9722 </r>
       <r>    23.9579     0.0000     8.9722 </r>
       <r>    24.0585     0.0000     8.9722 </r>
       <r>    24.1591     0.0000     8.9722 </r>
       <r>    24.2598     0.0000     8.9722 </r>
       <r>    24.3604     0.0000     8.9722 </r>
       <r>    24.4610     0.0000     8.9722 </r>
       <r>    24.5617     0.0000     8.9722 </r>
       <r>    24.6623     0.0000     8.9722 </r>
       <r>    24.7630     0.0000     8.9722 </r>
       <r>    24.8636     0.0000     8.9722 </r>
       <r>    24.9642     0.0000     8.9722 </r>
       <r>    25.0649     0.0000     8.9722 </r>
       <r>    25.1655     0.0000     8.9722 </r>
       <r>    25.2661     0.0000     8.9722 </r>
       <r>    25.3668     0.0000     8.9722 </r>
       <r>    25.4674     0.0000     8.9722 </r>
       <r>    25.5680     0.0000     8.9722 </r>
       <r>    25.6687     0.0000     8.9722 </r>
       <r>    25.7693     0.0000     8.9722 </r>
       <r>    25.8699    -0.0001     8.9722 </r>
       <r>    25.9706     0.0082     8.9730 </r>
       <r>    26.0712     0.2775     9.0010 </r>
       <r>    26.1719    -0.0097     9.0000 </r>
       <r>    26.2725     0.0000     9.0000 </r>
       <r>    26.3731     0.0000     9.0000 </r>
       <r>    26.4738     0.0000     9.0000 </r>
       <r>    26.5744     0.0000     9.0000 </r>
       <r>    26.6750     0.0000     9.0000 </r>
       <r>    26.7757     0.0000     9.0000 </r>
       <r>    26.8763     0.0000     9.0000 </r>
       <r>    26.9769     0.0000     9.0000 </r>
       <r>    27.0776     0.0000     9.0000 </r>
       <r>    27.1782     0.0000     9.0000 </r>
       <r>    27.2789     0.0000     9.0000 </r>
       <r>    27.3795     0.0000     9.0000 </r>
      </set>
     </set>
    </array>
   </total>
   <partial>
    <array>
     <dimension dim="1">gridpoints</dimension>
     <dimension dim="2">spin</dimension>
     <dimension dim="3">ion</dimension>
     <field>energy</field>
     <field>  s</field>
     <field> py</field>
     <field> pz</field>
     <field> px</field>
     <field>dxy</field>
     <field>dyz</field>
     <field>dz2</field>
     <field>dxz</field>
     <field>dx2</field>
     <set>
      <set comment="ion 1">
       <set comment="spin 1">
        <r>    -2.8113     0.0000     0.0000     0.0000     0.0000     0.0000     0.0000     0.0000     0.0000     0.0000 </r>
        <r>    -2.7107     0.0000     0.0000     0.0000     0.0000     0.0000     0.0000     0.0000     0.0000     0.0000 </r>
        <r>    -2.6100     0.0000     0.0000     0.0000     0.0000     0.0000     0.0000     0.0000     0.0000     0.0000 </r>
        <r>    -2.5094     0.0000     0.0000     0.0000     0.0000     0.0000     0.0000     0.0000     0.0000     0.0000 </r>
        <r>    -2.4087     0.0000     0.0000     0.0000     0.0000     0.0000     0.0000     0.0000     0.0000     0.0000 </r>
        <r>    -2.3081     0.0000     0.0000     0.0000     0.0000     0.0000     0.0000     0.0000     0.0000     0.0000 </r>
        <r>    -2.2075     0.0000     0.0000     0.0000     0.0000     0.0000     0.0000     0.0000     0.0000     0.0000 </r>
        <r>    -2.1068     0.0000     0.0000     0.0000     0.0000     0.0000     0.0000     0.0000     0.0000     0.0000 </r>
        <r>    -2.0062     0.0000     0.0000     0.0000     0.0000     0.0000     0.0000     0.0000     0.0000     0.0000 </r>
        <r>    -1.9056     0.0000     0.0000     0.0000     0.0000     0.0000     0.0000     0.0000     0.0000     0.0000 </r>
        <r>    -1.8049     0.0000     0.0000     0.0000     0.0000     0.0000     0.0000     0.0000     0.0000     0.0000 </r>
        <r>    -1.7043     0.0000     0.0000     0.0000     0.0000     0.0000     0.0000     0.0000     0.0000     0.0000 </r>
        <r>    -1.6037     0.0000     0.0000     0.0000     0.0000     0.0000     0.0000     0.0000     0.0000     0.0000 </r>
        <r>    -1.5030    -0.0083     0.0000     0.0000    -0.0005     0.0000     0.0000     0.0000     0.0000     0.0000 </r>
        <r>    -1.4024     0.2378     0.0000     0.0000     0.0137     0.0000     0.0000     0.0001     0.0000     0.0004 </r>
        <r>    -1.3018     0.0071     0.0000     0.0000     0.0004     0.0000     0.0000     0.0000     0.0000     0.0000 </r>
        <r>    -1.2011    -0.0001     0.0000     0.0000     0.0000     0.0000     0.0000     0.0000     0.0000     0.0000 </r>
        <r>    -1.1005     0.0000     0.0000     0.0000     0.0000     0.0000     0.0000     0.0000     0.0000     0.0000 </r>
        <r>    -0.9998     0.0000     0.0000     0.0000     0.0000     0.0000     0.0000     0.0000     0.0000     0.0000 </r>
        <r>    -0.8992     0.0000     0.0000     0.0000     0.0000     0.0000     0.0000     0.0000     0.0000     0.0000 </r>
        <r>    -0.7986     0.0000     0.0000     0.0000     0.0000     0.0000     0.0000     0.0000     0.0000     0.0000 </r>
        <r>    -0.6979     0.0000     0.0000     0.0000     0.0000     0.0000     0.0000     0.0000     0.0000     0.0000 </r>
        <r>    -0.5973     0.0000     0.0000     0.0000     0.0000     0.0000     0.0000     0.0000     0.0000     0.0000 </r>
        <r>    -0.4967     0.0000     0.0000     0.0000     0.0000     0.0000     0.0000     0.0000     0.0000     0.0000 </r>
        <r>    -0.3960    -0.0086    -0.0005    -0.0005    -0.0005    -0.0001    -0.0001     0.0000    -0.0001     0.0000 </r>
        <r>    -0.2954     0.3006     0.0159     0.0159     0.0159     0.0037     0.0037     0.0000     0.0037     0.0000 </r>
        <r>    -0.1948    -0.0057    -0.0003    -0.0003    -0.0003    -0.0001    -0.0001     0.0000    -0.0001     0.0000 </r>
        <r>    -0.0941     0.0000     0.0000     0.0000     0.0000     0.0000     0.0000     0.0000     0.0000     0.0000 </r>
        <r>     0.0065     0.0000     0.0000     0.0000     0.0000     0.0000     0.0000     0.0000     0.0000     0.0000 </r>
        <r>     0.1071     0.0000     0.0000     0.0000     0.0000     0.0000     0.0000     0.0000     0.0000     0.0000 </r>
        <r>     0.2078     0.0000     0.0000     0.0000     0.0000     0.0000     0.0000     0.0000     0.0000     0.0000 </r>
        <r>     0.3084     0.0000     0.0000     0.0000     0.0000     0.0000     0.0000     0.0000     0.0000     0.0000 </r>
        <r>     0.4091    -0.0002     0.0000     0.0000     0.0000     0.0000     0.0000     0.0000     0.0000     0.0000 </r>
        <r>     0.5097     0.0032     0.0001     0.0000     0.0007     0.0003     0.0000     0.0001     0.0000     0.0001 </r>
        <r>     0.6103     0.7705     0.0282     0.0000     0.1642     0.0779     0.0000     0.0278     0.0000     0.0127 </r>
        <r>     0.7110    -0.0263    -0.0010     0.0000    -0.0056    -0.0027     0.0000    -0.0009     0.0000    -0.0004 </r>
        <r>     0.8116     0.0000     0.0000     0.0000     0.0000     0.0000     0.0000     0.0000     0.0000     0.0000 </r>
        <r>     0.9122     0.0000     0.0000     0.0000     0.0000     0.0000     0.0000     0.0000     0.0000     0.0000 </r>
        <r>     1.0129     0.0000     0.0000     0.0000     0.0000     0.0000     0.0000     0.0000     0.0000     0.0000 </r>
        <r>     1.1135     0.0000     0.0000     0.0000     0.0000     0.0000     0.0000     0.0000     0.0000     0.0000 </r>
        <r>     1.2141     0.0000     0.0000     0.0000     0.0000     0.0000     0.0000     0.0000     0.0000     0.0000 </r>
        <r>     1.3148     0.0000     0.0000     0.0000     0.0000     0.0000     0.0000     0.0000     0.0000     0.0000 </r>
        <r>     1.4154     0.0000     0.0000     0.0000     0.0000     0.0000     0.0000     0.0000     0.0000     0.0000 </r>
        <r>     1.5161     0.0000     0.0000     0.0000     0.0000     0.0000     0.0000     0.0000     0.0000     0.0000 </r>
        <r>     1.6167    -0.0003     0.0000     0.0000     0.0000    -0.0004     0.0000    -0.0002     0.0000     0.0000 </r>
        <r>     1.7173     0.0290    -0.0014    -0.0014     0.0049     0.0494    -0.0061     0.0285    -0.0001    -0.0009 </r>
        <r>     1.8180     0.7751     0.0540     0.0538     0.0889     0.4052     0.2299     0.2491     0.0041     0.0467 </r>
        <r>     1.9186     0.0998     0.0133     0.0133     0.0085    -0.0115     0.0568    -0.0036     0.0010     0.0109 </r>
        <r>     2.0192    -0.0022    -0.0001    -0.0001    -0.0003     0.0000    -0.0028    -0.0003     0.0000    -0.0008 </r>
        <r>     2.1199     0.0764     0.0000     0.0000     0.0147     0.0000     0.1472     0.0147     0.0000     0.0442 </r>
        <r>     2.2205     0.1315     0.0000     0.0000     0.0550     0.0000     0.1322     0.0192     0.0000     0.0586 </r>
        <r>     2.3211     0.0659     0.0000     0.0000     0.0444    -0.0001    -0.0019     0.0463    -0.0001     0.0329 </r>
        <r>     2.4218     0.0182     0.0005     0.0005     0.0076     0.0057     0.0006     0.1621     0.0057     0.0575 </r>
        <r>     2.5224     0.4463     0.0125     0.0125     0.2107     0.1307     0.0141     0.0932     0.1307     0.2910 </r>
        <r>     2.6230    -0.0154    -0.0004    -0.0004    -0.0073    -0.0045    -0.0005    -0.0033    -0.0045    -0.0099 </r>
        <r>     2.7237     0.0000     0.0000     0.0000     0.0000     0.0000     0.0000     0.0000     0.0000     0.0000 </r>
        <r>     2.8243     0.0000     0.0000     0.0000     0.0000     0.0000     0.0000     0.0000     0.0000     0.0000 </r>
        <r>     2.9250    -0.0074    -0.0010    -0.0012    -0.0012    -0.0148    -0.0012    -0.0126    -0.0012    -0.0001 </r>
        <r>     3.0256     0.2374     0.0297     0.0363     0.0581     0.4576     0.0349     0.4807     0.0349     0.0065 </r>
        <r>     3.1262     0.0906     0.0071     0.0007     0.1037     0.0915     0.0001     0.5200     0.0001     0.0309 </r>
        <r>     3.2269    -0.0023     0.0233     0.0235     0.0209     0.0020     0.0043     0.2906     0.0043     0.3029 </r>
        <r>     3.3275    -0.0041    -0.0020    -0.0009    -0.0020    -0.0028    -0.0066    -0.0113    -0.0066    -0.0106 </r>
        <r>     3.4281     0.2166     0.0628     0.0034     0.0628     0.1393     0.3359     0.0384     0.3359     0.0000 </r>
        <r>     3.5288    -0.0062    -0.0018    -0.0001    -0.0018    -0.0040    -0.0095    -0.0011    -0.0095     0.0000 </r>
        <r>     3.6294     0.0000     0.0000     0.0000     0.0000     0.0000     0.0000     0.0000     0.0000     0.0000 </r>
        <r>     3.7300     0.0000     0.0000     0.0000     0.0000     0.0000     0.0000     0.0000     0.0000     0.0000 </r>
        <r>     3.8307    -0.0009    -0.0019     0.0000    -0.0038     0.0000     0.0000    -0.0036     0.0000    -0.0204 </r>
        <r>     3.9313     0.0264     0.0592     0.0000     0.1178     0.0010     0.0000     0.1107     0.0000     0.6326 </r>
        <r>     4.0320     0.0026     0.0058     0.0000     0.0116     0.0001     0.0000     0.0109     0.0000     0.0623 </r>
        <r>     4.1326     0.0000     0.0000     0.0000    -0.0001     0.0000     0.0000    -0.0001     0.0000    -0.0005 </r>
        <r>     4.2332     0.0000    -0.0004    -0.0004     0.0000    -0.0098     0.0000     0.0000    -0.0098     0.0000 </r>
        <r>     4.3339     0.0000     0.0122     0.0122     0.0000     0.2803     0.0000     0.0000     0.2803     0.0000 </r>
        <r>     4.4345     0.0000     0.0002     0.0004    -0.0002     0.0083    -0.0005     0.0000     0.0078    -0.0003 </r>
        <r>     4.5351     0.0000     0.0220    -0.0013     0.0233    -0.0040     0.0556    -0.0090     0.0516     0.0284 </r>
        <r>     4.6358     0.0000     0.1795     0.0644     0.1149     0.1794     0.2739     0.4349     0.4537     0.3000 </r>
        <r>     4.7364     0.0000     0.0309     0.0337     0.0108     0.5907     0.0079     0.0090     0.5658    -0.0013 </r>
        <r>     4.8370     0.0013     0.0152     0.0310     0.0159     0.0158     0.5510     0.0078     0.5857    -0.0003 </r>
        <r>     4.9377     0.0246     0.0159     0.0660     0.0159     0.0082     0.4524     0.2086     0.4590     0.0121 </r>
        <r>     5.0383    -0.0008    -0.0006    -0.0022    -0.0006    -0.0003    -0.0139     0.1394    -0.0140     0.0484 </r>
        <r>     5.1389    -0.0003    -0.0002    -0.0018    -0.0002    -0.0029     0.0000    -0.0040     0.0000    -0.0013 </r>
        <r>     5.2396     0.0223     0.0106     0.1394     0.0118     0.2322    -0.0036     0.0098    -0.0015    -0.0086 </r>
        <r>     5.3402     0.0679     0.3266     0.2986     0.2517     0.4160     0.2331     0.0384     0.1037     0.5953 </r>
        <r>     5.4409     0.0265     0.0603     0.0635    -0.0019     0.0402     0.1527     0.0185     0.0454     0.0402 </r>
        <r>     5.5415    -0.0004    -0.0009    -0.0009    -0.0001    -0.0007    -0.0023    -0.0003    -0.0009    -0.0008 </r>
        <r>     5.6421     0.0000    -0.0001     0.0003    -0.0001    -0.0020     0.0089    -0.0002     0.0143    -0.0002 </r>
        <r>     5.7428    -0.0002     0.0025     0.0188     0.0015     0.1191     0.5780     0.0099     0.8114     0.0109 </r>
        <r>     5.8434     0.0134     0.0532     0.0184     0.1059     0.4412     0.3776     0.1297     0.1871     0.0469 </r>
        <r>     5.9440     0.0153     0.0635     0.0128     0.0962     0.4186     0.2237     0.1731     0.0780     0.0434 </r>
        <r>     6.0447    -0.0003    -0.0011    -0.0002    -0.0014    -0.0072    -0.0031    -0.0031    -0.0011    -0.0007 </r>
        <r>     6.1453     0.0000     0.0000     0.0000     0.0000     0.0000     0.0000     0.0000     0.0000     0.0000 </r>
        <r>     6.2459    -0.0004    -0.0019     0.0000    -0.0019    -0.0002     0.0000    -0.0008     0.0000    -0.0014 </r>
        <r>     6.3466     0.0269     0.1328     0.0000     0.1358     0.0155     0.0000     0.0573     0.0000     0.0986 </r>
        <r>     6.4472     0.0319     0.1580     0.0000     0.1615     0.0185     0.0000     0.0681     0.0000     0.1173 </r>
        <r>     6.5478    -0.0005    -0.0026     0.0000    -0.0026    -0.0006     0.0000    -0.0011    -0.0003    -0.0019 </r>
        <r>     6.6485     0.0000     0.0005     0.0005     0.0000     0.0311     0.0000     0.0000     0.0311     0.0000 </r>
        <r>     6.7491     0.0011     0.0043     0.0043     0.0003     0.2619     0.0017     0.0000     0.2619     0.0000 </r>
        <r>     6.8498     0.0545     0.0131     0.0131     0.0134     0.0801     0.0883     0.0000     0.0801     0.0000 </r>
        <r>     6.9504    -0.0019     0.0290     0.0290    -0.0005     0.0046    -0.0040     0.0000     0.0046     0.0000 </r>
        <r>     7.0510     0.0000     0.1822     0.1822     0.0000     0.0476     0.0883     0.0000     0.0476     0.0000 </r>
        <r>     7.1517     0.0000    -0.0054    -0.0093     0.0000    -0.0015     0.1934     0.0000    -0.0200     0.0000 </r>
        <r>     7.2523     0.0000     0.0000     0.1167     0.0000     0.0000     0.3499     0.0000     0.5582     0.0000 </r>
        <r>     7.3529     0.0000     0.0354     0.0444     0.0000     0.2427     0.0273     0.0000     0.2858     0.0000 </r>
        <r>     7.4536     0.0000    -0.0012    -0.0013     0.0000    -0.0082    -0.0002     0.0000    -0.0086     0.0000 </r>
        <r>     7.5542     0.0000     0.0000     0.0000     0.0000     0.0000     0.0000     0.0000     0.0000     0.0000 </r>
        <r>     7.6548     0.0000     0.0000     0.0000     0.0000     0.0000     0.0000     0.0000     0.0000     0.0000 </r>
        <r>     7.7555     0.0000     0.0000     0.0000     0.0000     0.0000     0.0000     0.0000     0.0000     0.0000 </r>
        <r>     7.8561    -0.0033    -0.0023     0.0000     0.0000    -0.0135     0.0000    -0.0045     0.0000    -0.0006 </r>
        <r>     7.9568     0.1169     0.0839     0.0000     0.0015     0.4838     0.0000     0.1612     0.0000     0.0231 </r>
        <r>     8.0574     0.0241     0.0173     0.0000     0.0003     0.0998     0.0000     0.0332     0.0000     0.0048 </r>
        <r>     8.1580    -0.0002    -0.0002     0.0000     0.0000    -0.0009     0.0000    -0.0003     0.0000     0.0000 </r>
        <r>     8.2587     0.0000     0.0000     0.0000     0.0000     0.0000     0.0000     0.0000     0.0000     0.0000 </r>
        <r>     8.3593     0.0000     0.0000     0.0000     0.0000     0.0000     0.0000     0.0000     0.0000     0.0000 </r>
        <r>     8.4599     0.0000    -0.0004     0.0000    -0.0004    -0.0099     0.0000    -0.0113     0.0000    -0.0041 </r>
        <r>     8.5606     0.0002     0.0126    -0.0003     0.0130     0.3328     0.0000     0.3816    -0.0034     0.1370 </r>
        <r>     8.6612     0.0000     0.0196     0.0174     0.0021     0.2379     0.0000     0.2420     0.1822     0.0823 </r>
        <r>     8.7618     0.0000     0.0110     0.0110     0.0000     0.1149     0.0000     0.1123     0.1154     0.0374 </r>
        <r>     8.8625     0.0000    -0.0003    -0.0003    -0.0001    -0.0031    -0.0017    -0.0014    -0.0031    -0.0005 </r>
        <r>     8.9631     0.0008     0.0064     0.0064     0.0064     0.0790     0.0790     0.0000     0.0790     0.0000 </r>
        <r>     9.0637     0.0004     0.0030     0.0030     0.0030     0.0371     0.0371    -0.0023     0.0371    -0.0008 </r>
        <r>     9.1644    -0.0012    -0.0002    -0.0003    -0.0002    -0.0048    -0.0018     0.1790    -0.0017     0.0619 </r>
        <r>     9.2650     0.0544     0.0063     0.0126     0.0063     0.2048     0.0407     0.3100     0.0449    -0.0019 </r>
        <r>     9.3657     0.0232     0.0017     0.0620     0.0012     0.0816     0.9603     0.1239     0.4117     0.0000 </r>
        <r>     9.4663     0.0368     0.0353     0.0007     0.0485     0.3164    -0.0005     0.5445     0.0050     0.0002 </r>
        <r>     9.5669     0.0030     0.0029     0.0000     0.0040     0.0261    -0.0002     0.0449    -0.0001     0.0000 </r>
        <r>     9.6676     0.0000     0.0000     0.0000     0.0000    -0.0002     0.0000    -0.0004     0.0000     0.0000 </r>
        <r>     9.7682     0.0000     0.0000     0.0000     0.0000    -0.0002    -0.0002    -0.0027    -0.0002    -0.0027 </r>
        <r>     9.8688     0.0000     0.0000     0.0000     0.0000     0.0120     0.0120     0.1667     0.0120     0.1667 </r>
        <r>     9.9695     0.0000     0.0000     0.0000     0.0000     0.0099     0.0088     0.1388     0.0099     0.1370 </r>
        <r>    10.0701     0.0029     0.0013     0.0013     0.0008     0.0102     0.0954     0.0729     0.0102     0.2225 </r>
        <r>    10.1707     0.0044     0.0020     0.0020     0.0012     0.0159     0.1466     0.1148     0.0159     0.3445 </r>
        <r>    10.2714     0.0040     0.0000     0.0000     0.0000    -0.0003     0.0084     0.0088    -0.0003     0.0265 </r>
        <r>    10.3720     0.0343     0.0000     0.0000     0.0002     0.0000     0.0936     0.0921     0.0000     0.2763 </r>
        <r>    10.4727    -0.0010     0.0000     0.0000     0.0000     0.0000    -0.0030     0.0011    -0.0001     0.0028 </r>
        <r>    10.5733     0.0004     0.0003     0.0000     0.0007     0.0000     0.0051     0.0611     0.0051     0.2202 </r>
        <r>    10.6739     0.0000     0.0057     0.0000     0.0057    -0.0002     0.1142    -0.0066     0.1140     0.8037 </r>
        <r>    10.7746    -0.0001    -0.0006    -0.0004    -0.0002     0.0187    -0.0040     0.7691     0.0147     0.2282 </r>
        <r>    10.8752     0.0053     0.0701     0.0701     0.0002     0.2035     0.0101    -0.0178     0.2036     0.0129 </r>
        <r>    10.9758     0.1093     0.0005     0.0004     0.0073     0.0450     0.1816     0.2823     0.0369     0.9158 </r>
[...]
        <r>   10.9197    0.0000 </r>
        <r>   10.9197    0.0000 </r>
        <r>   12.5266    0.0000 </r>
        <r>   13.3183    0.0000 </r>
        <r>   17.9076    0.0000 </r>
        <r>   17.9076    0.0000 </r>
        <r>   20.4567    0.0000 </r>
       </set>
      </set>
     </set>
    </array>
   </eigenvalues>
   <array>
    <dimension dim="1">ion</dimension>
    <dimension dim="2">band</dimension>
    <dimension dim="3">kpoint</dimension>
    <dimension dim="4">spin</dimension>
    <field>  s</field>
    <set>
     <set comment="spin1">
      <set comment="kpoint 1">
       <set comment="band 1">
        <r>  0.7780 </r>
       </set>
       <set comment="band 2">
        <r>  0.0000 </r>
       </set>
       <set comment="band 3">
        <r>  0.0000 </r>
       </set>
       <set comment="band 4">
        <r>  0.0030 </r>
       </set>
       <set comment="band 5">
        <r>  0.0000 </r>
       </set>
       <set comment="band 6">
        <r>  0.0000 </r>
       </set>
       <set comment="band 7">
        <r> 43.7690 </r>
       </set>
       <set comment="band 8">
        <r>  0.0000 </r>
       </set>
       <set comment="band 9">
        <r>  0.0000 </r>
       </set>
      </set>
      <set comment="kpoint 2">
       <set comment="band 1">
        <r>  0.4913 </r>
       </set>
       <set comment="band 2">
        <r>  0.0000 </r>
       </set>
       <set comment="band 3">
        <r>  0.0534 </r>
       </set>
       <set comment="band 4">
        <r>  0.0065 </r>
       </set>
       <set comment="band 5">
        <r>  0.0000 </r>
       </set>
       <set comment="band 6">
        <r>  0.0020 </r>
       </set>
       <set comment="band 7">
        <r> 20.2816 </r>
       </set>
       <set comment="band 8">
        <r>  0.0000 </r>
       </set>
       <set comment="band 9">
        <r> 23.9947 </r>
       </set>
      </set>
      <set comment="kpoint 3">
       <set comment="band 1">
        <r>  0.2619 </r>
       </set>
       <set comment="band 2">
        <r>  0.0000 </r>
       </set>
       <set comment="band 3">
        <r>  0.0000 </r>
       </set>
       <set comment="band 4">
        <r>  0.0674 </r>
       </set>
       <set comment="band 5">
        <r>  0.0000 </r>
       </set>
       <set comment="band 6">
        <r>  0.0000 </r>
       </set>
       <set comment="band 7">
        <r>  0.4866 </r>
       </set>
       <set comment="band 8">
        <r>  0.0000 </r>
       </set>
       <set comment="band 9">
        <r> 44.1075 </r>
       </set>
      </set>
      <set comment="kpoint 4">
       <set comment="band 1">
        <r>  0.8569 </r>
       </set>
       <set comment="band 2">
        <r>  0.0000 </r>
       </set>
       <set comment="band 3">
        <r>  0.0000 </r>
       </set>
       <set comment="band 4">
        <r>  0.0000 </r>
       </set>
       <set comment="band 5">
        <r>  0.0000 </r>
       </set>
       <set comment="band 6">
        <r>  0.0015 </r>
       </set>
       <set comment="band 7">
        <r> 43.8473 </r>
       </set>
       <set comment="band 8">
        <r>  0.0000 </r>
       </set>
       <set comment="band 9">
        <r>  0.0000 </r>
       </set>
      </set>
      <set comment="kpoint 5">
       <set comment="band 1">
        <r>  0.1868 </r>
       </set>
       <set comment="band 2">
        <r>  0.0000 </r>
       </set>
       <set comment="band 3">
        <r>  0.0517 </r>
       </set>
       <set comment="band 4">
        <r>  0.0000 </r>
       </set>
       <set comment="band 5">
        <r>  0.0292 </r>
       </set>
       <set comment="band 6">
        <r>  0.5945 </r>
       </set>
       <set comment="band 7">
        <r>  0.0117 </r>
       </set>
       <set comment="band 8">
        <r>  0.0000 </r>
       </set>
       <set comment="band 9">
        <r> 44.0350 </r>
       </set>
      </set>
      <set comment="kpoint 6">
       <set comment="band 1">
        <r>  0.6767 </r>
       </set>
       <set comment="band 2">
        <r>  0.0000 </r>
       </set>
       <set comment="band 3">
        <r>  0.0148 </r>
       </set>
       <set comment="band 4">
        <r>  0.0002 </r>
       </set>
       <set comment="band 5">
        <r>  0.0000 </r>
       </set>
       <set comment="band 6">
        <r>  0.0194 </r>
       </set>
       <set comment="band 7">
        <r> 43.3905 </r>
       </set>
       <set comment="band 8">
        <r>  0.4577 </r>
       </set>
       <set comment="band 9">
        <r>  0.1476 </r>
       </set>
      </set>
      <set comment="kpoint 7">
       <set comment="band 1">
        <r>  0.3262 </r>
       </set>
       <set comment="band 2">
        <r>  0.0000 </r>
       </set>
       <set comment="band 3">
        <r>  0.0524 </r>
       </set>
       <set comment="band 4">
        <r>  0.0352 </r>
       </set>
       <set comment="band 5">
        <r>  0.0421 </r>
       </set>
       <set comment="band 6">
        <r>  0.0000 </r>
       </set>
       <set comment="band 7">
        <r>  0.2107 </r>
       </set>
       <set comment="band 8">
        <r>  0.6053 </r>
       </set>
       <set comment="band 9">
        <r> 43.5656 </r>
       </set>
      </set>
      <set comment="kpoint 8">
       <set comment="band 1">
        <r>  0.4062 </r>
       </set>
       <set comment="band 2">
        <r>  0.0000 </r>
       </set>
       <set comment="band 3">
        <r>  0.0108 </r>
       </set>
       <set comment="band 4">
        <r>  0.0000 </r>
       </set>
       <set comment="band 5">
        <r>  0.0907 </r>
       </set>
       <set comment="band 6">
        <r>  0.0372 </r>
       </set>
       <set comment="band 7">
        <r>  0.2261 </r>
       </set>
       <set comment="band 8">
        <r> 43.9147 </r>
       </set>
       <set comment="band 9">
        <r>  0.0000 </r>
       </set>
      </set>
      <set comment="kpoint 9">
       <set comment="band 1">
        <r>  0.1846 </r>
       </set>
       <set comment="band 2">
        <r>  0.0226 </r>
       </set>
       <set comment="band 3">
        <r>  0.0000 </r>
       </set>
       <set comment="band 4">
        <r>  0.0702 </r>
       </set>
       <set comment="band 5">
        <r>  0.0000 </r>
       </set>
       <set comment="band 6">
        <r>  0.0000 </r>
       </set>
       <set comment="band 7">
        <r>  0.4705 </r>
       </set>
       <set comment="band 8">
        <r> 40.4212 </r>
       </set>
       <set comment="band 9">
        <r>  3.6131 </r>
       </set>
      </set>
      <set comment="kpoint 10">
       <set comment="band 1">
        <r>  0.0000 </r>
       </set>
       <set comment="band 2">
        <r>  0.0000 </r>
       </set>
       <set comment="band 3">
        <r>  0.0000 </r>
       </set>
       <set comment="band 4">
        <r>  0.0000 </r>
       </set>
       <set comment="band 5">
        <r>  0.0000 </r>
       </set>
       <set comment="band 6">
        <r>  0.9629 </r>
       </set>
       <set comment="band 7">
        <r>  0.0000 </r>
       </set>
       <set comment="band 8">
        <r>  0.0000 </r>
       </set>
       <set comment="band 9">
        <r>  0.0000 </r>
       </set>
      </set>
      <set comment="kpoint 11">
       <set comment="band 1">
        <r>  0.4608 </r>
       </set>
       <set comment="band 2">
        <r>  0.0000 </r>
       </set>
       <set comment="band 3">
        <r>  0.0000 </r>
       </set>
       <set comment="band 4">
        <r>  0.0000 </r>
       </set>
       <set comment="band 5">
        <r>  0.0000 </r>
       </set>
       <set comment="band 6">
        <r>  0.1857 </r>
       </set>
       <set comment="band 7">
        <r> 42.3329 </r>
       </set>
       <set comment="band 8">
        <r>  1.6692 </r>
       </set>
       <set comment="band 9">
        <r>  0.0000 </r>
       </set>
      </set>
      <set comment="kpoint 12">
       <set comment="band 1">
        <r>  0.1037 </r>
       </set>
       <set comment="band 2">
        <r>  0.0255 </r>
       </set>
       <set comment="band 3">
        <r>  0.0000 </r>
       </set>
       <set comment="band 4">
        <r>  0.1245 </r>
       </set>
       <set comment="band 5">
        <r>  0.0000 </r>
       </set>
       <set comment="band 6">
        <r>  0.1977 </r>
       </set>
       <set comment="band 7">
        <r>  0.1929 </r>
       </set>
       <set comment="band 8">
        <r> 43.9295 </r>
       </set>
       <set comment="band 9">
        <r>  0.0000 </r>
       </set>
      </set>
      <set comment="kpoint 13">
       <set comment="band 1">
        <r>  0.0000 </r>
       </set>
       <set comment="band 2">
        <r>  0.0000 </r>
       </set>
       <set comment="band 3">
        <r>  0.1458 </r>
       </set>
       <set comment="band 4">
        <r>  0.0000 </r>
       </set>
       <set comment="band 5">
        <r>  0.0000 </r>
       </set>
       <set comment="band 6">
        <r>  0.3940 </r>
       </set>
       <set comment="band 7">
        <r>  0.0000 </r>
       </set>
       <set comment="band 8">
        <r>  0.0000 </r>
       </set>
       <set comment="band 9">
        <r> 43.8469 </r>
       </set>
      </set>
      <set comment="kpoint 14">
       <set comment="band 1">
        <r>  0.0000 </r>
       </set>
       <set comment="band 2">
        <r>  0.0055 </r>
       </set>
       <set comment="band 3">
        <r>  0.0000 </r>
       </set>
       <set comment="band 4">
        <r>  0.0000 </r>
       </set>
       <set comment="band 5">
        <r>  0.0000 </r>
       </set>
       <set comment="band 6">
        <r>  0.2526 </r>
       </set>
       <set comment="band 7">
        <r>  0.0000 </r>
       </set>
       <set comment="band 8">
        <r>  0.0000 </r>
       </set>
       <set comment="band 9">
        <r> 43.2568 </r>
       </set>
      </set>
     </set>
     <set comment="spin2">
      <set comment="kpoint 1">
       <set comment="band 1">
        <r>  0.7764 </r>
       </set>
       <set comment="band 2">
        <r>  0.0000 </r>
       </set>
       <set comment="band 3">
        <r>  0.0000 </r>
       </set>
       <set comment="band 4">
        <r>  0.0030 </r>
       </set>
       <set comment="band 5">
        <r>  0.0000 </r>
       </set>
       <set comment="band 6">
        <r>  0.0000 </r>
       </set>
       <set comment="band 7">
        <r> 43.7693 </r>
       </set>
       <set comment="band 8">
        <r>  0.0000 </r>
       </set>
       <set comment="band 9">
        <r>  0.0000 </r>
       </set>
      </set>
      <set comment="kpoint 2">
       <set comment="band 1">
        <r>  0.4899 </r>
       </set>
       <set comment="band 2">
        <r>  0.0000 </r>
       </set>
       <set comment="band 3">
        <r>  0.0535 </r>
       </set>
       <set comment="band 4">
        <r>  0.0065 </r>
       </set>
       <set comment="band 5">
        <r>  0.0000 </r>
       </set>
       <set comment="band 6">
        <r>  0.0020 </r>
       </set>
       <set comment="band 7">
        <r> 23.7449 </r>
       </set>
       <set comment="band 8">
        <r>  0.0000 </r>
       </set>
       <set comment="band 9">
        <r> 20.5305 </r>
       </set>
      </set>
      <set comment="kpoint 3">
       <set comment="band 1">
        <r>  0.2607 </r>
       </set>
       <set comment="band 2">
        <r>  0.0000 </r>
       </set>
       <set comment="band 3">
        <r>  0.0000 </r>
       </set>
       <set comment="band 4">
        <r>  0.0674 </r>
       </set>
       <set comment="band 5">
        <r>  0.0000 </r>
       </set>
       <set comment="band 6">
        <r>  0.0000 </r>
       </set>
       <set comment="band 7">
        <r>  0.4815 </r>
       </set>
       <set comment="band 8">
        <r>  0.0000 </r>
       </set>
       <set comment="band 9">
        <r> 44.1122 </r>
       </set>
      </set>
      <set comment="kpoint 4">
       <set comment="band 1">
        <r>  0.8553 </r>
       </set>
       <set comment="band 2">
        <r>  0.0000 </r>
       </set>
       <set comment="band 3">
        <r>  0.0000 </r>
       </set>
       <set comment="band 4">
        <r>  0.0000 </r>
       </set>
       <set comment="band 5">
        <r>  0.0000 </r>
       </set>
       <set comment="band 6">
        <r>  0.0015 </r>
       </set>
       <set comment="band 7">
        <r> 43.8475 </r>
       </set>
       <set comment="band 8">
        <r>  0.0000 </r>
       </set>
       <set comment="band 9">
        <r>  0.0000 </r>
       </set>
      </set>
      <set comment="kpoint 5">
       <set comment="band 1">
        <r>  0.1863 </r>
       </set>
       <set comment="band 2">
        <r>  0.0000 </r>
       </set>
       <set comment="band 3">
        <r>  0.0512 </r>
       </set>
       <set comment="band 4">
        <r>  0.0000 </r>
       </set>
       <set comment="band 5">
        <r>  0.0289 </r>
       </set>
       <set comment="band 6">
        <r>  0.5914 </r>
       </set>
       <set comment="band 7">
        <r>  0.0104 </r>
       </set>
       <set comment="band 8">
        <r>  0.0000 </r>
       </set>
       <set comment="band 9">
        <r> 44.0305 </r>
       </set>
      </set>
      <set comment="kpoint 6">
       <set comment="band 1">
        <r>  0.6752 </r>
       </set>
       <set comment="band 2">
        <r>  0.0000 </r>
       </set>
       <set comment="band 3">
        <r>  0.0148 </r>
       </set>
       <set comment="band 4">
        <r>  0.0002 </r>
       </set>
       <set comment="band 5">
        <r>  0.0000 </r>
       </set>
       <set comment="band 6">
        <r>  0.0194 </r>
       </set>
       <set comment="band 7">
        <r> 43.4061 </r>
       </set>
       <set comment="band 8">
        <r>  0.4430 </r>
       </set>
       <set comment="band 9">
        <r>  0.1469 </r>
       </set>
      </set>
      <set comment="kpoint 7">
       <set comment="band 1">
        <r>  0.3247 </r>
       </set>
       <set comment="band 2">
        <r>  0.0000 </r>
       </set>
       <set comment="band 3">
        <r>  0.0525 </r>
       </set>
       <set comment="band 4">
        <r>  0.0353 </r>
       </set>
       <set comment="band 5">
        <r>  0.0420 </r>
       </set>
       <set comment="band 6">
        <r>  0.0000 </r>
       </set>
       <set comment="band 7">
        <r>  0.2108 </r>
       </set>
       <set comment="band 8">
        <r>  0.7527 </r>
       </set>
       <set comment="band 9">
        <r> 43.4172 </r>
       </set>
      </set>
      <set comment="kpoint 8">
       <set comment="band 1">
        <r>  0.4049 </r>
       </set>
       <set comment="band 2">
        <r>  0.0000 </r>
       </set>
       <set comment="band 3">
        <r>  0.0105 </r>
       </set>
       <set comment="band 4">
        <r>  0.0000 </r>
       </set>
       <set comment="band 5">
        <r>  0.0912 </r>
       </set>
       <set comment="band 6">
        <r>  0.0366 </r>
       </set>
       <set comment="band 7">
        <r>  0.2417 </r>
       </set>
       <set comment="band 8">
        <r> 43.8990 </r>
       </set>
       <set comment="band 9">
        <r>  0.0000 </r>
       </set>
      </set>
      <set comment="kpoint 9">
       <set comment="band 1">
        <r>  0.1831 </r>
       </set>
       <set comment="band 2">
        <r>  0.0232 </r>
       </set>
       <set comment="band 3">
        <r>  0.0000 </r>
       </set>
       <set comment="band 4">
        <r>  0.0700 </r>
       </set>
       <set comment="band 5">
        <r>  0.0000 </r>
       </set>
       <set comment="band 6">
        <r>  0.0000 </r>
       </set>
       <set comment="band 7">
        <r>  0.4662 </r>
       </set>
       <set comment="band 8">
        <r> 42.8617 </r>
       </set>
       <set comment="band 9">
        <r>  1.1767 </r>
       </set>
      </set>
      <set comment="kpoint 10">
       <set comment="band 1">
        <r>  0.0000 </r>
       </set>
       <set comment="band 2">
        <r>  0.0000 </r>
       </set>
       <set comment="band 3">
        <r>  0.0000 </r>
       </set>
       <set comment="band 4">
        <r>  0.0000 </r>
       </set>
       <set comment="band 5">
        <r>  0.0000 </r>
       </set>
       <set comment="band 6">
        <r>  0.9579 </r>
       </set>
       <set comment="band 7">
        <r>  0.0000 </r>
       </set>
       <set comment="band 8">
        <r>  0.0000 </r>
       </set>
       <set comment="band 9">
        <r>  0.0000 </r>
       </set>
      </set>
      <set comment="kpoint 11">
       <set comment="band 1">
        <r>  0.4591 </r>
       </set>
       <set comment="band 2">
        <r>  0.0000 </r>
       </set>
       <set comment="band 3">
        <r>  0.0000 </r>
       </set>
       <set comment="band 4">
        <r>  0.0000 </r>
       </set>
       <set comment="band 5">
        <r>  0.0000 </r>
       </set>
       <set comment="band 6">
        <r>  0.1855 </r>
       </set>
       <set comment="band 7">
        <r> 42.4309 </r>
       </set>
       <set comment="band 8">
        <r>  1.5719 </r>
       </set>
       <set comment="band 9">
        <r>  0.0000 </r>
       </set>
      </set>
      <set comment="kpoint 12">
       <set comment="band 1">
        <r>  0.1025 </r>
       </set>
       <set comment="band 2">
        <r>  0.0256 </r>
       </set>
       <set comment="band 3">
        <r>  0.0000 </r>
       </set>
       <set comment="band 4">
        <r>  0.1247 </r>
       </set>
       <set comment="band 5">
        <r>  0.0000 </r>
       </set>
       <set comment="band 6">
        <r>  0.1971 </r>
       </set>
       <set comment="band 7">
        <r>  0.2026 </r>
       </set>
       <set comment="band 8">
        <r> 43.9199 </r>
       </set>
       <set comment="band 9">
        <r>  0.0000 </r>
       </set>
      </set>
      <set comment="kpoint 13">
       <set comment="band 1">
        <r>  0.0000 </r>
       </set>
       <set comment="band 2">
        <r>  0.0000 </r>
       </set>
       <set comment="band 3">
        <r>  0.1452 </r>
       </set>
       <set comment="band 4">
        <r>  0.0000 </r>
       </set>
       <set comment="band 5">
        <r>  0.0000 </r>
       </set>
       <set comment="band 6">
        <r>  0.3910 </r>
       </set>
       <set comment="band 7">
        <r>  0.0000 </r>
       </set>
       <set comment="band 8">
        <r>  0.0000 </r>
       </set>
       <set comment="band 9">
        <r> 43.8498 </r>
       </set>
      </set>
      <set comment="kpoint 14">
       <set comment="band 1">
        <r>  0.0000 </r>
       </set>
       <set comment="band 2">
        <r>  0.0055 </r>
       </set>
       <set comment="band 3">
        <r>  0.0000 </r>
       </set>
       <set comment="band 4">
        <r>  0.0000 </r>
       </set>
       <set comment="band 5">
        <r>  0.0000 </r>
       </set>
       <set comment="band 6">
        <r>  0.2520 </r>
       </set>
       <set comment="band 7">
        <r>  0.0000 </r>
       </set>
       <set comment="band 8">
        <r>  0.0000 </r>
       </set>
       <set comment="band 9">
        <r> 43.2635 </r>
       </set>
      </set>
     </set>
    </set>
   </array>
  </projected>
 </calculation>
 <structure name="finalpos" >
  <crystal>
   <varray name="basis" >
    <v>      -1.63500000       1.63500000       1.63500000 </v>
    <v>       1.63500000      -1.63500000       1.63500000 </v>
    <v>       1.63500000       1.63500000      -1.63500000 </v>
   </varray>
   <i name="volume">     17.48289150 </i>
   <varray name="rec_basis" >
    <v>       0.00000000       0.30581040       0.30581040 </v>
    <v>       0.30581040       0.00000000       0.30581040 </v>
    <v>       0.30581040       0.30581040       0.00000000 </v>
   </varray>
  </crystal>
  <varray name="positions" >
   <v>       0.00000000       0.00000000       0.00000000 </v>
  </varray>
 </structure>
</modeling>
