unknown system                          
           1
    -1.635000    1.635000    1.635000
     1.635000   -1.635000    1.635000
     1.635000    1.635000   -1.635000
   Ta
   1
Direct configuration=     1
   0.00000000  0.00000000  0.00000000
