   1   1   0   0
  0.1813235E+02  0.2866544E-09  0.2866544E-09  0.2866544E-09  0.5000000E-15
  1.000000000000000E-004
  CAR 
 unknown system                          
     16.45912255     -2.83534959  301      5.68202446      1.00000000
     -2.835  0.0000E+00  0.0000E+00
     -2.771  0.0000E+00  0.0000E+00
     -2.707  0.0000E+00  0.0000E+00
     -2.642  0.0000E+00  0.0000E+00
     -2.578  0.0000E+00  0.0000E+00
     -2.514  0.0000E+00  0.0000E+00
     -2.449  0.0000E+00  0.0000E+00
     -2.385 -0.1014E-31 -0.6519E-33
     -2.321 -0.5672E-23 -0.3648E-24
     -2.257 -0.1123E-15 -0.7225E-17
     -2.192 -0.7408E-10 -0.4764E-11
     -2.128 -0.1657E-05 -0.1066E-06
     -2.064 -0.1046E-02 -0.6738E-04
     -1.999  0.2047E-02  0.6428E-04
     -1.935  0.1579E+00  0.1022E-01
     -1.871  0.3067E-01  0.1220E-01
     -1.806 -0.3020E-02  0.1200E-01
     -1.742 -0.1391E-04  0.1200E-01
     -1.678 -0.1122E-03  0.1199E-01
     -1.613 -0.7659E-02  0.1150E-01
     -1.549  0.1055E+00  0.1828E-01
     -1.485  0.1597E+00  0.2856E-01
     -1.420 -0.8269E-02  0.2802E-01
     -1.356 -0.3674E-03  0.2800E-01
     -1.292 -0.7307E-04  0.2800E-01
     -1.227 -0.1358E-01  0.2712E-01
     -1.163  0.1460E+00  0.3651E-01
     -1.099  0.6179E+00  0.7625E-01
     -1.035 -0.3701E-03  0.7623E-01
     -0.970 -0.3523E-02  0.7600E-01
     -0.906 -0.4847E-05  0.7600E-01
     -0.842 -0.1903E-09  0.7600E-01
     -0.777 -0.3314E-15  0.7600E-01
     -0.713 -0.1597E-14  0.7600E-01
     -0.649 -0.8059E-09  0.7600E-01
     -0.584 -0.1337E-04  0.7600E-01
     -0.520 -0.6084E-02  0.7561E-01
     -0.456  0.3151E-01  0.7763E-01
     -0.391  0.6756E+00  0.1211E+00
     -0.327  0.2370E+00  0.1363E+00
     -0.263 -0.3810E-02  0.1361E+00
     -0.198 -0.1549E-02  0.1360E+00
     -0.134 -0.2108E-01  0.1346E+00
     -0.070  0.2751E+00  0.1523E+00
     -0.005  0.5167E+00  0.1856E+00
      0.059 -0.2394E-01  0.1840E+00
      0.123 -0.2520E-01  0.1824E+00
      0.187  0.5010E+00  0.2146E+00
      0.252  0.2925E+00  0.2334E+00
      0.316 -0.2192E-01  0.2320E+00
      0.380 -0.2797E-03  0.2320E+00
      0.445 -0.7381E-07  0.2320E+00
      0.509 -0.6100E-12  0.2320E+00
      0.573 -0.5308E-13  0.2320E+00
      0.638 -0.1178E-07  0.2320E+00
      0.702 -0.8387E-04  0.2320E+00
      0.766 -0.1506E-01  0.2310E+00
      0.831  0.1143E+00  0.2384E+00
      0.895  0.1221E+01  0.3169E+00
      0.959  0.9705E+00  0.3793E+00
      1.024 -0.4938E-01  0.3762E+00
      1.088 -0.3170E-02  0.3760E+00
      1.152 -0.4453E-01  0.3731E+00
      1.216  0.5595E+00  0.4091E+00
      1.281  0.1708E+01  0.5189E+00
      1.345  0.2716E-01  0.5206E+00
      1.409 -0.3245E-01  0.5186E+00
      1.474  0.5178E+00  0.5519E+00
      1.538  0.6695E+00  0.5949E+00
      1.602  0.6058E+00  0.6339E+00
      1.667  0.1058E+00  0.6407E+00
      1.731 -0.1066E-01  0.6400E+00
      1.795 -0.8175E-02  0.6395E+00
      1.860 -0.1179E-01  0.6387E+00
      1.924  0.1451E+01  0.7320E+00
      1.988  0.1790E+01  0.8471E+00
      2.053  0.1659E+01  0.9538E+00
      2.117  0.8455E+00  0.1008E+01
      2.181  0.6048E+00  0.1047E+01
      2.246  0.3372E+00  0.1069E+01
      2.310  0.1129E+01  0.1141E+01
      2.374  0.1277E+01  0.1224E+01
      2.438  0.4659E+00  0.1254E+01
      2.503  0.1362E+00  0.1262E+01
      2.567  0.5965E+00  0.1301E+01
      2.631 -0.3166E-01  0.1299E+01
      2.696  0.4578E+00  0.1328E+01
      2.760  0.7760E+00  0.1378E+01
      2.824  0.3046E+01  0.1574E+01
      2.889  0.1871E+01  0.1694E+01
      2.953  0.1299E+01  0.1778E+01
      3.017  0.3831E+00  0.1802E+01
      3.082 -0.1362E-01  0.1802E+01
      3.146  0.1754E+01  0.1914E+01
      3.210  0.1614E+01  0.2018E+01
      3.275  0.7230E+00  0.2065E+01
      3.339  0.6179E-01  0.2069E+01
      3.403 -0.1143E-01  0.2068E+01
      3.468  0.1630E-01  0.2069E+01
      3.532  0.2172E+00  0.2083E+01
      3.596 -0.7210E-02  0.2082E+01
      3.660  0.4164E+00  0.2109E+01
      3.725  0.8949E+00  0.2167E+01
      3.789  0.1416E+01  0.2258E+01
      3.853  0.5597E+00  0.2294E+01
      3.918  0.4941E+00  0.2326E+01
      3.982 -0.2735E-01  0.2324E+01
      4.046  0.3382E-01  0.2326E+01
      4.111  0.2820E+00  0.2344E+01
      4.175  0.1657E+01  0.2451E+01
      4.239  0.2522E+01  0.2613E+01
      4.304  0.6494E+00  0.2655E+01
      4.368  0.2565E+01  0.2820E+01
      4.432  0.4230E+01  0.3092E+01
      4.497  0.1036E+01  0.3158E+01
      4.561  0.1156E+01  0.3233E+01
      4.625  0.1813E+01  0.3349E+01
      4.689  0.1370E+01  0.3437E+01
      4.754  0.5039E+00  0.3470E+01
      4.818  0.1454E+01  0.3563E+01
      4.882  0.1226E+01  0.3642E+01
      4.947  0.2441E+01  0.3799E+01
      5.011  0.3191E+01  0.4004E+01
      5.075  0.6684E+00  0.4047E+01
      5.140 -0.9676E-01  0.4041E+01
      5.204  0.4357E+00  0.4069E+01
      5.268  0.2899E+01  0.4256E+01
      5.333  0.2675E+01  0.4428E+01
      5.397  0.2188E+01  0.4568E+01
      5.461  0.7591E+00  0.4617E+01
      5.526  0.9582E+00  0.4679E+01
      5.590  0.1165E+01  0.4754E+01
      5.654  0.3215E+01  0.4960E+01
      5.719  0.1545E+01  0.5060E+01
      5.783  0.1675E+01  0.5168E+01
      5.847  0.7154E-01  0.5172E+01
      5.911  0.2332E-01  0.5174E+01
      5.976  0.1782E+01  0.5288E+01
      6.040  0.9612E+00  0.5350E+01
      6.104  0.1223E+01  0.5429E+01
      6.169  0.1675E+01  0.5537E+01
      6.233  0.7929E+00  0.5588E+01
      6.297  0.8097E-02  0.5588E+01
      6.362  0.3131E-01  0.5590E+01
      6.426  0.5474E+00  0.5625E+01
      6.490  0.1737E+00  0.5636E+01
      6.555  0.1320E+00  0.5645E+01
      6.619  0.6627E+00  0.5688E+01
      6.683  0.3034E+00  0.5707E+01
      6.748  0.5820E+00  0.5744E+01
      6.812 -0.4345E-01  0.5742E+01
      6.876  0.1084E+01  0.5811E+01
      6.941  0.5033E+00  0.5844E+01
      7.005  0.6633E+00  0.5886E+01
      7.069  0.7589E+00  0.5935E+01
      7.133  0.6009E-02  0.5936E+01
      7.198  0.1745E+00  0.5947E+01
      7.262  0.7936E+00  0.5998E+01
      7.326  0.2096E+00  0.6011E+01
      7.391  0.5734E+00  0.6048E+01
      7.455  0.3756E+00  0.6072E+01
      7.519  0.8301E+00  0.6126E+01
      7.584  0.7295E+00  0.6173E+01
      7.648  0.6210E+00  0.6213E+01
      7.712  0.5995E-01  0.6217E+01
      7.777 -0.8006E-02  0.6216E+01
      7.841 -0.2438E-04  0.6216E+01
      7.905 -0.1711E-02  0.6216E+01
      7.970 -0.3564E-01  0.6214E+01
      8.034  0.6420E+00  0.6255E+01
      8.098  0.1401E+01  0.6345E+01
      8.162  0.1224E+01  0.6424E+01
      8.227  0.1327E+01  0.6509E+01
      8.291 -0.8956E-01  0.6503E+01
      8.355  0.7483E-01  0.6508E+01
      8.420  0.1282E+01  0.6591E+01
      8.484  0.4540E+00  0.6620E+01
      8.548  0.5816E+00  0.6657E+01
      8.613  0.7589E+00  0.6706E+01
      8.677  0.1596E+01  0.6809E+01
      8.741  0.1283E+01  0.6891E+01
      8.806  0.3209E+00  0.6912E+01
      8.870  0.8364E+00  0.6966E+01
      8.934  0.1769E+01  0.7079E+01
      8.999  0.1154E+01  0.7154E+01
      9.063  0.6024E+00  0.7192E+01
      9.127  0.1425E+01  0.7284E+01
      9.192  0.2253E+01  0.7429E+01
      9.256  0.1228E+01  0.7508E+01
      9.320  0.2411E+00  0.7523E+01
      9.384  0.1828E+01  0.7641E+01
      9.449  0.1228E+01  0.7720E+01
      9.513  0.9788E+00  0.7783E+01
      9.577  0.1050E+01  0.7850E+01
      9.642 -0.2634E-01  0.7849E+01
      9.706  0.1033E+01  0.7915E+01
      9.770  0.1373E+01  0.8003E+01
      9.835  0.1466E+01  0.8098E+01
      9.899  0.4329E+00  0.8126E+01
      9.963  0.3972E-02  0.8126E+01
     10.028  0.1204E+01  0.8203E+01
     10.092  0.1943E+01  0.8328E+01
     10.156  0.1522E+01  0.8426E+01
     10.221  0.6461E+00  0.8468E+01
     10.285  0.9594E+00  0.8529E+01
     10.349  0.1368E+01  0.8617E+01
     10.414  0.1173E+01  0.8693E+01
     10.478  0.3706E+01  0.8931E+01
     10.542  0.1847E+01  0.9050E+01
     10.606  0.3833E+01  0.9296E+01
     10.671  0.2818E+01  0.9478E+01
     10.735  0.4457E+01  0.9764E+01
     10.799  0.3179E+01  0.9969E+01
     10.864  0.2713E+01  0.1014E+02
     10.928  0.1205E+01  0.1022E+02
     10.992  0.9065E+00  0.1028E+02
     11.057  0.6921E-01  0.1028E+02
     11.121  0.2343E+00  0.1030E+02
     11.185  0.5168E+00  0.1033E+02
     11.250  0.3345E+00  0.1035E+02
     11.314  0.4787E+00  0.1038E+02
     11.378  0.2816E+00  0.1040E+02
     11.443  0.3120E+00  0.1042E+02
     11.507  0.2297E+00  0.1044E+02
     11.571 -0.2083E-01  0.1044E+02
     11.636  0.1455E-01  0.1044E+02
     11.700  0.6228E+00  0.1048E+02
     11.764  0.3033E+00  0.1050E+02
     11.828  0.5718E+00  0.1053E+02
     11.893 -0.1526E-01  0.1053E+02
     11.957 -0.1588E-01  0.1053E+02
     12.021  0.5804E+00  0.1057E+02
     12.086  0.1988E+00  0.1058E+02
     12.150 -0.2094E-01  0.1058E+02
     12.214 -0.3332E-02  0.1058E+02
     12.279  0.7470E+00  0.1063E+02
     12.343  0.2121E+00  0.1064E+02
     12.407 -0.1888E-01  0.1064E+02
     12.472 -0.1735E-01  0.1064E+02
     12.536  0.2047E+00  0.1065E+02
     12.600  0.5327E+00  0.1069E+02
     12.665  0.3634E+00  0.1071E+02
     12.729  0.2918E+01  0.1090E+02
     12.793  0.1176E+01  0.1097E+02
     12.857  0.1118E+01  0.1104E+02
     12.922  0.1640E+01  0.1115E+02
     12.986  0.1380E+01  0.1124E+02
     13.050  0.1651E+00  0.1125E+02
     13.115  0.1266E+01  0.1133E+02
     13.179  0.2190E-01  0.1133E+02
     13.243 -0.8784E-02  0.1133E+02
     13.308 -0.1450E-04  0.1133E+02
     13.372 -0.2940E-06  0.1133E+02
     13.436 -0.3896E-03  0.1133E+02
     13.501 -0.5480E-02  0.1133E+02
     13.565  0.1242E+00  0.1134E+02
     13.629  0.1176E+00  0.1135E+02
     13.694  0.6491E+00  0.1139E+02
     13.758  0.4392E-01  0.1139E+02
     13.822  0.1479E+00  0.1140E+02
     13.887  0.2205E+00  0.1142E+02
     13.951  0.2677E+00  0.1143E+02
     14.015  0.5117E+00  0.1147E+02
     14.079 -0.2299E-01  0.1146E+02
     14.144 -0.1406E-02  0.1146E+02
     14.208 -0.6725E-05  0.1146E+02
     14.272 -0.4293E-02  0.1146E+02
     14.337 -0.1107E-01  0.1146E+02
     14.401  0.8757E+00  0.1152E+02
     14.465  0.2540E+00  0.1154E+02
     14.530  0.2643E+00  0.1155E+02
     14.594  0.1644E+01  0.1166E+02
     14.658  0.4073E+00  0.1168E+02
     14.723  0.1775E+00  0.1170E+02
     14.787  0.1022E-02  0.1170E+02
     14.851 -0.2332E-02  0.1170E+02
     14.916 -0.4734E-01  0.1169E+02
     14.980  0.6991E+00  0.1174E+02
     15.044  0.9851E+00  0.1180E+02
     15.109  0.1261E+01  0.1188E+02
     15.173  0.9929E-01  0.1189E+02
     15.237 -0.5132E-02  0.1189E+02
     15.301  0.6170E+00  0.1193E+02
     15.366  0.3154E+00  0.1195E+02
     15.430  0.5704E+00  0.1198E+02
     15.494 -0.1702E-01  0.1198E+02
     15.559  0.3842E-01  0.1199E+02
     15.623  0.2106E+00  0.1200E+02
     15.687  0.2729E-02  0.1200E+02
     15.752 -0.1395E-02  0.1200E+02
     15.816 -0.2209E-05  0.1200E+02
     15.880 -0.9877E-10  0.1200E+02
     15.945 -0.1657E-15  0.1200E+02
     16.009  0.0000E+00  0.1200E+02
     16.073  0.0000E+00  0.1200E+02
     16.138  0.0000E+00  0.1200E+02
     16.202  0.0000E+00  0.1200E+02
     16.266  0.0000E+00  0.1200E+02
     16.330  0.0000E+00  0.1200E+02
     16.395  0.0000E+00  0.1200E+02
     16.459  0.0000E+00  0.1200E+02
