   1   1   1   0
  0.1813235E+02  0.2866544E-09  0.2866544E-09  0.2866544E-09  0.5000000E-15
  1.000000000000000E-004
  CAR 
 unknown system                          
     16.46589047     -2.84617531  301      5.68021965      1.00000000
     -2.846  0.0000E+00  0.0000E+00  0.0000E+00  0.0000E+00
     -2.782  0.0000E+00  0.0000E+00  0.0000E+00  0.0000E+00
     -2.717  0.0000E+00  0.0000E+00  0.0000E+00  0.0000E+00
     -2.653  0.0000E+00  0.0000E+00  0.0000E+00  0.0000E+00
     -2.589  0.0000E+00  0.0000E+00  0.0000E+00  0.0000E+00
     -2.524  0.0000E+00  0.0000E+00  0.0000E+00  0.0000E+00
     -2.460  0.0000E+00  0.0000E+00  0.0000E+00  0.0000E+00
     -2.396 -0.1231E-34 -0.4437E-32 -0.7925E-36 -0.2856E-33
     -2.331 -0.1728E-25 -0.2577E-23 -0.1112E-26 -0.1659E-24
     -2.267 -0.8554E-18 -0.5264E-16 -0.5507E-19 -0.3389E-17
     -2.202 -0.1417E-11 -0.3559E-10 -0.9123E-13 -0.2291E-11
     -2.138 -0.8029E-07 -0.8115E-06 -0.5169E-08 -0.5224E-07
     -2.074 -0.1364E-03 -0.5190E-03 -0.8783E-05 -0.3346E-04
     -2.009 -0.3101E-02  0.1002E-02 -0.2084E-03  0.3107E-04
     -1.945  0.5986E-01  0.7894E-01  0.3645E-02  0.5113E-02
     -1.881  0.3949E-01  0.1529E-01  0.6187E-02  0.6097E-02
     -1.816 -0.2865E-02 -0.1502E-02  0.6003E-02  0.6000E-02
     -1.752 -0.4153E-04 -0.6843E-05  0.6000E-02  0.6000E-02
     -1.687 -0.9593E-05 -0.5780E-04  0.5999E-02  0.5996E-02
     -1.623 -0.2049E-02 -0.3859E-02  0.5867E-02  0.5748E-02
     -1.559  0.2109E-01  0.5359E-01  0.7225E-02  0.9198E-02
     -1.494  0.1049E+00  0.7894E-01  0.1398E-01  0.1428E-01
     -1.430  0.1050E-02 -0.4165E-02  0.1404E-01  0.1401E-01
     -1.366 -0.6703E-03 -0.1750E-03  0.1400E-01  0.1400E-01
     -1.301 -0.6327E-05 -0.3945E-04  0.1400E-01  0.1400E-01
     -1.237 -0.2701E-02 -0.7030E-02  0.1383E-01  0.1354E-01
     -1.172  0.1251E-01  0.7704E-01  0.1463E-01  0.1850E-01
     -1.108  0.3235E+00  0.3061E+00  0.3546E-01  0.3821E-01
     -1.044  0.4443E-01 -0.1561E-02  0.3832E-01  0.3811E-01
     -0.979 -0.4903E-02 -0.1643E-02  0.3800E-01  0.3800E-01
     -0.915 -0.1748E-04 -0.2124E-05  0.3800E-01  0.3800E-01
     -0.851 -0.1606E-08 -0.7823E-10  0.3800E-01  0.3800E-01
     -0.786 -0.4719E-14 -0.8278E-16  0.3800E-01  0.3800E-01
     -0.722 -0.2005E-16 -0.1066E-14  0.3800E-01  0.3800E-01
     -0.657 -0.2276E-10 -0.5133E-09  0.3800E-01  0.3800E-01
     -0.593 -0.8787E-06 -0.7967E-05  0.3800E-01  0.3800E-01
     -0.529 -0.9934E-03 -0.3340E-02  0.3794E-01  0.3778E-01
     -0.464 -0.9455E-02  0.2005E-01  0.3733E-01  0.3908E-01
     -0.400  0.2794E+00  0.3405E+00  0.5531E-01  0.6099E-01
     -0.336  0.1920E+00  0.1118E+00  0.6767E-01  0.6819E-01
     -0.271  0.6731E-02 -0.2395E-02  0.6811E-01  0.6804E-01
     -0.207 -0.1649E-02 -0.7264E-03  0.6800E-01  0.6799E-01
     -0.142 -0.5658E-02 -0.1108E-01  0.6763E-01  0.6728E-01
     -0.078  0.5569E-01  0.1493E+00  0.7122E-01  0.7689E-01
     -0.014  0.3186E+00  0.2474E+00  0.9173E-01  0.9282E-01
      0.051  0.6274E-02 -0.1282E-01  0.9214E-01  0.9199E-01
      0.115 -0.1369E-01 -0.1160E-01  0.9125E-01  0.9124E-01
      0.179  0.1572E+00  0.2622E+00  0.1014E+00  0.1081E+00
      0.244  0.2401E+00  0.1328E+00  0.1168E+00  0.1167E+00
      0.308 -0.1238E-01 -0.1027E-01  0.1160E+00  0.1160E+00
      0.373 -0.5508E-03 -0.1113E-03  0.1160E+00  0.1160E+00
      0.437 -0.3264E-06 -0.2571E-07  0.1160E+00  0.1160E+00
      0.501 -0.5797E-11 -0.1858E-12  0.1160E+00  0.1160E+00
      0.566 -0.1052E-14 -0.4653E-13  0.1160E+00  0.1160E+00
      0.630 -0.5083E-09 -0.9089E-08  0.1160E+00  0.1160E+00
      0.694 -0.7923E-05 -0.5636E-04  0.1160E+00  0.1160E+00
      0.759 -0.3400E-02 -0.8538E-02  0.1158E+00  0.1154E+00
      0.823  0.7856E-02  0.7099E-01  0.1163E+00  0.1200E+00
      0.887  0.4719E+00  0.6337E+00  0.1467E+00  0.1608E+00
      0.952  0.6467E+00  0.4490E+00  0.1883E+00  0.1897E+00
      1.016 -0.7866E-03 -0.2566E-01  0.1882E+00  0.1881E+00
      1.081 -0.3826E-02 -0.1402E-02  0.1880E+00  0.1880E+00
      1.145 -0.1276E-01 -0.2411E-01  0.1872E+00  0.1864E+00
      1.209  0.1113E+00  0.3225E+00  0.1943E+00  0.2072E+00
      1.274  0.9144E+00  0.8247E+00  0.2532E+00  0.2603E+00
      1.338  0.1189E+00 -0.5622E-03  0.2609E+00  0.2602E+00
      1.402 -0.2599E-01 -0.1324E-01  0.2592E+00  0.2594E+00
      1.467  0.1771E+00  0.2714E+00  0.2706E+00  0.2769E+00
      1.531  0.3341E+00  0.3378E+00  0.2921E+00  0.2986E+00
      1.596  0.3419E+00  0.2919E+00  0.3141E+00  0.3174E+00
      1.660  0.9911E-01  0.4539E-01  0.3205E+00  0.3203E+00
      1.724 -0.7211E-02 -0.4818E-02  0.3200E+00  0.3200E+00
      1.789 -0.1602E-02 -0.5024E-02  0.3199E+00  0.3197E+00
      1.853 -0.2839E-01  0.5016E-02  0.3181E+00  0.3200E+00
      1.917  0.5278E+00  0.7655E+00  0.3521E+00  0.3693E+00
      1.982  0.9530E+00  0.8859E+00  0.4134E+00  0.4263E+00
      2.046  0.8291E+00  0.8219E+00  0.4668E+00  0.4792E+00
      2.111  0.5421E+00  0.3914E+00  0.5017E+00  0.5044E+00
      2.175  0.2654E+00  0.3124E+00  0.5188E+00  0.5245E+00
      2.239  0.2164E+00  0.1659E+00  0.5327E+00  0.5352E+00
      2.304  0.4305E+00  0.5915E+00  0.5604E+00  0.5733E+00
      2.368  0.6750E+00  0.6233E+00  0.6039E+00  0.6134E+00
      2.432  0.3621E+00  0.2054E+00  0.6272E+00  0.6266E+00
      2.497  0.1305E-01  0.7566E-01  0.6280E+00  0.6315E+00
      2.561  0.3252E+00  0.2935E+00  0.6489E+00  0.6504E+00
      2.626  0.6944E-02 -0.1663E-01  0.6494E+00  0.6493E+00
      2.690  0.1690E+00  0.2335E+00  0.6603E+00  0.6644E+00
      2.754  0.2936E+00  0.4372E+00  0.6792E+00  0.6925E+00
      2.819  0.1377E+01  0.1547E+01  0.7678E+00  0.7921E+00
      2.883  0.1141E+01  0.8744E+00  0.8413E+00  0.8483E+00
      2.947  0.6219E+00  0.6587E+00  0.8813E+00  0.8907E+00
      3.012  0.3025E+00  0.1609E+00  0.9008E+00  0.9011E+00
      3.076 -0.1544E-01  0.7460E-02  0.8998E+00  0.9016E+00
      3.141  0.6493E+00  0.9403E+00  0.9416E+00  0.9621E+00
      3.205  0.9694E+00  0.7410E+00  0.1004E+01  0.1010E+01
      3.269  0.3990E+00  0.3558E+00  0.1030E+01  0.1033E+01
      3.334  0.7505E-01  0.2377E-01  0.1035E+01  0.1034E+01
      3.398 -0.8259E-02 -0.5568E-02  0.1034E+01  0.1034E+01
      3.462 -0.1381E-02  0.1442E-01  0.1034E+01  0.1035E+01
      3.527  0.9975E-01  0.1073E+00  0.1040E+01  0.1042E+01
      3.591  0.1708E-01 -0.8157E-02  0.1041E+01  0.1041E+01
      3.656  0.1402E+00  0.2303E+00  0.1050E+01  0.1056E+01
      3.720  0.4083E+00  0.4663E+00  0.1077E+01  0.1086E+01
      3.784  0.7171E+00  0.6903E+00  0.1123E+01  0.1130E+01
      3.849  0.3227E+00  0.2677E+00  0.1144E+01  0.1148E+01
      3.913  0.2884E+00  0.2346E+00  0.1162E+01  0.1163E+01
      3.977 -0.2784E-02 -0.1542E-01  0.1162E+01  0.1162E+01
      4.042 -0.8618E-04  0.2790E-01  0.1162E+01  0.1164E+01
      4.106  0.1285E+00  0.1486E+00  0.1170E+01  0.1173E+01
      4.171  0.5702E+00  0.9445E+00  0.1207E+01  0.1234E+01
      4.235  0.1480E+01  0.1136E+01  0.1302E+01  0.1307E+01
      4.299  0.2424E+00  0.3960E+00  0.1318E+01  0.1333E+01
      4.364  0.1139E+01  0.1356E+01  0.1391E+01  0.1420E+01
      4.428  0.2116E+01  0.2062E+01  0.1527E+01  0.1553E+01
      4.492  0.7423E+00  0.4505E+00  0.1575E+01  0.1582E+01
      4.557  0.5199E+00  0.5898E+00  0.1609E+01  0.1620E+01
      4.621  0.8646E+00  0.9384E+00  0.1664E+01  0.1680E+01
      4.686  0.7616E+00  0.6368E+00  0.1713E+01  0.1721E+01
      4.750  0.2654E+00  0.2666E+00  0.1730E+01  0.1738E+01
      4.814  0.6862E+00  0.7322E+00  0.1775E+01  0.1785E+01
      4.879  0.5942E+00  0.6279E+00  0.1813E+01  0.1826E+01
      4.943  0.1088E+01  0.1303E+01  0.1883E+01  0.1910E+01
      5.007  0.1659E+01  0.1532E+01  0.1990E+01  0.2008E+01
      5.072  0.5289E+00  0.2373E+00  0.2024E+01  0.2023E+01
      5.136 -0.4084E-01 -0.5072E-01  0.2021E+01  0.2020E+01
      5.201  0.9085E-01  0.3160E+00  0.2027E+01  0.2041E+01
      5.265  0.1315E+01  0.1513E+01  0.2112E+01  0.2138E+01
      5.329  0.1407E+01  0.1294E+01  0.2202E+01  0.2221E+01
      5.394  0.1131E+01  0.1053E+01  0.2275E+01  0.2289E+01
      5.458  0.4838E+00  0.3275E+00  0.2306E+01  0.2310E+01
      5.522  0.4106E+00  0.5081E+00  0.2333E+01  0.2343E+01
      5.587  0.5282E+00  0.6722E+00  0.2367E+01  0.2386E+01
      5.651  0.1596E+01  0.1552E+01  0.2469E+01  0.2486E+01
      5.716  0.7914E+00  0.7937E+00  0.2520E+01  0.2537E+01
      5.780  0.9110E+00  0.7592E+00  0.2579E+01  0.2586E+01
      5.844  0.1183E+00 -0.3691E-02  0.2587E+01  0.2586E+01
      5.909 -0.2925E-01  0.6604E-01  0.2585E+01  0.2590E+01
      5.973  0.7810E+00  0.9402E+00  0.2635E+01  0.2650E+01
      6.037  0.5703E+00  0.4169E+00  0.2672E+01  0.2677E+01
      6.102  0.5253E+00  0.6971E+00  0.2706E+01  0.2722E+01
      6.166  0.8830E+00  0.7830E+00  0.2762E+01  0.2773E+01
      6.230  0.4573E+00  0.3418E+00  0.2792E+01  0.2795E+01
      6.295  0.3716E-01 -0.1112E-01  0.2794E+01  0.2794E+01
      6.359 -0.3892E-02  0.3822E-01  0.2794E+01  0.2796E+01
      6.424  0.2423E+00  0.2850E+00  0.2810E+01  0.2815E+01
      6.488  0.1349E+00  0.5491E-01  0.2818E+01  0.2818E+01
      6.552  0.3909E-01  0.9479E-01  0.2821E+01  0.2824E+01
      6.617  0.3102E+00  0.3317E+00  0.2841E+01  0.2846E+01
      6.681  0.1690E+00  0.1625E+00  0.2852E+01  0.2856E+01
      6.745  0.3096E+00  0.2552E+00  0.2872E+01  0.2873E+01
      6.810 -0.1696E-01 -0.8651E-02  0.2870E+01  0.2872E+01
      6.874  0.4370E+00  0.6090E+00  0.2899E+01  0.2911E+01
      6.939  0.3525E+00  0.1833E+00  0.2921E+01  0.2923E+01
      7.003  0.2793E+00  0.3799E+00  0.2939E+01  0.2947E+01
      7.067  0.4141E+00  0.3274E+00  0.2966E+01  0.2968E+01
      7.132  0.3146E-01 -0.1211E-01  0.2968E+01  0.2968E+01
      7.196  0.5906E-01  0.1193E+00  0.2972E+01  0.2975E+01
      7.260  0.3680E+00  0.4076E+00  0.2995E+01  0.3002E+01
      7.325  0.1613E+00  0.6673E-01  0.3006E+01  0.3006E+01
      7.389  0.2140E+00  0.3460E+00  0.3020E+01  0.3028E+01
      7.454  0.2525E+00  0.1365E+00  0.3036E+01  0.3037E+01
      7.518  0.3359E+00  0.4848E+00  0.3058E+01  0.3068E+01
      7.582  0.4242E+00  0.3130E+00  0.3085E+01  0.3088E+01
      7.647  0.3035E+00  0.3017E+00  0.3104E+01  0.3108E+01
      7.711  0.6275E-01  0.5971E-02  0.3108E+01  0.3108E+01
      7.775 -0.6229E-02 -0.2257E-02  0.3108E+01  0.3108E+01
      7.840 -0.2984E-04 -0.5666E-05  0.3108E+01  0.3108E+01
      7.904 -0.4623E-03 -0.1602E-02  0.3108E+01  0.3108E+01
      7.969 -0.1754E-01 -0.1382E-01  0.3107E+01  0.3107E+01
      8.033  0.2464E+00  0.4108E+00  0.3123E+01  0.3133E+01
      8.097  0.7310E+00  0.6457E+00  0.3170E+01  0.3175E+01
      8.162  0.5243E+00  0.7352E+00  0.3204E+01  0.3222E+01
      8.226  0.7873E+00  0.4968E+00  0.3254E+01  0.3254E+01
      8.290 -0.3578E-01 -0.4583E-01  0.3252E+01  0.3251E+01
      8.355  0.5336E-02  0.9421E-01  0.3252E+01  0.3257E+01
      8.419  0.6220E+00  0.6318E+00  0.3292E+01  0.3298E+01
      8.484  0.2333E+00  0.2394E+00  0.3307E+01  0.3314E+01
      8.548  0.2988E+00  0.2834E+00  0.3327E+01  0.3332E+01
      8.612  0.3602E+00  0.4044E+00  0.3350E+01  0.3358E+01
      8.677  0.7770E+00  0.8187E+00  0.3400E+01  0.3410E+01
      8.741  0.6543E+00  0.6121E+00  0.3442E+01  0.3450E+01
      8.805  0.2157E+00  0.1057E+00  0.3456E+01  0.3457E+01
      8.870  0.3450E+00  0.5185E+00  0.3478E+01  0.3490E+01
      8.934  0.8795E+00  0.8814E+00  0.3535E+01  0.3547E+01
      8.999  0.6071E+00  0.5293E+00  0.3574E+01  0.3581E+01
      9.063  0.3045E+00  0.3293E+00  0.3593E+01  0.3602E+01
      9.127  0.6848E+00  0.7360E+00  0.3637E+01  0.3649E+01
      9.192  0.1103E+01  0.1145E+01  0.3708E+01  0.3723E+01
      9.256  0.6869E+00  0.5034E+00  0.3753E+01  0.3756E+01
      9.320  0.1206E+00  0.1543E+00  0.3760E+01  0.3766E+01
      9.385  0.8475E+00  0.9840E+00  0.3815E+01  0.3829E+01
      9.449  0.6596E+00  0.5474E+00  0.3857E+01  0.3864E+01
      9.514  0.4785E+00  0.5253E+00  0.3888E+01  0.3898E+01
      9.578  0.5689E+00  0.4252E+00  0.3925E+01  0.3925E+01
      9.642 -0.1590E-01  0.1424E-01  0.3924E+01  0.3926E+01
      9.707  0.4792E+00  0.5755E+00  0.3955E+01  0.3963E+01
      9.771  0.6771E+00  0.7143E+00  0.3998E+01  0.4009E+01
      9.835  0.7516E+00  0.6827E+00  0.4047E+01  0.4053E+01
      9.900  0.2544E+00  0.1416E+00  0.4063E+01  0.4062E+01
      9.964 -0.1681E-01  0.5925E-01  0.4062E+01  0.4066E+01
     10.029  0.5756E+00  0.6431E+00  0.4099E+01  0.4108E+01
     10.093  0.9399E+00  0.1048E+01  0.4159E+01  0.4175E+01
     10.157  0.8197E+00  0.6136E+00  0.4212E+01  0.4215E+01
     10.222  0.3047E+00  0.3869E+00  0.4232E+01  0.4239E+01
     10.286  0.4891E+00  0.4607E+00  0.4263E+01  0.4269E+01
     10.350  0.6521E+00  0.7070E+00  0.4305E+01  0.4315E+01
     10.415  0.5808E+00  0.7024E+00  0.4343E+01  0.4360E+01
     10.479  0.1828E+01  0.1819E+01  0.4460E+01  0.4477E+01
     10.544  0.9066E+00  0.1039E+01  0.4519E+01  0.4544E+01
     10.608  0.1931E+01  0.1823E+01  0.4643E+01  0.4661E+01
     10.672  0.1393E+01  0.1509E+01  0.4733E+01  0.4758E+01
     10.737  0.2194E+01  0.2288E+01  0.4874E+01  0.4906E+01
     10.801  0.1651E+01  0.1441E+01  0.4980E+01  0.4998E+01
     10.865  0.1353E+01  0.1297E+01  0.5067E+01  0.5082E+01
     10.930  0.6452E+00  0.5257E+00  0.5109E+01  0.5116E+01
     10.994  0.4605E+00  0.4072E+00  0.5138E+01  0.5142E+01
     11.059  0.5344E-01 -0.6951E-02  0.5142E+01  0.5141E+01
     11.123  0.8977E-01  0.1960E+00  0.5148E+01  0.5154E+01
     11.187  0.2800E+00  0.1873E+00  0.5166E+01  0.5166E+01
     11.252  0.1538E+00  0.2316E+00  0.5176E+01  0.5181E+01
     11.316  0.2482E+00  0.1983E+00  0.5192E+01  0.5194E+01
     11.380  0.1425E+00  0.1283E+00  0.5201E+01  0.5202E+01
     11.445  0.1452E+00  0.1903E+00  0.5210E+01  0.5214E+01
     11.509  0.1309E+00  0.6458E-01  0.5219E+01  0.5218E+01
     11.574 -0.1030E-01 -0.1058E-01  0.5218E+01  0.5218E+01
     11.638  0.5191E-03  0.4618E-01  0.5218E+01  0.5221E+01
     11.702  0.3034E+00  0.3107E+00  0.5237E+01  0.5241E+01
     11.767  0.1512E+00  0.1858E+00  0.5247E+01  0.5253E+01
     11.831  0.2965E+00  0.2213E+00  0.5266E+01  0.5267E+01
     11.895 -0.3842E-02 -0.1577E-01  0.5266E+01  0.5266E+01
     11.960 -0.1029E-01  0.1617E-01  0.5265E+01  0.5267E+01
     12.024  0.2799E+00  0.3254E+00  0.5283E+01  0.5288E+01
     12.088  0.1119E+00  0.3828E-01  0.5291E+01  0.5290E+01
     12.153 -0.1081E-01 -0.9008E-02  0.5290E+01  0.5290E+01
     12.217 -0.5919E-02  0.3227E-01  0.5290E+01  0.5292E+01
     12.282  0.3606E+00  0.4038E+00  0.5313E+01  0.5318E+01
     12.346  0.1235E+00  0.3956E-01  0.5321E+01  0.5320E+01
     12.410 -0.1044E-01 -0.5256E-02  0.5320E+01  0.5320E+01
     12.475 -0.7898E-02 -0.1227E-01  0.5319E+01  0.5319E+01
     12.539  0.8954E-01  0.1795E+00  0.5325E+01  0.5331E+01
     12.603  0.2781E+00  0.1824E+00  0.5343E+01  0.5342E+01
     12.668  0.1509E+00  0.4286E+00  0.5353E+01  0.5370E+01
     12.732  0.1450E+01  0.1410E+01  0.5446E+01  0.5461E+01
     12.797  0.6101E+00  0.5092E+00  0.5486E+01  0.5494E+01
     12.861  0.5541E+00  0.5785E+00  0.5521E+01  0.5531E+01
     12.925  0.8044E+00  0.9383E+00  0.5573E+01  0.5591E+01
     12.990  0.7230E+00  0.4284E+00  0.5619E+01  0.5619E+01
     13.054  0.6631E-01  0.2412E+00  0.5624E+01  0.5634E+01
     13.118  0.6411E+00  0.5159E+00  0.5665E+01  0.5668E+01
     13.183  0.2000E-01 -0.2254E-01  0.5666E+01  0.5666E+01
     13.247 -0.5038E-02 -0.1450E-02  0.5666E+01  0.5666E+01
     13.312 -0.9328E-05 -0.1037E-05  0.5666E+01  0.5666E+01
     13.376 -0.9924E-07 -0.1393E-05  0.5666E+01  0.5666E+01
     13.440 -0.1545E-03 -0.6930E-03  0.5666E+01  0.5666E+01
     13.505 -0.3011E-02  0.3304E-02  0.5666E+01  0.5666E+01
     13.569  0.5908E-01  0.7221E-01  0.5670E+01  0.5671E+01
     13.633  0.5257E-01  0.1169E+00  0.5673E+01  0.5678E+01
     13.698  0.3221E+00  0.2831E+00  0.5694E+01  0.5697E+01
     13.762  0.3435E-01 -0.1411E-01  0.5696E+01  0.5696E+01
     13.827  0.7179E-01  0.1185E+00  0.5701E+01  0.5703E+01
     13.891  0.1114E+00  0.6588E-01  0.5708E+01  0.5708E+01
     13.955  0.1326E+00  0.2209E+00  0.5716E+01  0.5722E+01
     14.020  0.2567E+00  0.1715E+00  0.5733E+01  0.5733E+01
     14.084 -0.1144E-01 -0.1199E-01  0.5732E+01  0.5732E+01
     14.148 -0.7065E-03 -0.2040E-03  0.5732E+01  0.5732E+01
     14.213 -0.2546E-05 -0.2523E-04  0.5732E+01  0.5732E+01
     14.277 -0.1782E-02 -0.6730E-02  0.5732E+01  0.5732E+01
     14.342 -0.9518E-02  0.5795E-01  0.5731E+01  0.5735E+01
     14.406  0.4229E+00  0.4820E+00  0.5758E+01  0.5766E+01
     14.470  0.1460E+00  0.5881E-02  0.5768E+01  0.5767E+01
     14.535  0.1352E+00  0.3148E+00  0.5777E+01  0.5787E+01
     14.599  0.8209E+00  0.7621E+00  0.5829E+01  0.5836E+01
     14.663  0.1971E+00  0.1222E+00  0.5842E+01  0.5844E+01
     14.728  0.9040E-01  0.6819E-01  0.5848E+01  0.5848E+01
     14.792  0.1590E-02 -0.4269E-02  0.5848E+01  0.5848E+01
     14.857 -0.1279E-02 -0.1996E-02  0.5848E+01  0.5848E+01
     14.921 -0.2386E-01 -0.1823E-01  0.5846E+01  0.5847E+01
     14.985  0.3593E+00  0.5161E+00  0.5870E+01  0.5880E+01
     15.050  0.4891E+00  0.4392E+00  0.5901E+01  0.5908E+01
     15.114  0.6295E+00  0.5700E+00  0.5942E+01  0.5945E+01
     15.178  0.4242E-01 -0.1729E-01  0.5944E+01  0.5944E+01
     15.243 -0.1496E-02  0.5841E-01  0.5944E+01  0.5948E+01
     15.307  0.3089E+00  0.3030E+00  0.5964E+01  0.5967E+01
     15.372  0.1596E+00  0.2024E+00  0.5974E+01  0.5980E+01
     15.436  0.2823E+00  0.1982E+00  0.5993E+01  0.5993E+01
     15.500 -0.9209E-02 -0.1664E-01  0.5992E+01  0.5992E+01
     15.565  0.1923E-01  0.5481E-01  0.5993E+01  0.5995E+01
     15.629  0.1053E+00  0.7750E-01  0.6000E+01  0.6000E+01
     15.693  0.1337E-02 -0.4205E-02  0.6000E+01  0.6000E+01
     15.758 -0.6920E-03 -0.1644E-03  0.6000E+01  0.6000E+01
     15.822 -0.1082E-05 -0.9076E-07  0.6000E+01  0.6000E+01
     15.887 -0.4746E-10 -0.1507E-11  0.6000E+01  0.6000E+01
     15.951 -0.8278E-16  0.0000E+00  0.6000E+01  0.6000E+01
     16.015  0.0000E+00  0.0000E+00  0.6000E+01  0.6000E+01
     16.080  0.0000E+00  0.0000E+00  0.6000E+01  0.6000E+01
     16.144  0.0000E+00  0.0000E+00  0.6000E+01  0.6000E+01
     16.208  0.0000E+00  0.0000E+00  0.6000E+01  0.6000E+01
     16.273  0.0000E+00  0.0000E+00  0.6000E+01  0.6000E+01
     16.337  0.0000E+00  0.0000E+00  0.6000E+01  0.6000E+01
     16.402  0.0000E+00  0.0000E+00  0.6000E+01  0.6000E+01
     16.466  0.0000E+00  0.0000E+00  0.6000E+01  0.6000E+01
     16.46589047     -2.84617531  301      5.68021965      1.00000000
     -2.846  0.0000E+00  0.0000E+00  0.0000E+00  0.0000E+00  0.0000E+00  0.0000E+00  0.0000E+00  0.0000E+00  0.0000E+00  0.0000E+00  0.0000E+00  0.0000E+00  0.0000E+00  0.0000E+00  0.0000E+00  0.0000E+00  0.0000E+00  0.0000E+00
     -2.782  0.0000E+00  0.0000E+00  0.0000E+00  0.0000E+00  0.0000E+00  0.0000E+00  0.0000E+00  0.0000E+00  0.0000E+00  0.0000E+00  0.0000E+00  0.0000E+00  0.0000E+00  0.0000E+00  0.0000E+00  0.0000E+00  0.0000E+00  0.0000E+00
     -2.717  0.0000E+00  0.0000E+00  0.0000E+00  0.0000E+00  0.0000E+00  0.0000E+00  0.0000E+00  0.0000E+00  0.0000E+00  0.0000E+00  0.0000E+00  0.0000E+00  0.0000E+00  0.0000E+00  0.0000E+00  0.0000E+00  0.0000E+00  0.0000E+00
     -2.653  0.0000E+00  0.0000E+00  0.0000E+00  0.0000E+00  0.0000E+00  0.0000E+00  0.0000E+00  0.0000E+00  0.0000E+00  0.0000E+00  0.0000E+00  0.0000E+00  0.0000E+00  0.0000E+00  0.0000E+00  0.0000E+00  0.0000E+00  0.0000E+00
     -2.589  0.0000E+00  0.0000E+00  0.0000E+00  0.0000E+00  0.0000E+00  0.0000E+00  0.0000E+00  0.0000E+00  0.0000E+00  0.0000E+00  0.0000E+00  0.0000E+00  0.0000E+00  0.0000E+00  0.0000E+00  0.0000E+00  0.0000E+00  0.0000E+00
     -2.524  0.0000E+00  0.0000E+00  0.0000E+00  0.0000E+00  0.0000E+00  0.0000E+00  0.0000E+00  0.0000E+00  0.0000E+00  0.0000E+00  0.0000E+00  0.0000E+00  0.0000E+00  0.0000E+00  0.0000E+00  0.0000E+00  0.0000E+00  0.0000E+00
     -2.460  0.0000E+00  0.0000E+00  0.0000E+00  0.0000E+00  0.0000E+00  0.0000E+00  0.0000E+00  0.0000E+00  0.0000E+00  0.0000E+00  0.0000E+00  0.0000E+00  0.0000E+00  0.0000E+00  0.0000E+00  0.0000E+00  0.0000E+00  0.0000E+00
     -2.396 -0.1042E-34 -0.3760E-32 -0.3454E-37 -0.1245E-34 -0.1036E-36 -0.3735E-34 -0.6909E-37 -0.2490E-34 -0.4755E-39 -0.1713E-36 -0.7135E-39 -0.2566E-36 -0.1784E-39 -0.6414E-37 -0.1427E-38 -0.5138E-36 -0.5945E-40 -0.2141E-37
     -2.331 -0.1463E-25 -0.2184E-23 -0.4847E-28 -0.7230E-26 -0.1454E-27 -0.2169E-25 -0.9695E-28 -0.1446E-25 -0.6673E-30 -0.9946E-28 -0.1001E-29 -0.1490E-27 -0.2503E-30 -0.3724E-28 -0.2002E-29 -0.2984E-27 -0.8342E-31 -0.1243E-28
     -2.267 -0.7242E-18 -0.4461E-16 -0.2400E-20 -0.1477E-18 -0.7200E-20 -0.4432E-18 -0.4800E-20 -0.2954E-18 -0.3304E-22 -0.2032E-20 -0.4957E-22 -0.3045E-20 -0.1239E-22 -0.7609E-21 -0.9912E-22 -0.6096E-20 -0.4130E-23 -0.2540E-21
     -2.202 -0.1200E-11 -0.3016E-10 -0.3976E-14 -0.9988E-13 -0.1193E-13 -0.2996E-12 -0.7953E-14 -0.1998E-12 -0.5474E-16 -0.1374E-14 -0.8213E-16 -0.2059E-14 -0.2053E-16 -0.5145E-15 -0.1642E-15 -0.4122E-14 -0.6843E-17 -0.1717E-15
     -2.138 -0.6797E-07 -0.6877E-06 -0.2253E-09 -0.2277E-08 -0.6758E-09 -0.6831E-08 -0.4505E-09 -0.4554E-08 -0.3101E-11 -0.3132E-10 -0.4653E-11 -0.4693E-10 -0.1163E-11 -0.1173E-10 -0.9303E-11 -0.9397E-10 -0.3877E-12 -0.3915E-11
     -2.074 -0.1154E-03 -0.4398E-03 -0.3826E-06 -0.1456E-05 -0.1148E-05 -0.4369E-05 -0.7651E-06 -0.2913E-05 -0.5267E-08 -0.2003E-07 -0.7902E-08 -0.3002E-07 -0.1976E-08 -0.7502E-08 -0.1580E-07 -0.6010E-07 -0.6584E-09 -0.2504E-08
     -2.009 -0.2626E-02  0.8496E-03 -0.8702E-05  0.2813E-05 -0.2611E-04  0.8439E-05 -0.1740E-04  0.5626E-05 -0.1198E-06  0.3870E-07 -0.1797E-06  0.5798E-07 -0.4494E-07  0.1449E-07 -0.3594E-06  0.1161E-06 -0.1497E-07  0.4837E-08
     -1.945  0.5067E-01  0.6690E-01  0.1679E-03  0.2215E-03  0.5038E-03  0.6646E-03  0.3359E-03  0.4430E-03  0.2312E-05  0.3047E-05  0.3469E-05  0.4566E-05  0.8673E-06  0.1141E-05  0.6936E-05  0.9142E-05  0.2890E-06  0.3809E-06
     -1.881  0.3343E-01  0.1296E-01  0.1108E-03  0.4291E-04  0.3324E-03  0.1287E-03  0.2216E-03  0.8583E-04  0.1525E-05  0.5903E-06  0.2289E-05  0.8845E-06  0.5722E-06  0.2211E-06  0.4576E-05  0.1771E-05  0.1907E-06  0.7379E-07
     -1.816 -0.2426E-02 -0.1273E-02 -0.8039E-05 -0.4216E-05 -0.2412E-04 -0.1265E-04 -0.1608E-04 -0.8432E-05 -0.1107E-06 -0.5800E-07 -0.1661E-06 -0.8690E-07 -0.4152E-07 -0.2172E-07 -0.3320E-06 -0.1740E-06 -0.1383E-07 -0.7250E-08
     -1.752 -0.3516E-04 -0.5799E-05 -0.1165E-06 -0.1933E-07 -0.3496E-06 -0.5800E-07 -0.2331E-06 -0.3840E-07 -0.1604E-08 -0.2686E-09 -0.2409E-08 -0.4256E-09 -0.6029E-09 -0.1160E-09 -0.4813E-08 -0.8059E-09 -0.2006E-09 -0.3358E-10
     -1.687 -0.7866E-05 -0.4744E-04 -0.1008E-06 -0.6079E-06 -0.3023E-06 -0.1824E-05 -0.5044E-07 -0.3039E-06 -0.2885E-08 -0.1742E-07 -0.1731E-07 -0.1045E-06 -0.9736E-08 -0.5878E-07 -0.8656E-08 -0.5225E-07 -0.3607E-09 -0.2177E-08
     -1.623 -0.1680E-02 -0.3168E-02 -0.2155E-04 -0.4058E-04 -0.6464E-04 -0.1218E-03 -0.1077E-04 -0.2029E-04 -0.6170E-06 -0.1163E-05 -0.3702E-05 -0.6976E-05 -0.2082E-05 -0.3924E-05 -0.1851E-05 -0.3488E-05 -0.7713E-07 -0.1453E-06
     -1.559  0.1730E-01  0.4399E-01  0.2218E-03  0.5636E-03  0.6655E-03  0.1691E-02  0.1109E-03  0.2818E-03  0.6352E-05  0.1615E-04  0.3811E-04  0.9689E-04  0.2144E-04  0.5450E-04  0.1906E-04  0.4844E-04  0.7940E-06  0.2018E-05
     -1.494  0.8598E-01  0.6480E-01  0.1103E-02  0.8302E-03  0.3308E-02  0.2491E-02  0.5513E-03  0.4151E-03  0.3157E-04  0.2379E-04  0.1894E-03  0.1427E-03  0.1066E-03  0.8027E-04  0.9472E-04  0.7136E-04  0.3947E-05  0.2973E-05
     -1.430  0.8613E-03 -0.3419E-02  0.1105E-04 -0.4380E-04  0.3314E-04 -0.1314E-03  0.5523E-05 -0.2190E-04  0.3163E-06 -0.1255E-05  0.1898E-05 -0.7530E-05  0.1067E-05 -0.4235E-05  0.9489E-06 -0.3765E-05  0.3954E-07 -0.1569E-06
     -1.366 -0.5496E-03 -0.1437E-03 -0.7049E-05 -0.1841E-05 -0.2115E-04 -0.5523E-05 -0.3524E-05 -0.9207E-06 -0.2018E-06 -0.5277E-07 -0.1211E-05 -0.3165E-06 -0.6812E-06 -0.1780E-06 -0.6055E-06 -0.1582E-06 -0.2523E-07 -0.6596E-08
     -1.301 -0.5038E-05 -0.3127E-04 -0.1315E-06 -0.8966E-06 -0.7691E-07 -0.3348E-06 -0.2469E-06 -0.1792E-05 -0.2909E-07 -0.2135E-06 -0.4648E-08 -0.2095E-07 -0.1404E-07 -0.9673E-07 -0.6530E-08 -0.4164E-07 -0.3636E-08 -0.2668E-07
     -1.237 -0.2139E-02 -0.5572E-02 -0.6147E-04 -0.1600E-03 -0.2276E-04 -0.5926E-04 -0.1229E-03 -0.3200E-03 -0.1465E-04 -0.3813E-04 -0.1428E-05 -0.3710E-05 -0.6622E-05 -0.1726E-04 -0.2855E-05 -0.7423E-05 -0.1832E-05 -0.4767E-05
     -1.172  0.9908E-02  0.6106E-01  0.2848E-03  0.1753E-02  0.1055E-03  0.6494E-03  0.5696E-03  0.3507E-02  0.6789E-04  0.4179E-03  0.6614E-05  0.4066E-04  0.3068E-04  0.1892E-03  0.1323E-04  0.8135E-04  0.8486E-05  0.5224E-04
     -1.108  0.2561E+00  0.2426E+00  0.7362E-02  0.6966E-02  0.2726E-02  0.2580E-02  0.1472E-01  0.1393E-01  0.1755E-02  0.1660E-02  0.1710E-03  0.1615E-03  0.7930E-03  0.7516E-03  0.3419E-03  0.3232E-03  0.2194E-03  0.2075E-03
     -1.044  0.3518E-01 -0.1238E-02  0.1011E-02 -0.3554E-04  0.3744E-03 -0.1316E-04  0.2022E-02 -0.7107E-04  0.2410E-03 -0.8470E-05  0.2348E-04 -0.8241E-06  0.1089E-03 -0.3834E-05  0.4696E-04 -0.1649E-05  0.3013E-04 -0.1059E-05
     -0.979 -0.3882E-02 -0.1302E-02 -0.1116E-03 -0.3740E-04 -0.4132E-04 -0.1385E-04 -0.2232E-03 -0.7480E-04 -0.2660E-04 -0.8914E-05 -0.2592E-05 -0.8673E-06 -0.1202E-04 -0.4035E-05 -0.5183E-05 -0.1735E-05 -0.3325E-05 -0.1114E-05
     -0.915 -0.1384E-04 -0.1684E-05 -0.3978E-06 -0.4835E-07 -0.1473E-06 -0.1791E-07 -0.7956E-06 -0.9670E-07 -0.9483E-07 -0.1152E-07 -0.9240E-08 -0.1121E-08 -0.4285E-07 -0.5217E-08 -0.1848E-07 -0.2243E-08 -0.1185E-07 -0.1440E-08
     -0.851 -0.1271E-08 -0.6201E-10 -0.3655E-10 -0.1780E-11 -0.1353E-10 -0.6594E-12 -0.7309E-10 -0.3561E-11 -0.8712E-11 -0.4244E-12 -0.8488E-12 -0.4129E-13 -0.3937E-11 -0.1921E-12 -0.1697E-11 -0.8261E-13 -0.1089E-11 -0.5305E-13
     -0.786 -0.3736E-14 -0.6561E-16 -0.1074E-15 -0.1884E-17 -0.3977E-16 -0.6978E-18 -0.2148E-15 -0.3768E-17 -0.2560E-16 -0.4491E-18 -0.2494E-17 -0.4369E-19 -0.1157E-16 -0.2033E-18 -0.4988E-17 -0.8742E-19 -0.3200E-17 -0.5613E-19
     -0.722 -0.1477E-16 -0.7863E-15 -0.4057E-18 -0.2157E-16 -0.1217E-17 -0.6472E-16 -0.7869E-18 -0.4184E-16 -0.1169E-18 -0.6218E-17 -0.1887E-18 -0.1005E-16 -0.2651E-19 -0.1411E-17 -0.3508E-18 -0.1866E-16 -0.4822E-19 -0.2567E-17
     -0.657 -0.1677E-10 -0.3787E-09 -0.4606E-12 -0.1039E-10 -0.1382E-11 -0.3117E-10 -0.8933E-12 -0.2015E-10 -0.1328E-12 -0.2995E-11 -0.2142E-12 -0.4838E-11 -0.3010E-13 -0.6798E-12 -0.3983E-12 -0.8985E-11 -0.5474E-13 -0.1236E-11
     -0.593 -0.6476E-06 -0.5878E-05 -0.1778E-07 -0.1613E-06 -0.5335E-07 -0.4838E-06 -0.3449E-07 -0.3128E-06 -0.5126E-08 -0.4648E-07 -0.8272E-08 -0.7510E-07 -0.1162E-08 -0.1055E-07 -0.1538E-07 -0.1394E-06 -0.2113E-08 -0.1919E-07
     -0.529 -0.7321E-03 -0.2464E-02 -0.2011E-04 -0.6762E-04 -0.6032E-04 -0.2029E-03 -0.3900E-04 -0.1312E-03 -0.5793E-05 -0.1947E-04 -0.9348E-05 -0.3146E-04 -0.1314E-05 -0.4423E-05 -0.1738E-04 -0.5842E-04 -0.2388E-05 -0.8033E-05
     -0.464 -0.6966E-02  0.1480E-01 -0.1927E-03  0.4021E-03 -0.5782E-03  0.1206E-02 -0.3745E-03  0.7780E-03 -0.5389E-04  0.1206E-03 -0.8677E-04  0.1953E-03 -0.1246E-04  0.2669E-04 -0.1617E-03  0.3617E-03 -0.2175E-04  0.5110E-04
     -0.400  0.2059E+00  0.2511E+00  0.5657E-02  0.6929E-02  0.1697E-01  0.2079E-01  0.1097E-01  0.1346E-01  0.1628E-02  0.1951E-02  0.2627E-02  0.3147E-02  0.3695E-03  0.4496E-03  0.4884E-02  0.5854E-02  0.6706E-03  0.7925E-03
     -0.336  0.1411E+00  0.8212E-01  0.4098E-02  0.2479E-02  0.1229E-01  0.7437E-02  0.8057E-02  0.4919E-02  0.9196E-03  0.4488E-03  0.1455E-02  0.6948E-03  0.2468E-03  0.1406E-03  0.2759E-02  0.1346E-02  0.3050E-03  0.1100E-03
     -0.271  0.4885E-02 -0.1775E-02  0.1793E-03 -0.4394E-04  0.5380E-03 -0.1318E-03  0.3700E-03 -0.8290E-04 -0.1407E-05 -0.1825E-04 -0.8230E-05 -0.3011E-04  0.7451E-05 -0.3329E-05 -0.4220E-05 -0.5474E-04 -0.1564E-04 -0.9113E-05
     -0.207 -0.1207E-02 -0.5285E-03 -0.3888E-04 -0.2433E-04 -0.1119E-03 -0.4428E-04 -0.7504E-04 -0.3261E-04 -0.6023E-05 -0.4870E-05 -0.8765E-05 -0.5341E-05 -0.2135E-05 -0.1486E-05 -0.1668E-04 -0.6135E-05 -0.8849E-06 -0.6166E-06
     -0.142 -0.3985E-02 -0.7814E-02 -0.4289E-03 -0.8408E-03 -0.1702E-03 -0.3330E-03 -0.2344E-03 -0.4591E-03 -0.1141E-03 -0.2237E-03 -0.9446E-04 -0.1852E-03 -0.2989E-04 -0.5871E-04 -0.1272E-04 -0.2473E-04 -0.1378E-04 -0.2705E-04
     -0.078  0.3922E-01  0.1053E+00  0.4225E-02  0.1133E-01  0.1673E-02  0.4487E-02  0.2306E-02  0.6186E-02  0.1124E-02  0.3014E-02  0.9306E-03  0.2495E-02  0.2945E-03  0.7911E-03  0.1246E-03  0.3331E-03  0.1357E-03  0.3644E-03
     -0.014  0.2244E+00  0.1744E+00  0.2417E-01  0.1877E-01  0.9570E-02  0.7432E-02  0.1320E-01  0.1025E-01  0.6431E-02  0.4993E-02  0.5324E-02  0.4133E-02  0.1685E-02  0.1310E-02  0.7130E-03  0.5518E-03  0.7766E-03  0.6036E-03
      0.051  0.4424E-02 -0.9008E-02  0.4810E-03 -0.9489E-03  0.1920E-03 -0.3685E-03  0.2518E-03 -0.5683E-03  0.1201E-03 -0.2892E-03  0.1074E-03 -0.2023E-03  0.2987E-04 -0.8331E-04  0.1400E-04 -0.2876E-04  0.1446E-04 -0.3515E-04
      0.115 -0.9234E-02 -0.7789E-02 -0.6871E-03 -0.5425E-03 -0.1642E-03 -0.1111E-03 -0.1125E-02 -0.1018E-02 -0.7310E-03 -0.6714E-03 -0.5176E-04 -0.2372E-04 -0.3022E-03 -0.2828E-03 -0.3312E-04 -0.2833E-04 -0.9118E-04 -0.8387E-04
      0.179  0.1052E+00  0.1755E+00  0.7096E-02  0.1183E-01  0.1326E-02  0.2212E-02  0.1419E-01  0.2367E-01  0.9429E-02  0.1572E-01  0.1930E-03  0.3216E-03  0.3993E-02  0.6670E-02  0.3862E-03  0.6434E-03  0.1179E-02  0.1965E-02
      0.244  0.1606E+00  0.8885E-01  0.1084E-01  0.5991E-02  0.2025E-02  0.1120E-02  0.2167E-01  0.1198E-01  0.1440E-01  0.7959E-02  0.2948E-03  0.1628E-03  0.6097E-02  0.3377E-02  0.5897E-03  0.3257E-03  0.1800E-02  0.9949E-03
      0.308 -0.8279E-02 -0.6877E-02 -0.5587E-03 -0.4637E-03 -0.1044E-03 -0.8668E-04 -0.1117E-02 -0.9274E-03 -0.7424E-03 -0.6160E-03 -0.1520E-04 -0.1260E-04 -0.3144E-03 -0.2613E-03 -0.3040E-04 -0.2521E-04 -0.9280E-04 -0.7700E-04
      0.373 -0.3684E-03 -0.7450E-04 -0.2486E-04 -0.5023E-05 -0.4645E-05 -0.9390E-06 -0.4972E-04 -0.1005E-04 -0.3303E-04 -0.6673E-05 -0.6764E-06 -0.1365E-06 -0.1399E-04 -0.2831E-05 -0.1353E-05 -0.2731E-06 -0.4129E-05 -0.8342E-06