    1    1    1    1
  0.1813235E+02  0.2866544E-09  0.2866544E-09  0.2866544E-09  0.5000000E-15
  1.000000000000000E-004
  CAR 
 unknown system                          
    5   44    6
 
  0.5000000E-01  0.5000000E-01  0.5000000E-01  0.8000000E-02
   1       -1.542654
   2        6.099555
   3        6.099555
   4        7.216107
   5        9.457082
   6        9.457082
 
  0.1500000E+00  0.5000000E-01  0.5000000E-01  0.2400000E-01
   1       -0.420325
   2        5.426560
   3        5.614631
   4        8.568722
   5        9.145110
   6        9.724433
 
  0.2500000E+00  0.5000000E-01  0.5000000E-01  0.2400000E-01
   1        0.906582
   2        4.770095
   3        5.309484
   4        9.371929
   5       10.075040
   6       10.549586
 
  0.3500000E+00  0.5000000E-01  0.5000000E-01  0.2400000E-01
   1        1.535095
   2        4.317269
   3        6.113852
   4        9.689537
   5       10.424627
   6       12.677969
 
  0.4500000E+00  0.5000000E-01  0.5000000E-01  0.1200000E-01
   1        1.591607
   2        4.164563
   3        6.988392
   4        9.669607
   5       10.608132
   6       13.828991
 
 -0.5000000E-01  0.5000000E-01  0.5000000E-01  0.6000000E-02
   1       -1.958328
   2        6.421730
   3        6.421738
   4        6.539659
   5        9.311976
   6        9.829944
 
  0.1500000E+00  0.1500000E+00  0.5000000E-01  0.2400000E-01
   1        0.850327
   2        4.886065
   3        4.959351
   4        9.238131
   5       10.117525
   6       10.472104
 
  0.2500000E+00  0.1500000E+00  0.5000000E-01  0.4800000E-01
   1        2.016560
   2        4.410890
   3        4.982998
   4        9.525463
   5       10.460057
   6       12.690996
 
  0.3500000E+00  0.1500000E+00  0.5000000E-01  0.4800000E-01
   1        2.297289
   2        4.192114
   3        5.947096
   4        9.778135
   5       10.656859
   6       14.549552
 
 -0.1500000E+00  0.1500000E+00  0.5000000E-01  0.2400000E-01
   1       -1.142188
   2        5.967851
   3        6.197467
   4        7.381383
   5        8.639793
   6       10.010151
 
  0.2500000E+00  0.2500000E+00  0.5000000E-01  0.2400000E-01
   1        2.938813
   2        4.299034
   3        5.020714
   4        9.835520
   5       10.543474
   6       14.977648
 
  0.3500000E+00  0.2500000E+00  0.5000000E-01  0.2400000E-01
   1        3.122124
   2        4.389170
   3        5.262687
   4       10.078388
   5       10.593816
   6       14.387570
 
 -0.2500000E+00  0.2500000E+00  0.5000000E-01  0.2400000E-01
   1        0.179186
   2        5.278005
   3        5.620465
   4        8.661414
   5        8.988889
   6       10.210872
 
 -0.1500000E+00  0.2500000E+00  0.5000000E-01  0.2400000E-01
   1       -0.060158
   2        5.643734
   3        5.704965
   4        8.081560
   5        8.489505
   6       10.411019
 
 -0.3500000E+00  0.3500000E+00  0.5000000E-01  0.2400000E-01
   1        1.217389
   2        4.685557
   3        5.700637
   4        9.194365
   5       10.436348
   6       11.132944
 
 -0.2500000E+00  0.3500000E+00  0.5000000E-01  0.4800000E-01
   1        1.244140
   2        4.933470
   3        5.363381
   4        8.389960
   5       10.332796
   6       10.712726
 
 -0.4500000E+00  0.4500000E+00  0.5000000E-01  0.2400000E-01
   1        1.461517
   2        4.351749
   3        6.701509
   4        9.361210
   5       10.806128
   6       13.074201
 
 -0.3500000E+00  0.4500000E+00  0.5000000E-01  0.4800000E-01
   1        1.901294
   2        4.631999
   3        5.606423
   4        8.927303
   5       10.750544
   6       12.716518
 
 -0.2500000E+00  0.4500000E+00  0.5000000E-01  0.2400000E-01
   1        2.367704
   2        4.330261
   3        5.368081
   4        8.701043
   5       10.450989
   6       12.782901
 
 -0.4500000E+00 -0.4500000E+00  0.5000000E-01  0.2400000E-01
   1        1.957906
   2        4.527002
   3        6.096737
   4        8.878849
   5       11.252682
   6       13.960093
 
 -0.3500000E+00 -0.4500000E+00  0.5000000E-01  0.4800000E-01
   1        2.840599
   2        4.389278
   3        5.229805
   4        9.167443
   5       10.668584
   6       15.076249
 
 -0.3500000E+00 -0.3500000E+00  0.5000000E-01  0.8000000E-02
   1        3.500357
   2        4.484117
   3        4.484120
   4       10.122203
   5       10.122204
   6       14.680735
 
  0.1500000E+00  0.1500000E+00  0.1500000E+00  0.8000000E-02
   1        2.236127
   2        4.398626
   3        4.398626
   4       10.069562
   5       10.069562
   6       12.794940
 
  0.2500000E+00  0.1500000E+00  0.1500000E+00  0.2400000E-01
   1        3.145122
   2        4.146402
   3        4.790753
   4       10.242101
   5       10.568809
   6       14.988637
 
  0.3500000E+00  0.1500000E+00  0.1500000E+00  0.1200000E-01
   1        3.159980
   2        4.074125
   3        5.611204
   4       10.300908
   5       10.721494
   6       14.376264
 
 -0.1500000E+00  0.1500000E+00  0.1500000E+00  0.6000000E-02
   1       -0.365087
   2        6.387578
   3        6.387586
   4        7.182925
   5        7.395409
   6       10.610881
 
  0.2500000E+00  0.2500000E+00  0.1500000E+00  0.2400000E-01
   1        3.749993
   2        4.420101
   3        4.839896
   4       10.554501
   5       10.702281
   6       13.661726
 
 -0.2500000E+00  0.2500000E+00  0.1500000E+00  0.2400000E-01
   1        0.897820
   2        5.525539
   3        6.024843
   4        7.250048
   5        8.738552
   6       10.818291
 
 -0.3500000E+00  0.3500000E+00  0.1500000E+00  0.2400000E-01
   1        1.942087
   2        4.896439
   3        5.506636
   4        8.057339
   5       10.866287
   6       10.907262
 
 -0.2500000E+00  0.3500000E+00  0.1500000E+00  0.2400000E-01
   1        2.067066
   2        4.580224
   3        6.153088
   4        7.531605
   5        9.995168
   6       10.965923
 
 -0.4500000E+00  0.4500000E+00  0.1500000E+00  0.2400000E-01
   1        2.166593
   2        5.210547
   3        5.268732
   4        8.022672
   5       12.005368
   6       12.870561
 
 -0.3500000E+00  0.4500000E+00  0.1500000E+00  0.4800000E-01
   1        2.774234
   2        4.192774
   3        5.751619
   4        8.166540
   5       10.740858
   6       12.924244
 
 -0.4500000E+00 -0.4500000E+00  0.1500000E+00  0.2400000E-01
   1        2.787349
   2        4.577665
   3        5.308906
   4        8.166305
   5       11.780448
   6       14.591801
 
 -0.3500000E+00 -0.4500000E+00  0.1500000E+00  0.2400000E-01
   1        3.655948
   2        3.718957
   3        4.977833
   4        9.433362
   5       10.599994
   6       15.382011
 
  0.2500000E+00  0.2500000E+00  0.2500000E+00  0.2000000E-02
   1        4.495700
   2        4.495700
   3        4.495708
   4       10.818580
   5       10.818580
   6       12.743761
 
 -0.2500000E+00  0.2500000E+00  0.2500000E+00  0.6000000E-02
   1        1.973951
   2        4.794178
   3        6.968323
   4        6.968330
   5        8.898588
   6       10.690241
 
 -0.3500000E+00  0.3500000E+00  0.2500000E+00  0.2400000E-01
   1        2.797819
   2        3.863476
   3        7.032607
   4        7.617080
   5       10.561878
   6       10.842622
 
 -0.4500000E+00  0.4500000E+00  0.2500000E+00  0.2400000E-01
   1        2.834422
   2        3.781242
   3        6.859394
   4        7.497783
   5       12.551397
   6       12.839650
 
 -0.3500000E+00  0.4500000E+00  0.2500000E+00  0.2400000E-01
   1        3.126791
   2        3.187866
   3        6.867482
   4        8.849909
   5       10.823878
   6       12.937430
 
 -0.4500000E+00 -0.4500000E+00  0.2500000E+00  0.2400000E-01
   1        2.916490
   2        3.245664
   3        6.596711
   4        9.362783
   5       11.674780
   6       15.277670
 
 -0.3500000E+00  0.3500000E+00  0.3500000E+00  0.6000000E-02
   1        2.911425
   2        2.999853
   3        8.627459
   4        8.627465
   5       10.777881
   6       10.956233
 
 -0.4500000E+00  0.4500000E+00  0.3500000E+00  0.2400000E-01
   1        2.521005
   2        2.686465
   3        9.085965
   4        9.090696
   5       12.262218
   6       13.074826
 
 -0.4500000E+00 -0.4500000E+00  0.3500000E+00  0.8000000E-02
   1        2.366956
   2        2.366957
   3        9.013639
   4       11.438664
   5       11.438669
   6       15.582101
 
 -0.4500000E+00  0.4500000E+00  0.4500000E+00  0.6000000E-02
   1        2.063634
   2        2.111353
   3       11.341634
   4       11.341638
   5       12.249145
   6       13.554467
