    1    1    1    2
  0.1813235E+02  0.2866544E-09  0.2866544E-09  0.2866544E-09  0.5000000E-15
  1.000000000000000E-004
  CAR 
 unknown system                          
    5   44    6
 
  0.5000000E-01  0.5000000E-01  0.5000000E-01  0.8000000E-02
   1       -1.535748     -1.552733
   2        6.107493      6.088991
   3        6.107493      6.088991
   4        7.223832      7.205360
   5        9.461261      9.450167
   6        9.461261      9.450167
 
  0.1500000E+00  0.5000000E-01  0.5000000E-01  0.2400000E-01
   1       -0.413565     -0.430527
   2        5.434527      5.416144
   3        5.622087      5.604657
   4        8.575958      8.558123
   5        9.149934      9.137494
   6        9.728703      9.717291
 
  0.2500000E+00  0.5000000E-01  0.5000000E-01  0.2400000E-01
   1        0.913402      0.896412
   2        4.778131      4.759740
   3        5.316037      5.299902
   4        9.377153      9.363655
   5       10.079373     10.067675
   6       10.556106     10.539220
 
  0.3500000E+00  0.5000000E-01  0.5000000E-01  0.2400000E-01
   1        1.542259      1.525393
   2        4.325355      4.306931
   3        6.119346      6.103823
   4        9.694768      9.680955
   5       10.428949     10.417030
   6       12.683503     12.668269
 
  0.4500000E+00  0.5000000E-01  0.5000000E-01  0.1200000E-01
   1        1.598876      1.582141
   2        4.172668      4.154229
   3        6.993386      6.977939
   4        9.674812      9.661062
   5       10.612429     10.600413
   6       13.833751     13.820052
 
 -0.5000000E-01  0.5000000E-01  0.5000000E-01  0.6000000E-02
   1       -1.951352     -1.968354
   2        6.429691      6.411002
   3        6.429691      6.411029
   4        6.547603      6.528928
   5        9.316094      9.305210
   6        9.833843      9.823170
 
  0.1500000E+00  0.1500000E+00  0.5000000E-01  0.2400000E-01
   1        0.857000      0.840012
   2        4.893362      4.876377
   3        4.967117      4.949111
   4        9.243162      9.230249
   5       10.121891     10.110031
   6       10.478629     10.461628
 
  0.2500000E+00  0.1500000E+00  0.5000000E-01  0.4800000E-01
   1        2.023467      2.006415
   2        4.418425      4.400943
   3        4.989703      4.973034
   4        9.530647      9.517214
   5       10.464444     10.452308
   6       12.696548     12.680990
 
  0.3500000E+00  0.1500000E+00  0.5000000E-01  0.4800000E-01
   1        2.304481      2.287586
   2        4.199883      4.181934
   3        5.952685      5.937010
   4        9.783296      9.769696
   5       10.661299     10.648905
   6       14.554144     14.540388
 
 -0.1500000E+00  0.1500000E+00  0.5000000E-01  0.2400000E-01
   1       -1.135362     -1.152309
   2        5.975850      5.957219
   3        6.205124      6.187127
   4        7.389099      7.370723
   5        8.644455      8.632667
   6       10.014157     10.003176
 
  0.2500000E+00  0.2500000E+00  0.5000000E-01  0.2400000E-01
   1        2.946218      2.928628
   2        4.305632      4.289632
   3        5.027333      5.010479
   4        9.840681      9.827168
   5       10.548093     10.535345
   6       14.982198     14.968259
 
  0.3500000E+00  0.2500000E+00  0.5000000E-01  0.2400000E-01
   1        3.129765      3.112007
   2        4.395910      4.379475
   3        5.268520      5.252939
   4       10.083477     10.069971
   5       10.598552     10.585547
   6       14.394753     14.374806
 
 -0.2500000E+00  0.2500000E+00  0.5000000E-01  0.2400000E-01
   1        0.185903      0.168987
   2        5.286067      5.267489
   3        5.627198      5.611024
   4        8.666779      8.653314
   5        8.996074      8.978394
   6       10.215079     10.203553
 
 -0.1500000E+00  0.2500000E+00  0.5000000E-01  0.2400000E-01
   1       -0.053497     -0.070356
   2        5.650918      5.634090
   3        5.712844      5.694477
   4        8.086952      8.073701
   5        8.496814      8.478945
   6       10.415106     10.403702
 
 -0.3500000E+00  0.3500000E+00  0.5000000E-01  0.2400000E-01
   1        1.224360      1.207487
   2        4.693667      4.675124
   3        5.706319      5.691237
   4        9.199880      9.185661
   5       10.440695     10.428677
   6       11.139299     11.122869
 
 -0.2500000E+00  0.3500000E+00  0.5000000E-01  0.4800000E-01
   1        1.250810      1.234002
   2        4.940401      4.924139
   3        5.370665      5.353299
   4        8.395821      8.381313
   5       10.338987     10.322997
   6       10.717451     10.704411
 
 -0.4500000E+00  0.4500000E+00  0.5000000E-01  0.2400000E-01
   1        1.468726      1.452057
   2        4.359883      4.341354
   3        6.706426      6.691643
   4        9.366603      9.352541
   5       10.810516     10.797961
   6       13.079443     13.064986
 
 -0.3500000E+00  0.4500000E+00  0.5000000E-01  0.4800000E-01
   1        1.908291      1.891647
   2        4.639667      4.621923
   3        5.612054      5.597030
   4        8.933031      8.918457
   5       10.755355     10.741968
   6       12.721940     12.706872
 
 -0.2500000E+00  0.4500000E+00  0.5000000E-01  0.2400000E-01
   1        2.374576      2.357670
   2        4.336560      4.321583
   3        5.375178      5.357820
   4        8.707058      8.692093
   5       10.456052     10.442360
   6       12.788243     12.773086
 
 -0.4500000E+00 -0.4500000E+00  0.5000000E-01  0.2400000E-01
   1        1.965003      1.948536
   2        4.534909      4.516720
   3        6.101739      6.087438
   4        8.884517      8.870189
   5       11.257407     11.243663
   6       13.964759     13.951019
 
 -0.3500000E+00 -0.4500000E+00  0.5000000E-01  0.4800000E-01
   1        2.847770      2.830904
   2        4.395955      4.380012
   3        5.235663      5.220478
   4        9.173326      9.158415
   5       10.673915     10.659423
   6       15.080640     15.066833
 
 -0.3500000E+00 -0.3500000E+00  0.5000000E-01  0.8000000E-02
   1        3.508397      3.489988
   2        4.489798      4.475402
   3        4.489802      4.475421
   4       10.127849     10.112992
   5       10.127850     10.112997
   6       14.687596     14.668524
 
  0.1500000E+00  0.1500000E+00  0.1500000E+00  0.8000000E-02
   1        2.242714      2.225667
   2        4.406081      4.388701
   3        4.406081      4.388701
   4       10.074163     10.061785
   5       10.074163     10.061785
   6       12.800472     12.784803
 
  0.2500000E+00  0.1500000E+00  0.1500000E+00  0.2400000E-01
   1        3.152054      3.135004
   2        4.153976      4.136269
   3        4.797277      4.780627
   4       10.246802     10.234068
   5       10.573144     10.561083
   6       14.993249     14.979163
 
  0.3500000E+00  0.1500000E+00  0.1500000E+00  0.1200000E-01
   1        3.167058      3.150109
   2        4.081743      4.063908
   3        5.617150      5.600911
   4       10.305647     10.292750
   5       10.725733     10.713789
   6       14.383554     14.363235
 
 -0.1500000E+00  0.1500000E+00  0.1500000E+00  0.6000000E-02
   1       -0.358449     -0.375241
   2        6.395371      6.376989
   3        6.395376      6.377012
   4        7.187823      7.176051
   5        7.403154      7.384817
   6       10.614834     10.603597
 
  0.2500000E+00  0.2500000E+00  0.1500000E+00  0.2400000E-01
   1        3.757386      3.739786
   2        4.426901      4.410142
   3        4.846373      4.829649
   4       10.558974     10.546599
   5       10.706603     10.694477
   6       13.669433     13.648272
 
 -0.2500000E+00  0.2500000E+00  0.1500000E+00  0.2400000E-01
   1        0.904247      0.887699
   2        5.531585      5.517338
   3        6.032655      6.014329
   4        7.256623      7.240779
   5        8.745820      8.728124
   6       10.822585     10.810383
 
 -0.3500000E+00  0.3500000E+00  0.1500000E+00  0.2400000E-01
   1        1.948641      1.932366
   2        4.901968      4.888303
   3        5.514503      5.496185
   4        8.063641      8.047943
   5       10.872731     10.856235
   6       10.912113     10.898376
 
 -0.2500000E+00  0.3500000E+00  0.1500000E+00  0.2400000E-01
   1        2.073320      2.057214
   2        4.586056      4.572505
   3        6.160553      6.142713
   4        7.538462      7.521815
   5       10.001584      9.985343
   6       10.971131     10.956695
 
 -0.4500000E+00  0.4500000E+00  0.1500000E+00  0.2400000E-01
   1        2.173362      2.157490
   2        5.218446      5.200128
   3        5.273811      5.260216
   4        8.028736      8.013774
   5       12.010270     11.995271
   6       12.875903     12.861314
 
 -0.3500000E+00  0.4500000E+00  0.1500000E+00  0.4800000E-01
   1        2.780612      2.765066
   2        4.198414      4.184762
   3        5.758845      5.741577
   4        8.173078      8.156907
   5       10.746704     10.731027
   6       12.929603     12.914224
 
 -0.4500000E+00 -0.4500000E+00  0.1500000E+00  0.2400000E-01
   1        2.793761      2.778698
   2        4.582868      4.569505
   3        5.316411      5.298867
   4        8.172834      8.156718
   5       11.785924     11.770478
   6       14.596519     14.581682
 
 -0.3500000E+00 -0.4500000E+00  0.1500000E+00  0.2400000E-01
   1        3.662030      3.647199
   2        3.724583      3.711165
   3        4.985035      4.968023
   4        9.439728      9.423430
   5       10.606001     10.589994
   6       15.387142     15.371684
 
  0.2500000E+00  0.2500000E+00  0.2500000E+00  0.2000000E-02
   1        4.502575      4.485486
   2        4.502578      4.485515
   3        4.502578      4.485515
   4       10.822796     10.810876
   5       10.822796     10.810876
   6       12.751935     12.729983
 
 -0.2500000E+00  0.2500000E+00  0.2500000E+00  0.6000000E-02
   1        1.979952      1.964180
   2        4.799569      4.787243
   3        6.975754      6.957800
   4        6.975757      6.957823
   5        8.905832      8.888310
   6       10.695271     10.681343
 
 -0.3500000E+00  0.3500000E+00  0.2500000E+00  0.2400000E-01
   1        2.803614      2.788813
   2        3.869019      3.856283
   3        7.040018      7.022122
   4        7.624018      7.606947
   5       10.568429     10.551895
   6       10.848406     10.832379
 
 -0.4500000E+00  0.4500000E+00  0.2500000E+00  0.2400000E-01
   1        2.840348      2.826470
   2        3.786586      3.773521
   3        6.866850      6.848935
   4        7.504633      7.487828
   5       12.556869     12.542115
   6       12.845366     12.828099
 
 -0.3500000E+00  0.4500000E+00  0.2500000E+00  0.2400000E-01
   1        3.132350      3.118696
   2        3.193491      3.180685
   3        6.874785      6.857132
   4        8.856680      8.839519
   5       10.830155     10.813490
   6       12.943118     12.926861
 
 -0.4500000E+00 -0.4500000E+00  0.2500000E+00  0.2400000E-01
   1        2.922150      2.909093
   2        3.251124      3.238194
   3        6.604149      6.586206
   4        9.369406      9.352391
   5       11.680634     11.664653
   6       15.283047     15.266166
 
 -0.3500000E+00  0.3500000E+00  0.3500000E+00  0.6000000E-02
   1        2.916917      2.903455
   2        3.005484      2.992888
   3        8.634366      8.616911
   4        8.634366      8.616933
   5       10.784306     10.768117
   6       10.962607     10.944890
 
 -0.4500000E+00  0.4500000E+00  0.3500000E+00  0.2400000E-01
   1        2.526680      2.513917
   2        2.692021      2.679145
   3        9.092743      9.075297
   4        9.097511      9.080235
   5       12.267791     12.252922
   6       13.081151     13.062577
 
 -0.4500000E+00 -0.4500000E+00  0.3500000E+00  0.8000000E-02
   1        2.372613      2.359859
   2        2.372613      2.359861
   3        9.020499      9.003020
   4       11.444696     11.428447
   5       11.444701     11.428466
   6       15.588069     15.569919
 
 -0.4500000E+00  0.4500000E+00  0.4500000E+00  0.6000000E-02
   1        2.069362      2.056658
   2        2.117046      2.104298
   3       11.347726     11.331394
   4       11.347729     11.331412
   5       12.254661     12.239952
   6       13.561222     13.541416
