       N       E                     dE             d eps       ncg     rms          rms(c)
DAV:   1    -0.800007748302E+01   -0.80001E+01   -0.10233E+03   576   0.241E+02
DAV:   2    -0.123485723831E+02   -0.43485E+01   -0.40156E+01   834   0.402E+01
DAV:   3    -0.123625197479E+02   -0.13947E-01   -0.13943E-01   552   0.327E+00
DAV:   4    -0.123625470139E+02   -0.27266E-04   -0.27266E-04   696   0.115E-01
DAV:   5    -0.123625470913E+02   -0.77395E-07   -0.77425E-07   492   0.507E-03    0.327E+00
DAV:   6    -0.120220391679E+02    0.34051E+00   -0.20911E-01   624   0.333E+00    0.174E+00
DAV:   7    -0.118661401405E+02    0.15590E+00   -0.29979E-01   630   0.389E+00    0.130E-01
DAV:   8    -0.118650474662E+02    0.10927E-02   -0.93501E-04   612   0.200E-01    0.412E-02
DAV:   9    -0.118650524318E+02   -0.49656E-05   -0.16106E-04   390   0.965E-02
   1 F= -.11865052E+02 E0= -.11865236E+02  d E =0.551943E-03
