       N       E                     dE             d eps       ncg     rms          rms(c)
DAV:   1     0.469594200738E+01    0.46959E+01   -0.13639E+03  1218   0.323E+02
DAV:   2    -0.138231383329E+01   -0.60783E+01   -0.51948E+01  1686   0.442E+01
DAV:   3    -0.143016206094E+01   -0.47848E-01   -0.47841E-01  1140   0.465E+00
DAV:   4    -0.143048496202E+01   -0.32290E-03   -0.32290E-03  1386   0.234E-01
DAV:   5    -0.143048739755E+01   -0.24355E-05   -0.24356E-05   942   0.161E-02    0.772E+00
DAV:   6    -0.117132423871E+02   -0.10283E+02   -0.32358E+00  1092   0.758E+00    0.387E+00
DAV:   7    -0.117988603544E+02   -0.85618E-01   -0.22217E-02  1224   0.125E+00    0.341E+00
DAV:   8    -0.117829586623E+02    0.15902E-01   -0.44530E-01  1164   0.496E+00    0.215E+00
DAV:   9    -0.118562858235E+02   -0.73327E-01   -0.81997E-02  1224   0.223E+00    0.439E-01
DAV:  10    -0.118640980927E+02   -0.78123E-02   -0.30335E-03  1182   0.408E-01    0.158E-01
DAV:  11    -0.118649633080E+02   -0.86522E-03   -0.64829E-04  1164   0.180E-01    0.525E-02
DAV:  12    -0.118649789055E+02   -0.15597E-04   -0.13019E-04   648   0.115E-01
   1 F= -.11864979E+02 E0= -.11865148E+02  d E =0.506468E-03  mag=    -0.0157
