 vasp.5.2.12 11Nov11 complex                                                    
  
 executed on             LinuxIFC date 2012.10.17  10:12:39
 running on    1 nodes
 distr:  one band on    1 nodes,    1 groups


--------------------------------------------------------------------------------------------------------


 INCAR:
 POTCAR:    PAW_PBE Ta 17Jan2003                  
 POTCAR:    PAW_PBE Ta 17Jan2003                  
   VRHFIN =Ta:  6s5d                                                            
   LEXCH  = PE                                                                  
   EATOM  =   130.6506 eV,    9.6025 Ry                                         
                                                                                
   TITEL  = PAW_PBE Ta 17Jan2003                                                
   LULTRA =        F    use ultrasoft PP ?                                      
   IUNSCR =        1    unscreen: 0-lin 1-nonlin 2-no                           
   RPACOR =    2.330    partial core radius                                     
   POMASS =  180.948; ZVAL   =    5.000    mass and valenz                      
   RCORE  =    2.900    outmost cutoff radius                                   
   RWIGS  =    2.840; RWIGS  =    1.503    wigner-seitz radius (au A)           
   ENMAX  =  223.667; ENMIN  =  167.750 eV                                      
   RCLOC  =    2.205    cutoff for local pot                                    
   LCOR   =        T    correct aug charges                                     
   LPAW   =        T    paw PP                                                  
   EAUG   =  332.075                                                            
   DEXC   =    -.049                                                            
   RMAX   =    3.083    core radius for proj-oper                               
   RAUG   =    1.300    factor for augmentation sphere                          
   RDEP   =    3.060    radius for radial grids                                 
   QCUT   =   -4.055; QGAM   =    8.109    optimization parameters              
                                                                                
   Description                                                                  
     l     E      TYP  RCUT    TYP  RCUT                                        
     2   .000     23  2.500                                                     
     2   .000     23  2.500                                                     
     0   .000     23  2.500                                                     
     0   .000     23  2.500                                                     
     1   .000     23  2.900                                                     
     1  2.000     23  2.900                                                     
     3   .000      7   .000                                                     
  local pseudopotential read in
  partial core-charges read in
  atomic valenz-charges read in
  non local Contribution for L=           2  read in
    real space projection operators read in
  non local Contribution for L=           2  read in
    real space projection operators read in
  non local Contribution for L=           0  read in
    real space projection operators read in
  non local Contribution for L=           0  read in
    real space projection operators read in
  non local Contribution for L=           1  read in
    real space projection operators read in
  non local Contribution for L=           1  read in
    real space projection operators read in
    PAW grid and wavefunctions read in
 
   number of l-projection  operators is LMAX  =           6
   number of lm-projection operators is LMMAX =          18
 
  PAW_PBE Ta 17Jan2003                  :
 energy of atom  1       EATOM= -130.6506
 kinetic energy error for atom=    0.0711 (will be added to EATOM!!)
 
 
 POSCAR: Ta                                      
  positions in cartesian coordinates
  No initial velocities read in
 exchange correlation table for  LEXCH =        8
   RHO(1)=    0.500       N(1)  =     2000
   RHO(2)=  100.500       N(2)  =     4000
 


--------------------------------------------------------------------------------------------------------


 ion  position               nearest neighbor table
   1  0.000  0.000  0.000-
 
  LATTYP: Found a body centered cubic cell.
 ALAT       =     3.3100000000
  
  Lattice vectors:
  
 A1 = (   2.8665440865,   0.0000000000,   0.0000000000)
 A2 = (  -0.9555146955,   2.7026036829,   0.0000000000)
 A3 = (  -0.9555146955,  -1.3513018414,   2.3405234457)
 Subroutine PRICEL returns:
 Original cell was already a primitive cell.
 

Analysis of symmetry for initial positions (statically):

 Routine SETGRP: Setting up the symmetry group for a 
 body centered cubic supercell.


 Subroutine GETGRP returns: Found 48 space group operations
 (whereof 48 operations were pure point group operations)
 out of a pool of 48 trial point group operations.


The static configuration has the point symmetry O_h .

Analysis of symmetry for dynamics (positions and initial velocities):

 Subroutine DYNSYM returns: Found 48 space group operations
 (whereof 48 operations were pure point group operations)
 out of a pool of 48 trial space group operations
 (whereof 48 operations were pure point group operations)
 and found also     1 'primitive' translations


The dynamic configuration has the point symmetry O_h .

Analysis of magnetic symmetry:

 Subroutine MAGSYM returns: Found 48 space group operations
 (whereof 48 operations were pure point group operations)
 out of a pool of 48 trial space group operations
 (whereof 48 operations were pure point group operations)
 and found also     1 'primitive' translations


The magnetic configuration has the point symmetry O_h .
 
 
 KPOINTS: KPOINTS created by Atomic Simulation Env

Automatic generation of k-mesh.
 
 Subroutine IBZKPT returns following result:
 ===========================================
 
 Found     44 irreducible k-points:
 
 Following reciprocal coordinates:
            Coordinates               Weight
  0.050000  0.050000  0.050000      8.000000
  0.150000  0.050000  0.050000     24.000000
  0.250000  0.050000  0.050000     24.000000
  0.350000  0.050000  0.050000     24.000000
  0.450000  0.050000  0.050000     12.000000
 -0.050000  0.050000  0.050000      6.000000
  0.150000  0.150000  0.050000     24.000000
  0.250000  0.150000  0.050000     48.000000
  0.350000  0.150000  0.050000     48.000000
 -0.150000  0.150000  0.050000     24.000000
  0.250000  0.250000  0.050000     24.000000
  0.350000  0.250000  0.050000     24.000000
 -0.250000  0.250000  0.050000     24.000000
 -0.150000  0.250000  0.050000     24.000000
 -0.350000  0.350000  0.050000     24.000000
 -0.250000  0.350000  0.050000     48.000000
 -0.450000  0.450000  0.050000     24.000000
 -0.350000  0.450000  0.050000     48.000000
 -0.250000  0.450000  0.050000     24.000000
 -0.450000 -0.450000  0.050000     24.000000
 -0.350000 -0.450000  0.050000     48.000000
 -0.350000 -0.350000  0.050000      8.000000
  0.150000  0.150000  0.150000      8.000000
  0.250000  0.150000  0.150000     24.000000
  0.350000  0.150000  0.150000     12.000000
 -0.150000  0.150000  0.150000      6.000000
  0.250000  0.250000  0.150000     24.000000
 -0.250000  0.250000  0.150000     24.000000
 -0.350000  0.350000  0.150000     24.000000
 -0.250000  0.350000  0.150000     24.000000
 -0.450000  0.450000  0.150000     24.000000
 -0.350000  0.450000  0.150000     48.000000
 -0.450000 -0.450000  0.150000     24.000000
 -0.350000 -0.450000  0.150000     24.000000
  0.250000  0.250000  0.250000      2.000000
 -0.250000  0.250000  0.250000      6.000000
 -0.350000  0.350000  0.250000     24.000000
 -0.450000  0.450000  0.250000     24.000000
 -0.350000  0.450000  0.250000     24.000000
 -0.450000 -0.450000  0.250000     24.000000
 -0.350000  0.350000  0.350000      6.000000
 -0.450000  0.450000  0.350000     24.000000
 -0.450000 -0.450000  0.350000      8.000000
 -0.450000  0.450000  0.450000      6.000000
 
 Following cartesian coordinates:
            Coordinates               Weight
  0.017443  0.024668  0.042725      8.000000
  0.052328  0.037001  0.064088     24.000000
  0.087213  0.049335  0.085451     24.000000
  0.122098  0.061669  0.106814     24.000000
  0.156983  0.074003  0.128176     12.000000
 -0.017443  0.012334  0.021363      6.000000
  0.052328  0.074003  0.085451     24.000000
  0.087213  0.086336  0.106814     48.000000
  0.122098  0.098670  0.128176     48.000000
 -0.052328  0.037001  0.021363     24.000000
  0.087213  0.123338  0.128176     24.000000
  0.122098  0.135672  0.149539     24.000000
 -0.087213  0.061669  0.021363     24.000000
 -0.052328  0.074003  0.042725     24.000000
 -0.122098  0.086336  0.021363     24.000000
 -0.087213  0.098670  0.042725     48.000000
 -0.156983  0.111004  0.021363     24.000000
 -0.122098  0.123338  0.042725     48.000000
 -0.087213  0.135672  0.064088     24.000000
 -0.156983 -0.222008 -0.170902     24.000000
 -0.122098 -0.209674 -0.149539     48.000000
 -0.122098 -0.172673 -0.128176      8.000000
  0.052328  0.074003  0.128176      8.000000
  0.087213  0.086336  0.149539     24.000000
  0.122098  0.098670  0.170902     12.000000
 -0.052328  0.037001  0.064088      6.000000
  0.087213  0.123338  0.170902     24.000000
 -0.087213  0.061669  0.064088     24.000000
 -0.122098  0.086336  0.064088     24.000000
 -0.087213  0.098670  0.085451     24.000000
 -0.156983  0.111004  0.064088     24.000000
 -0.122098  0.123338  0.085451     48.000000
 -0.156983 -0.222008 -0.128176     24.000000
 -0.122098 -0.209674 -0.106814     24.000000
  0.087213  0.123338  0.213627      2.000000
 -0.087213  0.061669  0.106814      6.000000
 -0.122098  0.086336  0.106814     24.000000
 -0.156983  0.111004  0.106814     24.000000
 -0.122098  0.123338  0.128176     24.000000
 -0.156983 -0.222008 -0.085451     24.000000
 -0.122098  0.086336  0.149539      6.000000
 -0.156983  0.111004  0.149539     24.000000
 -0.156983 -0.222008 -0.042725      8.000000
 -0.156983  0.111004  0.192265      6.000000
 


--------------------------------------------------------------------------------------------------------




 Dimension of arrays:
   k-points           NKPTS =     44   k-points in BZ     NKDIM =     44   number of bands    NBANDS=      6
   number of dos      NEDOS =    301   number of ions     NIONS =      1
   non local maximal  LDIM  =      6   non local SUM 2l+1 LMDIM =     18
   total plane-waves  NPLWV =   2744
   max r-space proj   IRMAX =      1   max aug-charges    IRDMAX=  10500
   dimension x,y,z NGX =    14 NGY =   14 NGZ =   14
   dimension x,y,z NGXF=    28 NGYF=   28 NGZF=   28
   support grid    NGXF=    28 NGYF=   28 NGZF=   28
   ions per type =               1
 NGX,Y,Z   is equivalent  to a cutoff of   8.12,  8.12,  8.12 a.u.
 NGXF,Y,Z  is equivalent  to a cutoff of  16.24, 16.24, 16.24 a.u.


 I would recommend the setting:
   dimension x,y,z NGX =    13 NGY =   13 NGZ =   13
 SYSTEM =  unknown system                          
 POSCAR =  Ta                                      

 Startparameter for this run:
   NWRITE =      2    write-flag & timer
   PREC   = accura    normal or accurate (medium, high low for compatibility)
   ISTART =      0    job   : 0-new  1-cont  2-samecut
   ICHARG =      2    charge: 1-file 2-atom 10-const
   ISPIN  =      2    spin polarized calculation?
   LNONCOLLINEAR =      F non collinear calculations
   LSORBIT =      F    spin-orbit coupling
   INIWAV =      1    electr: 0-lowe 1-rand  2-diag
   LASPH  =      F    aspherical Exc in radial PAW
   METAGGA=      F    non-selfconsistent MetaGGA calc.

 Electronic Relaxation 1
   ENCUT  =  200.0 eV  14.70 Ry    3.83 a.u.   3.31  3.31  3.31*2*pi/ulx,y,z
   ENINI  =  200.0     initial cutoff
   ENAUG  =  332.1 eV  augmentation charge cutoff
   NELM   =     60;   NELMIN=  2; NELMDL= -5     # of ELM steps 
   EDIFF  = 0.1E-03   stopping-criterion for ELM
   LREAL  =      F    real-space projection
   NLSPLINE    = F    spline interpolate recip. space projectors
   LCOMPAT=      F    compatible to vasp.4.4
   GGA_COMPAT  = T    GGA compatible to vasp.4.4-vasp.4.6
   LMAXPAW     = -100 max onsite density
   LMAXMIX     =    2 max onsite mixed and CHGCAR
   VOSKOWN=      0    Vosko Wilk Nusair interpolation
   ROPT   =    0.00000
 Ionic relaxation
   EDIFFG = 0.1E-02   stopping-criterion for IOM
   NSW    =      0    number of steps for IOM
   NBLOCK =      1;   KBLOCK =      1    inner block; outer block 
   IBRION =     -1    ionic relax: 0-MD 1-quasi-New 2-CG
   NFREE  =      0    steps in history (QN), initial steepest desc. (CG)
   ISIF   =      2    stress and relaxation
   IWAVPR =     10    prediction:  0-non 1-charg 2-wave 3-comb
   ISYM   =      2    0-nonsym 1-usesym 2-fastsym
   LCORR  =      T    Harris-Foulkes like correction to forces

   POTIM  = 0.5000    time-step for ionic-motion
   TEIN   =    0.0    initial temperature
   TEBEG  =    0.0;   TEEND  =   0.0 temperature during run
   SMASS  =  -3.00    Nose mass-parameter (am)
   estimated Nose-frequenzy (Omega)   =  0.10E-29 period in steps =****** mass=  -0.188E-27a.u.
   SCALEE = 1.0000    scale energy and forces
   NPACO  =    256;   APACO  = 16.0  distance and # of slots for P.C.
   PSTRESS=    0.0 pullay stress

  Mass of Ions in am
   POMASS = 180.95
  Ionic Valenz
   ZVAL   =   5.00
  Atomic Wigner-Seitz radii
   RWIGS  =  -1.00
  virtual crystal weights 
   VCA    =   1.00
   NELECT =       5.0000    total number of electrons
   NUPDOWN=      -1.0000    fix difference up-down

 DOS related values:
   EMIN   =  10.00;   EMAX   =-10.00  energy-range for DOS
   EFERMI =   0.00
   ISMEAR =     1;   SIGMA  =   0.05  broadening in eV -4-tet -1-fermi 0-gaus

 Electronic relaxation 2 (details)
   IALGO  =     38    algorithm
   LDIAG  =      T    sub-space diagonalisation (order eigenvalues)
   LSUBROT=      T    optimize rotation matrix (better conditioning)
   TURBO    =      0    0=normal 1=particle mesh
   IRESTART =      0    0=no restart 2=restart with 2 vectors
   NREBOOT  =      0    no. of reboots
   NMIN     =      0    reboot dimension
   EREF     =   0.00    reference energy to select bands
   IMIX   =      4    mixing-type and parameters
     AMIX     =   0.40;   BMIX     =  1.00
     AMIX_MAG =   1.60;   BMIX_MAG =  1.00
     AMIN     =   0.10
     WC   =   100.;   INIMIX=   1;  MIXPRE=   1

 Intra band minimization:
   WEIMIN = 0.0000     energy-eigenvalue tresh-hold
   EBREAK =  0.42E-05  absolut break condition
   DEPER  =   0.30     relativ break condition  

   TIME   =   0.40     timestep for ELM

  volume/ion in A,a.u.               =      18.13       122.36
  Fermi-wavevector in a.u.,A,eV,Ry     =   1.065566  2.013627 15.448462  1.135430
  Thomas-Fermi vector in A             =   2.201121
 
 Write flags
   LWAVE  =      T    write WAVECAR
   LCHARG =      T    write CHGCAR
   LVTOT  =      F    write LOCPOT, total local potential
   LVHAR  =      F    write LOCPOT, Hartree potential only
   LELF   =      F    write electronic localiz. function (ELF)
   LORBIT =     11    0 simple, 1 ext, 2 COOP (PROOUT)


 Dipole corrections
   LMONO  =      F    monopole corrections only (constant potential shift)
   LDIPOL =      F    correct potential (dipole corrections)
   IDIPOL =      0    1-x, 2-y, 3-z, 4-all directions 
   EPSILON=  1.0000000 bulk dielectric constant

 Exchange correlation treatment:
   GGA     =    --    GGA type
   LEXCH   =     8    internal setting for exchange type
   VOSKOWN=      0    Vosko Wilk Nusair interpolation
   LHFCALC =     F    Hartree Fock is set to
   LHFONE  =     F    Hartree Fock one center treatment
   AEXX    =    0.0000 exact exchange contribution

 Linear response parameters
   LEPSILON=     F    determine dielectric tensor
   LRPA    =     F    only Hartree local field effects (RPA)
   LNABLA  =     F    use nabla operator in PAW spheres
   LVEL    =     F    velocity operator in full k-point grid
   LINTERFAST=   F  fast interpolation
   KINTER  =     0    interpolate to denser k-point grid
   CSHIFT  =0.1000    complex shift for real part using Kramers Kronig
   OMEGAMAX=  -1.0    maximum frequency
   RTIME   =    0.100 relaxation time in fs

 Orbital magnetization related:
   ORBITALMAG=     F  switch on orbital magnetization
   LCHIMAG   =     F  perturbation theory with respect to B field
   DQ        =  0.001000  dq finite difference perturbation B field



--------------------------------------------------------------------------------------------------------


 Static calculation
 charge density and potential will be updated during run
 spin polarized calculation
 Variant of blocked Davidson
 Davidson routine will perform the subspace rotation
 perform sub-space diagonalisation
    after iterative eigenvector-optimisation
 modified Broyden-mixing scheme, WC =      100.0
 initial mixing is a Kerker type mixing with AMIX =  0.4000 and BMIX =      1.0000
 Hartree-type preconditioning will be used
 using additional bands            3
 reciprocal scheme for non local part
 use partial core corrections
 calculate Harris-corrections to forces 
   (improved forces if not selfconsistent)
 use gradient corrections 
 use of overlap-Matrix (Vanderbilt PP)
 Methfessel and Paxton  Order N= 1 SIGMA  =   0.05


--------------------------------------------------------------------------------------------------------


  energy-cutoff  :      200.00
  volume of cell :       18.13
      direct lattice vectors                 reciprocal lattice vectors
     2.866544087  0.000000000  0.000000000     0.348852126  0.123337852  0.213627426
    -0.955514696  2.702603683  0.000000000     0.000000000  0.370013556  0.213627426
    -0.955514696 -1.351301841  2.340523446     0.000000000  0.000000000  0.427254853

  length of vectors
     2.866544087  2.866544087  2.866544087     0.427254853  0.427254853  0.427254853


 
 k-points in units of 2pi/SCALE and weight: KPOINTS created by Atomic Simulation Env
   0.01744261  0.02466757  0.04272549       0.008
   0.05232782  0.03700136  0.06408823       0.024
   0.08721303  0.04933514  0.08545097       0.024
   0.12209824  0.06166893  0.10681371       0.024
   0.15698346  0.07400271  0.12817646       0.012
  -0.01744261  0.01233379  0.02136274       0.006
   0.05232782  0.07400271  0.08545097       0.024
   0.08721303  0.08633650  0.10681371       0.048
   0.12209824  0.09867028  0.12817646       0.048
  -0.05232782  0.03700136  0.02136274       0.024
   0.08721303  0.12333785  0.12817646       0.024
   0.12209824  0.13567164  0.14953920       0.024
  -0.08721303  0.06166893  0.02136274       0.024
  -0.05232782  0.07400271  0.04272549       0.024
  -0.12209824  0.08633650  0.02136274       0.024
  -0.08721303  0.09867028  0.04272549       0.048
  -0.15698346  0.11100407  0.02136274       0.024
  -0.12209824  0.12333785  0.04272549       0.048
  -0.08721303  0.13567164  0.06408823       0.024
  -0.15698346 -0.22200813 -0.17090194       0.024
  -0.12209824 -0.20967435 -0.14953920       0.048
  -0.12209824 -0.17267299 -0.12817646       0.008
   0.05232782  0.07400271  0.12817646       0.008
   0.08721303  0.08633650  0.14953920       0.024
   0.12209824  0.09867028  0.17090194       0.012
  -0.05232782  0.03700136  0.06408823       0.006
   0.08721303  0.12333785  0.17090194       0.024
  -0.08721303  0.06166893  0.06408823       0.024
  -0.12209824  0.08633650  0.06408823       0.024
  -0.08721303  0.09867028  0.08545097       0.024
  -0.15698346  0.11100407  0.06408823       0.024
  -0.12209824  0.12333785  0.08545097       0.048
  -0.15698346 -0.22200813 -0.12817646       0.024
  -0.12209824 -0.20967435 -0.10681371       0.024
   0.08721303  0.12333785  0.21362743       0.002
  -0.08721303  0.06166893  0.10681371       0.006
  -0.12209824  0.08633650  0.10681371       0.024
  -0.15698346  0.11100407  0.10681371       0.024
  -0.12209824  0.12333785  0.12817646       0.024
  -0.15698346 -0.22200813 -0.08545097       0.024
  -0.12209824  0.08633650  0.14953920       0.006
  -0.15698346  0.11100407  0.14953920       0.024
  -0.15698346 -0.22200813 -0.04272549       0.008
  -0.15698346  0.11100407  0.19226468       0.006
 
 k-points in reciprocal lattice and weights: KPOINTS created by Atomic Simulation Env
   0.05000000  0.05000000  0.05000000       0.008
   0.15000000  0.05000000  0.05000000       0.024
   0.25000000  0.05000000  0.05000000       0.024
   0.35000000  0.05000000  0.05000000       0.024
   0.45000000  0.05000000  0.05000000       0.012
  -0.05000000  0.05000000  0.05000000       0.006
   0.15000000  0.15000000  0.05000000       0.024
   0.25000000  0.15000000  0.05000000       0.048
   0.35000000  0.15000000  0.05000000       0.048
  -0.15000000  0.15000000  0.05000000       0.024
   0.25000000  0.25000000  0.05000000       0.024
   0.35000000  0.25000000  0.05000000       0.024
  -0.25000000  0.25000000  0.05000000       0.024
  -0.15000000  0.25000000  0.05000000       0.024
  -0.35000000  0.35000000  0.05000000       0.024
  -0.25000000  0.35000000  0.05000000       0.048
  -0.45000000  0.45000000  0.05000000       0.024
  -0.35000000  0.45000000  0.05000000       0.048
  -0.25000000  0.45000000  0.05000000       0.024
  -0.45000000 -0.45000000  0.05000000       0.024
  -0.35000000 -0.45000000  0.05000000       0.048
  -0.35000000 -0.35000000  0.05000000       0.008
   0.15000000  0.15000000  0.15000000       0.008
   0.25000000  0.15000000  0.15000000       0.024
   0.35000000  0.15000000  0.15000000       0.012
  -0.15000000  0.15000000  0.15000000       0.006
   0.25000000  0.25000000  0.15000000       0.024
  -0.25000000  0.25000000  0.15000000       0.024
  -0.35000000  0.35000000  0.15000000       0.024
  -0.25000000  0.35000000  0.15000000       0.024
  -0.45000000  0.45000000  0.15000000       0.024
  -0.35000000  0.45000000  0.15000000       0.048
  -0.45000000 -0.45000000  0.15000000       0.024
  -0.35000000 -0.45000000  0.15000000       0.024
   0.25000000  0.25000000  0.25000000       0.002
  -0.25000000  0.25000000  0.25000000       0.006
  -0.35000000  0.35000000  0.25000000       0.024
  -0.45000000  0.45000000  0.25000000       0.024
  -0.35000000  0.45000000  0.25000000       0.024
  -0.45000000 -0.45000000  0.25000000       0.024
  -0.35000000  0.35000000  0.35000000       0.006
  -0.45000000  0.45000000  0.35000000       0.024
  -0.45000000 -0.45000000  0.35000000       0.008
  -0.45000000  0.45000000  0.45000000       0.006
 
 position of ions in fractional coordinates (direct lattice) 
   0.00000000  0.00000000  0.00000000
 
 position of ions in cartesian coordinates  (Angst):
   0.00000000  0.00000000  0.00000000
 


--------------------------------------------------------------------------------------------------------


 k-point  1 :  0.05000.05000.0500  plane waves:     123
 k-point  2 :  0.15000.05000.0500  plane waves:     119
 k-point  3 :  0.25000.05000.0500  plane waves:     114
 k-point  4 :  0.35000.05000.0500  plane waves:     118
 k-point  5 :  0.45000.05000.0500  plane waves:     118
 k-point  6 :  -.05000.05000.0500  plane waves:     127
 k-point  7 :  0.15000.15000.0500  plane waves:     113
 k-point  8 :  0.25000.15000.0500  plane waves:     117
 k-point  9 :  0.35000.15000.0500  plane waves:     118
 k-point 10 :  -.15000.15000.0500  plane waves:     118
 k-point 11 :  0.25000.25000.0500  plane waves:     120
 k-point 12 :  0.35000.25000.0500  plane waves:     117
 k-point 13 :  -.25000.25000.0500  plane waves:     117
 k-point 14 :  -.15000.25000.0500  plane waves:     118
 k-point 15 :  -.35000.35000.0500  plane waves:     116
 k-point 16 :  -.25000.35000.0500  plane waves:     114
 k-point 17 :  -.45000.45000.0500  plane waves:     116
 k-point 18 :  -.35000.45000.0500  plane waves:     115
 k-point 19 :  -.25000.45000.0500  plane waves:     116
 k-point 20 :  -.4500-.45000.0500  plane waves:     118
 k-point 21 :  -.3500-.45000.0500  plane waves:     117
 k-point 22 :  -.3500-.35000.0500  plane waves:     119
 k-point 23 :  0.15000.15000.1500  plane waves:     119
 k-point 24 :  0.25000.15000.1500  plane waves:     119
 k-point 25 :  0.35000.15000.1500  plane waves:     118
 k-point 26 :  -.15000.15000.1500  plane waves:     112
 k-point 27 :  0.25000.25000.1500  plane waves:     117
 k-point 28 :  -.25000.25000.1500  plane waves:     114
 k-point 29 :  -.35000.35000.1500  plane waves:     117
 k-point 30 :  -.25000.35000.1500  plane waves:     116
 k-point 31 :  -.45000.45000.1500  plane waves:     118
 k-point 32 :  -.35000.45000.1500  plane waves:     116
 k-point 33 :  -.4500-.45000.1500  plane waves:     113
 k-point 34 :  -.3500-.45000.1500  plane waves:     115
 k-point 35 :  0.25000.25000.2500  plane waves:     104
 k-point 36 :  -.25000.25000.2500  plane waves:     116
 k-point 37 :  -.35000.35000.2500  plane waves:     115
 k-point 38 :  -.45000.45000.2500  plane waves:     115
 k-point 39 :  -.35000.45000.2500  plane waves:     115
 k-point 40 :  -.4500-.45000.2500  plane waves:     112
 k-point 41 :  -.35000.35000.3500  plane waves:     112
 k-point 42 :  -.45000.45000.3500  plane waves:     115
 k-point 43 :  -.4500-.45000.3500  plane waves:     116
 k-point 44 :  -.45000.45000.4500  plane waves:     116

 maximum and minimum number of plane-waves per node :       127      104

 maximum number of plane-waves:       127
 maximum index in each direction: 
   IXMAX=    3   IYMAX=    3   IZMAX=    3
   IXMIN=   -3   IYMIN=   -3   IZMIN=   -3

 NGX is ok and might be reduce to  14
 NGY is ok and might be reduce to  14
 NGZ is ok and might be reduce to  14

 serial   3D FFT for wavefunctions
 parallel 3D FFT for charge:
    minimum data exchange during FFTs selected (reduces bandwidth)


 total amount of memory used by VASP on root node    34755. kBytes
========================================================================

   base      :      30000. kBytes
   nonl-proj :        806. kBytes
   fftplans  :        800. kBytes
   grid      :       1894. kBytes
   one-center:         31. kBytes
   wavefun   :       1224. kBytes
 
 Broyden mixing: mesh for mixing (old mesh)
   NGX =  7   NGY =  7   NGZ =  7
  (NGX  = 28   NGY  = 28   NGZ  = 28)
  gives a total of    343 points

 initial charge density was supplied:
 charge density of overlapping atoms calculated
 number of electron       5.0000000 magnetization       6.0000000
 keeping initial charge density in first step


--------------------------------------------------------------------------------------------------------


 Maximum index for augmentation-charges         9841 (set IRDMAX)


--------------------------------------------------------------------------------------------------------


 First call to EWALD:  gamma=   0.675
 Maximum number of real-space cells 3x 3x 3
 Maximum number of reciprocal cells 3x 3x 3

    FEWALD:  cpu time    0.00: real time    0.00


----------------------------------------- Iteration    1(   1)  ---------------------------------------


    POTLOK:  cpu time    0.07: real time    0.07
    SETDIJ:  cpu time    0.02: real time    0.02
     EDDAV:  cpu time    0.59: real time    0.59
       DOS:  cpu time    0.00: real time    0.00
    --------------------------------------------
      LOOP:  cpu time    0.69: real time    0.70

 eigenvalue-minimisations  :  1218
 total energy-change (2. order) : 0.4695942E+01  (-0.1363901E+03)
 number of electron       5.0000000 magnetization       6.0000000
 augmentation part        5.0000000 magnetization       6.0000000

 Free energy of the ion-electron system (eV)
  ---------------------------------------------------
  alpha Z        PSCENC =        30.58334069
  Ewald energy   TEWEN  =      -197.90100875
  -1/2 Hartree   DENC   =        -2.50452612
  -exchange  EXHF       =         0.00000000
  -V(xc)+E(xc)   XCENC  =       -60.73631373
  PAW double counting   =       143.51874798      -69.33493833
  entropy T*S    EENTRO =        -0.00050918
  eigenvalues    EBANDS =        30.49164913
  atomic energy  EATOM  =       130.57950032
  ---------------------------------------------------
  free energy    TOTEN  =         4.69594201 eV

  energy without entropy =        4.69645119  energy(sigma->0) =        4.69611173


--------------------------------------------------------------------------------------------------------




----------------------------------------- Iteration    1(   2)  ---------------------------------------


     EDDAV:  cpu time    0.78: real time    0.78
       DOS:  cpu time    0.00: real time    0.00
    --------------------------------------------
      LOOP:  cpu time    0.79: real time    0.79

 eigenvalue-minimisations  :  1686
 total energy-change (2. order) :-0.6078256E+01  (-0.5194813E+01)
 number of electron       5.0000000 magnetization       6.0000000
 augmentation part        5.0000000 magnetization       6.0000000

 Free energy of the ion-electron system (eV)
  ---------------------------------------------------
  alpha Z        PSCENC =        30.58334069
  Ewald energy   TEWEN  =      -197.90100875
  -1/2 Hartree   DENC   =        -2.50452612
  -exchange  EXHF       =         0.00000000
  -V(xc)+E(xc)   XCENC  =       -60.73631373
  PAW double counting   =       143.51874798      -69.33493833
  entropy T*S    EENTRO =        -0.00002844
  eigenvalues    EBANDS =        24.41291255
  atomic energy  EATOM  =       130.57950032
  ---------------------------------------------------
  free energy    TOTEN  =        -1.38231383 eV

  energy without entropy =       -1.38228540  energy(sigma->0) =       -1.38230435


--------------------------------------------------------------------------------------------------------




----------------------------------------- Iteration    1(   3)  ---------------------------------------


     EDDAV:  cpu time    0.56: real time    0.56
       DOS:  cpu time    0.00: real time    0.00
    --------------------------------------------
      LOOP:  cpu time    0.57: real time    0.58

 eigenvalue-minimisations  :  1140
 total energy-change (2. order) :-0.4784823E-01  (-0.4784115E-01)
 number of electron       5.0000000 magnetization       6.0000000
 augmentation part        5.0000000 magnetization       6.0000000

 Free energy of the ion-electron system (eV)
  ---------------------------------------------------
  alpha Z        PSCENC =        30.58334069
  Ewald energy   TEWEN  =      -197.90100875
  -1/2 Hartree   DENC   =        -2.50452612
  -exchange  EXHF       =         0.00000000
  -V(xc)+E(xc)   XCENC  =       -60.73631373
  PAW double counting   =       143.51874798      -69.33493833
  entropy T*S    EENTRO =        -0.00002426
  eigenvalues    EBANDS =        24.36506015
  atomic energy  EATOM  =       130.57950032
  ---------------------------------------------------
  free energy    TOTEN  =        -1.43016206 eV

  energy without entropy =       -1.43013780  energy(sigma->0) =       -1.43015397


--------------------------------------------------------------------------------------------------------




----------------------------------------- Iteration    1(   4)  ---------------------------------------


     EDDAV:  cpu time    0.66: real time    0.66
       DOS:  cpu time    0.00: real time    0.00
    --------------------------------------------
      LOOP:  cpu time    0.66: real time    0.68

 eigenvalue-minimisations  :  1386
 total energy-change (2. order) :-0.3229011E-03  (-0.3229005E-03)
 number of electron       5.0000000 magnetization       6.0000000
 augmentation part        5.0000000 magnetization       6.0000000

 Free energy of the ion-electron system (eV)
  ---------------------------------------------------
  alpha Z        PSCENC =        30.58334069
  Ewald energy   TEWEN  =      -197.90100875
  -1/2 Hartree   DENC   =        -2.50452612
  -exchange  EXHF       =         0.00000000
  -V(xc)+E(xc)   XCENC  =       -60.73631373
  PAW double counting   =       143.51874798      -69.33493833
  entropy T*S    EENTRO =        -0.00002404
  eigenvalues    EBANDS =        24.36473703
  atomic energy  EATOM  =       130.57950032
  ---------------------------------------------------
  free energy    TOTEN  =        -1.43048496 eV

  energy without entropy =       -1.43046092  energy(sigma->0) =       -1.43047695


--------------------------------------------------------------------------------------------------------




----------------------------------------- Iteration    1(   5)  ---------------------------------------


     EDDAV:  cpu time    0.48: real time    0.49
       DOS:  cpu time    0.00: real time    0.00
    CHARGE:  cpu time    0.06: real time    0.06
    MIXING:  cpu time    0.00: real time    0.00
    --------------------------------------------
      LOOP:  cpu time    0.55: real time    0.56

 eigenvalue-minimisations  :   942
 total energy-change (2. order) :-0.2435533E-05  (-0.2435650E-05)
 number of electron       5.0000000 magnetization       1.9496566
 augmentation part        0.4502712 magnetization      -0.8490545

 Broyden mixing:
  rms(total) = 0.77168E+00    rms(broyden)= 0.77152E+00
  rms(prec ) = 0.99710E+00
  weight for this iteration     100.00

 Free energy of the ion-electron system (eV)
  ---------------------------------------------------
  alpha Z        PSCENC =        30.58334069
  Ewald energy   TEWEN  =      -197.90100875
  -1/2 Hartree   DENC   =        -2.50452612
  -exchange  EXHF       =         0.00000000
  -V(xc)+E(xc)   XCENC  =       -60.73631373
  PAW double counting   =       143.51874798      -69.33493833
  entropy T*S    EENTRO =        -0.00002404
  eigenvalues    EBANDS =        24.36473458
  atomic energy  EATOM  =       130.57950032
  ---------------------------------------------------
  free energy    TOTEN  =        -1.43048740 eV

  energy without entropy =       -1.43046336  energy(sigma->0) =       -1.43047939


--------------------------------------------------------------------------------------------------------




----------------------------------------- Iteration    1(   6)  ---------------------------------------


    POTLOK:  cpu time    0.07: real time    0.07
    SETDIJ:  cpu time    0.02: real time    0.02
     EDDAV:  cpu time    0.54: real time    0.54
       DOS:  cpu time    0.00: real time    0.00
    CHARGE:  cpu time    0.05: real time    0.05
    MIXING:  cpu time    0.00: real time    0.00
    --------------------------------------------
      LOOP:  cpu time    0.68: real time    0.72

 eigenvalue-minimisations  :  1092
 total energy-change (2. order) :-0.1028275E+02  (-0.3235818E+00)
 number of electron       5.0000000 magnetization       1.6827061
 augmentation part        0.3666022 magnetization       0.9883303

 Broyden mixing:
  rms(total) = 0.38726E+00    rms(broyden)= 0.38707E+00
  rms(prec ) = 0.11440E+01
  weight for this iteration     100.00

 eigenvalues of (default mixing * dielectric matrix)
  average eigenvalue GAMMA=   1.4799
  1.4799

 Free energy of the ion-electron system (eV)
  ---------------------------------------------------
  alpha Z        PSCENC =        30.58334069
  Ewald energy   TEWEN  =      -197.90100875
  -1/2 Hartree   DENC   =        -1.97614151
  -exchange  EXHF       =         0.00000000
  -V(xc)+E(xc)   XCENC  =       -66.16510584
  PAW double counting   =       163.72834793      -89.78576677
  entropy T*S    EENTRO =         0.00014051
  eigenvalues    EBANDS =        19.22345103
  atomic energy  EATOM  =       130.57950032
  ---------------------------------------------------
  free energy    TOTEN  =       -11.71324239 eV

  energy without entropy =      -11.71338290  energy(sigma->0) =      -11.71328923


--------------------------------------------------------------------------------------------------------




----------------------------------------- Iteration    1(   7)  ---------------------------------------


    POTLOK:  cpu time    0.06: real time    0.07
    SETDIJ:  cpu time    0.02: real time    0.02
     EDDAV:  cpu time    0.59: real time    0.60
       DOS:  cpu time    0.00: real time    0.00
    CHARGE:  cpu time    0.05: real time    0.05
    MIXING:  cpu time    0.00: real time    0.00
    --------------------------------------------
      LOOP:  cpu time    0.74: real time    0.83

 eigenvalue-minimisations  :  1224
 total energy-change (2. order) :-0.8561797E-01  (-0.2221699E-02)
 number of electron       5.0000000 magnetization       1.1794685
 augmentation part        0.3672956 magnetization       0.5557227

 Broyden mixing:
  rms(total) = 0.34095E+00    rms(broyden)= 0.34093E+00
  rms(prec ) = 0.10621E+01
  weight for this iteration     100.00

 eigenvalues of (default mixing * dielectric matrix)
  average eigenvalue GAMMA=   1.0967
  1.0967  1.0967

 Free energy of the ion-electron system (eV)
  ---------------------------------------------------
  alpha Z        PSCENC =        30.58334069
  Ewald energy   TEWEN  =      -197.90100875
  -1/2 Hartree   DENC   =        -1.84166356
  -exchange  EXHF       =         0.00000000
  -V(xc)+E(xc)   XCENC  =       -66.22947578
  PAW double counting   =       166.03656121      -92.13396539
  entropy T*S    EENTRO =        -0.00000710
  eigenvalues    EBANDS =        19.10785801
  atomic energy  EATOM  =       130.57950032
  ---------------------------------------------------
  free energy    TOTEN  =       -11.79886035 eV

  energy without entropy =      -11.79885325  energy(sigma->0) =      -11.79885799


--------------------------------------------------------------------------------------------------------




----------------------------------------- Iteration    1(   8)  ---------------------------------------


    POTLOK:  cpu time    0.07: real time    0.07
    SETDIJ:  cpu time    0.02: real time    0.02
     EDDAV:  cpu time    0.56: real time    0.57
       DOS:  cpu time    0.00: real time    0.00
    CHARGE:  cpu time    0.05: real time    0.05
    MIXING:  cpu time    0.00: real time    0.00
    --------------------------------------------
      LOOP:  cpu time    0.71: real time    0.73

 eigenvalue-minimisations  :  1164
 total energy-change (2. order) : 0.1590169E-01  (-0.4452975E-01)
 number of electron       5.0000000 magnetization       0.3387275
 augmentation part        0.3892853 magnetization      -0.0602992

 Broyden mixing:
  rms(total) = 0.21535E+00    rms(broyden)= 0.21531E+00
  rms(prec ) = 0.38227E+00
  weight for this iteration     100.00

 eigenvalues of (default mixing * dielectric matrix)
  average eigenvalue GAMMA=   1.1191
  1.3521  1.3521  0.6531

 Free energy of the ion-electron system (eV)
  ---------------------------------------------------
  alpha Z        PSCENC =        30.58334069
  Ewald energy   TEWEN  =      -197.90100875
  -1/2 Hartree   DENC   =        -0.86355039
  -exchange  EXHF       =         0.00000000
  -V(xc)+E(xc)   XCENC  =       -66.02270663
  PAW double counting   =       178.48934002     -104.90259988
  entropy T*S    EENTRO =        -0.00000780
  eigenvalues    EBANDS =        18.25473376
  atomic energy  EATOM  =       130.57950032
  ---------------------------------------------------
  free energy    TOTEN  =       -11.78295866 eV

  energy without entropy =      -11.78295086  energy(sigma->0) =      -11.78295606


--------------------------------------------------------------------------------------------------------




----------------------------------------- Iteration    1(   9)  ---------------------------------------


    POTLOK:  cpu time    0.07: real time    0.07
    SETDIJ:  cpu time    0.02: real time    0.02
     EDDAV:  cpu time    0.59: real time    0.59
       DOS:  cpu time    0.00: real time    0.00
    CHARGE:  cpu time    0.05: real time    0.05
    MIXING:  cpu time    0.00: real time    0.00
    --------------------------------------------
      LOOP:  cpu time    0.73: real time    0.76

 eigenvalue-minimisations  :  1224
 total energy-change (2. order) :-0.7332716E-01  (-0.8199661E-02)
 number of electron       5.0000000 magnetization       0.1138668
 augmentation part        0.4010938 magnetization      -0.0418187

 Broyden mixing:
  rms(total) = 0.43922E-01    rms(broyden)= 0.43857E-01
  rms(prec ) = 0.56428E-01
  weight for this iteration     100.00

 eigenvalues of (default mixing * dielectric matrix)
  average eigenvalue GAMMA=   1.1529
  1.9634  0.9816  0.9816  0.6848

 Free energy of the ion-electron system (eV)
  ---------------------------------------------------
  alpha Z        PSCENC =        30.58334069
  Ewald energy   TEWEN  =      -197.90100875
  -1/2 Hartree   DENC   =        -0.57395677
  -exchange  EXHF       =         0.00000000
  -V(xc)+E(xc)   XCENC  =       -65.98913534
  PAW double counting   =       187.33930820     -113.87961208
  entropy T*S    EENTRO =        -0.00047155
  eigenvalues    EBANDS =        17.98574945
  atomic energy  EATOM  =       130.57950032
  ---------------------------------------------------
  free energy    TOTEN  =       -11.85628582 eV

  energy without entropy =      -11.85581427  energy(sigma->0) =      -11.85612864


--------------------------------------------------------------------------------------------------------




----------------------------------------- Iteration    1(  10)  ---------------------------------------


    POTLOK:  cpu time    0.07: real time    0.07
    SETDIJ:  cpu time    0.02: real time    0.02
     EDDAV:  cpu time    0.57: real time    0.57
       DOS:  cpu time    0.00: real time    0.00
    CHARGE:  cpu time    0.05: real time    0.05
    MIXING:  cpu time    0.00: real time    0.00
    --------------------------------------------
      LOOP:  cpu time    0.72: real time    1.07

 eigenvalue-minimisations  :  1182
 total energy-change (2. order) :-0.7812269E-02  (-0.3033510E-03)
 number of electron       5.0000000 magnetization       0.0201229
 augmentation part        0.4008996 magnetization      -0.0346855

 Broyden mixing:
  rms(total) = 0.15795E-01    rms(broyden)= 0.15749E-01
  rms(prec ) = 0.28666E-01
  weight for this iteration     100.00

 eigenvalues of (default mixing * dielectric matrix)
  average eigenvalue GAMMA=   1.0878
  2.0349  0.9645  0.9645  0.8300  0.6449

 Free energy of the ion-electron system (eV)
  ---------------------------------------------------
  alpha Z        PSCENC =        30.58334069
  Ewald energy   TEWEN  =      -197.90100875
  -1/2 Hartree   DENC   =        -0.55815809
  -exchange  EXHF       =         0.00000000
  -V(xc)+E(xc)   XCENC  =       -65.98475074
  PAW double counting   =       189.70690501     -116.26514557
  entropy T*S    EENTRO =        -0.00020884
  eigenvalues    EBANDS =        17.97542788
  atomic energy  EATOM  =       130.57950032
  ---------------------------------------------------
  free energy    TOTEN  =       -11.86409809 eV

  energy without entropy =      -11.86388925  energy(sigma->0) =      -11.86402848


--------------------------------------------------------------------------------------------------------




----------------------------------------- Iteration    1(  11)  ---------------------------------------


    POTLOK:  cpu time    0.07: real time    0.07
    SETDIJ:  cpu time    0.02: real time    0.02
     EDDAV:  cpu time    0.56: real time    0.56
       DOS:  cpu time    0.00: real time    0.00
    CHARGE:  cpu time    0.05: real time    0.05
    MIXING:  cpu time    0.00: real time    0.00
    --------------------------------------------
      LOOP:  cpu time    0.71: real time    0.73

 eigenvalue-minimisations  :  1164
 total energy-change (2. order) :-0.8652153E-03  (-0.6482864E-04)
 number of electron       5.0000000 magnetization      -0.0232827
 augmentation part        0.4005993 magnetization      -0.0324172

 Broyden mixing:
  rms(total) = 0.52460E-02    rms(broyden)= 0.51933E-02
  rms(prec ) = 0.10373E-01
  weight for this iteration     100.00

 eigenvalues of (default mixing * dielectric matrix)
  average eigenvalue GAMMA=   1.1647
  2.0348  1.2579  1.2579  0.8996  0.8996  0.6382

 Free energy of the ion-electron system (eV)
  ---------------------------------------------------
  alpha Z        PSCENC =        30.58334069
  Ewald energy   TEWEN  =      -197.90100875
  -1/2 Hartree   DENC   =        -0.57103304
  -exchange  EXHF       =         0.00000000
  -V(xc)+E(xc)   XCENC  =       -65.99105869
  PAW double counting   =       191.48974726     -118.05661226
  entropy T*S    EENTRO =         0.00050935
  eigenvalues    EBANDS =        18.00165182
  atomic energy  EATOM  =       130.57950032
  ---------------------------------------------------
  free energy    TOTEN  =       -11.86496331 eV

  energy without entropy =      -11.86547265  energy(sigma->0) =      -11.86513309


--------------------------------------------------------------------------------------------------------




----------------------------------------- Iteration    1(  12)  ---------------------------------------


    POTLOK:  cpu time    0.07: real time    0.07
    SETDIJ:  cpu time    0.02: real time    0.02
     EDDAV:  cpu time    0.38: real time    0.38
       DOS:  cpu time    0.00: real time    0.00
    --------------------------------------------
      LOOP:  cpu time    0.47: real time    0.49

 eigenvalue-minimisations  :   648
 total energy-change (2. order) :-0.1559746E-04  (-0.1301880E-04)
 number of electron       5.0000000 magnetization      -0.0232827
 augmentation part        0.4005993 magnetization      -0.0324172

 Free energy of the ion-electron system (eV)
  ---------------------------------------------------
  alpha Z        PSCENC =        30.58334069
  Ewald energy   TEWEN  =      -197.90100875
  -1/2 Hartree   DENC   =        -0.57628148
  -exchange  EXHF       =         0.00000000
  -V(xc)+E(xc)   XCENC  =       -65.99228401
  PAW double counting   =       192.83704647     -119.41042701
  entropy T*S    EENTRO =         0.00050647
  eigenvalues    EBANDS =        18.01462839
  atomic energy  EATOM  =       130.57950032
  ---------------------------------------------------
  free energy    TOTEN  =       -11.86497891 eV

  energy without entropy =      -11.86548537  energy(sigma->0) =      -11.86514773


--------------------------------------------------------------------------------------------------------




 average (electrostatic) potential at core
  the test charge radii are     1.2538
  (the norm of the test charge is              1.0000)
       1 -35.0626
 
 
 
 E-fermi :   5.6802     XC(G=0): -12.3712     alpha+bet :-13.5035


 spin component 1

 k-point   1 :       0.0500    0.0500    0.0500
  band No.  band energies     occupation 
      1      -1.5357      1.00000
      2       6.1075      0.00000
      3       6.1075      0.00000
      4       7.2238      0.00000
      5       9.4613      0.00000
      6       9.4613      0.00000

 k-point   2 :       0.1500    0.0500    0.0500
  band No.  band energies     occupation 
      1      -0.4136      1.00000
      2       5.4345      1.00000
      3       5.6221      1.03481
      4       8.5760      0.00000
      5       9.1499      0.00000
      6       9.7287      0.00000

 k-point   3 :       0.2500    0.0500    0.0500
  band No.  band energies     occupation 
      1       0.9134      1.00000
      2       4.7781      1.00000
      3       5.3160      1.00000
      4       9.3772      0.00000
      5      10.0794      0.00000
      6      10.5561      0.00000

 k-point   4 :       0.3500    0.0500    0.0500
  band No.  band energies     occupation 
      1       1.5423      1.00000
      2       4.3254      1.00000
      3       6.1193      0.00000
      4       9.6948      0.00000
      5      10.4289      0.00000
      6      12.6835      0.00000

 k-point   5 :       0.4500    0.0500    0.0500
  band No.  band energies     occupation 
      1       1.5989      1.00000
      2       4.1727      1.00000
      3       6.9934      0.00000
      4       9.6748      0.00000
      5      10.6124      0.00000
      6      13.8338      0.00000

 k-point   6 :      -0.0500    0.0500    0.0500
  band No.  band energies     occupation 
      1      -1.9514      1.00000
      2       6.4297      0.00000
      3       6.4297      0.00000
      4       6.5476      0.00000
      5       9.3161      0.00000
      6       9.8338      0.00000

 k-point   7 :       0.1500    0.1500    0.0500
  band No.  band energies     occupation 
      1       0.8570      1.00000
      2       4.8934      1.00000
      3       4.9671      1.00000
      4       9.2432      0.00000
      5      10.1219      0.00000
      6      10.4786      0.00000

 k-point   8 :       0.2500    0.1500    0.0500
  band No.  band energies     occupation 
      1       2.0235      1.00000
      2       4.4184      1.00000
      3       4.9897      1.00000
      4       9.5306      0.00000
      5      10.4644      0.00000
      6      12.6965      0.00000

 k-point   9 :       0.3500    0.1500    0.0500
  band No.  band energies     occupation 
      1       2.3045      1.00000
      2       4.1999      1.00000
      3       5.9527      0.00000
      4       9.7833      0.00000
      5      10.6613      0.00000
      6      14.5541      0.00000

 k-point  10 :      -0.1500    0.1500    0.0500
  band No.  band energies     occupation 
      1      -1.1354      1.00000
      2       5.9758      0.00000
      3       6.2051      0.00000
      4       7.3891      0.00000
      5       8.6445      0.00000
      6      10.0142      0.00000

 k-point  11 :       0.2500    0.2500    0.0500
  band No.  band energies     occupation 
      1       2.9462      1.00000
      2       4.3056      1.00000
      3       5.0273      1.00000
      4       9.8407      0.00000
      5      10.5481      0.00000
      6      14.9822      0.00000

 k-point  12 :       0.3500    0.2500    0.0500
  band No.  band energies     occupation 
      1       3.1298      1.00000
      2       4.3959      1.00000
      3       5.2685      1.00000
      4      10.0835      0.00000
      5      10.5986      0.00000
      6      14.3948      0.00000

 k-point  13 :      -0.2500    0.2500    0.0500
  band No.  band energies     occupation 
      1       0.1859      1.00000
      2       5.2861      1.00000
      3       5.6272      1.03031
      4       8.6668      0.00000
      5       8.9961      0.00000
      6      10.2151      0.00000

 k-point  14 :      -0.1500    0.2500    0.0500
  band No.  band energies     occupation 
      1      -0.0535      1.00000
      2       5.6509      0.91365
      3       5.7128      0.05782
      4       8.0870      0.00000
      5       8.4968      0.00000
      6      10.4151      0.00000

 k-point  15 :      -0.3500    0.3500    0.0500
  band No.  band energies     occupation 
      1       1.2244      1.00000
      2       4.6937      1.00000
      3       5.7063      0.11807
      4       9.1999      0.00000
      5      10.4407      0.00000
      6      11.1393      0.00000

 k-point  16 :      -0.2500    0.3500    0.0500
  band No.  band energies     occupation 
      1       1.2508      1.00000
      2       4.9404      1.00000
      3       5.3707      1.00000
      4       8.3958      0.00000
      5      10.3390      0.00000
      6      10.7175      0.00000

 k-point  17 :      -0.4500    0.4500    0.0500
  band No.  band energies     occupation 
      1       1.4687      1.00000
      2       4.3599      1.00000
      3       6.7064      0.00000
      4       9.3666      0.00000
      5      10.8105      0.00000
      6      13.0794      0.00000

 k-point  18 :      -0.3500    0.4500    0.0500
  band No.  band energies     occupation 
      1       1.9083      1.00000
      2       4.6397      1.00000
      3       5.6121      1.03302
      4       8.9330      0.00000
      5      10.7554      0.00000
      6      12.7219      0.00000

 k-point  19 :      -0.2500    0.4500    0.0500
  band No.  band energies     occupation 
      1       2.3746      1.00000
      2       4.3366      1.00000
      3       5.3752      1.00000
      4       8.7071      0.00000
      5      10.4561      0.00000
      6      12.7882      0.00000

 k-point  20 :      -0.4500   -0.4500    0.0500
  band No.  band energies     occupation 
      1       1.9650      1.00000
      2       4.5349      1.00000
      3       6.1017      0.00000
      4       8.8845      0.00000
      5      11.2574      0.00000
      6      13.9648      0.00000

 k-point  21 :      -0.3500   -0.4500    0.0500
  band No.  band energies     occupation 
      1       2.8478      1.00000
      2       4.3960      1.00000
      3       5.2357      1.00000
      4       9.1733      0.00000
      5      10.6739      0.00000
      6      15.0806      0.00000

 k-point  22 :      -0.3500   -0.3500    0.0500
  band No.  band energies     occupation 
      1       3.5084      1.00000
      2       4.4898      1.00000
      3       4.4898      1.00000
      4      10.1278      0.00000
      5      10.1278      0.00000
      6      14.6876      0.00000

 k-point  23 :       0.1500    0.1500    0.1500
  band No.  band energies     occupation 
      1       2.2427      1.00000
      2       4.4061      1.00000
      3       4.4061      1.00000
      4      10.0742      0.00000
      5      10.0742      0.00000
      6      12.8005      0.00000

 k-point  24 :       0.2500    0.1500    0.1500
  band No.  band energies     occupation 
      1       3.1521      1.00000
      2       4.1540      1.00000
      3       4.7973      1.00000
      4      10.2468      0.00000
      5      10.5731      0.00000
      6      14.9932      0.00000

 k-point  25 :       0.3500    0.1500    0.1500
  band No.  band energies     occupation 
      1       3.1671      1.00000
      2       4.0817      1.00000
      3       5.6171      1.03526
      4      10.3056      0.00000
      5      10.7257      0.00000
      6      14.3836      0.00000

 k-point  26 :      -0.1500    0.1500    0.1500
  band No.  band energies     occupation 
      1      -0.3584      1.00000
      2       6.3954      0.00000
      3       6.3954      0.00000
      4       7.1878      0.00000
      5       7.4032      0.00000
      6      10.6148      0.00000

 k-point  27 :       0.2500    0.2500    0.1500
  band No.  band energies     occupation 
      1       3.7574      1.00000
      2       4.4269      1.00000
      3       4.8464      1.00000
      4      10.5590      0.00000
      5      10.7066      0.00000
      6      13.6694      0.00000

 k-point  28 :      -0.2500    0.2500    0.1500
  band No.  band energies     occupation 
      1       0.9042      1.00000
      2       5.5316      1.00011
      3       6.0327      0.00000
      4       7.2566      0.00000
      5       8.7458      0.00000
      6      10.8226      0.00000

 k-point  29 :      -0.3500    0.3500    0.1500
  band No.  band energies     occupation 
      1       1.9486      1.00000
      2       4.9020      1.00000
      3       5.5145      1.00001
      4       8.0636      0.00000
      5      10.8727      0.00000
      6      10.9121      0.00000

 k-point  30 :      -0.2500    0.3500    0.1500
  band No.  band energies     occupation 
      1       2.0733      1.00000
      2       4.5861      1.00000
      3       6.1606      0.00000
      4       7.5385      0.00000
      5      10.0016      0.00000
      6      10.9711      0.00000

 k-point  31 :      -0.4500    0.4500    0.1500
  band No.  band energies     occupation 
      1       2.1734      1.00000
      2       5.2184      1.00000
      3       5.2738      1.00000
      4       8.0287      0.00000
      5      12.0103      0.00000
      6      12.8759      0.00000

 k-point  32 :      -0.3500    0.4500    0.1500
  band No.  band energies     occupation 
      1       2.7806      1.00000
      2       4.1984      1.00000
      3       5.7588     -0.02434
      4       8.1731      0.00000
      5      10.7467      0.00000
      6      12.9296      0.00000

 k-point  33 :      -0.4500   -0.4500    0.1500
  band No.  band energies     occupation 
      1       2.7938      1.00000
      2       4.5829      1.00000
      3       5.3164      1.00000
      4       8.1728      0.00000
      5      11.7859      0.00000
      6      14.5965      0.00000

 k-point  34 :      -0.3500   -0.4500    0.1500
  band No.  band energies     occupation 
      1       3.6620      1.00000
      2       3.7246      1.00000
      3       4.9850      1.00000
      4       9.4397      0.00000
      5      10.6060      0.00000
      6      15.3871      0.00000

 k-point  35 :       0.2500    0.2500    0.2500
  band No.  band energies     occupation 
      1       4.5026      1.00000
      2       4.5026      1.00000
      3       4.5026      1.00000
      4      10.8228      0.00000
      5      10.8228      0.00000
      6      12.7519      0.00000

 k-point  36 :      -0.2500    0.2500    0.2500
  band No.  band energies     occupation 
      1       1.9800      1.00000
      2       4.7996      1.00000
      3       6.9758      0.00000
      4       6.9758      0.00000
      5       8.9058      0.00000
      6      10.6953      0.00000

 k-point  37 :      -0.3500    0.3500    0.2500
  band No.  band energies     occupation 
      1       2.8036      1.00000
      2       3.8690      1.00000
      3       7.0400      0.00000
      4       7.6240      0.00000
      5      10.5684      0.00000
      6      10.8484      0.00000

 k-point  38 :      -0.4500    0.4500    0.2500
  band No.  band energies     occupation 
      1       2.8403      1.00000
      2       3.7866      1.00000
      3       6.8668      0.00000
      4       7.5046      0.00000
      5      12.5569      0.00000
      6      12.8454      0.00000

 k-point  39 :      -0.3500    0.4500    0.2500
  band No.  band energies     occupation 
      1       3.1323      1.00000
      2       3.1935      1.00000
      3       6.8748      0.00000
      4       8.8567      0.00000
      5      10.8302      0.00000
      6      12.9431      0.00000

 k-point  40 :      -0.4500   -0.4500    0.2500
  band No.  band energies     occupation 
      1       2.9221      1.00000
      2       3.2511      1.00000
      3       6.6041      0.00000
      4       9.3694      0.00000
      5      11.6806      0.00000
      6      15.2830      0.00000

 k-point  41 :      -0.3500    0.3500    0.3500
  band No.  band energies     occupation 
      1       2.9169      1.00000
      2       3.0055      1.00000
      3       8.6344      0.00000
      4       8.6344      0.00000
      5      10.7843      0.00000
      6      10.9626      0.00000

 k-point  42 :      -0.4500    0.4500    0.3500
  band No.  band energies     occupation 
      1       2.5267      1.00000
      2       2.6920      1.00000
      3       9.0927      0.00000
      4       9.0975      0.00000
      5      12.2678      0.00000
      6      13.0812      0.00000

 k-point  43 :      -0.4500   -0.4500    0.3500
  band No.  band energies     occupation 
      1       2.3726      1.00000
      2       2.3726      1.00000
      3       9.0205      0.00000
      4      11.4447      0.00000
      5      11.4447      0.00000
      6      15.5881      0.00000

 k-point  44 :      -0.4500    0.4500    0.4500
  band No.  band energies     occupation 
      1       2.0694      1.00000
      2       2.1170      1.00000
      3      11.3477      0.00000
      4      11.3477      0.00000
      5      12.2547      0.00000
      6      13.5612      0.00000

 spin component 2

 k-point   1 :       0.0500    0.0500    0.0500
  band No.  band energies     occupation 
      1      -1.5527      1.00000
      2       6.0890      0.00000
      3       6.0890      0.00000
      4       7.2054      0.00000
      5       9.4502      0.00000
      6       9.4502      0.00000

 k-point   2 :       0.1500    0.0500    0.0500
  band No.  band energies     occupation 
      1      -0.4305      1.00000
      2       5.4161      1.00000
      3       5.6047      1.02715
      4       8.5581      0.00000
      5       9.1375      0.00000
      6       9.7173      0.00000

 k-point   3 :       0.2500    0.0500    0.0500
  band No.  band energies     occupation 
      1       0.8964      1.00000
      2       4.7597      1.00000
      3       5.2999      1.00000
      4       9.3637      0.00000
      5      10.0677      0.00000
      6      10.5392      0.00000

 k-point   4 :       0.3500    0.0500    0.0500
  band No.  band energies     occupation 
      1       1.5254      1.00000
      2       4.3069      1.00000
      3       6.1038      0.00000
      4       9.6810      0.00000
      5      10.4170      0.00000
      6      12.6683      0.00000

 k-point   5 :       0.4500    0.0500    0.0500
  band No.  band energies     occupation 
      1       1.5821      1.00000
      2       4.1542      1.00000
      3       6.9779      0.00000
      4       9.6611      0.00000
      5      10.6004      0.00000
      6      13.8201      0.00000

 k-point   6 :      -0.0500    0.0500    0.0500
  band No.  band energies     occupation 
      1      -1.9684      1.00000
      2       6.4110      0.00000
      3       6.4110      0.00000
      4       6.5289      0.00000
      5       9.3052      0.00000
      6       9.8232      0.00000

 k-point   7 :       0.1500    0.1500    0.0500
  band No.  band energies     occupation 
      1       0.8400      1.00000
      2       4.8764      1.00000
      3       4.9491      1.00000
      4       9.2302      0.00000
      5      10.1100      0.00000
      6      10.4616      0.00000

 k-point   8 :       0.2500    0.1500    0.0500
  band No.  band energies     occupation 
      1       2.0064      1.00000
      2       4.4009      1.00000
      3       4.9730      1.00000
      4       9.5172      0.00000
      5      10.4523      0.00000
      6      12.6810      0.00000

 k-point   9 :       0.3500    0.1500    0.0500
  band No.  band energies     occupation 
      1       2.2876      1.00000
      2       4.1819      1.00000
      3       5.9370      0.00000
      4       9.7697      0.00000
      5      10.6489      0.00000
      6      14.5404      0.00000

 k-point  10 :      -0.1500    0.1500    0.0500
  band No.  band energies     occupation 
      1      -1.1523      1.00000
      2       5.9572      0.00000
      3       6.1871      0.00000
      4       7.3707      0.00000
      5       8.6327      0.00000
      6      10.0032      0.00000

 k-point  11 :       0.2500    0.2500    0.0500
  band No.  band energies     occupation 
      1       2.9286      1.00000
      2       4.2896      1.00000
      3       5.0105      1.00000
      4       9.8272      0.00000
      5      10.5353      0.00000
      6      14.9683      0.00000

 k-point  12 :       0.3500    0.2500    0.0500
  band No.  band energies     occupation 
      1       3.1120      1.00000
      2       4.3795      1.00000
      3       5.2529      1.00000
      4      10.0700      0.00000
      5      10.5855      0.00000
      6      14.3748      0.00000

 k-point  13 :      -0.2500    0.2500    0.0500
  band No.  band energies     occupation 
      1       0.1690      1.00000
      2       5.2675      1.00000
      3       5.6110      1.03234
      4       8.6533      0.00000
      5       8.9784      0.00000
      6      10.2036      0.00000

 k-point  14 :      -0.1500    0.2500    0.0500
  band No.  band energies     occupation 
      1      -0.0704      1.00000
      2       5.6341      1.01512
      3       5.6945      0.26922
      4       8.0737      0.00000
      5       8.4789      0.00000
      6      10.4037      0.00000

 k-point  15 :      -0.3500    0.3500    0.0500
  band No.  band energies     occupation 
      1       1.2075      1.00000
      2       4.6751      1.00000
      3       5.6912      0.31845
      4       9.1857      0.00000
      5      10.4287      0.00000
      6      11.1229      0.00000

 k-point  16 :      -0.2500    0.3500    0.0500
  band No.  band energies     occupation 
      1       1.2340      1.00000
      2       4.9241      1.00000
      3       5.3533      1.00000
      4       8.3813      0.00000
      5      10.3230      0.00000
      6      10.7044      0.00000

 k-point  17 :      -0.4500    0.4500    0.0500
  band No.  band energies     occupation 
      1       1.4521      1.00000
      2       4.3414      1.00000
      3       6.6916      0.00000
      4       9.3525      0.00000
      5      10.7980      0.00000
      6      13.0650      0.00000

 k-point  18 :      -0.3500    0.4500    0.0500
  band No.  band energies     occupation 
      1       1.8916      1.00000
      2       4.6219      1.00000
      3       5.5970      1.02015
      4       8.9185      0.00000
      5      10.7420      0.00000
      6      12.7069      0.00000

 k-point  19 :      -0.2500    0.4500    0.0500
  band No.  band energies     occupation 
      1       2.3577      1.00000
      2       4.3216      1.00000
      3       5.3578      1.00000
      4       8.6921      0.00000
      5      10.4424      0.00000
      6      12.7731      0.00000

 k-point  20 :      -0.4500   -0.4500    0.0500
  band No.  band energies     occupation 
      1       1.9485      1.00000
      2       4.5167      1.00000
      3       6.0874      0.00000
      4       8.8702      0.00000
      5      11.2437      0.00000
      6      13.9510      0.00000

 k-point  21 :      -0.3500   -0.4500    0.0500
  band No.  band energies     occupation 
      1       2.8309      1.00000
      2       4.3800      1.00000
      3       5.2205      1.00000
      4       9.1584      0.00000
      5      10.6594      0.00000
      6      15.0668      0.00000

 k-point  22 :      -0.3500   -0.3500    0.0500
  band No.  band energies     occupation 
      1       3.4900      1.00000
      2       4.4754      1.00000
      3       4.4754      1.00000
      4      10.1130      0.00000
      5      10.1130      0.00000
      6      14.6685      0.00000

 k-point  23 :       0.1500    0.1500    0.1500
  band No.  band energies     occupation 
      1       2.2257      1.00000
      2       4.3887      1.00000
      3       4.3887      1.00000
      4      10.0618      0.00000
      5      10.0618      0.00000
      6      12.7848      0.00000

 k-point  24 :       0.2500    0.1500    0.1500
  band No.  band energies     occupation 
      1       3.1350      1.00000
      2       4.1363      1.00000
      3       4.7806      1.00000
      4      10.2341      0.00000
      5      10.5611      0.00000
      6      14.9792      0.00000

 k-point  25 :       0.3500    0.1500    0.1500
  band No.  band energies     occupation 
      1       3.1501      1.00000
      2       4.0639      1.00000
      3       5.6009      1.02371
      4      10.2927      0.00000
      5      10.7138      0.00000
      6      14.3632      0.00000

 k-point  26 :      -0.1500    0.1500    0.1500
  band No.  band energies     occupation 
      1      -0.3752      1.00000
      2       6.3770      0.00000
      3       6.3770      0.00000
      4       7.1761      0.00000
      5       7.3848      0.00000
      6      10.6036      0.00000

 k-point  27 :       0.2500    0.2500    0.1500
  band No.  band energies     occupation 
      1       3.7398      1.00000
      2       4.4101      1.00000
      3       4.8296      1.00000
      4      10.5466      0.00000
      5      10.6945      0.00000
      6      13.6483      0.00000

 k-point  28 :      -0.2500    0.2500    0.1500
  band No.  band energies     occupation 
      1       0.8877      1.00000
      2       5.5173      1.00002
      3       6.0143      0.00000
      4       7.2408      0.00000
      5       8.7281      0.00000
      6      10.8104      0.00000

 k-point  29 :      -0.3500    0.3500    0.1500
  band No.  band energies     occupation 
      1       1.9324      1.00000
      2       4.8883      1.00000
      3       5.4962      1.00000
      4       8.0479      0.00000
      5      10.8562      0.00000
      6      10.8984      0.00000

 k-point  30 :      -0.2500    0.3500    0.1500
  band No.  band energies     occupation 
      1       2.0572      1.00000
      2       4.5725      1.00000
      3       6.1427      0.00000
      4       7.5218      0.00000
      5       9.9853      0.00000
      6      10.9567      0.00000

 k-point  31 :      -0.4500    0.4500    0.1500
  band No.  band energies     occupation 
      1       2.1575      1.00000
      2       5.2001      1.00000
      3       5.2602      1.00000
      4       8.0138      0.00000
      5      11.9953      0.00000
      6      12.8613      0.00000

 k-point  32 :      -0.3500    0.4500    0.1500
  band No.  band energies     occupation 
      1       2.7651      1.00000
      2       4.1848      1.00000
      3       5.7416     -0.03546
      4       8.1569      0.00000
      5      10.7310      0.00000
      6      12.9142      0.00000

 k-point  33 :      -0.4500   -0.4500    0.1500
  band No.  band energies     occupation 
      1       2.7787      1.00000
      2       4.5695      1.00000
      3       5.2989      1.00000
      4       8.1567      0.00000
      5      11.7705      0.00000
      6      14.5817      0.00000

 k-point  34 :      -0.3500   -0.4500    0.1500
  band No.  band energies     occupation 
      1       3.6472      1.00000
      2       3.7112      1.00000
      3       4.9680      1.00000
      4       9.4234      0.00000
      5      10.5900      0.00000
      6      15.3717      0.00000

 k-point  35 :       0.2500    0.2500    0.2500
  band No.  band energies     occupation 
      1       4.4855      1.00000
      2       4.4855      1.00000
      3       4.4855      1.00000
      4      10.8109      0.00000
      5      10.8109      0.00000
      6      12.7300      0.00000

 k-point  36 :      -0.2500    0.2500    0.2500
  band No.  band energies     occupation 
      1       1.9642      1.00000
      2       4.7872      1.00000
      3       6.9578      0.00000
      4       6.9578      0.00000
      5       8.8883      0.00000
      6      10.6813      0.00000

 k-point  37 :      -0.3500    0.3500    0.2500
  band No.  band energies     occupation 
      1       2.7888      1.00000
      2       3.8563      1.00000
      3       7.0221      0.00000
      4       7.6069      0.00000
      5      10.5519      0.00000
      6      10.8324      0.00000

 k-point  38 :      -0.4500    0.4500    0.2500
  band No.  band energies     occupation 
      1       2.8265      1.00000
      2       3.7735      1.00000
      3       6.8489      0.00000
      4       7.4878      0.00000
      5      12.5421      0.00000
      6      12.8281      0.00000

 k-point  39 :      -0.3500    0.4500    0.2500
  band No.  band energies     occupation 
      1       3.1187      1.00000
      2       3.1807      1.00000
      3       6.8571      0.00000
      4       8.8395      0.00000
      5      10.8135      0.00000
      6      12.9269      0.00000

 k-point  40 :      -0.4500   -0.4500    0.2500
  band No.  band energies     occupation 
      1       2.9091      1.00000
      2       3.2382      1.00000
      3       6.5862      0.00000
      4       9.3524      0.00000
      5      11.6647      0.00000
      6      15.2662      0.00000

 k-point  41 :      -0.3500    0.3500    0.3500
  band No.  band energies     occupation 
      1       2.9035      1.00000
      2       2.9929      1.00000
      3       8.6169      0.00000
      4       8.6169      0.00000
      5      10.7681      0.00000
      6      10.9449      0.00000

 k-point  42 :      -0.4500    0.4500    0.3500
  band No.  band energies     occupation 
      1       2.5139      1.00000
      2       2.6791      1.00000
      3       9.0753      0.00000
      4       9.0802      0.00000
      5      12.2529      0.00000
      6      13.0626      0.00000

 k-point  43 :      -0.4500   -0.4500    0.3500
  band No.  band energies     occupation 
      1       2.3599      1.00000
      2       2.3599      1.00000
      3       9.0030      0.00000
      4      11.4284      0.00000
      5      11.4285      0.00000
      6      15.5699      0.00000

 k-point  44 :      -0.4500    0.4500    0.4500
  band No.  band energies     occupation 
      1       2.0567      1.00000
      2       2.1043      1.00000
      3      11.3314      0.00000
      4      11.3314      0.00000
      5      12.2400      0.00000
      6      13.5414      0.00000


--------------------------------------------------------------------------------------------------------


 soft charge-density along one line, spin component           1
         0         1         2         3         4         5         6         7         8         9
 total charge-density along one line
 
 soft charge-density along one line, spin component           2
         0         1         2         3         4         5         6         7         8         9
 total charge-density along one line
 
 pseudopotential strength for first ion, spin component:           1
 -6.578   0.000   0.003   0.000   0.002   0.089   0.000   0.000
  0.000  -6.576   0.000   0.003   0.000   0.000   0.089   0.000
  0.003   0.000  -6.576   0.000  -0.001   0.000   0.000   0.089
  0.000   0.003   0.000  -6.578   0.000   0.000   0.000   0.000
  0.002   0.000  -0.001   0.000  -6.575   0.000   0.000   0.000
  0.089   0.000   0.000   0.000   0.000   0.071   0.000   0.000
  0.000   0.089   0.000   0.000   0.000   0.000   0.071   0.000
  0.000   0.000   0.089   0.000   0.000   0.000   0.000   0.071
  0.000   0.000   0.000   0.089   0.000   0.000   0.000   0.000
  0.000   0.000   0.000   0.000   0.089   0.000   0.000   0.000
  0.000   0.000   0.000   0.000   0.000   0.000   0.000   0.000
  0.000   0.000   0.000   0.000   0.000   0.000   0.000   0.000
  0.000   0.000   0.000   0.000   0.000   0.000   0.000   0.000
  0.000   0.000   0.000   0.000   0.000   0.000   0.000   0.000
  0.000   0.000   0.000   0.000   0.000   0.000   0.000   0.000
  0.000   0.000   0.000   0.000   0.000   0.000   0.000   0.000
  0.000   0.000   0.000   0.000   0.000   0.000   0.000   0.000
  0.000   0.000   0.000   0.000   0.000   0.000   0.000   0.000
 pseudopotential strength for first ion, spin component:           2
 -6.579   0.000   0.003   0.000   0.002   0.089   0.000   0.000
  0.000  -6.577   0.000   0.003   0.000   0.000   0.089   0.000
  0.003   0.000  -6.577   0.000  -0.001   0.000   0.000   0.089
  0.000   0.003   0.000  -6.579   0.000   0.000   0.000   0.000
  0.002   0.000  -0.001   0.000  -6.576   0.000   0.000   0.000
  0.089   0.000   0.000   0.000   0.000   0.071   0.000   0.000
  0.000   0.089   0.000   0.000   0.000   0.000   0.071   0.000
  0.000   0.000   0.089   0.000   0.000   0.000   0.000   0.071
  0.000   0.000   0.000   0.089   0.000   0.000   0.000   0.000
  0.000   0.000   0.000   0.000   0.089   0.000   0.000   0.000
  0.000   0.000   0.000   0.000   0.000   0.000   0.000   0.000
  0.000   0.000   0.000   0.000   0.000   0.000   0.000   0.000
  0.000   0.000   0.000   0.000   0.000   0.000   0.000   0.000
  0.000   0.000   0.000   0.000   0.000   0.000   0.000   0.000
  0.000   0.000   0.000   0.000   0.000   0.000   0.000   0.000
  0.000   0.000   0.000   0.000   0.000   0.000   0.000   0.000
  0.000   0.000   0.000   0.000   0.000   0.000   0.000   0.000
  0.000   0.000   0.000   0.000   0.000   0.000   0.000   0.000
 total augmentation occupancy for first ion, spin component:           1
  0.639   0.000   0.079   0.000   0.046  -0.520   0.000  -0.021   0.000  -0.012   0.000   0.000   0.000   0.000   0.000   0.000
  0.000   0.703   0.000   0.091   0.000   0.000  -0.537   0.000  -0.024   0.000   0.000   0.000   0.000   0.000   0.000   0.000
  0.079   0.000   0.720   0.000  -0.028  -0.021   0.000  -0.541   0.000   0.007   0.000   0.000   0.000   0.000   0.000   0.000
  0.000   0.091   0.000   0.639   0.000   0.000  -0.024   0.000  -0.520   0.000   0.000   0.000   0.000   0.000   0.000   0.000
  0.046   0.000  -0.028   0.000   0.752  -0.012   0.000   0.007   0.000  -0.549   0.000   0.000   0.000   0.000   0.000   0.000
 -0.520   0.000  -0.021   0.000  -0.012   0.471   0.000  -0.014   0.000  -0.008   0.000   0.000   0.000   0.000   0.000   0.000
  0.000  -0.537   0.000  -0.024   0.000   0.000   0.460   0.000  -0.016   0.000   0.000   0.000   0.000   0.000   0.000   0.000
 -0.021   0.000  -0.541   0.000   0.007  -0.014   0.000   0.457   0.000   0.005   0.000   0.000   0.000   0.000   0.000   0.000
  0.000  -0.024   0.000  -0.520   0.000   0.000  -0.016   0.000   0.471   0.000   0.000   0.000   0.000   0.000   0.000   0.000
 -0.012   0.000   0.007   0.000  -0.549  -0.008   0.000   0.005   0.000   0.451   0.000   0.000   0.000   0.000   0.000   0.000
  0.000   0.000   0.000   0.000   0.000   0.000   0.000   0.000   0.000   0.000   1.403  -0.292   0.000   0.000   0.000   0.000
  0.000   0.000   0.000   0.000   0.000   0.000   0.000   0.000   0.000   0.000  -0.292   0.065   0.000   0.000   0.000   0.000
  0.000   0.000   0.000   0.000   0.000   0.000   0.000   0.000   0.000   0.000   0.000   0.000   0.301   0.000   0.000   0.012
  0.000   0.000   0.000   0.000   0.000   0.000   0.000   0.000   0.000   0.000   0.000   0.000   0.000   0.301   0.000   0.000
  0.000   0.000   0.000   0.000   0.000   0.000   0.000   0.000   0.000   0.000   0.000   0.000   0.000   0.000   0.301   0.000
  0.000   0.000   0.000   0.000   0.000   0.000   0.000   0.000   0.000   0.000   0.000   0.000   0.012   0.000   0.000   0.001
  0.000   0.000   0.000   0.000   0.000   0.000   0.000   0.000   0.000   0.000   0.000   0.000   0.000   0.012   0.000   0.000
  0.000   0.000   0.000   0.000   0.000   0.000   0.000   0.000   0.000   0.000   0.000   0.000   0.000   0.000   0.012   0.000
 total augmentation occupancy for first ion, spin component:           2
  0.001   0.000   0.000   0.000   0.000  -0.001   0.000   0.000   0.000   0.000   0.000   0.000   0.000   0.000   0.000   0.000
  0.000   0.002   0.000   0.000   0.000   0.000  -0.001   0.000   0.000   0.000   0.000   0.000   0.000   0.000   0.000   0.000
  0.000   0.000   0.002   0.000   0.000   0.000   0.000  -0.001   0.000   0.000   0.000   0.000   0.000   0.000   0.000   0.000
  0.000   0.000   0.000   0.001   0.000   0.000   0.000   0.000  -0.001   0.000   0.000   0.000   0.000   0.000   0.000   0.000
  0.000   0.000   0.000   0.000   0.002   0.000   0.000   0.000   0.000  -0.001   0.000   0.000   0.000   0.000   0.000   0.000
 -0.001   0.000   0.000   0.000   0.000   0.001   0.000   0.000   0.000   0.000   0.000   0.000   0.000   0.000   0.000   0.000
  0.000  -0.001   0.000   0.000   0.000   0.000   0.001   0.000   0.000   0.000   0.000   0.000   0.000   0.000   0.000   0.000
  0.000   0.000  -0.001   0.000   0.000   0.000   0.000   0.001   0.000   0.000   0.000   0.000   0.000   0.000   0.000   0.000
  0.000   0.000   0.000  -0.001   0.000   0.000   0.000   0.000   0.001   0.000   0.000   0.000   0.000   0.000   0.000   0.000
  0.000   0.000   0.000   0.000  -0.001   0.000   0.000   0.000   0.000   0.001   0.000   0.000   0.000   0.000   0.000   0.000
  0.000   0.000   0.000   0.000   0.000   0.000   0.000   0.000   0.000   0.000   0.002   0.003   0.000   0.000   0.000   0.000
  0.000   0.000   0.000   0.000   0.000   0.000   0.000   0.000   0.000   0.000   0.003  -0.001   0.000   0.000   0.000   0.000
  0.000   0.000   0.000   0.000   0.000   0.000   0.000   0.000   0.000   0.000   0.000   0.000   0.001   0.000   0.000   0.000
  0.000   0.000   0.000   0.000   0.000   0.000   0.000   0.000   0.000   0.000   0.000   0.000   0.000   0.001   0.000   0.000
  0.000   0.000   0.000   0.000   0.000   0.000   0.000   0.000   0.000   0.000   0.000   0.000   0.000   0.000   0.001   0.000
  0.000   0.000   0.000   0.000   0.000   0.000   0.000   0.000   0.000   0.000   0.000   0.000   0.000   0.000   0.000   0.000
  0.000   0.000   0.000   0.000   0.000   0.000   0.000   0.000   0.000   0.000   0.000   0.000   0.000   0.000   0.000   0.000
  0.000   0.000   0.000   0.000   0.000   0.000   0.000   0.000   0.000   0.000   0.000   0.000   0.000   0.000   0.000   0.000


------------------------ aborting loop because EDIFF is reached ----------------------------------------


 


 total charge     
 
# of ion     s       p       d       tot
----------------------------------------
  1        0.714   0.697   3.349   4.759
 


 magnetization (x)
 
# of ion     s       p       d       tot
----------------------------------------
  1       -0.001  -0.002  -0.009  -0.011
 
    CHARGE:  cpu time    0.05: real time    0.05
    FORLOC:  cpu time    0.00: real time    0.00
    FORNL :  cpu time    0.09: real time    0.09
    STRESS:  cpu time    0.17: real time    0.17
    FORCOR:  cpu time    0.07: real time    0.07
    FORHAR:  cpu time    0.01: real time    0.01
    MIXING:  cpu time    0.00: real time    0.00

  FORCE on cell =-STRESS in cart. coord.  units (eV):
  Direction    XX          YY          ZZ          XY          YZ          ZX
  --------------------------------------------------------------------------------------
  Alpha Z    30.58334    30.58334    30.58334
  Ewald     -65.96700   -65.96700   -65.96700     0.00000     0.00000     0.00000
  Hartree     0.19246     0.19246     0.19246     0.00000     0.00000     0.00000
  E(xc)     -22.49269   -22.49269   -22.49267     0.00001     0.00002     0.00001
  Local       3.78171     3.78171     3.78171     0.00000     0.00000     0.00000
  n-local    -8.32584    -8.95754    -5.75704     1.72353    -2.23527    -1.69836
  augment     2.91118     2.91119     2.91119     0.00000     0.00000     0.00000
  Kinetic    59.76094    59.95983    54.61867    -0.47318     2.89052     1.79126
  Fock        0.00000     0.00000     0.00000     0.00000     0.00000     0.00000
  -------------------------------------------------------------------------------------
  Total      -0.55797    -0.55797    -0.55797     0.00000     0.00000     0.00000
  in kB     -49.30213   -49.30213   -49.30213     0.00000     0.00000     0.00000
  external pressure =      -49.30 kB  Pullay stress =        0.00 kB


 VOLUME and BASIS-vectors are now :
 -----------------------------------------------------------------------------
  energy-cutoff  :      200.00
  volume of cell :       18.13
      direct lattice vectors                 reciprocal lattice vectors
     2.866544087  0.000000000  0.000000000     0.348852126  0.123337852  0.213627426
    -0.955514696  2.702603683  0.000000000     0.000000000  0.370013556  0.213627426
    -0.955514696 -1.351301841  2.340523446     0.000000000  0.000000000  0.427254853

  length of vectors
     2.866544087  2.866544087  2.866544087     0.427254853  0.427254853  0.427254853


 FORCES acting on ions
    electron-ion (+dipol)            ewald-force                    non-local-force                 convergence-correction
 -----------------------------------------------------------------------------------------------
   -.496E-15 0.543E-15 -.192E-14   -.279E-15 -.214E-15 0.640E-15   -.703E-23 -.744E-23 0.000E+00   -.263E-15 -.247E-15 -.289E-15
 -----------------------------------------------------------------------------------------------
   -.496E-15 0.543E-15 -.192E-14   -.279E-15 -.214E-15 0.640E-15   -.703E-23 -.744E-23 0.000E+00   -.263E-15 -.247E-15 -.289E-15
 
 
 POSITION                                       TOTAL-FORCE (eV/Angst)
 -----------------------------------------------------------------------------------
      0.00000      0.00000      0.00000         0.000000      0.000000      0.000000
 -----------------------------------------------------------------------------------
    total drift:                                0.000000      0.000000      0.000000


--------------------------------------------------------------------------------------------------------



  FREE ENERGIE OF THE ION-ELECTRON SYSTEM (eV)
  ---------------------------------------------------
  free  energy   TOTEN  =       -11.864979 eV

  energy  without entropy=      -11.865485  energy(sigma->0) =      -11.865148
 


--------------------------------------------------------------------------------------------------------


    POTLOK:  cpu time    0.09: real time    0.09


--------------------------------------------------------------------------------------------------------


 writing wavefunctions
     LOOP+:  cpu time    8.62: real time    9.31
    4ORBIT:  cpu time    0.00: real time    0.00
 


 total charge     
 
# of ion     s       p       d       tot
----------------------------------------
  1        0.714   0.697   3.349   4.759
 


 magnetization (x)
 
# of ion     s       p       d       tot
----------------------------------------
  1       -0.001  -0.002  -0.009  -0.011
 

 total amount of memory used by VASP on root node    34755. kBytes
========================================================================

   base      :      30000. kBytes
   nonl-proj :        806. kBytes
   fftplans  :        800. kBytes
   grid      :       1894. kBytes
   one-center:         31. kBytes
   wavefun   :       1224. kBytes
 
  
  
 General timing and accounting informations for this job:
 ========================================================
  
                  Total CPU time used (sec):        9.166
                            User time (sec):        8.887
                          System time (sec):        0.279
                         Elapsed time (sec):        9.963
  
                   Maximum memory used (kb):           0.
                   Average memory used (kb):           0.
  
                          Minor page faults:         5968
                          Major page faults:            0
                 Voluntary context switches:         6787
