PROCAR lm decomposed
# of k-points:   44         # of bands:   6         # of ions:   1

 k-point    1 :    0.05000000 0.05000000 0.05000000     weight = 0.00800000

band   1 # energy   -1.53574833 # occ.  1.00000000
 
ion      s     py     pz     px    dxy    dyz    dz2    dxz    dx2    tot
  1  0.820  0.011  0.032  0.005  0.000  0.002  0.001  0.001  0.000  0.871
 
band   2 # energy    6.10749257 # occ.  0.00000000
 
ion      s     py     pz     px    dxy    dyz    dz2    dxz    dx2    tot
  1  0.000  0.004  0.000  0.003  0.165  0.040  0.048  0.000  0.779  1.037
 
band   3 # energy    6.10749257 # occ.  0.00000000
 
ion      s     py     pz     px    dxy    dyz    dz2    dxz    dx2    tot
  1  0.000  0.002  0.002  0.003  0.035  0.191  0.547  0.122  0.136  1.037
 
band   4 # energy    7.22383153 # occ.  0.00000000
 
ion      s     py     pz     px    dxy    dyz    dz2    dxz    dx2    tot
  1  0.001  0.005  0.016  0.003  0.074  0.446  0.251  0.223  0.009  1.028
 
band   5 # energy    9.46126062 # occ.  0.00000000
 
ion      s     py     pz     px    dxy    dyz    dz2    dxz    dx2    tot
  1  0.000  0.000  0.000  0.000  0.111  0.232  0.016  0.537  0.001  0.897
 
band   6 # energy    9.46126062 # occ.  0.00000000
 
ion      s     py     pz     px    dxy    dyz    dz2    dxz    dx2    tot
  1  0.000  0.000  0.000  0.000  0.566  0.065  0.114  0.048  0.103  0.897
 

 k-point    2 :    0.15000000 0.05000000 0.05000000     weight = 0.02400000

band   1 # energy   -0.41356506 # occ.  1.00000000
 
ion      s     py     pz     px    dxy    dyz    dz2    dxz    dx2    tot
  1  0.737  0.020  0.061  0.039  0.006  0.009  0.001  0.018  0.002  0.894
 
band   2 # energy    5.43452731 # occ.  1.00000000
 
ion      s     py     pz     px    dxy    dyz    dz2    dxz    dx2    tot
  1  0.000  0.007  0.002  0.000  0.160  0.201  0.452  0.053  0.151  1.026
 
band   3 # energy    5.62208703 # occ.  1.03481215
 
ion      s     py     pz     px    dxy    dyz    dz2    dxz    dx2    tot
  1  0.003  0.001  0.002  0.049  0.071  0.022  0.100  0.213  0.519  0.980
 
band   4 # energy    8.57595762 # occ.  0.00000000
 
ion      s     py     pz     px    dxy    dyz    dz2    dxz    dx2    tot
  1  0.002  0.015  0.046  0.001  0.073  0.257  0.272  0.219  0.102  0.988
 
band   5 # energy    9.14993366 # occ.  0.00000000
 
ion      s     py     pz     px    dxy    dyz    dz2    dxz    dx2    tot
  1  0.000  0.000  0.001  0.001  0.069  0.421  0.034  0.206  0.183  0.915
 
band   6 # energy    9.72870309 # occ.  0.00000000
 
ion      s     py     pz     px    dxy    dyz    dz2    dxz    dx2    tot
  1  0.000  0.001  0.000  0.000  0.565  0.038  0.086  0.188  0.029  0.907
 

 k-point    3 :    0.25000000 0.05000000 0.05000000     weight = 0.02400000

band   1 # energy    0.91340186 # occ.  1.00000000
 
ion      s     py     pz     px    dxy    dyz    dz2    dxz    dx2    tot
  1  0.572  0.024  0.072  0.053  0.037  0.024  0.000  0.111  0.038  0.931
 
band   2 # energy    4.77813145 # occ.  1.00000000
 
ion      s     py     pz     px    dxy    dyz    dz2    dxz    dx2    tot
  1  0.000  0.009  0.003  0.000  0.178  0.195  0.438  0.059  0.146  1.028
 
band   3 # energy    5.31603725 # occ.  1.00000000
 
ion      s     py     pz     px    dxy    dyz    dz2    dxz    dx2    tot
  1  0.036  0.010  0.030  0.172  0.078  0.001  0.085  0.234  0.287  0.934
 
band   4 # energy    9.37715307 # occ.  0.00000000
 
ion      s     py     pz     px    dxy    dyz    dz2    dxz    dx2    tot
  1  0.004  0.000  0.000  0.009  0.062  0.345  0.003  0.185  0.337  0.945
 
band   5 # energy   10.07937303 # occ.  0.00000000
 
ion      s     py     pz     px    dxy    dyz    dz2    dxz    dx2    tot
  1  0.000  0.002  0.001  0.000  0.546  0.046  0.103  0.182  0.034  0.913
 
band   6 # energy   10.55610613 # occ.  0.00000000
 
ion      s     py     pz     px    dxy    dyz    dz2    dxz    dx2    tot
  1  0.001  0.027  0.080  0.002  0.035  0.314  0.301  0.104  0.092  0.957
 

 k-point    4 :    0.35000000 0.05000000 0.05000000     weight = 0.02400000

band   1 # energy    1.54225925 # occ.  1.00000000
 
ion      s     py     pz     px    dxy    dyz    dz2    dxz    dx2    tot
  1  0.356  0.012  0.037  0.008  0.101  0.029  0.008  0.302  0.121  0.972
 
band   2 # energy    4.32535468 # occ.  1.00000000
 
ion      s     py     pz     px    dxy    dyz    dz2    dxz    dx2    tot
  1  0.000  0.011  0.004  0.000  0.215  0.184  0.415  0.072  0.138  1.038
 
band   3 # energy    6.11934640 # occ.  0.00000000
 
ion      s     py     pz     px    dxy    dyz    dz2    dxz    dx2    tot
  1  0.070  0.039  0.118  0.397  0.025  0.010  0.064  0.076  0.103  0.902
 
band   4 # energy    9.69476762 # occ.  0.00000000
 
ion      s     py     pz     px    dxy    dyz    dz2    dxz    dx2    tot
  1  0.024  0.001  0.004  0.025  0.052  0.410  0.014  0.155  0.284  0.969
 
band   5 # energy   10.42894856 # occ.  0.00000000
 
ion      s     py     pz     px    dxy    dyz    dz2    dxz    dx2    tot
  1  0.000  0.001  0.000  0.000  0.528  0.062  0.138  0.176  0.046  0.952
 
band   6 # energy   12.68350306 # occ.  0.00000000
 
ion      s     py     pz     px    dxy    dyz    dz2    dxz    dx2    tot
  1  0.000  0.026  0.077  0.007  0.032  0.213  0.313  0.095  0.190  0.952
 

 k-point    5 :    0.45000000 0.05000000 0.05000000     weight = 0.01200000

band   1 # energy    1.59887609 # occ.  1.00000000
 
ion      s     py     pz     px    dxy    dyz    dz2    dxz    dx2    tot
  1  0.282  0.003  0.009  0.006  0.125  0.026  0.014  0.374  0.151  0.988
 
band   2 # energy    4.17266803 # occ.  1.00000000
 
ion      s     py     pz     px    dxy    dyz    dz2    dxz    dx2    tot
  1  0.000  0.012  0.004  0.000  0.256  0.170  0.383  0.085  0.128  1.038
 
band   3 # energy    6.99338555 # occ.  0.00000000
 
ion      s     py     pz     px    dxy    dyz    dz2    dxz    dx2    tot
  1  0.000  0.067  0.201  0.535  0.002  0.014  0.031  0.007  0.029  0.886
 
band   4 # energy    9.67481155 # occ.  0.00000000
 
ion      s     py     pz     px    dxy    dyz    dz2    dxz    dx2    tot
  1  0.074  0.000  0.000  0.000  0.057  0.455  0.044  0.172  0.172  0.974
 
band   5 # energy   10.61242930 # occ.  0.00000000
 
ion      s     py     pz     px    dxy    dyz    dz2    dxz    dx2    tot
  1  0.000  0.000  0.000  0.000  0.488  0.081  0.183  0.163  0.061  0.977
 
band   6 # energy   13.83375114 # occ.  0.00000000
 
ion      s     py     pz     px    dxy    dyz    dz2    dxz    dx2    tot
  1  0.000  0.005  0.015  0.040  0.025  0.151  0.340  0.076  0.315  0.966
 

 k-point    6 :   -0.05000000 0.05000000 0.05000000     weight = 0.00600000

band   1 # energy   -1.95135236 # occ.  1.00000000
 
ion      s     py     pz     px    dxy    dyz    dz2    dxz    dx2    tot
  1  0.847  0.003  0.008  0.006  0.000  0.000  0.000  0.000  0.000  0.864
 
band   2 # energy    6.42969082 # occ.  0.00000000
 
ion      s     py     pz     px    dxy    dyz    dz2    dxz    dx2    tot
  1  0.000  0.004  0.001  0.000  0.261  0.174  0.391  0.087  0.130  1.049
 
band   3 # energy    6.42969104 # occ.  0.00000000
 
ion      s     py     pz     px    dxy    dyz    dz2    dxz    dx2    tot
  1  0.000  0.000  0.001  0.004  0.029  0.174  0.391  0.087  0.362  1.049
 
band   4 # energy    6.54760298 # occ.  0.00000000
 
ion      s     py     pz     px    dxy    dyz    dz2    dxz    dx2    tot
  1  0.000  0.000  0.000  0.000  0.059  0.354  0.000  0.177  0.472  1.061
 
band   5 # energy    9.31609448 # occ.  0.00000000
 
ion      s     py     pz     px    dxy    dyz    dz2    dxz    dx2    tot
  1  0.000  0.000  0.000  0.000  0.446  0.074  0.167  0.149  0.056  0.892
 
band   6 # energy    9.83384297 # occ.  0.00000000
 
ion      s     py     pz     px    dxy    dyz    dz2    dxz    dx2    tot
  1  0.000  0.000  0.000  0.000  0.152  0.228  0.057  0.455  0.019  0.911
 

 k-point    7 :    0.15000000 0.15000000 0.05000000     weight = 0.02400000

band   1 # energy    0.85700026 # occ.  1.00000000
 
ion      s     py     pz     px    dxy    dyz    dz2    dxz    dx2    tot
  1  0.627  0.064  0.090  0.032  0.012  0.060  0.000  0.030  0.001  0.917
 
band   2 # energy    4.89336207 # occ.  1.00000000
 
ion      s     py     pz     px    dxy    dyz    dz2    dxz    dx2    tot
  1  0.000  0.023  0.000  0.047  0.082  0.052  0.000  0.105  0.659  0.969
 
band   3 # energy    4.96711713 # occ.  1.00000000
 
ion      s     py     pz     px    dxy    dyz    dz2    dxz    dx2    tot
  1  0.005  0.035  0.000  0.018  0.040  0.229  0.559  0.114  0.005  1.005
 
band   4 # energy    9.24316168 # occ.  0.00000000
 
ion      s     py     pz     px    dxy    dyz    dz2    dxz    dx2    tot
  1  0.000  0.000  0.000  0.001  0.024  0.234  0.000  0.468  0.189  0.916
 
band   5 # energy   10.12189059 # occ.  0.00000000
 
ion      s     py     pz     px    dxy    dyz    dz2    dxz    dx2    tot
  1  0.004  0.001  0.000  0.000  0.723  0.018  0.088  0.009  0.090  0.934
 
band   6 # energy   10.47862915 # occ.  0.00000000
 
ion      s     py     pz     px    dxy    dyz    dz2    dxz    dx2    tot
  1  0.004  0.029  0.093  0.014  0.071  0.305  0.284  0.153  0.009  0.962
 

 k-point    8 :    0.25000000 0.15000000 0.05000000     weight = 0.04800000

band   1 # energy    2.02346666 # occ.  1.00000000
 
ion      s     py     pz     px    dxy    dyz    dz2    dxz    dx2    tot
  1  0.424  0.056  0.090  0.018  0.047  0.095  0.015  0.184  0.027  0.955
 
band   2 # energy    4.41842547 # occ.  1.00000000
 
ion      s     py     pz     px    dxy    dyz    dz2    dxz    dx2    tot
  1  0.000  0.049  0.004  0.024  0.176  0.225  0.225  0.000  0.295  0.999
 
band   3 # energy    4.98970328 # occ.  1.00000000
 
ion      s     py     pz     px    dxy    dyz    dz2    dxz    dx2    tot
  1  0.047  0.031  0.027  0.198  0.006  0.005  0.275  0.177  0.191  0.957
 
band   4 # energy    9.53064739 # occ.  0.00000000
 
ion      s     py     pz     px    dxy    dyz    dz2    dxz    dx2    tot
  1  0.003  0.000  0.000  0.009  0.004  0.308  0.000  0.354  0.261  0.940
 
band   5 # energy   10.46444430 # occ.  0.00000000
 
ion      s     py     pz     px    dxy    dyz    dz2    dxz    dx2    tot
  1  0.014  0.001  0.000  0.000  0.635  0.008  0.186  0.048  0.069  0.961
 
band   6 # energy   12.69654760 # occ.  0.00000000
 
ion      s     py     pz     px    dxy    dyz    dz2    dxz    dx2    tot
  1  0.003  0.054  0.122  0.027  0.102  0.244  0.240  0.100  0.056  0.948
 

 k-point    9 :    0.35000000 0.15000000 0.05000000     weight = 0.04800000

band   1 # energy    2.30448142 # occ.  1.00000000
 
ion      s     py     pz     px    dxy    dyz    dz2    dxz    dx2    tot
  1  0.252  0.031  0.041  0.004  0.073  0.073  0.037  0.363  0.107  0.981
 
band   2 # energy    4.19988338 # occ.  1.00000000
 
ion      s     py     pz     px    dxy    dyz    dz2    dxz    dx2    tot
  1  0.000  0.060  0.003  0.007  0.250  0.216  0.313  0.018  0.155  1.022
 
band   3 # energy    5.95268476 # occ.  0.00000000
 
ion      s     py     pz     px    dxy    dyz    dz2    dxz    dx2    tot
  1  0.025  0.052  0.119  0.390  0.038  0.042  0.079  0.022  0.148  0.914
 
band   4 # energy    9.78329562 # occ.  0.00000000
 
ion      s     py     pz     px    dxy    dyz    dz2    dxz    dx2    tot
  1  0.041  0.000  0.001  0.009  0.020  0.352  0.032  0.255  0.248  0.958
 
band   5 # energy   10.66129941 # occ.  0.00000000
 
ion      s     py     pz     px    dxy    dyz    dz2    dxz    dx2    tot
  1  0.009  0.002  0.002  0.013  0.491  0.010  0.289  0.145  0.012  0.974
 
band   6 # energy   14.55414388 # occ.  0.00000000
 
ion      s     py     pz     px    dxy    dyz    dz2    dxz    dx2    tot
  1  0.000  0.043  0.092  0.072  0.088  0.177  0.224  0.052  0.191  0.940
 

 k-point   10 :   -0.15000000 0.15000000 0.05000000     weight = 0.02400000

band   1 # energy   -1.13536193 # occ.  1.00000000
 
ion      s     py     pz     px    dxy    dyz    dz2    dxz    dx2    tot
  1  0.792  0.023  0.008  0.046  0.005  0.001  0.002  0.001  0.001  0.879
 
band   2 # energy    5.97584979 # occ.  0.00000000
 
ion      s     py     pz     px    dxy    dyz    dz2    dxz    dx2    tot
  1  0.000  0.003  0.000  0.002  0.002  0.677  0.000  0.339  0.013  1.035
 
band   3 # energy    6.20512437 # occ.  0.00000000
 
ion      s     py     pz     px    dxy    dyz    dz2    dxz    dx2    tot
  1  0.001  0.011  0.002  0.021  0.412  0.001  0.502  0.001  0.051  1.002
 
band   4 # energy    7.38909897 # occ.  0.00000000
 
ion      s     py     pz     px    dxy    dyz    dz2    dxz    dx2    tot
  1  0.000  0.013  0.000  0.007  0.108  0.012  0.000  0.006  0.866  1.012
 
band   5 # energy    8.64445481 # occ.  0.00000000
 
ion      s     py     pz     px    dxy    dyz    dz2    dxz    dx2    tot
  1  0.000  0.000  0.000  0.000  0.272  0.056  0.399  0.111  0.034  0.873
 
band   6 # energy   10.01415686 # occ.  0.00000000
 
ion      s     py     pz     px    dxy    dyz    dz2    dxz    dx2    tot
  1  0.002  0.000  0.002  0.000  0.091  0.243  0.080  0.486  0.011  0.916
 

 k-point   11 :    0.25000000 0.25000000 0.05000000     weight = 0.02400000

band   1 # energy    2.94621842 # occ.  1.00000000
 
ion      s     py     pz     px    dxy    dyz    dz2    dxz    dx2    tot
  1  0.242  0.015  0.085  0.007  0.002  0.345  0.121  0.173  0.000  0.990
 
band   2 # energy    4.30563203 # occ.  1.00000000
 
ion      s     py     pz     px    dxy    dyz    dz2    dxz    dx2    tot
  1  0.000  0.069  0.000  0.139  0.060  0.072  0.000  0.144  0.476  0.961
 
band   3 # energy    5.02733277 # occ.  1.00000000
 
ion      s     py     pz     px    dxy    dyz    dz2    dxz    dx2    tot
  1  0.042  0.187  0.053  0.094  0.227  0.018  0.305  0.009  0.028  0.962
 
band   4 # energy    9.84068097 # occ.  0.00000000
 
ion      s     py     pz     px    dxy    dyz    dz2    dxz    dx2    tot
  1  0.000  0.005  0.000  0.009  0.030  0.222  0.000  0.443  0.240  0.949
 
band   5 # energy   10.54809311 # occ.  0.00000000
 
ion      s     py     pz     px    dxy    dyz    dz2    dxz    dx2    tot
  1  0.042  0.003  0.000  0.001  0.470  0.030  0.359  0.015  0.059  0.979
 
band   6 # energy   14.98219800 # occ.  0.00000000
 
ion      s     py     pz     px    dxy    dyz    dz2    dxz    dx2    tot
  1  0.000  0.103  0.133  0.052  0.204  0.158  0.180  0.079  0.025  0.934
 

 k-point   12 :    0.35000000 0.25000000 0.05000000     weight = 0.02400000

band   1 # energy    3.12976463 # occ.  1.00000000
 
ion      s     py     pz     px    dxy    dyz    dz2    dxz    dx2    tot
  1  0.163  0.005  0.038  0.021  0.001  0.239  0.152  0.340  0.045  1.003
 
band   2 # energy    4.39591007 # occ.  1.00000000
 
ion      s     py     pz     px    dxy    dyz    dz2    dxz    dx2    tot
  1  0.001  0.188  0.004  0.037  0.338  0.094  0.116  0.034  0.157  0.969
 
band   3 # energy    5.26852040 # occ.  1.00000000
 
ion      s     py     pz     px    dxy    dyz    dz2    dxz    dx2    tot
  1  0.000  0.037  0.111  0.296  0.132  0.121  0.038  0.000  0.193  0.929
 
band   4 # energy   10.08347716 # occ.  0.00000000
 
ion      s     py     pz     px    dxy    dyz    dz2    dxz    dx2    tot
  1  0.024  0.010  0.001  0.002  0.015  0.300  0.130  0.249  0.226  0.958
 
band   5 # energy   10.59855198 # occ.  0.00000000
 
ion      s     py     pz     px    dxy    dyz    dz2    dxz    dx2    tot
  1  0.000  0.003  0.008  0.021  0.306  0.007  0.399  0.228  0.001  0.972
 
band   6 # energy   14.39475288 # occ.  0.00000000
 
ion      s     py     pz     px    dxy    dyz    dz2    dxz    dx2    tot
  1  0.681  0.000  0.040  0.017  0.000  0.092  0.012  0.036  0.035  0.914
 

 k-point   13 :   -0.25000000 0.25000000 0.05000000     weight = 0.02400000

band   1 # energy    0.18590262 # occ.  1.00000000
 
ion      s     py     pz     px    dxy    dyz    dz2    dxz    dx2    tot
  1  0.669  0.045  0.008  0.090  0.060  0.001  0.025  0.002  0.007  0.909
 
band   2 # energy    5.28606733 # occ.  1.00000000
 
ion      s     py     pz     px    dxy    dyz    dz2    dxz    dx2    tot
  1  0.000  0.003  0.000  0.002  0.000  0.681  0.000  0.341  0.003  1.030
 
band   3 # energy    5.62719846 # occ.  1.03031475
 
ion      s     py     pz     px    dxy    dyz    dz2    dxz    dx2    tot
  1  0.017  0.042  0.001  0.085  0.535  0.005  0.173  0.011  0.067  0.936
 
band   4 # energy    8.66677889 # occ.  0.00000000
 
ion      s     py     pz     px    dxy    dyz    dz2    dxz    dx2    tot
  1  0.000  0.005  0.000  0.010  0.098  0.046  0.652  0.092  0.012  0.916
 
band   5 # energy    8.99607425 # occ.  0.00000000
 
ion      s     py     pz     px    dxy    dyz    dz2    dxz    dx2    tot
  1  0.000  0.033  0.000  0.016  0.102  0.004  0.000  0.002  0.817  0.973
 
band   6 # energy   10.21507917 # occ.  0.00000000
 
ion      s     py     pz     px    dxy    dyz    dz2    dxz    dx2    tot
  1  0.007  0.000  0.003  0.000  0.064  0.248  0.101  0.495  0.008  0.927
 

 k-point   14 :   -0.15000000 0.25000000 0.05000000     weight = 0.02400000

band   1 # energy   -0.05349685 # occ.  1.00000000
 
ion      s     py     pz     px    dxy    dyz    dz2    dxz    dx2    tot
  1  0.704  0.076  0.030  0.041  0.020  0.017  0.005  0.002  0.002  0.898
 
band   2 # energy    5.65091816 # occ.  0.91364706
 
ion      s     py     pz     px    dxy    dyz    dz2    dxz    dx2    tot
  1  0.000  0.004  0.012  0.032  0.203  0.223  0.108  0.004  0.370  0.957
 
band   3 # energy    5.71284376 # occ.  0.05782315
 
ion      s     py     pz     px    dxy    dyz    dz2    dxz    dx2    tot
  1  0.003  0.024  0.002  0.007  0.063  0.520  0.189  0.179  0.034  1.021
 
band   4 # energy    8.08695175 # occ.  0.00000000
 
ion      s     py     pz     px    dxy    dyz    dz2    dxz    dx2    tot
  1  0.000  0.000  0.001  0.003  0.236  0.001  0.420  0.220  0.008  0.889
 
band   5 # energy    8.49681402 # occ.  0.00000000
 
ion      s     py     pz     px    dxy    dyz    dz2    dxz    dx2    tot
  1  0.001  0.050  0.001  0.003  0.235  0.034  0.129  0.023  0.508  0.985
 
band   6 # energy   10.41510567 # occ.  0.00000000
 
ion      s     py     pz     px    dxy    dyz    dz2    dxz    dx2    tot
  1  0.012  0.000  0.002  0.001  0.118  0.162  0.096  0.530  0.022  0.944
 

 k-point   15 :   -0.35000000 0.35000000 0.05000000     weight = 0.02400000

band   1 # energy    1.22436040 # occ.  1.00000000
 
ion      s     py     pz     px    dxy    dyz    dz2    dxz    dx2    tot
  1  0.456  0.030  0.008  0.059  0.280  0.001  0.082  0.002  0.035  0.953
 
band   2 # energy    4.69366682 # occ.  1.00000000
 
ion      s     py     pz     px    dxy    dyz    dz2    dxz    dx2    tot
  1  0.000  0.003  0.000  0.002  0.000  0.684  0.000  0.342  0.001  1.032
 
band   3 # energy    5.70631860 # occ.  0.11807021
 
ion      s     py     pz     px    dxy    dyz    dz2    dxz    dx2    tot
  1  0.067  0.127  0.000  0.254  0.337  0.015  0.026  0.031  0.042  0.898
 
band   4 # energy    9.19988015 # occ.  0.00000000
 
ion      s     py     pz     px    dxy    dyz    dz2    dxz    dx2    tot
  1  0.003  0.021  0.001  0.041  0.077  0.020  0.730  0.041  0.010  0.945
 
band   5 # energy   10.44069509 # occ.  0.00000000
 
ion      s     py     pz     px    dxy    dyz    dz2    dxz    dx2    tot
  1  0.020  0.002  0.003  0.004  0.049  0.272  0.049  0.544  0.006  0.950
 
band   6 # energy   11.13929930 # occ.  0.00000000
 
ion      s     py     pz     px    dxy    dyz    dz2    dxz    dx2    tot
  1  0.000  0.040  0.000  0.020  0.098  0.001  0.000  0.001  0.787  0.949
 

 k-point   16 :   -0.25000000 0.35000000 0.05000000     weight = 0.04800000

band   1 # energy    1.25080953 # occ.  1.00000000
 
ion      s     py     pz     px    dxy    dyz    dz2    dxz    dx2    tot
  1  0.541  0.090  0.028  0.060  0.134  0.030  0.041  0.003  0.002  0.930
 
band   2 # energy    4.94040103 # occ.  1.00000000
 
ion      s     py     pz     px    dxy    dyz    dz2    dxz    dx2    tot
  1  0.004  0.000  0.012  0.068  0.201  0.467  0.010  0.026  0.159  0.948
 
band   3 # energy    5.37066500 # occ.  1.00000000
 
ion      s     py     pz     px    dxy    dyz    dz2    dxz    dx2    tot
  1  0.018  0.056  0.003  0.064  0.143  0.257  0.078  0.267  0.093  0.979
 
band   4 # energy    8.39582088 # occ.  0.00000000
 
ion      s     py     pz     px    dxy    dyz    dz2    dxz    dx2    tot
  1  0.000  0.002  0.000  0.028  0.108  0.002  0.619  0.132  0.025  0.916
 
band   5 # energy   10.33898692 # occ.  0.00000000
 
ion      s     py     pz     px    dxy    dyz    dz2    dxz    dx2    tot
  1  0.003  0.066  0.000  0.000  0.049  0.086  0.132  0.063  0.555  0.954
 
band   6 # energy   10.71745150 # occ.  0.00000000
 
ion      s     py     pz     px    dxy    dyz    dz2    dxz    dx2    tot
  1  0.038  0.036  0.002  0.006  0.219  0.117  0.019  0.471  0.054  0.963
 

 k-point   17 :   -0.45000000 0.45000000 0.05000000     weight = 0.02400000

band   1 # energy    1.46872591 # occ.  1.00000000
 
ion      s     py     pz     px    dxy    dyz    dz2    dxz    dx2    tot
  1  0.303  0.003  0.007  0.006  0.490  0.000  0.109  0.000  0.061  0.980
 
band   2 # energy    4.35988285 # occ.  1.00000000
 
ion      s     py     pz     px    dxy    dyz    dz2    dxz    dx2    tot
  1  0.000  0.003  0.000  0.002  0.000  0.688  0.000  0.344  0.000  1.037
 
band   3 # energy    6.70642623 # occ.  0.00000000
 
ion      s     py     pz     px    dxy    dyz    dz2    dxz    dx2    tot
  1  0.028  0.228  0.000  0.456  0.056  0.035  0.000  0.069  0.007  0.879
 
band   4 # energy    9.36660326 # occ.  0.00000000
 
ion      s     py     pz     px    dxy    dyz    dz2    dxz    dx2    tot
  1  0.057  0.012  0.000  0.024  0.171  0.000  0.668  0.000  0.021  0.953
 
band   5 # energy   10.81051597 # occ.  0.00000000
 
ion      s     py     pz     px    dxy    dyz    dz2    dxz    dx2    tot
  1  0.009  0.031  0.001  0.061  0.008  0.287  0.000  0.573  0.001  0.971
 
band   6 # energy   13.07944302 # occ.  0.00000000
 
ion      s     py     pz     px    dxy    dyz    dz2    dxz    dx2    tot
  1  0.000  0.012  0.000  0.006  0.106  0.000  0.000  0.000  0.845  0.969
 

 k-point   18 :   -0.35000000 0.45000000 0.05000000     weight = 0.04800000

band   1 # energy    1.90829127 # occ.  1.00000000
 
ion      s     py     pz     px    dxy    dyz    dz2    dxz    dx2    tot
  1  0.327  0.047  0.025  0.011  0.406  0.020  0.090  0.000  0.039  0.965
 
band   2 # energy    4.63966743 # occ.  1.00000000
 
ion      s     py     pz     px    dxy    dyz    dz2    dxz    dx2    tot
  1  0.004  0.003  0.015  0.034  0.035  0.714  0.004  0.169  0.024  1.002
 
band   3 # energy    5.61205357 # occ.  1.03302480
 
ion      s     py     pz     px    dxy    dyz    dz2    dxz    dx2    tot
  1  0.044  0.137  0.002  0.262  0.084  0.000  0.005  0.260  0.111  0.904
 
band   4 # energy    8.93303093 # occ.  0.00000000
 
ion      s     py     pz     px    dxy    dyz    dz2    dxz    dx2    tot
  1  0.020  0.010  0.000  0.051  0.132  0.005  0.689  0.018  0.002  0.927
 
band   5 # energy   10.75535483 # occ.  0.00000000
 
ion      s     py     pz     px    dxy    dyz    dz2    dxz    dx2    tot
  1  0.057  0.007  0.001  0.046  0.011  0.227  0.007  0.462  0.155  0.973
 
band   6 # energy   12.72194049 # occ.  0.00000000
 
ion      s     py     pz     px    dxy    dyz    dz2    dxz    dx2    tot
  1  0.006  0.119  0.001  0.017  0.172  0.005  0.011  0.059  0.561  0.952
 

 k-point   19 :   -0.25000000 0.45000000 0.05000000     weight = 0.02400000

band   1 # energy    2.37457640 # occ.  1.00000000
 
ion      s     py     pz     px    dxy    dyz    dz2    dxz    dx2    tot
  1  0.371  0.094  0.026  0.043  0.138  0.217  0.066  0.000  0.003  0.958
 
band   2 # energy    4.33656036 # occ.  1.00000000
 
ion      s     py     pz     px    dxy    dyz    dz2    dxz    dx2    tot
  1  0.000  0.011  0.033  0.088  0.309  0.192  0.011  0.007  0.276  0.928
 
band   3 # energy    5.37517813 # occ.  1.00000000
 
ion      s     py     pz     px    dxy    dyz    dz2    dxz    dx2    tot
  1  0.016  0.122  0.033  0.055  0.000  0.259  0.116  0.303  0.072  0.976
 
band   4 # energy    8.70705762 # occ.  0.00000000
 
ion      s     py     pz     px    dxy    dyz    dz2    dxz    dx2    tot
  1  0.000  0.003  0.009  0.023  0.122  0.008  0.487  0.214  0.056  0.921
 
band   5 # energy   10.45605198 # occ.  0.00000000
 
ion      s     py     pz     px    dxy    dyz    dz2    dxz    dx2    tot
  1  0.083  0.000  0.005  0.002  0.023  0.257  0.131  0.293  0.176  0.969
 
band   6 # energy   12.78824311 # occ.  0.00000000
 
ion      s     py     pz     px    dxy    dyz    dz2    dxz    dx2    tot
  1  0.019  0.167  0.004  0.033  0.279  0.000  0.046  0.121  0.284  0.953
 

 k-point   20 :   -0.45000000-0.45000000 0.05000000     weight = 0.02400000

band   1 # energy    1.96500250 # occ.  1.00000000
 
ion      s     py     pz     px    dxy    dyz    dz2    dxz    dx2    tot
  1  0.249  0.010  0.023  0.005  0.516  0.007  0.097  0.004  0.065  0.976
 
band   2 # energy    4.53490933 # occ.  1.00000000
 
ion      s     py     pz     px    dxy    dyz    dz2    dxz    dx2    tot
  1  0.001  0.014  0.016  0.007  0.014  0.640  0.007  0.320  0.002  1.021
 
band   3 # energy    6.10173890 # occ.  0.00000000
 
ion      s     py     pz     px    dxy    dyz    dz2    dxz    dx2    tot
  1  0.000  0.185  0.000  0.369  0.006  0.094  0.000  0.189  0.044  0.887
 
band   4 # energy    8.88451747 # occ.  0.00000000
 
ion      s     py     pz     px    dxy    dyz    dz2    dxz    dx2    tot
  1  0.086  0.001  0.000  0.000  0.169  0.016  0.624  0.008  0.021  0.925
 
band   5 # energy   11.25740684 # occ.  0.00000000
 
ion      s     py     pz     px    dxy    dyz    dz2    dxz    dx2    tot
  1  0.000  0.065  0.000  0.131  0.016  0.212  0.000  0.424  0.132  0.981
 
band   6 # energy   13.96475946 # occ.  0.00000000
 
ion      s     py     pz     px    dxy    dyz    dz2    dxz    dx2    tot
  1  0.000  0.042  0.000  0.084  0.088  0.020  0.000  0.040  0.701  0.974
 

 k-point   21 :   -0.35000000-0.45000000 0.05000000     weight = 0.04800000

band   1 # energy    2.84777047 # occ.  1.00000000
 
ion      s     py     pz     px    dxy    dyz    dz2    dxz    dx2    tot
  1  0.216  0.050  0.027  0.000  0.408  0.114  0.110  0.015  0.035  0.975
 
band   2 # energy    4.39595481 # occ.  1.00000000
 
ion      s     py     pz     px    dxy    dyz    dz2    dxz    dx2    tot
  1  0.011  0.006  0.042  0.101  0.124  0.527  0.020  0.033  0.092  0.956
 
band   3 # energy    5.23566254 # occ.  1.00000000
 
ion      s     py     pz     px    dxy    dyz    dz2    dxz    dx2    tot
  1  0.002  0.163  0.013  0.174  0.007  0.003  0.022  0.438  0.103  0.924
 
band   4 # energy    9.17332576 # occ.  0.00000000
 
ion      s     py     pz     px    dxy    dyz    dz2    dxz    dx2    tot
  1  0.036  0.002  0.011  0.022  0.131  0.062  0.601  0.062  0.000  0.928
 
band   5 # energy   10.67391547 # occ.  0.00000000
 
ion      s     py     pz     px    dxy    dyz    dz2    dxz    dx2    tot
  1  0.045  0.022  0.002  0.065  0.003  0.212  0.003  0.297  0.317  0.966
 
band   6 # energy   15.08063991 # occ.  0.00000000
 
ion      s     py     pz     px    dxy    dyz    dz2    dxz    dx2    tot
  1  0.032  0.143  0.007  0.104  0.192  0.017  0.028  0.091  0.368  0.981
 

 k-point   22 :   -0.35000000-0.35000000 0.05000000     weight = 0.00800000

band   1 # energy    3.50839689 # occ.  1.00000000
 
ion      s     py     pz     px    dxy    dyz    dz2    dxz    dx2    tot
  1  0.179  0.000  0.000  0.000  0.061  0.368  0.207  0.184  0.008  1.008
 
band   2 # energy    4.48979773 # occ.  1.00000000
 
ion      s     py     pz     px    dxy    dyz    dz2    dxz    dx2    tot
  1  0.000  0.096  0.000  0.191  0.024  0.139  0.000  0.279  0.190  0.919
 
band   3 # energy    4.48980227 # occ.  1.00000000
 
ion      s     py     pz     px    dxy    dyz    dz2    dxz    dx2    tot
  1  0.000  0.128  0.096  0.064  0.498  0.047  0.000  0.024  0.062  0.919
 
band   4 # energy   10.12784895 # occ.  0.00000000
 
ion      s     py     pz     px    dxy    dyz    dz2    dxz    dx2    tot
  1  0.000  0.029  0.000  0.057  0.049  0.142  0.000  0.285  0.389  0.950
 
band   5 # energy   10.12784980 # occ.  0.00000000
 
ion      s     py     pz     px    dxy    dyz    dz2    dxz    dx2    tot
  1  0.000  0.038  0.029  0.019  0.078  0.097  0.631  0.049  0.010  0.950
 
band   6 # energy   14.68759638 # occ.  0.00000000
 
ion      s     py     pz     px    dxy    dyz    dz2    dxz    dx2    tot
  1  0.614  0.013  0.040  0.007  0.016  0.094  0.053  0.047  0.002  0.884
 

 k-point   23 :    0.15000000 0.15000000 0.15000000     weight = 0.00800000

band   1 # energy    2.24271417 # occ.  1.00000000
 
ion      s     py     pz     px    dxy    dyz    dz2    dxz    dx2    tot
  1  0.503  0.058  0.175  0.029  0.012  0.075  0.042  0.037  0.002  0.934
 
band   2 # energy    4.40608136 # occ.  1.00000000
 
ion      s     py     pz     px    dxy    dyz    dz2    dxz    dx2    tot
  1  0.000  0.017  0.001  0.076  0.073  0.006  0.028  0.089  0.703  0.993
 
band   3 # energy    4.40608136 # occ.  1.00000000
 
ion      s     py     pz     px    dxy    dyz    dz2    dxz    dx2    tot
  1  0.000  0.057  0.030  0.008  0.029  0.204  0.587  0.059  0.021  0.993
 
band   4 # energy   10.07416253 # occ.  0.00000000
 
ion      s     py     pz     px    dxy    dyz    dz2    dxz    dx2    tot
  1  0.000  0.000  0.000  0.000  0.288  0.139  0.010  0.495  0.020  0.952
 
band   5 # energy   10.07416253 # occ.  0.00000000
 
ion      s     py     pz     px    dxy    dyz    dz2    dxz    dx2    tot
  1  0.000  0.000  0.000  0.000  0.498  0.164  0.030  0.068  0.191  0.952
 
band   6 # energy   12.80047180 # occ.  0.00000000
 
ion      s     py     pz     px    dxy    dyz    dz2    dxz    dx2    tot
  1  0.004  0.050  0.150  0.025  0.054  0.326  0.183  0.163  0.007  0.962
 

 k-point   24 :    0.25000000 0.15000000 0.15000000     weight = 0.02400000
