<?xml version="1.0" encoding="ISO-8859-1"?>
<modeling>
 <generator>
  <i name="program" type="string">vasp </i>
  <i name="version" type="string">5.2.12  </i>
  <i name="subversion" type="string">11Nov11 complex                                                      parallel </i>
  <i name="platform" type="string">LinuxIFC </i>
  <i name="date" type="string">2012 10 17 </i>
  <i name="time" type="string">10:12:39 </i>
 </generator>
 <incar>
  <i type="int" name="ISTART">     0</i>
  <i type="string" name="PREC">accurate</i>
  <i type="int" name="ISPIN">     2</i>
  <i name="ENCUT">    200.00000000</i>
  <i type="int" name="NBANDS">     6</i>
  <v name="MAGMOM">      6.00000000</v>
  <i type="logical" name="LREAL"> F  </i>
  <i type="int" name="ISMEAR">     1</i>
  <i name="SIGMA">      0.05000000</i>
  <i type="logical" name="LORBIT"> F  </i>
 </incar>
 <kpoints>
  <generation param="Monkhorst-Pack">
   <v type="int" name="divisions">      10       10       10 </v>
   <v name="usershift">      0.00000000       0.00000000       0.00000000 </v>
   <v name="genvec1">      0.10000000       0.00000000       0.00000000 </v>
   <v name="genvec2">      0.00000000       0.10000000       0.00000000 </v>
   <v name="genvec3">      0.00000000       0.00000000       0.10000000 </v>
   <v name="shift">      0.50000000       0.50000000       0.50000000 </v>
  </generation>
  <varray name="kpointlist" >
   <v>       0.05000000       0.05000000       0.05000000 </v>
   <v>       0.15000000       0.05000000       0.05000000 </v>
   <v>       0.25000000       0.05000000       0.05000000 </v>
   <v>       0.35000000       0.05000000       0.05000000 </v>
   <v>       0.45000000       0.05000000       0.05000000 </v>
   <v>      -0.05000000       0.05000000       0.05000000 </v>
   <v>       0.15000000       0.15000000       0.05000000 </v>
   <v>       0.25000000       0.15000000       0.05000000 </v>
   <v>       0.35000000       0.15000000       0.05000000 </v>
   <v>      -0.15000000       0.15000000       0.05000000 </v>
   <v>       0.25000000       0.25000000       0.05000000 </v>
   <v>       0.35000000       0.25000000       0.05000000 </v>
   <v>      -0.25000000       0.25000000       0.05000000 </v>
   <v>      -0.15000000       0.25000000       0.05000000 </v>
   <v>      -0.35000000       0.35000000       0.05000000 </v>
   <v>      -0.25000000       0.35000000       0.05000000 </v>
   <v>      -0.45000000       0.45000000       0.05000000 </v>
   <v>      -0.35000000       0.45000000       0.05000000 </v>
   <v>      -0.25000000       0.45000000       0.05000000 </v>
   <v>      -0.45000000      -0.45000000       0.05000000 </v>
   <v>      -0.35000000      -0.45000000       0.05000000 </v>
   <v>      -0.35000000      -0.35000000       0.05000000 </v>
   <v>       0.15000000       0.15000000       0.15000000 </v>
   <v>       0.25000000       0.15000000       0.15000000 </v>
   <v>       0.35000000       0.15000000       0.15000000 </v>
   <v>      -0.15000000       0.15000000       0.15000000 </v>
   <v>       0.25000000       0.25000000       0.15000000 </v>
   <v>      -0.25000000       0.25000000       0.15000000 </v>
   <v>      -0.35000000       0.35000000       0.15000000 </v>
   <v>      -0.25000000       0.35000000       0.15000000 </v>
   <v>      -0.45000000       0.45000000       0.15000000 </v>
   <v>      -0.35000000       0.45000000       0.15000000 </v>
   <v>      -0.45000000      -0.45000000       0.15000000 </v>
   <v>      -0.35000000      -0.45000000       0.15000000 </v>
   <v>       0.25000000       0.25000000       0.25000000 </v>
   <v>      -0.25000000       0.25000000       0.25000000 </v>
   <v>      -0.35000000       0.35000000       0.25000000 </v>
   <v>      -0.45000000       0.45000000       0.25000000 </v>
   <v>      -0.35000000       0.45000000       0.25000000 </v>
   <v>      -0.45000000      -0.45000000       0.25000000 </v>
   <v>      -0.35000000       0.35000000       0.35000000 </v>
   <v>      -0.45000000       0.45000000       0.35000000 </v>
   <v>      -0.45000000      -0.45000000       0.35000000 </v>
   <v>      -0.45000000       0.45000000       0.45000000 </v>
  </varray>
  <varray name="weights" >
   <v>       0.00800000 </v>
   <v>       0.02400000 </v>
   <v>       0.02400000 </v>
   <v>       0.02400000 </v>
   <v>       0.01200000 </v>
   <v>       0.00600000 </v>
   <v>       0.02400000 </v>
   <v>       0.04800000 </v>
   <v>       0.04800000 </v>
   <v>       0.02400000 </v>
   <v>       0.02400000 </v>
   <v>       0.02400000 </v>
   <v>       0.02400000 </v>
   <v>       0.02400000 </v>
   <v>       0.02400000 </v>
   <v>       0.04800000 </v>
   <v>       0.02400000 </v>
   <v>       0.04800000 </v>
   <v>       0.02400000 </v>
   <v>       0.02400000 </v>
   <v>       0.04800000 </v>
   <v>       0.00800000 </v>
   <v>       0.00800000 </v>
   <v>       0.02400000 </v>
   <v>       0.01200000 </v>
   <v>       0.00600000 </v>
   <v>       0.02400000 </v>
   <v>       0.02400000 </v>
   <v>       0.02400000 </v>
   <v>       0.02400000 </v>
   <v>       0.02400000 </v>
   <v>       0.04800000 </v>
   <v>       0.02400000 </v>
   <v>       0.02400000 </v>
   <v>       0.00200000 </v>
   <v>       0.00600000 </v>
   <v>       0.02400000 </v>
   <v>       0.02400000 </v>
   <v>       0.02400000 </v>
   <v>       0.02400000 </v>
   <v>       0.00600000 </v>
   <v>       0.02400000 </v>
   <v>       0.00800000 </v>
   <v>       0.00600000 </v>
  </varray>
 </kpoints>
 <parameters>
  <separator name="general" >
   <i type="string" name="SYSTEM">unknown system</i>
   <i type="logical" name="LCOMPAT"> F  </i>
  </separator>
  <separator name="electronic" >
   <i type="string" name="PREC">accura</i>
   <i name="ENMAX">    200.00000000</i>
   <i name="ENAUG">    332.07500000</i>
   <i name="EDIFF">      0.00010000</i>
   <i type="int" name="IALGO">    38</i>
   <i type="int" name="IWAVPR">    10</i>
   <i type="int" name="NBANDS">     6</i>
   <i name="NELECT">      5.00000000</i>
   <i type="int" name="TURBO">     0</i>
   <i type="int" name="IRESTART">     0</i>
   <i type="int" name="NREBOOT">     0</i>
   <i type="int" name="NMIN">     0</i>
   <i name="EREF">      0.00000000</i>
   <separator name="electronic smearing" >
    <i type="int" name="ISMEAR">     1</i>
    <i name="SIGMA">      0.05000000</i>
    <i name="KSPACING">      0.50000000</i>
    <i type="logical" name="KGAMMA"> T  </i>
   </separator>
   <separator name="electronic projectors" >
    <i type="logical" name="LREAL"> F  </i>
    <v name="ROPT">      0.00000000</v>
    <i type="int" name="LMAXPAW">  -100</i>
    <i type="int" name="LMAXMIX">     2</i>
    <i type="logical" name="NLSPLINE"> F  </i>
   </separator>
   <separator name="electronic startup" >
    <i type="int" name="ISTART">     0</i>
    <i type="int" name="ICHARG">     2</i>
    <i type="int" name="INIWAV">     1</i>
   </separator>
   <separator name="electronic spin" >
    <i type="int" name="ISPIN">     2</i>
    <i type="logical" name="LNONCOLLINEAR"> F  </i>
    <v name="MAGMOM">      6.00000000</v>
    <i name="NUPDOWN">     -1.00000000</i>
    <i type="logical" name="LSORBIT"> F  </i>
    <v name="SAXIS">      0.00000000      0.00000000      1.00000000</v>
    <i type="logical" name="LSPIRAL"> F  </i>
    <v name="QSPIRAL">      0.00000000      0.00000000      0.00000000</v>
    <i type="logical" name="LZEROZ"> F  </i>
   </separator>
   <separator name="electronic exchange-correlation" >
    <i type="logical" name="LASPH"> F  </i>
    <i type="logical" name="LMETAGGA"> F  </i>
   </separator>
   <separator name="electronic convergence" >
    <i type="int" name="NELM">    60</i>
    <i type="int" name="NELMDL">    -5</i>
    <i type="int" name="NELMIN">     2</i>
    <i name="ENINI">    200.00000000</i>
    <separator name="electronic convergence detail" >
     <i type="logical" name="LDIAG"> T  </i>
     <i type="logical" name="LSUBROT"> T  </i>
     <i name="WEIMIN">      0.00000000</i>
     <i name="EBREAK">      0.00000417</i>
     <i name="DEPER">      0.30000000</i>
     <i type="int" name="NRMM">     4</i>
     <i name="TIME">      0.40000000</i>
    </separator>
   </separator>
   <separator name="electronic mixer" >
    <i name="AMIX">      0.40000000</i>
    <i name="BMIX">      1.00000000</i>
    <i name="AMIN">      0.10000000</i>
    <i name="AMIX_MAG">      1.60000000</i>
    <i name="BMIX_MAG">      1.00000000</i>
    <separator name="electronic mixer details" >
     <i type="int" name="IMIX">     4</i>
     <i type="int" name="MAXMIX">   -45</i>
     <i name="WC">    100.00000000</i>
     <i type="int" name="INIMIX">     1</i>
     <i type="int" name="MIXPRE">     1</i>
     <i type="int" name="MREMOVE">     5</i>
    </separator>
   </separator>
   <separator name="electronic dipolcorrection" >
    <i type="logical" name="LDIPOL"> F  </i>
    <i type="logical" name="LMONO"> F  </i>
    <i type="int" name="IDIPOL">     0</i>
    <i name="EPSILON">      1.00000000</i>
    <v name="DIPOL">   -100.00000000   -100.00000000   -100.00000000</v>
    <i name="EFIELD">      0.00000000</i>
   </separator>
  </separator>
  <separator name="grids" >
   <i type="int" name="NGX">    14</i>
   <i type="int" name="NGY">    14</i>
   <i type="int" name="NGZ">    14</i>
   <i type="int" name="NGXF">    28</i>
   <i type="int" name="NGYF">    28</i>
   <i type="int" name="NGZF">    28</i>
   <i type="logical" name="ADDGRID"> F  </i>
  </separator>
  <separator name="ionic" >
   <i type="int" name="NSW">     0</i>
   <i type="int" name="IBRION">    -1</i>
   <i type="int" name="ISIF">     2</i>
   <i name="PSTRESS">      0.00000000</i>
   <i name="EDIFFG">      0.00100000</i>
   <i type="int" name="NFREE">     0</i>
   <i name="POTIM">      0.50000000</i>
   <i name="SMASS">     -3.00000000</i>
   <i name="SCALEE">      1.00000000</i>
  </separator>
  <separator name="ionic md" >
   <i name="TEBEG">      0.00010000</i>
   <i name="TEEND">      0.00010000</i>
   <i type="int" name="NBLOCK">     1</i>
   <i type="int" name="KBLOCK">     1</i>
   <i type="int" name="NPACO">   256</i>
   <i name="APACO">     16.00000000</i>
  </separator>
  <separator name="symmetry" >
   <i type="int" name="ISYM">     2</i>
   <i name="SYMPREC">      0.00001000</i>
  </separator>
  <separator name="dos" >
   <i type="logical" name="LORBIT"> F  </i>
   <v name="RWIGS">     -1.00000000</v>
   <i type="int" name="NEDOS">   301</i>
   <i name="EMIN">     10.00000000</i>
   <i name="EMAX">    -10.00000000</i>
   <i name="EFERMI">      0.00000000</i>
  </separator>
  <separator name="writing" >
   <i type="int" name="NWRITE">     2</i>
   <i type="logical" name="LWAVE"> T  </i>
   <i type="logical" name="LCHARG"> T  </i>
   <i type="logical" name="LPARD"> F  </i>
   <i type="logical" name="LVTOT"> F  </i>
   <i type="logical" name="LVHAR"> F  </i>
   <i type="logical" name="LELF"> F  </i>
   <i type="logical" name="LOPTICS"> F  </i>
   <v name="STM">      0.00000000      0.00000000      0.00000000      0.00000000      0.00000000      0.00000000      0.00000000</v>
  </separator>
  <separator name="performance" >
   <i type="int" name="NPAR">     1</i>
   <i type="int" name="NSIM">     4</i>
   <i type="int" name="NBLK">    -1</i>
   <i type="logical" name="LPLANE"> T  </i>
   <i type="logical" name="LSCALAPACK"> F  </i>
   <i type="logical" name="LSCAAWARE"> F  </i>
   <i type="logical" name="LSCALU"> F  </i>
   <i type="logical" name="LASYNC"> F  </i>
   <i type="logical" name="LORBITALREAL"> F  </i>
  </separator>
  <separator name="miscellaneous" >
   <i type="int" name="IDIOT">     3</i>
   <i type="logical" name="LMUSIC"> F  </i>
   <v name="POMASS">    180.94800000</v>
   <v name="DARWINR">      0.00000000</v>
   <v name="DARWINV">      1.00000000</v>
   <i type="logical" name="LCORR"> T  </i>
  </separator>
  <i type="logical" name="GGA_COMPAT"> T  </i>
  <i type="logical" name="LBERRY"> F  </i>
  <i type="int" name="ICORELEVEL">     0</i>
  <i type="logical" name="LDAU"> F  </i>
  <i type="int" name="I_CONSTRAINED_M">     0</i>
  <separator name="electronic exchange-correlation" >
   <i type="string" name="GGA">--</i>
   <i type="int" name="VOSKOWN">     0</i>
   <i type="logical" name="LHFCALC"> F  </i>
   <i type="string" name="PRECFOCK"></i>
   <i type="logical" name="LHFONE"> F  </i>
   <i type="logical" name="LRHFCALC"> F  </i>
   <i type="logical" name="LTHOMAS"> F  </i>
   <i type="logical" name="LMODELHF"> F  </i>
   <i name="ENCUT4O">     -1.00000000</i>
   <i type="int" name="EXXOEP">     0</i>
   <i type="int" name="FOURORBIT">     0</i>
   <i name="AEXX">      0.00000000</i>
   <i name="HFALPHA">      0.00000000</i>
   <i name="ALDAX">      1.00000000</i>
   <i name="AGGAX">      1.00000000</i>
   <i name="ALDAC">      1.00000000</i>
   <i name="AGGAC">      1.00000000</i>
   <i type="int" name="NKREDX">     1</i>
   <i type="int" name="NKREDY">     1</i>
   <i type="int" name="NKREDZ">     1</i>
   <i type="logical" name="SHIFTRED"> F  </i>
   <i type="logical" name="ODDONLY"> F  </i>
   <i type="logical" name="EVENONLY"> F  </i>
   <i type="int" name="LMAXFOCK">     0</i>
   <i type="int" name="NMAXFOCKAE">     0</i>
   <i type="logical" name="LFOCKAEDFT"> F  </i>
   <i name="HFSCREEN">      0.00000000</i>
   <i name="HFSCREENC">      0.00000000</i>
  </separator>
  <separator name="vdW DFT" >
   <i type="logical" name="LUSE_VDW"> F  </i>
   <i name="Zab_VDW">     -0.84910000</i>
   <i name="PARAM1">      0.12340000</i>
   <i name="PARAM2">      1.00000000</i>
   <i name="PARAM3">      0.00000000</i>
  </separator>
  <separator name="model GW" >
   <i type="int" name="MODEL_GW">     0</i>
   <i name="MODEL_EPS0">     10.87940730</i>
   <i name="MODEL_ALPHA">      1.00000000</i>
  </separator>
  <separator name="linear response parameters" >
   <i type="logical" name="LEPSILON"> F  </i>
   <i type="logical" name="LRPA"> F  </i>
   <i type="logical" name="LNABLA"> F  </i>
   <i type="logical" name="LVEL"> F  </i>
   <i type="int" name="KINTER">     0</i>
   <i name="CSHIFT">      0.10000000</i>
   <i name="OMEGAMAX">     -1.00000000</i>
  </separator>
  <separator name="orbital magnetization" >
   <i type="logical" name="NUCIND"> F  </i>
   <v name="MAGPOS">      0.00000000      0.00000000      0.00000000</v>
   <i type="logical" name="LNICSALL"> T  </i>
   <i type="logical" name="ORBITALMAG"> F  </i>
   <i type="logical" name="LMAGBLOCH"> F  </i>
   <i type="logical" name="LCHIMAG"> F  </i>
   <i type="logical" name="LGAUGE"> T  </i>
   <i type="int" name="MAGATOM">     0</i>
   <v name="MAGDIPOL">      0.00000000      0.00000000      0.00000000</v>
   <v name="AVECCONST">      0.00000000      0.00000000      0.00000000</v>
  </separator>
  <separator name="response functions" >
   <i type="logical" name="LADDER"> F  </i>
   <i type="logical" name="LHARTREE"> T  </i>
   <i type="int" name="IBSE">     0</i>
   <i type="logical" name="LTCTE"> F  </i>
   <i type="logical" name="LTETE"> F  </i>
   <i type="logical" name="LFXCEPS"> F  </i>
   <i type="logical" name="L2ORDER"> F  </i>
   <i type="logical" name="LUSEW"> F  </i>
   <i name="ENCUTGW">     -2.00000000</i>
   <i name="ENCUTGWSOFT">     -2.00000000</i>
   <i name="ENCUTLF">     -1.00000000</i>
   <i type="int" name="LMAXMP2">    -1</i>
   <i name="SCISSOR">      0.00000000</i>
   <i type="int" name="NOMEGA">     0</i>
   <i type="int" name="NOMEGAR">     0</i>
   <i type="int" name="NBANDSGW">    -1</i>
   <i type="int" name="NBANDSO">    -1</i>
   <i type="int" name="NBANDSV">    -1</i>
   <i name="OPTEMAX">      0.00000000</i>
   <i type="int" name="NELM">     1</i>
   <i type="int" name="DIM">     3</i>
   <i type="int" name="ANTIRES">     0</i>
   <i name="OMEGAMAX">    -30.00000000</i>
   <i name="OMEGATL">   -200.00000000</i>
   <i type="int" name="OMEGAGRID">     0</i>
   <i name="CSHIFT">     -0.10000000</i>
   <i type="logical" name="SELFENERGY"> F  </i>
   <i type="logical" name="LSPECTRAL"> F  </i>
   <i type="logical" name="ODDONLYGW"> F  </i>
   <i type="logical" name="EVENONLYGW"> F  </i>
   <i type="int" name="NKREDLFX">     1</i>
   <i type="int" name="NKREDLFY">     1</i>
   <i type="int" name="NKREDLFZ">     1</i>
   <i type="int" name="MAXMEM">  1800</i>
   <i type="int" name="TELESCOPE">     0</i>
  </separator>
 </parameters>
 <atominfo>
  <atoms>       1 </atoms>
  <types>       1 </types>
  <array name="atoms" >
   <dimension dim="1">ion</dimension>
   <field type="string">element</field>
   <field type="int">atomtype</field>
   <set>
    <rc><c>Ta</c><c>   1</c></rc>
   </set>
  </array>
  <array name="atomtypes" >
   <dimension dim="1">type</dimension>
   <field type="int">atomspertype</field>
   <field type="string">element</field>
   <field>mass</field>
   <field>valence</field>
   <field type="string">pseudopotential</field>
   <set>
    <rc><c>   1</c><c>Ta</c><c>    180.94800000</c><c>      5.00000000</c><c>  PAW_PBE Ta 17Jan2003                  </c></rc>
   </set>
  </array>
 </atominfo>
 <structure name="initialpos" >
  <crystal>
   <varray name="basis" >
    <v>       2.86654409       0.00000000       0.00000000 </v>
    <v>      -0.95551470       2.70260368       0.00000000 </v>
    <v>      -0.95551470      -1.35130184       2.34052345 </v>
   </varray>
   <i name="volume">     18.13234550 </i>
   <varray name="rec_basis" >
    <v>       0.34885213       0.12333785       0.21362743 </v>
    <v>       0.00000000       0.37001356       0.21362743 </v>
    <v>       0.00000000       0.00000000       0.42725485 </v>
   </varray>
  </crystal>
  <varray name="positions" >
   <v>       0.00000000       0.00000000       0.00000000 </v>
  </varray>
 </structure>
 <calculation>
  <scstep>
   <time name="dav">    0.59    0.59</time>
   <time name="total">    0.69    0.70</time>
   <energy>
    <i name="alphaZ">     30.58334069 </i>
    <i name="ewald">   -197.90100875 </i>
    <i name="hartreedc">     -2.50452612 </i>
    <i name="XCdc">    -60.73631373 </i>
    <i name="pawpsdc">    143.51874798 </i>
    <i name="pawaedc">    -69.33493833 </i>
    <i name="eentropy">     -0.00050918 </i>
    <i name="bandstr">     30.49164913 </i>
    <i name="atom">    130.57950032 </i>
    <i name="e_fr_energy">      4.69594201 </i>
    <i name="e_wo_entrp">      4.69645119 </i>
    <i name="e_0_energy">      4.69611173 </i>
   </energy>
  </scstep>
  <scstep>
   <time name="dav">    0.78    0.78</time>
   <time name="total">    0.79    0.79</time>
   <energy>
    <i name="e_fr_energy">     -1.38231383 </i>
    <i name="e_wo_entrp">     -1.38228540 </i>
    <i name="e_0_energy">     -1.38230435 </i>
   </energy>
  </scstep>
  <scstep>
   <time name="dav">    0.56    0.56</time>
   <time name="total">    0.57    0.58</time>
   <energy>
    <i name="e_fr_energy">     -1.43016206 </i>
    <i name="e_wo_entrp">     -1.43013780 </i>
    <i name="e_0_energy">     -1.43015397 </i>
   </energy>
  </scstep>
  <scstep>
   <time name="dav">    0.66    0.66</time>
   <time name="total">    0.66    0.68</time>
   <energy>
    <i name="e_fr_energy">     -1.43048496 </i>
    <i name="e_wo_entrp">     -1.43046092 </i>
    <i name="e_0_energy">     -1.43047695 </i>
   </energy>
  </scstep>
  <scstep>
   <time name="dav">    0.48    0.49</time>
   <time name="total">    0.55    0.56</time>
   <energy>
    <i name="e_fr_energy">     -1.43048740 </i>
    <i name="e_wo_entrp">     -1.43046336 </i>
    <i name="e_0_energy">     -1.43047939 </i>
   </energy>
  </scstep>
  <scstep>
   <time name="dav">    0.54    0.54</time>
   <time name="total">    0.68    0.72</time>
   <energy>
    <i name="e_fr_energy">    -11.71324239 </i>
    <i name="e_wo_entrp">    -11.71338290 </i>
    <i name="e_0_energy">    -11.71328923 </i>
   </energy>
  </scstep>
  <scstep>
   <time name="dav">    0.59    0.60</time>
   <time name="total">    0.74    0.83</time>
   <energy>
    <i name="e_fr_energy">    -11.79886035 </i>
    <i name="e_wo_entrp">    -11.79885325 </i>
    <i name="e_0_energy">    -11.79885799 </i>
   </energy>
  </scstep>
  <scstep>
   <time name="dav">    0.56    0.57</time>
   <time name="total">    0.71    0.73</time>
   <energy>
    <i name="e_fr_energy">    -11.78295866 </i>
    <i name="e_wo_entrp">    -11.78295086 </i>
    <i name="e_0_energy">    -11.78295606 </i>
   </energy>
  </scstep>
  <scstep>
   <time name="dav">    0.59    0.59</time>
   <time name="total">    0.73    0.76</time>
   <energy>
    <i name="e_fr_energy">    -11.85628582 </i>
    <i name="e_wo_entrp">    -11.85581427 </i>
    <i name="e_0_energy">    -11.85612864 </i>
   </energy>
  </scstep>
  <scstep>
   <time name="dav">    0.57    0.57</time>
   <time name="total">    0.72    1.07</time>
   <energy>
    <i name="e_fr_energy">    -11.86409809 </i>
    <i name="e_wo_entrp">    -11.86388925 </i>
    <i name="e_0_energy">    -11.86402848 </i>
   </energy>
  </scstep>
  <scstep>
   <time name="dav">    0.56    0.56</time>
   <time name="total">    0.71    0.73</time>
   <energy>
    <i name="e_fr_energy">    -11.86496331 </i>
    <i name="e_wo_entrp">    -11.86547265 </i>
    <i name="e_0_energy">    -11.86513309 </i>
   </energy>
  </scstep>
  <scstep>
   <time name="dav">    0.38    0.38</time>
   <time name="total">    0.47    0.49</time>
   <energy>
    <i name="alphaZ">     30.58334069 </i>
    <i name="ewald">   -197.90100875 </i>
    <i name="hartreedc">     -0.57628148 </i>
    <i name="XCdc">    -65.99228401 </i>
    <i name="pawpsdc">    192.83704647 </i>
    <i name="pawaedc">   -119.41042701 </i>
    <i name="eentropy">      0.00050647 </i>
    <i name="bandstr">     18.01462839 </i>
    <i name="atom">    130.57950032 </i>
    <i name="e_fr_energy">    -11.86497891 </i>
    <i name="e_wo_entrp">    -11.86548537 </i>
    <i name="e_0_energy">    -11.86514773 </i>
   </energy>
  </scstep>
  <parameters_embedded>
   <separator name="dft+d2" >
    <i type="logical" name="LVDW"> F  </i>
   </separator>
  </parameters_embedded>
  <structure>
   <crystal>
    <varray name="basis" >
     <v>       2.86654409       0.00000000       0.00000000 </v>
     <v>      -0.95551470       2.70260368       0.00000000 </v>
     <v>      -0.95551470      -1.35130184       2.34052345 </v>
    </varray>
    <i name="volume">     18.13234550 </i>
    <varray name="rec_basis" >
     <v>       0.34885213       0.12333785       0.21362743 </v>
     <v>       0.00000000       0.37001356       0.21362743 </v>
     <v>       0.00000000       0.00000000       0.42725485 </v>
    </varray>
   </crystal>
   <varray name="positions" >
    <v>       0.00000000       0.00000000       0.00000000 </v>
   </varray>
  </structure>
  <varray name="forces" >
   <v>       0.00000000       0.00000000       0.00000000 </v>
  </varray>
  <varray name="stress" >
   <v>     -49.30212798       0.00000000       0.00000000 </v>
   <v>       0.00000000     -49.30212798       0.00000000 </v>
   <v>       0.00000000       0.00000000     -49.30212798 </v>
  </varray>
  <energy>
   <i name="e_fr_energy">    -11.86497891 </i>
   <i name="e_wo_entrp">    -11.86514773 </i>
   <i name="e_0_energy">      0.00050647 </i>
  </energy>
  <time name="totalsc">    8.62    9.31</time>
  <eigenvalues>
   <array>
    <dimension dim="1">band</dimension>
    <dimension dim="2">kpoint</dimension>
    <dimension dim="3">spin</dimension>
    <field>eigene</field>
    <field>occ</field>
    <set>
     <set comment="spin 1">
      <set comment="kpoint 1">
       <r>   -1.5357    1.0000 </r>
       <r>    6.1075    0.0000 </r>
       <r>    6.1075    0.0000 </r>
       <r>    7.2238    0.0000 </r>
       <r>    9.4613    0.0000 </r>
       <r>    9.4613    0.0000 </r>
      </set>
      <set comment="kpoint 2">
       <r>   -0.4136    1.0000 </r>
       <r>    5.4345    1.0000 </r>
       <r>    5.6221    1.0348 </r>
       <r>    8.5760    0.0000 </r>
       <r>    9.1499    0.0000 </r>
       <r>    9.7287    0.0000 </r>
      </set>
      <set comment="kpoint 3">
       <r>    0.9134    1.0000 </r>
       <r>    4.7781    1.0000 </r>
       <r>    5.3160    1.0000 </r>
       <r>    9.3772    0.0000 </r>
       <r>   10.0794    0.0000 </r>
       <r>   10.5561    0.0000 </r>
      </set>
      <set comment="kpoint 4">
       <r>    1.5423    1.0000 </r>
       <r>    4.3254    1.0000 </r>
       <r>    6.1193    0.0000 </r>
       <r>    9.6948    0.0000 </r>
       <r>   10.4289    0.0000 </r>
       <r>   12.6835    0.0000 </r>
      </set>
      <set comment="kpoint 5">
       <r>    1.5989    1.0000 </r>
       <r>    4.1727    1.0000 </r>
       <r>    6.9934    0.0000 </r>
       <r>    9.6748    0.0000 </r>
       <r>   10.6124    0.0000 </r>
       <r>   13.8338    0.0000 </r>
      </set>
      <set comment="kpoint 6">
       <r>   -1.9514    1.0000 </r>
       <r>    6.4297    0.0000 </r>
       <r>    6.4297    0.0000 </r>
       <r>    6.5476    0.0000 </r>
       <r>    9.3161    0.0000 </r>
       <r>    9.8338    0.0000 </r>
      </set>
      <set comment="kpoint 7">
       <r>    0.8570    1.0000 </r>
       <r>    4.8934    1.0000 </r>
       <r>    4.9671    1.0000 </r>
       <r>    9.2432    0.0000 </r>
       <r>   10.1219    0.0000 </r>
       <r>   10.4786    0.0000 </r>
      </set>
      <set comment="kpoint 8">
       <r>    2.0235    1.0000 </r>
       <r>    4.4184    1.0000 </r>
       <r>    4.9897    1.0000 </r>
       <r>    9.5306    0.0000 </r>
       <r>   10.4644    0.0000 </r>
       <r>   12.6965    0.0000 </r>
      </set>
      <set comment="kpoint 9">
       <r>    2.3045    1.0000 </r>
       <r>    4.1999    1.0000 </r>
       <r>    5.9527    0.0000 </r>
       <r>    9.7833    0.0000 </r>
       <r>   10.6613    0.0000 </r>
       <r>   14.5541    0.0000 </r>
      </set>
      <set comment="kpoint 10">
       <r>   -1.1354    1.0000 </r>
       <r>    5.9758    0.0000 </r>
       <r>    6.2051    0.0000 </r>
       <r>    7.3891    0.0000 </r>
       <r>    8.6445    0.0000 </r>
       <r>   10.0142    0.0000 </r>
      </set>
      <set comment="kpoint 11">
       <r>    2.9462    1.0000 </r>
       <r>    4.3056    1.0000 </r>
       <r>    5.0273    1.0000 </r>
       <r>    9.8407    0.0000 </r>
       <r>   10.5481    0.0000 </r>
       <r>   14.9822    0.0000 </r>
      </set>
      <set comment="kpoint 12">
       <r>    3.1298    1.0000 </r>
       <r>    4.3959    1.0000 </r>
       <r>    5.2685    1.0000 </r>
       <r>   10.0835    0.0000 </r>
       <r>   10.5986    0.0000 </r>
       <r>   14.3948    0.0000 </r>
      </set>
      <set comment="kpoint 13">
       <r>    0.1859    1.0000 </r>
       <r>    5.2861    1.0000 </r>
       <r>    5.6272    1.0303 </r>
       <r>    8.6668    0.0000 </r>
       <r>    8.9961    0.0000 </r>
       <r>   10.2151    0.0000 </r>
      </set>
      <set comment="kpoint 14">
       <r>   -0.0535    1.0000 </r>
       <r>    5.6509    0.9136 </r>
       <r>    5.7128    0.0578 </r>
       <r>    8.0870    0.0000 </r>
       <r>    8.4968    0.0000 </r>
       <r>   10.4151    0.0000 </r>
      </set>
      <set comment="kpoint 15">
       <r>    1.2244    1.0000 </r>
       <r>    4.6937    1.0000 </r>
       <r>    5.7063    0.1181 </r>
       <r>    9.1999    0.0000 </r>
       <r>   10.4407    0.0000 </r>
       <r>   11.1393    0.0000 </r>
      </set>
      <set comment="kpoint 16">
       <r>    1.2508    1.0000 </r>
       <r>    4.9404    1.0000 </r>
       <r>    5.3707    1.0000 </r>
       <r>    8.3958    0.0000 </r>
       <r>   10.3390    0.0000 </r>
       <r>   10.7175    0.0000 </r>
      </set>
      <set comment="kpoint 17">
       <r>    1.4687    1.0000 </r>
       <r>    4.3599    1.0000 </r>
       <r>    6.7064    0.0000 </r>
       <r>    9.3666    0.0000 </r>
       <r>   10.8105    0.0000 </r>
       <r>   13.0794    0.0000 </r>
      </set>
      <set comment="kpoint 18">
       <r>    1.9083    1.0000 </r>
       <r>    4.6397    1.0000 </r>
       <r>    5.6121    1.0330 </r>
       <r>    8.9330    0.0000 </r>
       <r>   10.7554    0.0000 </r>
       <r>   12.7219    0.0000 </r>
      </set>
      <set comment="kpoint 19">
       <r>    2.3746    1.0000 </r>
       <r>    4.3366    1.0000 </r>
       <r>    5.3752    1.0000 </r>
       <r>    8.7071    0.0000 </r>
       <r>   10.4561    0.0000 </r>
       <r>   12.7882    0.0000 </r>
      </set>
      <set comment="kpoint 20">
       <r>    1.9650    1.0000 </r>
       <r>    4.5349    1.0000 </r>
       <r>    6.1017    0.0000 </r>
       <r>    8.8845    0.0000 </r>
       <r>   11.2574    0.0000 </r>
       <r>   13.9648    0.0000 </r>
      </set>
      <set comment="kpoint 21">
       <r>    2.8478    1.0000 </r>
       <r>    4.3960    1.0000 </r>
       <r>    5.2357    1.0000 </r>
       <r>    9.1733    0.0000 </r>
       <r>   10.6739    0.0000 </r>
       <r>   15.0806    0.0000 </r>
      </set>
      <set comment="kpoint 22">
       <r>    3.5084    1.0000 </r>
       <r>    4.4898    1.0000 </r>
       <r>    4.4898    1.0000 </r>
       <r>   10.1278    0.0000 </r>
       <r>   10.1278    0.0000 </r>
       <r>   14.6876    0.0000 </r>
      </set>
      <set comment="kpoint 23">
       <r>    2.2427    1.0000 </r>
       <r>    4.4061    1.0000 </r>
       <r>    4.4061    1.0000 </r>
       <r>   10.0742    0.0000 </r>
       <r>   10.0742    0.0000 </r>
       <r>   12.8005    0.0000 </r>
      </set>
      <set comment="kpoint 24">
       <r>    3.1521    1.0000 </r>
       <r>    4.1540    1.0000 </r>
       <r>    4.7973    1.0000 </r>
       <r>   10.2468    0.0000 </r>
       <r>   10.5731    0.0000 </r>
       <r>   14.9932    0.0000 </r>
      </set>
      <set comment="kpoint 25">
       <r>    3.1671    1.0000 </r>
       <r>    4.0817    1.0000 </r>
       <r>    5.6171    1.0353 </r>
       <r>   10.3056    0.0000 </r>
       <r>   10.7257    0.0000 </r>
       <r>   14.3836    0.0000 </r>
      </set>
      <set comment="kpoint 26">
       <r>   -0.3584    1.0000 </r>
       <r>    6.3954    0.0000 </r>
       <r>    6.3954    0.0000 </r>
       <r>    7.1878    0.0000 </r>
       <r>    7.4032    0.0000 </r>
       <r>   10.6148    0.0000 </r>
      </set>
      <set comment="kpoint 27">
       <r>    3.7574    1.0000 </r>
       <r>    4.4269    1.0000 </r>
       <r>    4.8464    1.0000 </r>
       <r>   10.5590    0.0000 </r>
       <r>   10.7066    0.0000 </r>
       <r>   13.6694    0.0000 </r>
      </set>
      <set comment="kpoint 28">
       <r>    0.9042    1.0000 </r>
       <r>    5.5316    1.0001 </r>
       <r>    6.0327    0.0000 </r>
       <r>    7.2566    0.0000 </r>
       <r>    8.7458    0.0000 </r>
       <r>   10.8226    0.0000 </r>
      </set>
      <set comment="kpoint 29">
       <r>    1.9486    1.0000 </r>
       <r>    4.9020    1.0000 </r>
       <r>    5.5145    1.0000 </r>
       <r>    8.0636    0.0000 </r>
       <r>   10.8727    0.0000 </r>
       <r>   10.9121    0.0000 </r>
      </set>
      <set comment="kpoint 30">
       <r>    2.0733    1.0000 </r>
       <r>    4.5861    1.0000 </r>
       <r>    6.1606    0.0000 </r>
       <r>    7.5385    0.0000 </r>
       <r>   10.0016    0.0000 </r>
       <r>   10.9711    0.0000 </r>
      </set>
      <set comment="kpoint 31">
       <r>    2.1734    1.0000 </r>
       <r>    5.2184    1.0000 </r>
       <r>    5.2738    1.0000 </r>
       <r>    8.0287    0.0000 </r>
       <r>   12.0103    0.0000 </r>
       <r>   12.8759    0.0000 </r>
      </set>
      <set comment="kpoint 32">
       <r>    2.7806    1.0000 </r>
       <r>    4.1984    1.0000 </r>
       <r>    5.7588   -0.0243 </r>
       <r>    8.1731    0.0000 </r>
       <r>   10.7467    0.0000 </r>
       <r>   12.9296    0.0000 </r>
      </set>
      <set comment="kpoint 33">
       <r>    2.7938    1.0000 </r>
       <r>    4.5829    1.0000 </r>
       <r>    5.3164    1.0000 </r>
       <r>    8.1728    0.0000 </r>
       <r>   11.7859    0.0000 </r>
       <r>   14.5965    0.0000 </r>
      </set>
      <set comment="kpoint 34">
       <r>    3.6620    1.0000 </r>
       <r>    3.7246    1.0000 </r>
       <r>    4.9850    1.0000 </r>
       <r>    9.4397    0.0000 </r>
       <r>   10.6060    0.0000 </r>
       <r>   15.3871    0.0000 </r>
      </set>
      <set comment="kpoint 35">
       <r>    4.5026    1.0000 </r>
       <r>    4.5026    1.0000 </r>
       <r>    4.5026    1.0000 </r>
       <r>   10.8228    0.0000 </r>
       <r>   10.8228    0.0000 </r>
       <r>   12.7519    0.0000 </r>
      </set>
      <set comment="kpoint 36">
       <r>    1.9800    1.0000 </r>
       <r>    4.7996    1.0000 </r>
       <r>    6.9758    0.0000 </r>
       <r>    6.9758    0.0000 </r>
       <r>    8.9058    0.0000 </r>
       <r>   10.6953    0.0000 </r>
      </set>
      <set comment="kpoint 37">
       <r>    2.8036    1.0000 </r>
       <r>    3.8690    1.0000 </r>
       <r>    7.0400    0.0000 </r>
       <r>    7.6240    0.0000 </r>
       <r>   10.5684    0.0000 </r>
       <r>   10.8484    0.0000 </r>
      </set>
      <set comment="kpoint 38">
       <r>    2.8403    1.0000 </r>
       <r>    3.7866    1.0000 </r>
       <r>    6.8668    0.0000 </r>
       <r>    7.5046    0.0000 </r>
       <r>   12.5569    0.0000 </r>
       <r>   12.8454    0.0000 </r>
      </set>
      <set comment="kpoint 39">
       <r>    3.1323    1.0000 </r>
       <r>    3.1935    1.0000 </r>
       <r>    6.8748    0.0000 </r>
       <r>    8.8567    0.0000 </r>
       <r>   10.8302    0.0000 </r>
       <r>   12.9431    0.0000 </r>
      </set>
      <set comment="kpoint 40">
       <r>    2.9221    1.0000 </r>
       <r>    3.2511    1.0000 </r>
       <r>    6.6041    0.0000 </r>
       <r>    9.3694    0.0000 </r>
       <r>   11.6806    0.0000 </r>
       <r>   15.2830    0.0000 </r>
      </set>
      <set comment="kpoint 41">
       <r>    2.9169    1.0000 </r>
       <r>    3.0055    1.0000 </r>
       <r>    8.6344    0.0000 </r>
       <r>    8.6344    0.0000 </r>
       <r>   10.7843    0.0000 </r>
       <r>   10.9626    0.0000 </r>
      </set>
      <set comment="kpoint 42">
       <r>    2.5267    1.0000 </r>
       <r>    2.6920    1.0000 </r>
       <r>    9.0927    0.0000 </r>
       <r>    9.0975    0.0000 </r>
       <r>   12.2678    0.0000 </r>
       <r>   13.0812    0.0000 </r>
      </set>
      <set comment="kpoint 43">
       <r>    2.3726    1.0000 </r>
       <r>    2.3726    1.0000 </r>
       <r>    9.0205    0.0000 </r>
       <r>   11.4447    0.0000 </r>
       <r>   11.4447    0.0000 </r>
       <r>   15.5881    0.0000 </r>
      </set>
      <set comment="kpoint 44">
       <r>    2.0694    1.0000 </r>
       <r>    2.1170    1.0000 </r>
       <r>   11.3477    0.0000 </r>
       <r>   11.3477    0.0000 </r>
       <r>   12.2547    0.0000 </r>
       <r>   13.5612    0.0000 </r>
      </set>
     </set>
     <set comment="spin 2">
      <set comment="kpoint 1">
       <r>   -1.5527    1.0000 </r>
       <r>    6.0890    0.0000 </r>
       <r>    6.0890    0.0000 </r>
       <r>    7.2054    0.0000 </r>
       <r>    9.4502    0.0000 </r>
       <r>    9.4502    0.0000 </r>
      </set>
      <set comment="kpoint 2">
       <r>   -0.4305    1.0000 </r>
       <r>    5.4161    1.0000 </r>
       <r>    5.6047    1.0271 </r>
       <r>    8.5581    0.0000 </r>
       <r>    9.1375    0.0000 </r>
       <r>    9.7173    0.0000 </r>
      </set>
      <set comment="kpoint 3">
       <r>    0.8964    1.0000 </r>
       <r>    4.7597    1.0000 </r>
       <r>    5.2999    1.0000 </r>
       <r>    9.3637    0.0000 </r>
       <r>   10.0677    0.0000 </r>
       <r>   10.5392    0.0000 </r>
      </set>
      <set comment="kpoint 4">
       <r>    1.5254    1.0000 </r>
       <r>    4.3069    1.0000 </r>
       <r>    6.1038    0.0000 </r>
       <r>    9.6810    0.0000 </r>
       <r>   10.4170    0.0000 </r>
       <r>   12.6683    0.0000 </r>
      </set>
      <set comment="kpoint 5">
       <r>    1.5821    1.0000 </r>
       <r>    4.1542    1.0000 </r>
       <r>    6.9779    0.0000 </r>
       <r>    9.6611    0.0000 </r>
       <r>   10.6004    0.0000 </r>
       <r>   13.8201    0.0000 </r>
      </set>
      <set comment="kpoint 6">
       <r>   -1.9684    1.0000 </r>
       <r>    6.4110    0.0000 </r>
       <r>    6.4110    0.0000 </r>
       <r>    6.5289    0.0000 </r>
       <r>    9.3052    0.0000 </r>
       <r>    9.8232    0.0000 </r>
      </set>
      <set comment="kpoint 7">
       <r>    0.8400    1.0000 </r>
       <r>    4.8764    1.0000 </r>
       <r>    4.9491    1.0000 </r>
       <r>    9.2302    0.0000 </r>
       <r>   10.1100    0.0000 </r>
       <r>   10.4616    0.0000 </r>
      </set>
      <set comment="kpoint 8">
       <r>    2.0064    1.0000 </r>
       <r>    4.4009    1.0000 </r>
       <r>    4.9730    1.0000 </r>
       <r>    9.5172    0.0000 </r>
       <r>   10.4523    0.0000 </r>
       <r>   12.6810    0.0000 </r>
      </set>
      <set comment="kpoint 9">
       <r>    2.2876    1.0000 </r>
       <r>    4.1819    1.0000 </r>
       <r>    5.9370    0.0000 </r>
       <r>    9.7697    0.0000 </r>
       <r>   10.6489    0.0000 </r>
       <r>   14.5404    0.0000 </r>
      </set>
      <set comment="kpoint 10">
       <r>   -1.1523    1.0000 </r>
       <r>    5.9572    0.0000 </r>
       <r>    6.1871    0.0000 </r>
       <r>    7.3707    0.0000 </r>
       <r>    8.6327    0.0000 </r>
       <r>   10.0032    0.0000 </r>
      </set>
      <set comment="kpoint 11">
       <r>    2.9286    1.0000 </r>
       <r>    4.2896    1.0000 </r>
       <r>    5.0105    1.0000 </r>
       <r>    9.8272    0.0000 </r>
       <r>   10.5353    0.0000 </r>
       <r>   14.9683    0.0000 </r>
      </set>
      <set comment="kpoint 12">
       <r>    3.1120    1.0000 </r>
       <r>    4.3795    1.0000 </r>
       <r>    5.2529    1.0000 </r>
       <r>   10.0700    0.0000 </r>
       <r>   10.5855    0.0000 </r>
       <r>   14.3748    0.0000 </r>
      </set>
      <set comment="kpoint 13">
       <r>    0.1690    1.0000 </r>
       <r>    5.2675    1.0000 </r>
       <r>    5.6110    1.0323 </r>
       <r>    8.6533    0.0000 </r>
       <r>    8.9784    0.0000 </r>
       <r>   10.2036    0.0000 </r>
      </set>
      <set comment="kpoint 14">
       <r>   -0.0704    1.0000 </r>
       <r>    5.6341    1.0151 </r>
       <r>    5.6945    0.2692 </r>
       <r>    8.0737    0.0000 </r>
       <r>    8.4789    0.0000 </r>
       <r>   10.4037    0.0000 </r>
      </set>
      <set comment="kpoint 15">
       <r>    1.2075    1.0000 </r>
       <r>    4.6751    1.0000 </r>
       <r>    5.6912    0.3184 </r>
       <r>    9.1857    0.0000 </r>
       <r>   10.4287    0.0000 </r>
       <r>   11.1229    0.0000 </r>
      </set>
      <set comment="kpoint 16">
       <r>    1.2340    1.0000 </r>
       <r>    4.9241    1.0000 </r>
       <r>    5.3533    1.0000 </r>
       <r>    8.3813    0.0000 </r>
       <r>   10.3230    0.0000 </r>
       <r>   10.7044    0.0000 </r>
      </set>
      <set comment="kpoint 17">
       <r>    1.4521    1.0000 </r>
       <r>    4.3414    1.0000 </r>
       <r>    6.6916    0.0000 </r>
       <r>    9.3525    0.0000 </r>
       <r>   10.7980    0.0000 </r>
       <r>   13.0650    0.0000 </r>
      </set>
      <set comment="kpoint 18">
       <r>    1.8916    1.0000 </r>
       <r>    4.6219    1.0000 </r>
       <r>    5.5970    1.0202 </r>
       <r>    8.9185    0.0000 </r>
       <r>   10.7420    0.0000 </r>
       <r>   12.7069    0.0000 </r>
      </set>
      <set comment="kpoint 19">
       <r>    2.3577    1.0000 </r>
       <r>    4.3216    1.0000 </r>
       <r>    5.3578    1.0000 </r>
       <r>    8.6921    0.0000 </r>
       <r>   10.4424    0.0000 </r>
       <r>   12.7731    0.0000 </r>
      </set>
      <set comment="kpoint 20">
       <r>    1.9485    1.0000 </r>
       <r>    4.5167    1.0000 </r>
       <r>    6.0874    0.0000 </r>
       <r>    8.8702    0.0000 </r>
       <r>   11.2437    0.0000 </r>
       <r>   13.9510    0.0000 </r>
      </set>
      <set comment="kpoint 21">
       <r>    2.8309    1.0000 </r>
       <r>    4.3800    1.0000 </r>
       <r>    5.2205    1.0000 </r>
       <r>    9.1584    0.0000 </r>
       <r>   10.6594    0.0000 </r>
       <r>   15.0668    0.0000 </r>
      </set>
      <set comment="kpoint 22">
       <r>    3.4900    1.0000 </r>
       <r>    4.4754    1.0000 </r>
       <r>    4.4754    1.0000 </r>
       <r>   10.1130    0.0000 </r>
       <r>   10.1130    0.0000 </r>
       <r>   14.6685    0.0000 </r>
      </set>
      <set comment="kpoint 23">
       <r>    2.2257    1.0000 </r>
       <r>    4.3887    1.0000 </r>
       <r>    4.3887    1.0000 </r>
       <r>   10.0618    0.0000 </r>
       <r>   10.0618    0.0000 </r>
       <r>   12.7848    0.0000 </r>
      </set>
      <set comment="kpoint 24">
       <r>    3.1350    1.0000 </r>
       <r>    4.1363    1.0000 </r>
       <r>    4.7806    1.0000 </r>
       <r>   10.2341    0.0000 </r>
       <r>   10.5611    0.0000 </r>
       <r>   14.9792    0.0000 </r>
      </set>
      <set comment="kpoint 25">
       <r>    3.1501    1.0000 </r>
       <r>    4.0639    1.0000 </r>
       <r>    5.6009    1.0237 </r>
       <r>   10.2927    0.0000 </r>
       <r>   10.7138    0.0000 </r>
       <r>   14.3632    0.0000 </r>
      </set>
      <set comment="kpoint 26">
       <r>   -0.3752    1.0000 </r>
       <r>    6.3770    0.0000 </r>
       <r>    6.3770    0.0000 </r>
       <r>    7.1761    0.0000 </r>
       <r>    7.3848    0.0000 </r>
       <r>   10.6036    0.0000 </r>
      </set>
      <set comment="kpoint 27">
       <r>    3.7398    1.0000 </r>
       <r>    4.4101    1.0000 </r>
       <r>    4.8296    1.0000 </r>
       <r>   10.5466    0.0000 </r>
       <r>   10.6945    0.0000 </r>
       <r>   13.6483    0.0000 </r>
      </set>
      <set comment="kpoint 28">
       <r>    0.8877    1.0000 </r>
       <r>    5.5173    1.0000 </r>
       <r>    6.0143    0.0000 </r>
       <r>    7.2408    0.0000 </r>
       <r>    8.7281    0.0000 </r>
       <r>   10.8104    0.0000 </r>
      </set>
      <set comment="kpoint 29">
       <r>    1.9324    1.0000 </r>
       <r>    4.8883    1.0000 </r>
       <r>    5.4962    1.0000 </r>
       <r>    8.0479    0.0000 </r>
       <r>   10.8562    0.0000 </r>
       <r>   10.8984    0.0000 </r>
      </set>
      <set comment="kpoint 30">
       <r>    2.0572    1.0000 </r>
       <r>    4.5725    1.0000 </r>
       <r>    6.1427    0.0000 </r>
       <r>    7.5218    0.0000 </r>
       <r>    9.9853    0.0000 </r>
       <r>   10.9567    0.0000 </r>
      </set>
      <set comment="kpoint 31">
       <r>    2.1575    1.0000 </r>
       <r>    5.2001    1.0000 </r>
       <r>    5.2602    1.0000 </r>
       <r>    8.0138    0.0000 </r>
       <r>   11.9953    0.0000 </r>
       <r>   12.8613    0.0000 </r>
      </set>
      <set comment="kpoint 32">
       <r>    2.7651    1.0000 </r>
       <r>    4.1848    1.0000 </r>
       <r>    5.7416   -0.0355 </r>
       <r>    8.1569    0.0000 </r>
       <r>   10.7310    0.0000 </r>
       <r>   12.9142    0.0000 </r>
      </set>
      <set comment="kpoint 33">
       <r>    2.7787    1.0000 </r>
       <r>    4.5695    1.0000 </r>
       <r>    5.2989    1.0000 </r>
       <r>    8.1567    0.0000 </r>
       <r>   11.7705    0.0000 </r>
       <r>   14.5817    0.0000 </r>
      </set>
      <set comment="kpoint 34">
       <r>    3.6472    1.0000 </r>
       <r>    3.7112    1.0000 </r>
       <r>    4.9680    1.0000 </r>
       <r>    9.4234    0.0000 </r>
       <r>   10.5900    0.0000 </r>
       <r>   15.3717    0.0000 </r>
      </set>
      <set comment="kpoint 35">
       <r>    4.4855    1.0000 </r>
       <r>    4.4855    1.0000 </r>
       <r>    4.4855    1.0000 </r>
       <r>   10.8109    0.0000 </r>
       <r>   10.8109    0.0000 </r>
       <r>   12.7300    0.0000 </r>
      </set>
      <set comment="kpoint 36">
       <r>    1.9642    1.0000 </r>
       <r>    4.7872    1.0000 </r>
       <r>    6.9578    0.0000 </r>
       <r>    6.9578    0.0000 </r>
       <r>    8.8883    0.0000 </r>
       <r>   10.6813    0.0000 </r>
      </set>
      <set comment="kpoint 37">
       <r>    2.7888    1.0000 </r>
       <r>    3.8563    1.0000 </r>
       <r>    7.0221    0.0000 </r>
       <r>    7.6069    0.0000 </r>
       <r>   10.5519    0.0000 </r>
       <r>   10.8324    0.0000 </r>
      </set>
      <set comment="kpoint 38">
       <r>    2.8265    1.0000 </r>
       <r>    3.7735    1.0000 </r>
       <r>    6.8489    0.0000 </r>
       <r>    7.4878    0.0000 </r>
       <r>   12.5421    0.0000 </r>
       <r>   12.8281    0.0000 </r>
      </set>
      <set comment="kpoint 39">
       <r>    3.1187    1.0000 </r>
       <r>    3.1807    1.0000 </r>
       <r>    6.8571    0.0000 </r>
       <r>    8.8395    0.0000 </r>
       <r>   10.8135    0.0000 </r>
       <r>   12.9269    0.0000 </r>
      </set>
      <set comment="kpoint 40">
       <r>    2.9091    1.0000 </r>
       <r>    3.2382    1.0000 </r>
       <r>    6.5862    0.0000 </r>
       <r>    9.3524    0.0000 </r>
       <r>   11.6647    0.0000 </r>
       <r>   15.2662    0.0000 </r>
      </set>
      <set comment="kpoint 41">
       <r>    2.9035    1.0000 </r>
       <r>    2.9929    1.0000 </r>
       <r>    8.6169    0.0000 </r>
       <r>    8.6169    0.0000 </r>
       <r>   10.7681    0.0000 </r>
       <r>   10.9449    0.0000 </r>
      </set>
      <set comment="kpoint 42">
       <r>    2.5139    1.0000 </r>
       <r>    2.6791    1.0000 </r>
       <r>    9.0753    0.0000 </r>
       <r>    9.0802    0.0000 </r>
       <r>   12.2529    0.0000 </r>
       <r>   13.0626    0.0000 </r>
      </set>
      <set comment="kpoint 43">
       <r>    2.3599    1.0000 </r>
       <r>    2.3599    1.0000 </r>
       <r>    9.0030    0.0000 </r>
       <r>   11.4284    0.0000 </r>
       <r>   11.4285    0.0000 </r>
       <r>   15.5699    0.0000 </r>
      </set>
      <set comment="kpoint 44">
       <r>    2.0567    1.0000 </r>
       <r>    2.1043    1.0000 </r>
       <r>   11.3314    0.0000 </r>
       <r>   11.3314    0.0000 </r>
       <r>   12.2400    0.0000 </r>
       <r>   13.5414    0.0000 </r>
      </set>
     </set>
    </set>
   </array>
  </eigenvalues>
  <separator name="orbital magnetization" >
   <v name="MAGDIPOLOUT">      0.00000000      0.00000000      0.00000000</v>
  </separator>
  <dos>
   <i name="efermi">      5.68021965 </i>
   <total>
    <array>
     <dimension dim="1">gridpoints</dimension>
     <dimension dim="2">spin</dimension>
     <field>energy</field>
     <field>total</field>
     <field>integrated</field>
     <set>
      <set comment="spin 1">
       <r>    -2.8462     0.0000     0.0000 </r>
       <r>    -2.7818     0.0000     0.0000 </r>
       <r>    -2.7174     0.0000     0.0000 </r>
       <r>    -2.6531     0.0000     0.0000 </r>
       <r>    -2.5887     0.0000     0.0000 </r>
       <r>    -2.5243     0.0000     0.0000 </r>
       <r>    -2.4599     0.0000     0.0000 </r>
       <r>    -2.3956     0.0000     0.0000 </r>
       <r>    -2.3312     0.0000     0.0000 </r>
       <r>    -2.2668     0.0000     0.0000 </r>
       <r>    -2.2024     0.0000     0.0000 </r>
       <r>    -2.1381     0.0000     0.0000 </r>
       <r>    -2.0737    -0.0001     0.0000 </r>
       <r>    -2.0093    -0.0031    -0.0002 </r>
       <r>    -1.9449     0.0599     0.0036 </r>
       <r>    -1.8806     0.0395     0.0062 </r>
       <r>    -1.8162    -0.0029     0.0060 </r>
       <r>    -1.7518     0.0000     0.0060 </r>
       <r>    -1.6875     0.0000     0.0060 </r>
       <r>    -1.6231    -0.0020     0.0059 </r>
       <r>    -1.5587     0.0211     0.0072 </r>
       <r>    -1.4943     0.1049     0.0140 </r>
       <r>    -1.4300     0.0011     0.0140 </r>
       <r>    -1.3656    -0.0007     0.0140 </r>
       <r>    -1.3012     0.0000     0.0140 </r>
       <r>    -1.2368    -0.0027     0.0138 </r>
       <r>    -1.1725     0.0125     0.0146 </r>
       <r>    -1.1081     0.3235     0.0355 </r>
       <r>    -1.0437     0.0444     0.0383 </r>
       <r>    -0.9793    -0.0049     0.0380 </r>
       <r>    -0.9150     0.0000     0.0380 </r>
       <r>    -0.8506     0.0000     0.0380 </r>
       <r>    -0.7862     0.0000     0.0380 </r>
       <r>    -0.7218     0.0000     0.0380 </r>
       <r>    -0.6575     0.0000     0.0380 </r>
       <r>    -0.5931     0.0000     0.0380 </r>
       <r>    -0.5287    -0.0010     0.0379 </r>
       <r>    -0.4644    -0.0095     0.0373 </r>
       <r>    -0.4000     0.2794     0.0553 </r>
       <r>    -0.3356     0.1920     0.0677 </r>
       <r>    -0.2712     0.0067     0.0681 </r>
       <r>    -0.2069    -0.0016     0.0680 </r>
       <r>    -0.1425    -0.0057     0.0676 </r>
       <r>    -0.0781     0.0557     0.0712 </r>
       <r>    -0.0137     0.3186     0.0917 </r>
       <r>     0.0506     0.0063     0.0921 </r>
       <r>     0.1150    -0.0137     0.0913 </r>
       <r>     0.1794     0.1572     0.1014 </r>
       <r>     0.2438     0.2401     0.1168 </r>
       <r>     0.3081    -0.0124     0.1160 </r>
       <r>     0.3725    -0.0006     0.1160 </r>
       <r>     0.4369     0.0000     0.1160 </r>
       <r>     0.5012     0.0000     0.1160 </r>
       <r>     0.5656     0.0000     0.1160 </r>
       <r>     0.6300     0.0000     0.1160 </r>
       <r>     0.6944     0.0000     0.1160 </r>
       <r>     0.7587    -0.0034     0.1158 </r>
       <r>     0.8231     0.0079     0.1163 </r>
       <r>     0.8875     0.4719     0.1467 </r>
       <r>     0.9519     0.6467     0.1883 </r>
       <r>     1.0162    -0.0008     0.1882 </r>
       <r>     1.0806    -0.0038     0.1880 </r>
       <r>     1.1450    -0.0128     0.1872 </r>
       <r>     1.2094     0.1113     0.1943 </r>
       <r>     1.2737     0.9144     0.2532 </r>
       <r>     1.3381     0.1189     0.2609 </r>
       <r>     1.4025    -0.0260     0.2592 </r>
       <r>     1.4669     0.1771     0.2706 </r>
       <r>     1.5312     0.3341     0.2921 </r>
       <r>     1.5956     0.3419     0.3141 </r>
       <r>     1.6600     0.0991     0.3205 </r>
       <r>     1.7243    -0.0072     0.3200 </r>
       <r>     1.7887    -0.0016     0.3199 </r>
       <r>     1.8531    -0.0284     0.3181 </r>
       <r>     1.9175     0.5278     0.3521 </r>
       <r>     1.9818     0.9530     0.4134 </r>
       <r>     2.0462     0.8291     0.4668 </r>
       <r>     2.1106     0.5421     0.5017 </r>
       <r>     2.1750     0.2654     0.5188 </r>
       <r>     2.2393     0.2164     0.5327 </r>
       <r>     2.3037     0.4305     0.5604 </r>
       <r>     2.3681     0.6750     0.6039 </r>
       <r>     2.4325     0.3621     0.6272 </r>
       <r>     2.4968     0.0131     0.6280 </r>
       <r>     2.5612     0.3252     0.6489 </r>
       <r>     2.6256     0.0069     0.6494 </r>
       <r>     2.6900     0.1690     0.6603 </r>
       <r>     2.7543     0.2936     0.6792 </r>
       <r>     2.8187     1.3770     0.7678 </r>
       <r>     2.8831     1.1413     0.8413 </r>
       <r>     2.9474     0.6219     0.8813 </r>
       <r>     3.0118     0.3025     0.9008 </r>
       <r>     3.0762    -0.0154     0.8998 </r>
       <r>     3.1406     0.6493     0.9416 </r>
       <r>     3.2049     0.9694     1.0040 </r>
       <r>     3.2693     0.3990     1.0297 </r>
       <r>     3.3337     0.0750     1.0345 </r>
       <r>     3.3981    -0.0083     1.0340 </r>
       <r>     3.4624    -0.0014     1.0339 </r>
       <r>     3.5268     0.0998     1.0403 </r>
       <r>     3.5912     0.0171     1.0414 </r>
       <r>     3.6556     0.1402     1.0504 </r>
       <r>     3.7199     0.4083     1.0767 </r>
       <r>     3.7843     0.7171     1.1229 </r>
       <r>     3.8487     0.3227     1.1436 </r>
       <r>     3.9130     0.2884     1.1622 </r>
       <r>     3.9774    -0.0028     1.1620 </r>
       <r>     4.0418    -0.0001     1.1620 </r>
       <r>     4.1062     0.1285     1.1703 </r>
       <r>     4.1705     0.5702     1.2070 </r>
       <r>     4.2349     1.4805     1.3023 </r>
       <r>     4.2993     0.2424     1.3179 </r>
       <r>     4.3637     1.1391     1.3912 </r>
       <r>     4.4280     2.1159     1.5275 </r>
       <r>     4.4924     0.7423     1.5752 </r>
       <r>     4.5568     0.5199     1.6087 </r>
       <r>     4.6212     0.8646     1.6644 </r>
       <r>     4.6855     0.7616     1.7134 </r>
       <r>     4.7499     0.2654     1.7305 </r>
       <r>     4.8143     0.6862     1.7746 </r>
       <r>     4.8787     0.5942     1.8129 </r>
       <r>     4.9430     1.0882     1.8829 </r>
       <r>     5.0074     1.6594     1.9898 </r>
       <r>     5.0718     0.5289     2.0238 </r>
       <r>     5.1361    -0.0408     2.0212 </r>
       <r>     5.2005     0.0908     2.0270 </r>
       <r>     5.2649     1.3151     2.1117 </r>
       <r>     5.3293     1.4073     2.2023 </r>
       <r>     5.3936     1.1313     2.2751 </r>
       <r>     5.4580     0.4838     2.3063 </r>
       <r>     5.5224     0.4106     2.3327 </r>
       <r>     5.5868     0.5282     2.3667 </r>
       <r>     5.6511     1.5965     2.4695 </r>
       <r>     5.7155     0.7914     2.5204 </r>
       <r>     5.7799     0.9110     2.5791 </r>
       <r>     5.8443     0.1183     2.5867 </r>
       <r>     5.9086    -0.0292     2.5848 </r>
       <r>     5.9730     0.7810     2.6351 </r>
       <r>     6.0374     0.5703     2.6718 </r>
       <r>     6.1017     0.5253     2.7056 </r>
       <r>     6.1661     0.8830     2.7624 </r>
       <r>     6.2305     0.4573     2.7919 </r>
       <r>     6.2949     0.0372     2.7943 </r>
       <r>     6.3592    -0.0039     2.7940 </r>
       <r>     6.4236     0.2423     2.8096 </r>
       <r>     6.4880     0.1349     2.8183 </r>
       <r>     6.5524     0.0391     2.8208 </r>
       <r>     6.6167     0.3102     2.8408 </r>
       <r>     6.6811     0.1690     2.8517 </r>
       <r>     6.7455     0.3096     2.8716 </r>
       <r>     6.8099    -0.0170     2.8705 </r>
       <r>     6.8742     0.4370     2.8986 </r>
       <r>     6.9386     0.3525     2.9213 </r>
       <r>     7.0030     0.2793     2.9393 </r>
       <r>     7.0674     0.4141     2.9660 </r>
       <r>     7.1317     0.0315     2.9680 </r>
       <r>     7.1961     0.0591     2.9718 </r>
       <r>     7.2605     0.3680     2.9955 </r>
       <r>     7.3248     0.1613     3.0059 </r>
       <r>     7.3892     0.2140     3.0196 </r>
       <r>     7.4536     0.2525     3.0359 </r>
       <r>     7.5180     0.3359     3.0575 </r>
       <r>     7.5823     0.4242     3.0848 </r>
       <r>     7.6467     0.3035     3.1044 </r>
       <r>     7.7111     0.0627     3.1084 </r>
       <r>     7.7755    -0.0062     3.1080 </r>
       <r>     7.8398     0.0000     3.1080 </r>
       <r>     7.9042    -0.0005     3.1080 </r>
       <r>     7.9686    -0.0175     3.1068 </r>
       <r>     8.0330     0.2464     3.1227 </r>
       <r>     8.0973     0.7310     3.1698 </r>
       <r>     8.1617     0.5243     3.2035 </r>
       <r>     8.2261     0.7873     3.2542 </r>
       <r>     8.2904    -0.0358     3.2519 </r>
       <r>     8.3548     0.0053     3.2522 </r>
       <r>     8.4192     0.6220     3.2923 </r>
       <r>     8.4836     0.2333     3.3073 </r>
       <r>     8.5479     0.2988     3.3265 </r>
       <r>     8.6123     0.3602     3.3497 </r>
       <r>     8.6767     0.7770     3.3997 </r>
       <r>     8.7411     0.6543     3.4419 </r>
       <r>     8.8054     0.2157     3.4557 </r>
       <r>     8.8698     0.3450     3.4780 </r>
       <r>     8.9342     0.8795     3.5346 </r>
       <r>     8.9986     0.6071     3.5737 </r>
       <r>     9.0629     0.3045     3.5933 </r>
       <r>     9.1273     0.6848     3.6373 </r>
       <r>     9.1917     1.1029     3.7083 </r>
       <r>     9.2561     0.6869     3.7526 </r>
       <r>     9.3204     0.1206     3.7603 </r>
       <r>     9.3848     0.8475     3.8149 </r>
       <r>     9.4492     0.6596     3.8573 </r>
       <r>     9.5135     0.4785     3.8881 </r>
       <r>     9.5779     0.5689     3.9248 </r>
       <r>     9.6423    -0.0159     3.9237 </r>
       <r>     9.7067     0.4792     3.9546 </r>
       <r>     9.7710     0.6771     3.9982 </r>
       <r>     9.8354     0.7516     4.0466 </r>
       <r>     9.8998     0.2544     4.0629 </r>
       <r>     9.9642    -0.0168     4.0618 </r>
       <r>    10.0285     0.5756     4.0989 </r>
       <r>    10.0929     0.9399     4.1594 </r>
       <r>    10.1573     0.8197     4.2122 </r>
       <r>    10.2217     0.3047     4.2318 </r>
       <r>    10.2860     0.4891     4.2633 </r>
       <r>    10.3504     0.6521     4.3052 </r>
       <r>    10.4148     0.5808     4.3426 </r>
       <r>    10.4792     1.8282     4.4603 </r>
       <r>    10.5435     0.9066     4.5187 </r>
       <r>    10.6079     1.9313     4.6430 </r>
       <r>    10.6723     1.3932     4.7327 </r>
       <r>    10.7366     2.1940     4.8739 </r>
       <r>    10.8010     1.6514     4.9802 </r>
       <r>    10.8654     1.3527     5.0673 </r>
       <r>    10.9298     0.6452     5.1088 </r>
       <r>    10.9941     0.4605     5.1385 </r>
       <r>    11.0585     0.0534     5.1419 </r>
       <r>    11.1229     0.0898     5.1477 </r>
       <r>    11.1873     0.2800     5.1657 </r>
       <r>    11.2516     0.1538     5.1756 </r>
       <r>    11.3160     0.2482     5.1916 </r>
       <r>    11.3804     0.1425     5.2008 </r>
       <r>    11.4448     0.1452     5.2101 </r>
       <r>    11.5091     0.1309     5.2186 </r>
       <r>    11.5735    -0.0103     5.2179 </r>
       <r>    11.6379     0.0005     5.2179 </r>
       <r>    11.7022     0.3034     5.2375 </r>
       <r>    11.7666     0.1512     5.2472 </r>
       <r>    11.8310     0.2965     5.2663 </r>
       <r>    11.8954    -0.0038     5.2660 </r>
       <r>    11.9597    -0.0103     5.2654 </r>
       <r>    12.0241     0.2799     5.2834 </r>
       <r>    12.0885     0.1119     5.2906 </r>
       <r>    12.1529    -0.0108     5.2899 </r>
       <r>    12.2172    -0.0059     5.2895 </r>
       <r>    12.2816     0.3606     5.3127 </r>
       <r>    12.3460     0.1235     5.3207 </r>
       <r>    12.4104    -0.0104     5.3200 </r>
       <r>    12.4747    -0.0079     5.3195 </r>
       <r>    12.5391     0.0895     5.3253 </r>
       <r>    12.6035     0.2781     5.3432 </r>
       <r>    12.6679     0.1509     5.3529 </r>
       <r>    12.7322     1.4502     5.4462 </r>
       <r>    12.7966     0.6101     5.4855 </r>
       <r>    12.8610     0.5541     5.5212 </r>
       <r>    12.9253     0.8044     5.5730 </r>
       <r>    12.9897     0.7230     5.6195 </r>
       <r>    13.0541     0.0663     5.6238 </r>
       <r>    13.1185     0.6411     5.6650 </r>
       <r>    13.1828     0.0200     5.6663 </r>
       <r>    13.2472    -0.0050     5.6660 </r>
       <r>    13.3116     0.0000     5.6660 </r>
       <r>    13.3760     0.0000     5.6660 </r>
       <r>    13.4403    -0.0002     5.6660 </r>
       <r>    13.5047    -0.0030     5.6658 </r>
       <r>    13.5691     0.0591     5.6696 </r>
       <r>    13.6335     0.0526     5.6730 </r>
       <r>    13.6978     0.3221     5.6937 </r>
       <r>    13.7622     0.0343     5.6959 </r>
       <r>    13.8266     0.0718     5.7006 </r>
       <r>    13.8909     0.1114     5.7077 </r>
       <r>    13.9553     0.1326     5.7163 </r>
       <r>    14.0197     0.2567     5.7328 </r>
       <r>    14.0841    -0.0114     5.7320 </r>
       <r>    14.1484    -0.0007     5.7320 </r>
       <r>    14.2128     0.0000     5.7320 </r>
       <r>    14.2772    -0.0018     5.7319 </r>
       <r>    14.3416    -0.0095     5.7313 </r>
       <r>    14.4059     0.4229     5.7585 </r>
       <r>    14.4703     0.1460     5.7679 </r>
       <r>    14.5347     0.1352     5.7766 </r>
       <r>    14.5991     0.8209     5.8294 </r>
       <r>    14.6634     0.1971     5.8421 </r>
       <r>    14.7278     0.0904     5.8479 </r>
       <r>    14.7922     0.0016     5.8480 </r>
       <r>    14.8566    -0.0013     5.8480 </r>
       <r>    14.9209    -0.0239     5.8464 </r>
       <r>    14.9853     0.3593     5.8696 </r>
       <r>    15.0497     0.4891     5.9010 </r>
       <r>    15.1140     0.6295     5.9416 </r>
       <r>    15.1784     0.0424     5.9443 </r>
       <r>    15.2428    -0.0015     5.9442 </r>
       <r>    15.3072     0.3089     5.9641 </r>
       <r>    15.3715     0.1596     5.9744 </r>
       <r>    15.4359     0.2823     5.9925 </r>
       <r>    15.5003    -0.0092     5.9919 </r>
       <r>    15.5647     0.0192     5.9932 </r>
       <r>    15.6290     0.1053     6.0000 </r>
       <r>    15.6934     0.0013     6.0000 </r>
       <r>    15.7578    -0.0007     6.0000 </r>
       <r>    15.8222     0.0000     6.0000 </r>
       <r>    15.8865     0.0000     6.0000 </r>
       <r>    15.9509     0.0000     6.0000 </r>
       <r>    16.0153     0.0000     6.0000 </r>
       <r>    16.0796     0.0000     6.0000 </r>
       <r>    16.1440     0.0000     6.0000 </r>
       <r>    16.2084     0.0000     6.0000 </r>
       <r>    16.2728     0.0000     6.0000 </r>
       <r>    16.3371     0.0000     6.0000 </r>
       <r>    16.4015     0.0000     6.0000 </r>
       <r>    16.4659     0.0000     6.0000 </r>
      </set>
      <set comment="spin 2">
       <r>    -2.8462     0.0000     0.0000 </r>
       <r>    -2.7818     0.0000     0.0000 </r>
       <r>    -2.7174     0.0000     0.0000 </r>
       <r>    -2.6531     0.0000     0.0000 </r>
       <r>    -2.5887     0.0000     0.0000 </r>
       <r>    -2.5243     0.0000     0.0000 </r>
       <r>    -2.4599     0.0000     0.0000 </r>
       <r>    -2.3956     0.0000     0.0000 </r>
       <r>    -2.3312     0.0000     0.0000 </r>
       <r>    -2.2668     0.0000     0.0000 </r>
       <r>    -2.2024     0.0000     0.0000 </r>
       <r>    -2.1381     0.0000     0.0000 </r>
       <r>    -2.0737    -0.0005     0.0000 </r>
       <r>    -2.0093     0.0010     0.0000 </r>
       <r>    -1.9449     0.0789     0.0051 </r>
       <r>    -1.8806     0.0153     0.0061 </r>
       <r>    -1.8162    -0.0015     0.0060 </r>
       <r>    -1.7518     0.0000     0.0060 </r>
       <r>    -1.6875    -0.0001     0.0060 </r>
       <r>    -1.6231    -0.0039     0.0057 </r>
       <r>    -1.5587     0.0536     0.0092 </r>
       <r>    -1.4943     0.0789     0.0143 </r>
       <r>    -1.4300    -0.0042     0.0140 </r>
       <r>    -1.3656    -0.0002     0.0140 </r>
       <r>    -1.3012     0.0000     0.0140 </r>
       <r>    -1.2368    -0.0070     0.0135 </r>
       <r>    -1.1725     0.0770     0.0185 </r>
       <r>    -1.1081     0.3061     0.0382 </r>
       <r>    -1.0437    -0.0016     0.0381 </r>
       <r>    -0.9793    -0.0016     0.0380 </r>
       <r>    -0.9150     0.0000     0.0380 </r>
       <r>    -0.8506     0.0000     0.0380 </r>
       <r>    -0.7862     0.0000     0.0380 </r>
       <r>    -0.7218     0.0000     0.0380 </r>
       <r>    -0.6575     0.0000     0.0380 </r>
       <r>    -0.5931     0.0000     0.0380 </r>
       <r>    -0.5287    -0.0033     0.0378 </r>
       <r>    -0.4644     0.0201     0.0391 </r>
       <r>    -0.4000     0.3405     0.0610 </r>
       <r>    -0.3356     0.1118     0.0682 </r>
       <r>    -0.2712    -0.0024     0.0680 </r>
       <r>    -0.2069    -0.0007     0.0680 </r>
       <r>    -0.1425    -0.0111     0.0673 </r>
       <r>    -0.0781     0.1493     0.0769 </r>
       <r>    -0.0137     0.2474     0.0928 </r>
       <r>     0.0506    -0.0128     0.0920 </r>
       <r>     0.1150    -0.0116     0.0912 </r>
       <r>     0.1794     0.2622     0.1081 </r>
       <r>     0.2438     0.1328     0.1167 </r>
       <r>     0.3081    -0.0103     0.1160 </r>
       <r>     0.3725    -0.0001     0.1160 </r>
       <r>     0.4369     0.0000     0.1160 </r>
       <r>     0.5012     0.0000     0.1160 </r>
       <r>     0.5656     0.0000     0.1160 </r>
       <r>     0.6300     0.0000     0.1160 </r>
       <r>     0.6944    -0.0001     0.1160 </r>
       <r>     0.7587    -0.0085     0.1154 </r>
       <r>     0.8231     0.0710     0.1200 </r>
       <r>     0.8875     0.6337     0.1608 </r>
       <r>     0.9519     0.4490     0.1897 </r>
       <r>     1.0162    -0.0257     0.1881 </r>
       <r>     1.0806    -0.0014     0.1880 </r>
       <r>     1.1450    -0.0241     0.1864 </r>
       <r>     1.2094     0.3225     0.2072 </r>
       <r>     1.2737     0.8247     0.2603 </r>
       <r>     1.3381    -0.0006     0.2602 </r>
       <r>     1.4025    -0.0132     0.2594 </r>
       <r>     1.4669     0.2714     0.2769 </r>
       <r>     1.5312     0.3378     0.2986 </r>
       <r>     1.5956     0.2919     0.3174 </r>
       <r>     1.6600     0.0454     0.3203 </r>
       <r>     1.7243    -0.0048     0.3200 </r>
       <r>     1.7887    -0.0050     0.3197 </r>
       <r>     1.8531     0.0050     0.3200 </r>
       <r>     1.9175     0.7655     0.3693 </r>
       <r>     1.9818     0.8859     0.4263 </r>
       <r>     2.0462     0.8219     0.4792 </r>
       <r>     2.1106     0.3914     0.5044 </r>
       <r>     2.1750     0.3124     0.5245 </r>
       <r>     2.2393     0.1659     0.5352 </r>
       <r>     2.3037     0.5915     0.5733 </r>
       <r>     2.3681     0.6233     0.6134 </r>
       <r>     2.4325     0.2054     0.6266 </r>
       <r>     2.4968     0.0757     0.6315 </r>
       <r>     2.5612     0.2935     0.6504 </r>
       <r>     2.6256    -0.0166     0.6493 </r>
       <r>     2.6900     0.2335     0.6644 </r>
       <r>     2.7543     0.4372     0.6925 </r>
       <r>     2.8187     1.5465     0.7921 </r>
       <r>     2.8831     0.8744     0.8483 </r>
       <r>     2.9474     0.6587     0.8907 </r>
       <r>     3.0118     0.1609     0.9011 </r>
       <r>     3.0762     0.0075     0.9016 </r>
       <r>     3.1406     0.9403     0.9621 </r>
       <r>     3.2049     0.7410     1.0098 </r>
       <r>     3.2693     0.3558     1.0327 </r>
       <r>     3.3337     0.0238     1.0343 </r>
       <r>     3.3981    -0.0056     1.0339 </r>
       <r>     3.4624     0.0144     1.0348 </r>
       <r>     3.5268     0.1073     1.0417 </r>
       <r>     3.5912    -0.0082     1.0412 </r>
       <r>     3.6556     0.2303     1.0560 </r>
       <r>     3.7199     0.4663     1.0861 </r>
       <r>     3.7843     0.6903     1.1305 </r>
       <r>     3.8487     0.2677     1.1477 </r>
       <r>     3.9130     0.2346     1.1628 </r>
       <r>     3.9774    -0.0154     1.1618 </r>
       <r>     4.0418     0.0279     1.1636 </r>
       <r>     4.1062     0.1486     1.1732 </r>
       <r>     4.1705     0.9445     1.2340 </r>
       <r>     4.2349     1.1357     1.3071 </r>
       <r>     4.2993     0.3960     1.3326 </r>
       <r>     4.3637     1.3556     1.4199 </r>
       <r>     4.4280     2.0620     1.5526 </r>
       <r>     4.4924     0.4505     1.5816 </r>
       <r>     4.5568     0.5898     1.6196 </r>
       <r>     4.6212     0.9384     1.6800 </r>
       <r>     4.6855     0.6368     1.7210 </r>
       <r>     4.7499     0.2666     1.7381 </r>
       <r>     4.8143     0.7322     1.7853 </r>
       <r>     4.8787     0.6279     1.8257 </r>
       <r>     4.9430     1.3030     1.9096 </r>
       <r>     5.0074     1.5316     2.0082 </r>
       <r>     5.0718     0.2373     2.0234 </r>
       <r>     5.1361    -0.0507     2.0202 </r>
       <r>     5.2005     0.3160     2.0405 </r>
       <r>     5.2649     1.5126     2.1379 </r>
       <r>     5.3293     1.2942     2.2212 </r>
       <r>     5.3936     1.0531     2.2890 </r>
       <r>     5.4580     0.3275     2.3101 </r>
       <r>     5.5224     0.5081     2.3428 </r>
       <r>     5.5868     0.6722     2.3860 </r>
       <r>     5.6511     1.5517     2.4859 </r>
       <r>     5.7155     0.7937     2.5370 </r>
       <r>     5.7799     0.7592     2.5859 </r>
       <r>     5.8443    -0.0037     2.5857 </r>
       <r>     5.9086     0.0660     2.5899 </r>
       <r>     5.9730     0.9402     2.6504 </r>
       <r>     6.0374     0.4169     2.6773 </r>
       <r>     6.1017     0.6971     2.7221 </r>
       <r>     6.1661     0.7830     2.7725 </r>
       <r>     6.2305     0.3418     2.7945 </r>
       <r>     6.2949    -0.0111     2.7938 </r>
       <r>     6.3592     0.0382     2.7963 </r>
       <r>     6.4236     0.2850     2.8146 </r>
       <r>     6.4880     0.0549     2.8182 </r>
       <r>     6.5524     0.0948     2.8243 </r>
       <r>     6.6167     0.3317     2.8456 </r>
       <r>     6.6811     0.1625     2.8561 </r>
       <r>     6.7455     0.2552     2.8725 </r>
       <r>     6.8099    -0.0087     2.8720 </r>
       <r>     6.8742     0.6090     2.9112 </r>
       <r>     6.9386     0.1833     2.9230 </r>
       <r>     7.0030     0.3799     2.9474 </r>
       <r>     7.0674     0.3274     2.9685 </r>
       <r>     7.1317    -0.0121     2.9677 </r>
       <r>     7.1961     0.1193     2.9754 </r>
       <r>     7.2605     0.4076     3.0016 </r>
       <r>     7.3248     0.0667     3.0059 </r>
       <r>     7.3892     0.3460     3.0282 </r>
       <r>     7.4536     0.1365     3.0370 </r>
       <r>     7.5180     0.4848     3.0682 </r>
       <r>     7.5823     0.3130     3.0883 </r>
       <r>     7.6467     0.3017     3.1078 </r>
       <r>     7.7111     0.0060     3.1081 </r>
       <r>     7.7755    -0.0023     3.1080 </r>
       <r>     7.8398     0.0000     3.1080 </r>
       <r>     7.9042    -0.0016     3.1079 </r>
       <r>     7.9686    -0.0138     3.1070 </r>
       <r>     8.0330     0.4108     3.1335 </r>
       <r>     8.0973     0.6457     3.1750 </r>
       <r>     8.1617     0.7352     3.2223 </r>
       <r>     8.2261     0.4968     3.2543 </r>
       <r>     8.2904    -0.0458     3.2514 </r>
       <r>     8.3548     0.0942     3.2574 </r>
       <r>     8.4192     0.6318     3.2981 </r>
       <r>     8.4836     0.2394     3.3135 </r>
       <r>     8.5479     0.2834     3.3318 </r>
       <r>     8.6123     0.4044     3.3578 </r>
       <r>     8.6767     0.8187     3.4105 </r>
       <r>     8.7411     0.6121     3.4499 </r>
       <r>     8.8054     0.1057     3.4567 </r>
       <r>     8.8698     0.5185     3.4901 </r>
       <r>     8.9342     0.8814     3.5468 </r>
       <r>     8.9986     0.5293     3.5809 </r>
       <r>     9.0629     0.3293     3.6021 </r>
       <r>     9.1273     0.7360     3.6495 </r>
       <r>     9.1917     1.1454     3.7232 </r>
       <r>     9.2561     0.5034     3.7556 </r>
       <r>     9.3204     0.1543     3.7655 </r>
       <r>     9.3848     0.9840     3.8289 </r>
       <r>     9.4492     0.5474     3.8641 </r>
       <r>     9.5135     0.5253     3.8979 </r>
       <r>     9.5779     0.4252     3.9253 </r>
       <r>     9.6423     0.0142     3.9262 </r>
       <r>     9.7067     0.5755     3.9633 </r>
       <r>     9.7710     0.7143     4.0093 </r>
       <r>     9.8354     0.6827     4.0532 </r>
       <r>     9.8998     0.1416     4.0623 </r>
       <r>     9.9642     0.0592     4.0661 </r>
       <r>    10.0285     0.6431     4.1075 </r>
       <r>    10.0929     1.0482     4.1750 </r>
       <r>    10.1573     0.6136     4.2145 </r>
       <r>    10.2217     0.3869     4.2394 </r>
       <r>    10.2860     0.4607     4.2691 </r>
       <r>    10.3504     0.7070     4.3146 </r>
       <r>    10.4148     0.7024     4.3598 </r>
       <r>    10.4792     1.8191     4.4769 </r>
       <r>    10.5435     1.0392     4.5438 </r>
       <r>    10.6079     1.8226     4.6611 </r>
       <r>    10.6723     1.5089     4.7583 </r>
       <r>    10.7366     2.2876     4.9055 </r>
       <r>    10.8010     1.4410     4.9983 </r>
       <r>    10.8654     1.2965     5.0817 </r>
       <r>    10.9298     0.5257     5.1156 </r>
       <r>    10.9941     0.4072     5.1418 </r>
       <r>    11.0585    -0.0070     5.1414 </r>
       <r>    11.1229     0.1960     5.1540 </r>
       <r>    11.1873     0.1873     5.1660 </r>
       <r>    11.2516     0.2316     5.1809 </r>
       <r>    11.3160     0.1983     5.1937 </r>
       <r>    11.3804     0.1283     5.2020 </r>
       <r>    11.4448     0.1903     5.2142 </r>
       <r>    11.5091     0.0646     5.2184 </r>
       <r>    11.5735    -0.0106     5.2177 </r>
       <r>    11.6379     0.0462     5.2207 </r>
       <r>    11.7022     0.3107     5.2406 </r>
       <r>    11.7666     0.1858     5.2526 </r>
       <r>    11.8310     0.2213     5.2669 </r>
       <r>    11.8954    -0.0158     5.2658 </r>
       <r>    11.9597     0.0162     5.2669 </r>
       <r>    12.0241     0.3254     5.2878 </r>
       <r>    12.0885     0.0383     5.2903 </r>
       <r>    12.1529    -0.0090     5.2897 </r>
       <r>    12.2172     0.0323     5.2918 </r>
       <r>    12.2816     0.4038     5.3178 </r>
       <r>    12.3460     0.0396     5.3203 </r>
       <r>    12.4104    -0.0053     5.3200 </r>
       <r>    12.4747    -0.0123     5.3192 </r>
       <r>    12.5391     0.1795     5.3307 </r>
       <r>    12.6035     0.1824     5.3425 </r>
       <r>    12.6679     0.4286     5.3701 </r>
       <r>    12.7322     1.4095     5.4608 </r>
       <r>    12.7966     0.5092     5.4936 </r>
       <r>    12.8610     0.5785     5.5308 </r>
       <r>    12.9253     0.9383     5.5912 </r>
       <r>    12.9897     0.4284     5.6188 </r>
       <r>    13.0541     0.2412     5.6343 </r>
       <r>    13.1185     0.5159     5.6675 </r>
       <r>    13.1828    -0.0225     5.6661 </r>
       <r>    13.2472    -0.0014     5.6660 </r>
       <r>    13.3116     0.0000     5.6660 </r>
       <r>    13.3760     0.0000     5.6660 </r>
       <r>    13.4403    -0.0007     5.6660 </r>
       <r>    13.5047     0.0033     5.6662 </r>
       <r>    13.5691     0.0722     5.6708 </r>
       <r>    13.6335     0.1169     5.6783 </r>
       <r>    13.6978     0.2831     5.6966 </r>
       <r>    13.7622    -0.0141     5.6957 </r>
       <r>    13.8266     0.1185     5.7033 </r>
       <r>    13.8909     0.0659     5.7075 </r>
       <r>    13.9553     0.2209     5.7217 </r>
       <r>    14.0197     0.1715     5.7328 </r>
       <r>    14.0841    -0.0120     5.7320 </r>
       <r>    14.1484    -0.0002     5.7320 </r>
       <r>    14.2128     0.0000     5.7320 </r>
       <r>    14.2772    -0.0067     5.7316 </r>
       <r>    14.3416     0.0579     5.7353 </r>
       <r>    14.4059     0.4820     5.7663 </r>
       <r>    14.4703     0.0059     5.7667 </r>
       <r>    14.5347     0.3148     5.7870 </r>
       <r>    14.5991     0.7621     5.8360 </r>
       <r>    14.6634     0.1222     5.8439 </r>
       <r>    14.7278     0.0682     5.8483 </r>
       <r>    14.7922    -0.0043     5.8480 </r>
       <r>    14.8566    -0.0020     5.8479 </r>
       <r>    14.9209    -0.0182     5.8467 </r>
       <r>    14.9853     0.5161     5.8799 </r>
       <r>    15.0497     0.4392     5.9082 </r>
       <r>    15.1140     0.5700     5.9449 </r>
       <r>    15.1784    -0.0173     5.9438 </r>
       <r>    15.2428     0.0584     5.9475 </r>
       <r>    15.3072     0.3030     5.9670 </r>
       <r>    15.3715     0.2024     5.9801 </r>
       <r>    15.4359     0.1982     5.9928 </r>
       <r>    15.5003    -0.0166     5.9918 </r>
       <r>    15.5647     0.0548     5.9953 </r>
       <r>    15.6290     0.0775     6.0003 </r>
       <r>    15.6934    -0.0042     6.0000 </r>
       <r>    15.7578    -0.0002     6.0000 </r>
       <r>    15.8222     0.0000     6.0000 </r>
       <r>    15.8865     0.0000     6.0000 </r>
       <r>    15.9509     0.0000     6.0000 </r>
       <r>    16.0153     0.0000     6.0000 </r>
       <r>    16.0796     0.0000     6.0000 </r>
       <r>    16.1440     0.0000     6.0000 </r>
       <r>    16.2084     0.0000     6.0000 </r>
       <r>    16.2728     0.0000     6.0000 </r>
       <r>    16.3371     0.0000     6.0000 </r>
       <r>    16.4015     0.0000     6.0000 </r>
       <r>    16.4659     0.0000     6.0000 </r>
      </set>
     </set>
    </array>
   </total>
   <partial>
    <array>
     <dimension dim="1">gridpoints</dimension>
     <dimension dim="2">spin</dimension>
     <dimension dim="3">ion</dimension>
     <field>energy</field>
     <field>  s</field>
     <field> py</field>
     <field> pz</field>
     <field> px</field>
     <field>dxy</field>
     <field>dyz</field>
     <field>dz2</field>
     <field>dxz</field>
     <field>dx2</field>
     <set>
      <set comment="ion 1">
       <set comment="spin 1">
        <r>    -2.8462     0.0000     0.0000     0.0000     0.0000     0.0000     0.0000     0.0000     0.0000     0.0000 </r>
        <r>    -2.7818     0.0000     0.0000     0.0000     0.0000     0.0000     0.0000     0.0000     0.0000     0.0000 </r>
        <r>    -2.7174     0.0000     0.0000     0.0000     0.0000     0.0000     0.0000     0.0000     0.0000     0.0000 </r>
        <r>    -2.6531     0.0000     0.0000     0.0000     0.0000     0.0000     0.0000     0.0000     0.0000     0.0000 </r>
        <r>    -2.5887     0.0000     0.0000     0.0000     0.0000     0.0000     0.0000     0.0000     0.0000     0.0000 </r>
        <r>    -2.5243     0.0000     0.0000     0.0000     0.0000     0.0000     0.0000     0.0000     0.0000     0.0000 </r>
        <r>    -2.4599     0.0000     0.0000     0.0000     0.0000     0.0000     0.0000     0.0000     0.0000     0.0000 </r>
        <r>    -2.3956     0.0000     0.0000     0.0000     0.0000     0.0000     0.0000     0.0000     0.0000     0.0000 </r>
        <r>    -2.3312     0.0000     0.0000     0.0000     0.0000     0.0000     0.0000     0.0000     0.0000     0.0000 </r>
        <r>    -2.2668     0.0000     0.0000     0.0000     0.0000     0.0000     0.0000     0.0000     0.0000     0.0000 </r>
        <r>    -2.2024     0.0000     0.0000     0.0000     0.0000     0.0000     0.0000     0.0000     0.0000     0.0000 </r>
        <r>    -2.1381     0.0000     0.0000     0.0000     0.0000     0.0000     0.0000     0.0000     0.0000     0.0000 </r>
        <r>    -2.0737    -0.0001     0.0000     0.0000     0.0000     0.0000     0.0000     0.0000     0.0000     0.0000 </r>
        <r>    -2.0093    -0.0026     0.0000     0.0000     0.0000     0.0000     0.0000     0.0000     0.0000     0.0000 </r>
        <r>    -1.9449     0.0507     0.0002     0.0005     0.0003     0.0000     0.0000     0.0000     0.0000     0.0000 </r>
        <r>    -1.8806     0.0334     0.0001     0.0003     0.0002     0.0000     0.0000     0.0000     0.0000     0.0000 </r>
        <r>    -1.8162    -0.0024     0.0000     0.0000     0.0000     0.0000     0.0000     0.0000     0.0000     0.0000 </r>
        <r>    -1.7518     0.0000     0.0000     0.0000     0.0000     0.0000     0.0000     0.0000     0.0000     0.0000 </r>
        <r>    -1.6875     0.0000     0.0000     0.0000     0.0000     0.0000     0.0000     0.0000     0.0000     0.0000 </r>
        <r>    -1.6231    -0.0017     0.0000    -0.0001     0.0000     0.0000     0.0000     0.0000     0.0000     0.0000 </r>
        <r>    -1.5587     0.0173     0.0002     0.0007     0.0001     0.0000     0.0000     0.0000     0.0000     0.0000 </r>
        <r>    -1.4943     0.0860     0.0011     0.0033     0.0006     0.0000     0.0002     0.0001     0.0001     0.0000 </r>
        <r>    -1.4300     0.0009     0.0000     0.0000     0.0000     0.0000     0.0000     0.0000     0.0000     0.0000 </r>
[...]
       <set comment="band 1">
        <r>  0.5721 </r>
       </set>
       <set comment="band 2">
        <r>  0.0000 </r>
       </set>
       <set comment="band 3">
        <r>  0.0365 </r>
       </set>
       <set comment="band 4">
        <r>  0.0041 </r>
       </set>
       <set comment="band 5">
        <r>  0.0000 </r>
       </set>
       <set comment="band 6">
        <r>  0.0015 </r>
       </set>
      </set>
      <set comment="kpoint 4">
       <set comment="band 1">
        <r>  0.3563 </r>
       </set>
       <set comment="band 2">
        <r>  0.0000 </r>
       </set>
       <set comment="band 3">
        <r>  0.0696 </r>
       </set>
       <set comment="band 4">
        <r>  0.0237 </r>
       </set>
       <set comment="band 5">
        <r>  0.0000 </r>
       </set>
       <set comment="band 6">
        <r>  0.0001 </r>
       </set>
      </set>
      <set comment="kpoint 5">
       <set comment="band 1">
        <r>  0.2819 </r>
       </set>
       <set comment="band 2">
        <r>  0.0000 </r>
       </set>
       <set comment="band 3">
        <r>  0.0000 </r>
       </set>
       <set comment="band 4">
        <r>  0.0739 </r>
       </set>
       <set comment="band 5">
        <r>  0.0000 </r>
       </set>
       <set comment="band 6">
        <r>  0.0000 </r>
       </set>
      </set>
      <set comment="kpoint 6">
       <set comment="band 1">
        <r>  0.8475 </r>
       </set>
       <set comment="band 2">
        <r>  0.0000 </r>
       </set>
       <set comment="band 3">
        <r>  0.0000 </r>
       </set>
       <set comment="band 4">
        <r>  0.0000 </r>
       </set>
       <set comment="band 5">
        <r>  0.0000 </r>
       </set>
       <set comment="band 6">
        <r>  0.0002 </r>
       </set>
      </set>
      <set comment="kpoint 7">
       <set comment="band 1">
        <r>  0.6274 </r>
       </set>
       <set comment="band 2">
        <r>  0.0000 </r>
       </set>
       <set comment="band 3">
        <r>  0.0055 </r>
       </set>
       <set comment="band 4">
        <r>  0.0000 </r>
       </set>
       <set comment="band 5">
        <r>  0.0042 </r>
       </set>
       <set comment="band 6">
        <r>  0.0040 </r>
       </set>
      </set>
      <set comment="kpoint 8">
       <set comment="band 1">
        <r>  0.4243 </r>
       </set>
       <set comment="band 2">
        <r>  0.0002 </r>
       </set>
       <set comment="band 3">
        <r>  0.0466 </r>
       </set>
       <set comment="band 4">
        <r>  0.0027 </r>
       </set>
       <set comment="band 5">
        <r>  0.0143 </r>
       </set>
       <set comment="band 6">
        <r>  0.0026 </r>
       </set>
      </set>
      <set comment="kpoint 9">
       <set comment="band 1">
        <r>  0.2523 </r>
       </set>
       <set comment="band 2">
        <r>  0.0000 </r>
       </set>
       <set comment="band 3">
        <r>  0.0255 </r>
       </set>
       <set comment="band 4">
        <r>  0.0411 </r>
       </set>
       <set comment="band 5">
        <r>  0.0093 </r>
       </set>
       <set comment="band 6">
        <r>  0.0001 </r>
       </set>
      </set>
      <set comment="kpoint 10">
       <set comment="band 1">
        <r>  0.7926 </r>
       </set>
       <set comment="band 2">
        <r>  0.0000 </r>
       </set>
       <set comment="band 3">
        <r>  0.0014 </r>
       </set>
       <set comment="band 4">
        <r>  0.0000 </r>
       </set>
       <set comment="band 5">
        <r>  0.0000 </r>
       </set>
       <set comment="band 6">
        <r>  0.0019 </r>
       </set>
      </set>
      <set comment="kpoint 11">
       <set comment="band 1">
        <r>  0.2419 </r>
       </set>
       <set comment="band 2">
        <r>  0.0000 </r>
       </set>
       <set comment="band 3">
        <r>  0.0423 </r>
       </set>
       <set comment="band 4">
        <r>  0.0000 </r>
       </set>
       <set comment="band 5">
        <r>  0.0418 </r>
       </set>
       <set comment="band 6">
        <r>  0.0006 </r>
       </set>
      </set>
      <set comment="kpoint 12">
       <set comment="band 1">
        <r>  0.1632 </r>
       </set>
       <set comment="band 2">
        <r>  0.0008 </r>
       </set>
       <set comment="band 3">
        <r>  0.0000 </r>
       </set>
       <set comment="band 4">
        <r>  0.0246 </r>
       </set>
       <set comment="band 5">
        <r>  0.0000 </r>
       </set>
       <set comment="band 6">
        <r>  0.6848 </r>
       </set>
      </set>
      <set comment="kpoint 13">
       <set comment="band 1">
        <r>  0.6693 </r>
       </set>
       <set comment="band 2">
        <r>  0.0000 </r>
       </set>
       <set comment="band 3">
        <r>  0.0168 </r>
       </set>
       <set comment="band 4">
        <r>  0.0000 </r>
       </set>
       <set comment="band 5">
        <r>  0.0000 </r>
       </set>
       <set comment="band 6">
        <r>  0.0075 </r>
       </set>
      </set>
      <set comment="kpoint 14">
       <set comment="band 1">
        <r>  0.7050 </r>
       </set>
       <set comment="band 2">
        <r>  0.0000 </r>
       </set>
       <set comment="band 3">
        <r>  0.0033 </r>
       </set>
       <set comment="band 4">
        <r>  0.0000 </r>
       </set>
       <set comment="band 5">
        <r>  0.0014 </r>
       </set>
       <set comment="band 6">
        <r>  0.0123 </r>
       </set>
      </set>
      <set comment="kpoint 15">
       <set comment="band 1">
        <r>  0.4569 </r>
       </set>
       <set comment="band 2">
        <r>  0.0000 </r>
       </set>
       <set comment="band 3">
        <r>  0.0667 </r>
       </set>
       <set comment="band 4">
        <r>  0.0030 </r>
       </set>
       <set comment="band 5">
        <r>  0.0204 </r>
       </set>
       <set comment="band 6">
        <r>  0.0000 </r>
       </set>
      </set>
      <set comment="kpoint 16">
       <set comment="band 1">
        <r>  0.5415 </r>
       </set>
       <set comment="band 2">
        <r>  0.0041 </r>
       </set>
       <set comment="band 3">
        <r>  0.0183 </r>
       </set>
       <set comment="band 4">
        <r>  0.0000 </r>
       </set>
       <set comment="band 5">
        <r>  0.0033 </r>
       </set>
       <set comment="band 6">
        <r>  0.0385 </r>
       </set>
      </set>
      <set comment="kpoint 17">
       <set comment="band 1">
        <r>  0.3038 </r>
       </set>
       <set comment="band 2">
        <r>  0.0000 </r>
       </set>
       <set comment="band 3">
        <r>  0.0285 </r>
       </set>
       <set comment="band 4">
        <r>  0.0568 </r>
       </set>
       <set comment="band 5">
        <r>  0.0088 </r>
       </set>
       <set comment="band 6">
        <r>  0.0000 </r>
       </set>
      </set>
      <set comment="kpoint 18">
       <set comment="band 1">
        <r>  0.3273 </r>
       </set>
       <set comment="band 2">
        <r>  0.0035 </r>
       </set>
       <set comment="band 3">
        <r>  0.0437 </r>
       </set>
       <set comment="band 4">
        <r>  0.0199 </r>
       </set>
       <set comment="band 5">
        <r>  0.0568 </r>
       </set>
       <set comment="band 6">
        <r>  0.0058 </r>
       </set>
      </set>
      <set comment="kpoint 19">
       <set comment="band 1">
        <r>  0.3714 </r>
       </set>
       <set comment="band 2">
        <r>  0.0000 </r>
       </set>
       <set comment="band 3">
        <r>  0.0161 </r>
       </set>
       <set comment="band 4">
        <r>  0.0000 </r>
       </set>
       <set comment="band 5">
        <r>  0.0830 </r>
       </set>
       <set comment="band 6">
        <r>  0.0192 </r>
       </set>
      </set>
      <set comment="kpoint 20">
       <set comment="band 1">
        <r>  0.2496 </r>
       </set>
       <set comment="band 2">
        <r>  0.0015 </r>
       </set>
       <set comment="band 3">
        <r>  0.0000 </r>
       </set>
       <set comment="band 4">
        <r>  0.0862 </r>
       </set>
       <set comment="band 5">
        <r>  0.0000 </r>
       </set>
       <set comment="band 6">
        <r>  0.0000 </r>
       </set>
      </set>
      <set comment="kpoint 21">
       <set comment="band 1">
        <r>  0.2164 </r>
       </set>
       <set comment="band 2">
        <r>  0.0105 </r>
       </set>
       <set comment="band 3">
        <r>  0.0025 </r>
       </set>
       <set comment="band 4">
        <r>  0.0359 </r>
       </set>
       <set comment="band 5">
        <r>  0.0451 </r>
       </set>
       <set comment="band 6">
        <r>  0.0325 </r>
       </set>
      </set>
      <set comment="kpoint 22">
       <set comment="band 1">
        <r>  0.1797 </r>
       </set>
       <set comment="band 2">
        <r>  0.0000 </r>
       </set>
       <set comment="band 3">
        <r>  0.0000 </r>
       </set>
       <set comment="band 4">
        <r>  0.0000 </r>
       </set>
       <set comment="band 5">
        <r>  0.0000 </r>
       </set>
       <set comment="band 6">
        <r>  0.6152 </r>
       </set>
      </set>
      <set comment="kpoint 23">
       <set comment="band 1">
        <r>  0.5033 </r>
       </set>
       <set comment="band 2">
        <r>  0.0000 </r>
       </set>
       <set comment="band 3">
        <r>  0.0000 </r>
       </set>
       <set comment="band 4">
        <r>  0.0000 </r>
       </set>
       <set comment="band 5">
        <r>  0.0000 </r>
       </set>
       <set comment="band 6">
        <r>  0.0041 </r>
       </set>
      </set>
      <set comment="kpoint 24">
       <set comment="band 1">
        <r>  0.2528 </r>
       </set>
       <set comment="band 2">
        <r>  0.0000 </r>
       </set>
       <set comment="band 3">
        <r>  0.0618 </r>
       </set>
       <set comment="band 4">
        <r>  0.0086 </r>
       </set>
       <set comment="band 5">
        <r>  0.0000 </r>
       </set>
       <set comment="band 6">
        <r>  0.0000 </r>
       </set>
      </set>
      <set comment="kpoint 25">
       <set comment="band 1">
        <r>  0.1631 </r>
       </set>
       <set comment="band 2">
        <r>  0.0000 </r>
       </set>
       <set comment="band 3">
        <r>  0.0000 </r>
       </set>
       <set comment="band 4">
        <r>  0.0362 </r>
       </set>
       <set comment="band 5">
        <r>  0.0000 </r>
       </set>
       <set comment="band 6">
        <r>  0.7067 </r>
       </set>
      </set>
      <set comment="kpoint 26">
       <set comment="band 1">
        <r>  0.7330 </r>
       </set>
       <set comment="band 2">
        <r>  0.0000 </r>
       </set>
       <set comment="band 3">
        <r>  0.0000 </r>
       </set>
       <set comment="band 4">
        <r>  0.0000 </r>
       </set>
       <set comment="band 5">
        <r>  0.0000 </r>
       </set>
       <set comment="band 6">
        <r>  0.0171 </r>
       </set>
      </set>
      <set comment="kpoint 27">
       <set comment="band 1">
        <r>  0.0797 </r>
       </set>
       <set comment="band 2">
        <r>  0.0000 </r>
       </set>
       <set comment="band 3">
        <r>  0.0356 </r>
       </set>
       <set comment="band 4">
        <r>  0.0000 </r>
       </set>
       <set comment="band 5">
        <r>  0.0075 </r>
       </set>
       <set comment="band 6">
        <r>  0.8096 </r>
       </set>
      </set>
      <set comment="kpoint 28">
       <set comment="band 1">
        <r>  0.6035 </r>
       </set>
       <set comment="band 2">
        <r>  0.0034 </r>
       </set>
       <set comment="band 3">
        <r>  0.0000 </r>
       </set>
       <set comment="band 4">
        <r>  0.0008 </r>
       </set>
       <set comment="band 5">
        <r>  0.0000 </r>
       </set>
       <set comment="band 6">
        <r>  0.0602 </r>
       </set>
      </set>
      <set comment="kpoint 29">
       <set comment="band 1">
        <r>  0.3932 </r>
       </set>
       <set comment="band 2">
        <r>  0.0302 </r>
       </set>
       <set comment="band 3">
        <r>  0.0000 </r>
       </set>
       <set comment="band 4">
        <r>  0.0046 </r>
       </set>
       <set comment="band 5">
        <r>  0.0000 </r>
       </set>
       <set comment="band 6">
        <r>  0.1283 </r>
       </set>
      </set>
      <set comment="kpoint 30">
       <set comment="band 1">
        <r>  0.4352 </r>
       </set>
       <set comment="band 2">
        <r>  0.0000 </r>
       </set>
       <set comment="band 3">
        <r>  0.0013 </r>
       </set>
       <set comment="band 4">
        <r>  0.0000 </r>
       </set>
       <set comment="band 5">
        <r>  0.0274 </r>
       </set>
       <set comment="band 6">
        <r>  0.1286 </r>
       </set>
      </set>
      <set comment="kpoint 31">
       <set comment="band 1">
        <r>  0.2293 </r>
       </set>
       <set comment="band 2">
        <r>  0.0000 </r>
       </set>
       <set comment="band 3">
        <r>  0.0174 </r>
       </set>
       <set comment="band 4">
        <r>  0.0918 </r>
       </set>
       <set comment="band 5">
        <r>  0.0507 </r>
       </set>
       <set comment="band 6">
        <r>  0.0000 </r>
       </set>
      </set>
      <set comment="kpoint 32">
       <set comment="band 1">
        <r>  0.2285 </r>
       </set>
       <set comment="band 2">
        <r>  0.0240 </r>
       </set>
       <set comment="band 3">
        <r>  0.0051 </r>
       </set>
       <set comment="band 4">
        <r>  0.0348 </r>
       </set>
       <set comment="band 5">
        <r>  0.1197 </r>
       </set>
       <set comment="band 6">
        <r>  0.0573 </r>
       </set>
      </set>
      <set comment="kpoint 33">
       <set comment="band 1">
        <r>  0.1377 </r>
       </set>
       <set comment="band 2">
        <r>  0.0000 </r>
       </set>
       <set comment="band 3">
        <r>  0.0454 </r>
       </set>
       <set comment="band 4">
        <r>  0.0956 </r>
       </set>
       <set comment="band 5">
        <r>  0.0000 </r>
       </set>
       <set comment="band 6">
        <r>  0.0000 </r>
       </set>
      </set>
      <set comment="kpoint 34">
       <set comment="band 1">
        <r>  0.1028 </r>
       </set>
       <set comment="band 2">
        <r>  0.0000 </r>
       </set>
       <set comment="band 3">
        <r>  0.0847 </r>
       </set>
       <set comment="band 4">
        <r>  0.0000 </r>
       </set>
       <set comment="band 5">
        <r>  0.0596 </r>
       </set>
       <set comment="band 6">
        <r>  0.2795 </r>
       </set>
      </set>
      <set comment="kpoint 35">
       <set comment="band 1">
        <r>  0.0000 </r>
       </set>
       <set comment="band 2">
        <r>  0.0000 </r>
       </set>
       <set comment="band 3">
        <r>  0.0000 </r>
       </set>
       <set comment="band 4">
        <r>  0.0000 </r>
       </set>
       <set comment="band 5">
        <r>  0.0000 </r>
       </set>
       <set comment="band 6">
        <r>  0.9593 </r>
       </set>
      </set>
      <set comment="kpoint 36">
       <set comment="band 1">
        <r>  0.4519 </r>
       </set>
       <set comment="band 2">
        <r>  0.0000 </r>
       </set>
       <set comment="band 3">
        <r>  0.0000 </r>
       </set>
       <set comment="band 4">
        <r>  0.0000 </r>
       </set>
       <set comment="band 5">
        <r>  0.0000 </r>
       </set>
       <set comment="band 6">
        <r>  0.1756 </r>
       </set>
      </set>
      <set comment="kpoint 37">
       <set comment="band 1">
        <r>  0.2394 </r>
       </set>
       <set comment="band 2">
        <r>  0.0051 </r>
       </set>
       <set comment="band 3">
        <r>  0.0000 </r>
       </set>
       <set comment="band 4">
        <r>  0.0274 </r>
       </set>
       <set comment="band 5">
        <r>  0.0000 </r>
       </set>
       <set comment="band 6">
        <r>  0.2733 </r>
       </set>
      </set>
      <set comment="kpoint 38">
       <set comment="band 1">
        <r>  0.0790 </r>
       </set>
       <set comment="band 2">
        <r>  0.0118 </r>
       </set>
       <set comment="band 3">
        <r>  0.0000 </r>
       </set>
       <set comment="band 4">
        <r>  0.1599 </r>
       </set>
       <set comment="band 5">
        <r>  0.0000 </r>
       </set>
       <set comment="band 6">
        <r>  0.1164 </r>
       </set>
      </set>
      <set comment="kpoint 39">
       <set comment="band 1">
        <r>  0.0779 </r>
       </set>
       <set comment="band 2">
        <r>  0.0000 </r>
       </set>
       <set comment="band 3">
        <r>  0.0816 </r>
       </set>
       <set comment="band 4">
        <r>  0.0000 </r>
       </set>
       <set comment="band 5">
        <r>  0.1516 </r>
       </set>
       <set comment="band 6">
        <r>  0.1174 </r>
       </set>
      </set>
      <set comment="kpoint 40">
       <set comment="band 1">
        <r>  0.0138 </r>
       </set>
       <set comment="band 2">
        <r>  0.0000 </r>
       </set>
       <set comment="band 3">
        <r>  0.1288 </r>
       </set>
       <set comment="band 4">
        <r>  0.0392 </r>
       </set>
       <set comment="band 5">
        <r>  0.0000 </r>
       </set>
       <set comment="band 6">
        <r>  0.0000 </r>
       </set>
      </set>
      <set comment="kpoint 41">
       <set comment="band 1">
        <r>  0.0749 </r>
       </set>
       <set comment="band 2">
        <r>  0.0000 </r>
       </set>
       <set comment="band 3">
        <r>  0.0000 </r>
       </set>
       <set comment="band 4">
        <r>  0.0000 </r>
       </set>
       <set comment="band 5">
        <r>  0.0000 </r>
       </set>
       <set comment="band 6">
        <r>  0.3902 </r>
       </set>
      </set>
      <set comment="kpoint 42">
       <set comment="band 1">
        <r>  0.0042 </r>
       </set>
       <set comment="band 2">
        <r>  0.0073 </r>
       </set>
       <set comment="band 3">
        <r>  0.1067 </r>
       </set>
       <set comment="band 4">
        <r>  0.0000 </r>
       </set>
       <set comment="band 5">
        <r>  0.0000 </r>
       </set>
       <set comment="band 6">
        <r>  0.1700 </r>
       </set>
      </set>
      <set comment="kpoint 43">
       <set comment="band 1">
        <r>  0.0000 </r>
       </set>
       <set comment="band 2">
        <r>  0.0000 </r>
       </set>
       <set comment="band 3">
        <r>  0.0761 </r>
       </set>
       <set comment="band 4">
        <r>  0.0000 </r>
       </set>
       <set comment="band 5">
        <r>  0.0000 </r>
       </set>
       <set comment="band 6">
        <r>  0.0000 </r>
       </set>
      </set>
      <set comment="kpoint 44">
       <set comment="band 1">
        <r>  0.0000 </r>
       </set>
       <set comment="band 2">
        <r>  0.0007 </r>
       </set>
       <set comment="band 3">
        <r>  0.0000 </r>
       </set>
       <set comment="band 4">
        <r>  0.0000 </r>
       </set>
       <set comment="band 5">
        <r>  0.0000 </r>
       </set>
       <set comment="band 6">
        <r>  0.1275 </r>
       </set>
      </set>
     </set>
    </set>
   </array>
  </projected>
 </calculation>
 <structure name="finalpos" >
  <crystal>
   <varray name="basis" >
    <v>       2.86654409       0.00000000       0.00000000 </v>
    <v>      -0.95551470       2.70260368       0.00000000 </v>
    <v>      -0.95551470      -1.35130184       2.34052345 </v>
   </varray>
   <i name="volume">     18.13234550 </i>
   <varray name="rec_basis" >
    <v>       0.34885213       0.12333785       0.21362743 </v>
    <v>       0.00000000       0.37001356       0.21362743 </v>
    <v>       0.00000000       0.00000000       0.42725485 </v>
   </varray>
  </crystal>
  <varray name="positions" >
   <v>       0.00000000       0.00000000       0.00000000 </v>
  </varray>
 </structure>
</modeling>
