<?xml version="1.0" encoding="ISO-8859-1"?>
<modeling>
 <generator>
  <i name="program" type="string">vasp </i>
  <i name="version" type="string">5.2.12  </i>
  <i name="subversion" type="string">11Nov11 complex                                                      parallel </i>
  <i name="platform" type="string">LinuxIFC </i>
  <i name="date" type="string">2012 10 14 </i>
  <i name="time" type="string">15:48:55 </i>
 </generator>
 <incar>
  <i type="string" name="PREC">accurate</i>
  <i name="ENCUT">    200.00000000</i>
  <i type="logical" name="LREAL"> F  </i>
  <i type="int" name="ISMEAR">     1</i>
  <i name="SIGMA">      0.05000000</i>
 </incar>
 <kpoints>
  <generation param="Monkhorst-Pack">
   <v type="int" name="divisions">      10       10       10 </v>
   <v name="usershift">      0.00000000       0.00000000       0.00000000 </v>
   <v name="genvec1">      0.10000000       0.00000000       0.00000000 </v>
   <v name="genvec2">      0.00000000       0.10000000       0.00000000 </v>
   <v name="genvec3">      0.00000000       0.00000000       0.10000000 </v>
   <v name="shift">      0.50000000       0.50000000       0.50000000 </v>
  </generation>
  <varray name="kpointlist" >
   <v>       0.05000000       0.05000000       0.05000000 </v>
   <v>       0.15000000       0.05000000       0.05000000 </v>
   <v>       0.25000000       0.05000000       0.05000000 </v>
   <v>       0.35000000       0.05000000       0.05000000 </v>
   <v>       0.45000000       0.05000000       0.05000000 </v>
   <v>      -0.05000000       0.05000000       0.05000000 </v>
   <v>       0.15000000       0.15000000       0.05000000 </v>
   <v>       0.25000000       0.15000000       0.05000000 </v>
   <v>       0.35000000       0.15000000       0.05000000 </v>
   <v>      -0.15000000       0.15000000       0.05000000 </v>
   <v>       0.25000000       0.25000000       0.05000000 </v>
   <v>       0.35000000       0.25000000       0.05000000 </v>
   <v>      -0.25000000       0.25000000       0.05000000 </v>
   <v>      -0.15000000       0.25000000       0.05000000 </v>
   <v>      -0.35000000       0.35000000       0.05000000 </v>
   <v>      -0.25000000       0.35000000       0.05000000 </v>
   <v>      -0.45000000       0.45000000       0.05000000 </v>
   <v>      -0.35000000       0.45000000       0.05000000 </v>
   <v>      -0.25000000       0.45000000       0.05000000 </v>
   <v>      -0.45000000      -0.45000000       0.05000000 </v>
   <v>      -0.35000000      -0.45000000       0.05000000 </v>
   <v>      -0.35000000      -0.35000000       0.05000000 </v>
   <v>       0.15000000       0.15000000       0.15000000 </v>
   <v>       0.25000000       0.15000000       0.15000000 </v>
   <v>       0.35000000       0.15000000       0.15000000 </v>
   <v>      -0.15000000       0.15000000       0.15000000 </v>
   <v>       0.25000000       0.25000000       0.15000000 </v>
   <v>      -0.25000000       0.25000000       0.15000000 </v>
   <v>      -0.35000000       0.35000000       0.15000000 </v>
   <v>      -0.25000000       0.35000000       0.15000000 </v>
   <v>      -0.45000000       0.45000000       0.15000000 </v>
   <v>      -0.35000000       0.45000000       0.15000000 </v>
   <v>      -0.45000000      -0.45000000       0.15000000 </v>
   <v>      -0.35000000      -0.45000000       0.15000000 </v>
   <v>       0.25000000       0.25000000       0.25000000 </v>
   <v>      -0.25000000       0.25000000       0.25000000 </v>
   <v>      -0.35000000       0.35000000       0.25000000 </v>
   <v>      -0.45000000       0.45000000       0.25000000 </v>
   <v>      -0.35000000       0.45000000       0.25000000 </v>
   <v>      -0.45000000      -0.45000000       0.25000000 </v>
   <v>      -0.35000000       0.35000000       0.35000000 </v>
   <v>      -0.45000000       0.45000000       0.35000000 </v>
   <v>      -0.45000000      -0.45000000       0.35000000 </v>
   <v>      -0.45000000       0.45000000       0.45000000 </v>
  </varray>
  <varray name="weights" >
   <v>       0.00800000 </v>
   <v>       0.02400000 </v>
   <v>       0.02400000 </v>
   <v>       0.02400000 </v>
   <v>       0.01200000 </v>
   <v>       0.00600000 </v>
   <v>       0.02400000 </v>
   <v>       0.04800000 </v>
   <v>       0.04800000 </v>
   <v>       0.02400000 </v>
   <v>       0.02400000 </v>
   <v>       0.02400000 </v>
   <v>       0.02400000 </v>
   <v>       0.02400000 </v>
   <v>       0.02400000 </v>
   <v>       0.04800000 </v>
   <v>       0.02400000 </v>
   <v>       0.04800000 </v>
   <v>       0.02400000 </v>
   <v>       0.02400000 </v>
   <v>       0.04800000 </v>
   <v>       0.00800000 </v>
   <v>       0.00800000 </v>
   <v>       0.02400000 </v>
   <v>       0.01200000 </v>
   <v>       0.00600000 </v>
   <v>       0.02400000 </v>
   <v>       0.02400000 </v>
   <v>       0.02400000 </v>
   <v>       0.02400000 </v>
   <v>       0.02400000 </v>
   <v>       0.04800000 </v>
   <v>       0.02400000 </v>
   <v>       0.02400000 </v>
   <v>       0.00200000 </v>
   <v>       0.00600000 </v>
   <v>       0.02400000 </v>
   <v>       0.02400000 </v>
   <v>       0.02400000 </v>
   <v>       0.02400000 </v>
   <v>       0.00600000 </v>
   <v>       0.02400000 </v>
   <v>       0.00800000 </v>
   <v>       0.00600000 </v>
  </varray>
 </kpoints>
 <parameters>
  <separator name="general" >
   <i type="string" name="SYSTEM">unknown system</i>
   <i type="logical" name="LCOMPAT"> F  </i>
  </separator>
  <separator name="electronic" >
   <i type="string" name="PREC">accura</i>
   <i name="ENMAX">    200.00000000</i>
   <i name="ENAUG">    332.07500000</i>
   <i name="EDIFF">      0.00010000</i>
   <i type="int" name="IALGO">    38</i>
   <i type="int" name="IWAVPR">    10</i>
   <i type="int" name="NBANDS">     6</i>
   <i name="NELECT">      5.00000000</i>
   <i type="int" name="TURBO">     0</i>
   <i type="int" name="IRESTART">     0</i>
   <i type="int" name="NREBOOT">     0</i>
   <i type="int" name="NMIN">     0</i>
   <i name="EREF">      0.00000000</i>
   <separator name="electronic smearing" >
    <i type="int" name="ISMEAR">     1</i>
    <i name="SIGMA">      0.05000000</i>
    <i name="KSPACING">      0.50000000</i>
    <i type="logical" name="KGAMMA"> T  </i>
   </separator>
   <separator name="electronic projectors" >
    <i type="logical" name="LREAL"> F  </i>
    <v name="ROPT">      0.00000000</v>
    <i type="int" name="LMAXPAW">  -100</i>
    <i type="int" name="LMAXMIX">     2</i>
    <i type="logical" name="NLSPLINE"> F  </i>
   </separator>
   <separator name="electronic startup" >
    <i type="int" name="ISTART">     0</i>
    <i type="int" name="ICHARG">     2</i>
    <i type="int" name="INIWAV">     1</i>
   </separator>
   <separator name="electronic spin" >
    <i type="int" name="ISPIN">     1</i>
    <i type="logical" name="LNONCOLLINEAR"> F  </i>
    <v name="MAGMOM">      1.00000000</v>
    <i name="NUPDOWN">     -1.00000000</i>
    <i type="logical" name="LSORBIT"> F  </i>
    <v name="SAXIS">      0.00000000      0.00000000      1.00000000</v>
    <i type="logical" name="LSPIRAL"> F  </i>
    <v name="QSPIRAL">      0.00000000      0.00000000      0.00000000</v>
    <i type="logical" name="LZEROZ"> F  </i>
   </separator>
   <separator name="electronic exchange-correlation" >
    <i type="logical" name="LASPH"> F  </i>
    <i type="logical" name="LMETAGGA"> F  </i>
   </separator>
   <separator name="electronic convergence" >
    <i type="int" name="NELM">    60</i>
    <i type="int" name="NELMDL">    -5</i>
    <i type="int" name="NELMIN">     2</i>
    <i name="ENINI">    200.00000000</i>
    <separator name="electronic convergence detail" >
     <i type="logical" name="LDIAG"> T  </i>
     <i type="logical" name="LSUBROT"> T  </i>
     <i name="WEIMIN">      0.00000000</i>
     <i name="EBREAK">      0.00000417</i>
     <i name="DEPER">      0.30000000</i>
     <i type="int" name="NRMM">     4</i>
     <i name="TIME">      0.40000000</i>
    </separator>
   </separator>
   <separator name="electronic mixer" >
    <i name="AMIX">      0.40000000</i>
    <i name="BMIX">      1.00000000</i>
    <i name="AMIN">      0.10000000</i>
    <i name="AMIX_MAG">      1.60000000</i>
    <i name="BMIX_MAG">      1.00000000</i>
    <separator name="electronic mixer details" >
     <i type="int" name="IMIX">     4</i>
     <i type="int" name="MAXMIX">   -45</i>
     <i name="WC">    100.00000000</i>
     <i type="int" name="INIMIX">     1</i>
     <i type="int" name="MIXPRE">     1</i>
     <i type="int" name="MREMOVE">     5</i>
    </separator>
   </separator>
   <separator name="electronic dipolcorrection" >
    <i type="logical" name="LDIPOL"> F  </i>
    <i type="logical" name="LMONO"> F  </i>
    <i type="int" name="IDIPOL">     0</i>
    <i name="EPSILON">      1.00000000</i>
    <v name="DIPOL">   -100.00000000   -100.00000000   -100.00000000</v>
    <i name="EFIELD">      0.00000000</i>
   </separator>
  </separator>
  <separator name="grids" >
   <i type="int" name="NGX">    14</i>
   <i type="int" name="NGY">    14</i>
   <i type="int" name="NGZ">    14</i>
   <i type="int" name="NGXF">    28</i>
   <i type="int" name="NGYF">    28</i>
   <i type="int" name="NGZF">    28</i>
   <i type="logical" name="ADDGRID"> F  </i>
  </separator>
  <separator name="ionic" >
   <i type="int" name="NSW">     0</i>
   <i type="int" name="IBRION">    -1</i>
   <i type="int" name="ISIF">     2</i>
   <i name="PSTRESS">      0.00000000</i>
   <i name="EDIFFG">      0.00100000</i>
   <i type="int" name="NFREE">     0</i>
   <i name="POTIM">      0.50000000</i>
   <i name="SMASS">     -3.00000000</i>
   <i name="SCALEE">      1.00000000</i>
  </separator>
  <separator name="ionic md" >
   <i name="TEBEG">      0.00010000</i>
   <i name="TEEND">      0.00010000</i>
   <i type="int" name="NBLOCK">     1</i>
   <i type="int" name="KBLOCK">     1</i>
   <i type="int" name="NPACO">   256</i>
   <i name="APACO">     16.00000000</i>
  </separator>
  <separator name="symmetry" >
   <i type="int" name="ISYM">     2</i>
   <i name="SYMPREC">      0.00001000</i>
  </separator>
  <separator name="dos" >
   <i type="logical" name="LORBIT"> F  </i>
   <v name="RWIGS">     -1.00000000</v>
   <i type="int" name="NEDOS">   301</i>
   <i name="EMIN">     10.00000000</i>
   <i name="EMAX">    -10.00000000</i>
   <i name="EFERMI">      0.00000000</i>
  </separator>
  <separator name="writing" >
   <i type="int" name="NWRITE">     2</i>
   <i type="logical" name="LWAVE"> T  </i>
   <i type="logical" name="LCHARG"> T  </i>
   <i type="logical" name="LPARD"> F  </i>
   <i type="logical" name="LVTOT"> F  </i>
   <i type="logical" name="LVHAR"> F  </i>
   <i type="logical" name="LELF"> F  </i>
   <i type="logical" name="LOPTICS"> F  </i>
   <v name="STM">      0.00000000      0.00000000      0.00000000      0.00000000      0.00000000      0.00000000      0.00000000</v>
  </separator>
  <separator name="performance" >
   <i type="int" name="NPAR">     1</i>
   <i type="int" name="NSIM">     4</i>
   <i type="int" name="NBLK">    -1</i>
   <i type="logical" name="LPLANE"> T  </i>
   <i type="logical" name="LSCALAPACK"> F  </i>
   <i type="logical" name="LSCAAWARE"> F  </i>
   <i type="logical" name="LSCALU"> F  </i>
   <i type="logical" name="LASYNC"> F  </i>
   <i type="logical" name="LORBITALREAL"> F  </i>
  </separator>
  <separator name="miscellaneous" >
   <i type="int" name="IDIOT">     3</i>
   <i type="logical" name="LMUSIC"> F  </i>
   <v name="POMASS">    180.94800000</v>
   <v name="DARWINR">      0.00000000</v>
   <v name="DARWINV">      1.00000000</v>
   <i type="logical" name="LCORR"> T  </i>
  </separator>
  <i type="logical" name="GGA_COMPAT"> T  </i>
  <i type="logical" name="LBERRY"> F  </i>
  <i type="int" name="ICORELEVEL">     0</i>
  <i type="logical" name="LDAU"> F  </i>
  <i type="int" name="I_CONSTRAINED_M">     0</i>
  <separator name="electronic exchange-correlation" >
   <i type="string" name="GGA">--</i>
   <i type="int" name="VOSKOWN">     0</i>
   <i type="logical" name="LHFCALC"> F  </i>
   <i type="string" name="PRECFOCK"></i>
   <i type="logical" name="LHFONE"> F  </i>
   <i type="logical" name="LRHFCALC"> F  </i>
   <i type="logical" name="LTHOMAS"> F  </i>
   <i type="logical" name="LMODELHF"> F  </i>
   <i name="ENCUT4O">     -1.00000000</i>
   <i type="int" name="EXXOEP">     0</i>
   <i type="int" name="FOURORBIT">     0</i>
   <i name="AEXX">      0.00000000</i>
   <i name="HFALPHA">      0.00000000</i>
   <i name="ALDAX">      1.00000000</i>
   <i name="AGGAX">      1.00000000</i>
   <i name="ALDAC">      1.00000000</i>
   <i name="AGGAC">      1.00000000</i>
   <i type="int" name="NKREDX">     1</i>
   <i type="int" name="NKREDY">     1</i>
   <i type="int" name="NKREDZ">     1</i>
   <i type="logical" name="SHIFTRED"> F  </i>
   <i type="logical" name="ODDONLY"> F  </i>
   <i type="logical" name="EVENONLY"> F  </i>
   <i type="int" name="LMAXFOCK">     0</i>
   <i type="int" name="NMAXFOCKAE">     0</i>
   <i type="logical" name="LFOCKAEDFT"> F  </i>
   <i name="HFSCREEN">      0.00000000</i>
   <i name="HFSCREENC">      0.00000000</i>
  </separator>
  <separator name="vdW DFT" >
   <i type="logical" name="LUSE_VDW"> F  </i>
   <i name="Zab_VDW">     -0.84910000</i>
   <i name="PARAM1">      0.12340000</i>
   <i name="PARAM2">      1.00000000</i>
   <i name="PARAM3">      0.00000000</i>
  </separator>
  <separator name="model GW" >
   <i type="int" name="MODEL_GW">     0</i>
   <i name="MODEL_EPS0">     10.87940730</i>
   <i name="MODEL_ALPHA">      1.00000000</i>
  </separator>
  <separator name="linear response parameters" >
   <i type="logical" name="LEPSILON"> F  </i>
   <i type="logical" name="LRPA"> F  </i>
   <i type="logical" name="LNABLA"> F  </i>
   <i type="logical" name="LVEL"> F  </i>
   <i type="int" name="KINTER">     0</i>
   <i name="CSHIFT">      0.10000000</i>
   <i name="OMEGAMAX">     -1.00000000</i>
  </separator>
  <separator name="orbital magnetization" >
   <i type="logical" name="NUCIND"> F  </i>
   <v name="MAGPOS">      0.00000000      0.00000000      0.00000000</v>
   <i type="logical" name="LNICSALL"> T  </i>
   <i type="logical" name="ORBITALMAG"> F  </i>
   <i type="logical" name="LMAGBLOCH"> F  </i>
   <i type="logical" name="LCHIMAG"> F  </i>
   <i type="logical" name="LGAUGE"> T  </i>
   <i type="int" name="MAGATOM">     0</i>
   <v name="MAGDIPOL">      0.00000000      0.00000000      0.00000000</v>
   <v name="AVECCONST">      0.00000000      0.00000000      0.00000000</v>
  </separator>
  <separator name="response functions" >
   <i type="logical" name="LADDER"> F  </i>
   <i type="logical" name="LHARTREE"> T  </i>
   <i type="int" name="IBSE">     0</i>
   <i type="logical" name="LTCTE"> F  </i>
   <i type="logical" name="LTETE"> F  </i>
   <i type="logical" name="LFXCEPS"> F  </i>
   <i type="logical" name="L2ORDER"> F  </i>
   <i type="logical" name="LUSEW"> F  </i>
   <i name="ENCUTGW">     -2.00000000</i>
   <i name="ENCUTGWSOFT">     -2.00000000</i>
   <i name="ENCUTLF">     -1.00000000</i>
   <i type="int" name="LMAXMP2">    -1</i>
   <i name="SCISSOR">      0.00000000</i>
   <i type="int" name="NOMEGA">     0</i>
   <i type="int" name="NOMEGAR">     0</i>
   <i type="int" name="NBANDSGW">    -1</i>
   <i type="int" name="NBANDSO">    -1</i>
   <i type="int" name="NBANDSV">    -1</i>
   <i name="OPTEMAX">      0.00000000</i>
   <i type="int" name="NELM">     1</i>
   <i type="int" name="DIM">     3</i>
   <i type="int" name="ANTIRES">     0</i>
   <i name="OMEGAMAX">    -30.00000000</i>
   <i name="OMEGATL">   -200.00000000</i>
   <i type="int" name="OMEGAGRID">     0</i>
   <i name="CSHIFT">     -0.10000000</i>
   <i type="logical" name="SELFENERGY"> F  </i>
   <i type="logical" name="LSPECTRAL"> F  </i>
   <i type="logical" name="ODDONLYGW"> F  </i>
   <i type="logical" name="EVENONLYGW"> F  </i>
   <i type="int" name="NKREDLFX">     1</i>
   <i type="int" name="NKREDLFY">     1</i>
   <i type="int" name="NKREDLFZ">     1</i>
   <i type="int" name="MAXMEM">  1800</i>
   <i type="int" name="TELESCOPE">     0</i>
  </separator>
 </parameters>
 <atominfo>
  <atoms>       1 </atoms>
  <types>       1 </types>
  <array name="atoms" >
   <dimension dim="1">ion</dimension>
   <field type="string">element</field>
   <field type="int">atomtype</field>
   <set>
    <rc><c>Ta</c><c>   1</c></rc>
   </set>
  </array>
  <array name="atomtypes" >
   <dimension dim="1">type</dimension>
   <field type="int">atomspertype</field>
   <field type="string">element</field>
   <field>mass</field>
   <field>valence</field>
   <field type="string">pseudopotential</field>
   <set>
    <rc><c>   1</c><c>Ta</c><c>    180.94800000</c><c>      5.00000000</c><c>  PAW_PBE Ta 17Jan2003                  </c></rc>
   </set>
  </array>
 </atominfo>
 <structure name="initialpos" >
  <crystal>
   <varray name="basis" >
    <v>       2.86654409       0.00000000       0.00000000 </v>
    <v>      -0.95551470       2.70260368       0.00000000 </v>
    <v>      -0.95551470      -1.35130184       2.34052345 </v>
   </varray>
   <i name="volume">     18.13234550 </i>
   <varray name="rec_basis" >
    <v>       0.34885213       0.12333785       0.21362743 </v>
    <v>       0.00000000       0.37001356       0.21362743 </v>
    <v>       0.00000000       0.00000000       0.42725485 </v>
   </varray>
  </crystal>
  <varray name="positions" >
   <v>       0.00000000       0.00000000       0.00000000 </v>
  </varray>
 </structure>
 <calculation>
  <scstep>
   <time name="dav">    0.30    0.33</time>
   <time name="total">    0.35    0.43</time>
   <energy>
    <i name="alphaZ">     30.58334069 </i>
    <i name="ewald">   -197.90100875 </i>
    <i name="hartreedc">     -2.50452612 </i>
    <i name="XCdc">    -66.68582598 </i>
    <i name="pawpsdc">    148.27821850 </i>
    <i name="pawaedc">    -73.99089003 </i>
    <i name="eentropy">     -0.00095909 </i>
    <i name="bandstr">     23.64207297 </i>
    <i name="atom">    130.57950032 </i>
    <i name="e_fr_energy">     -8.00007748 </i>
    <i name="e_wo_entrp">     -7.99911840 </i>
    <i name="e_0_energy">     -7.99975779 </i>
   </energy>
  </scstep>
  <scstep>
   <time name="dav">    0.42    0.53</time>
   <time name="total">    0.42    0.85</time>
   <energy>
    <i name="e_fr_energy">    -12.34857238 </i>
    <i name="e_wo_entrp">    -12.34824642 </i>
    <i name="e_0_energy">    -12.34846373 </i>
   </energy>
  </scstep>
  <scstep>
   <time name="dav">    0.28    0.30</time>
   <time name="total">    0.28    1.05</time>
   <energy>
    <i name="e_fr_energy">    -12.36251975 </i>
    <i name="e_wo_entrp">    -12.36213622 </i>
    <i name="e_0_energy">    -12.36239191 </i>
   </energy>
  </scstep>
  <scstep>
   <time name="dav">    0.35    0.64</time>
   <time name="total">    0.35    0.70</time>
   <energy>
    <i name="e_fr_energy">    -12.36254701 </i>
    <i name="e_wo_entrp">    -12.36216339 </i>
    <i name="e_0_energy">    -12.36241914 </i>
   </energy>
  </scstep>
  <scstep>
   <time name="dav">    0.25    0.25</time>
   <time name="total">    0.28    0.31</time>
   <energy>
    <i name="e_fr_energy">    -12.36254709 </i>
    <i name="e_wo_entrp">    -12.36216347 </i>
    <i name="e_0_energy">    -12.36241922 </i>
   </energy>
  </scstep>
  <scstep>
   <time name="dav">    0.33    0.47</time>
   <time name="total">    0.40    0.60</time>
   <energy>
    <i name="e_fr_energy">    -12.02203917 </i>
    <i name="e_wo_entrp">    -12.02203455 </i>
    <i name="e_0_energy">    -12.02203763 </i>
   </energy>
  </scstep>
  <scstep>
   <time name="dav">    0.30    0.31</time>
   <time name="total">    0.38    0.39</time>
   <energy>
    <i name="e_fr_energy">    -11.86614014 </i>
    <i name="e_wo_entrp">    -11.86655859 </i>
    <i name="e_0_energy">    -11.86627963 </i>
   </energy>
  </scstep>
  <scstep>
   <time name="dav">    0.30    0.30</time>
   <time name="total">    0.37    0.50</time>
   <energy>
    <i name="e_fr_energy">    -11.86504747 </i>
    <i name="e_wo_entrp">    -11.86559947 </i>
    <i name="e_0_energy">    -11.86523147 </i>
   </energy>
  </scstep>
  <scstep>
   <time name="dav">    0.22    0.26</time>
   <time name="total">    0.26    0.49</time>
   <energy>
    <i name="alphaZ">     30.58334069 </i>
    <i name="ewald">   -197.90100875 </i>
    <i name="hartreedc">     -0.57801648 </i>
    <i name="XCdc">    -65.99230244 </i>
    <i name="pawpsdc">    193.41067837 </i>
    <i name="pawaedc">   -119.98924766 </i>
    <i name="eentropy">      0.00055194 </i>
    <i name="bandstr">     18.02145157 </i>
    <i name="atom">    130.57950032 </i>
    <i name="e_fr_energy">    -11.86505243 </i>
    <i name="e_wo_entrp">    -11.86560438 </i>
    <i name="e_0_energy">    -11.86523641 </i>
   </energy>
  </scstep>
  <parameters_embedded>
   <separator name="dft+d2" >
    <i type="logical" name="LVDW"> F  </i>
   </separator>
  </parameters_embedded>
  <structure>
   <crystal>
    <varray name="basis" >
     <v>       2.86654409       0.00000000       0.00000000 </v>
     <v>      -0.95551470       2.70260368       0.00000000 </v>
     <v>      -0.95551470      -1.35130184       2.34052345 </v>
    </varray>
    <i name="volume">     18.13234550 </i>
    <varray name="rec_basis" >
     <v>       0.34885213       0.12333785       0.21362743 </v>
     <v>       0.00000000       0.37001356       0.21362743 </v>
     <v>       0.00000000       0.00000000       0.42725485 </v>
    </varray>
   </crystal>
   <varray name="positions" >
    <v>       0.00000000       0.00000000       0.00000000 </v>
   </varray>
  </structure>
  <varray name="forces" >
   <v>       0.00000000       0.00000000       0.00000000 </v>
  </varray>
  <varray name="stress" >
   <v>     -49.85940547       0.00000000       0.00000000 </v>
   <v>       0.00000000     -49.85940547       0.00000000 </v>
   <v>       0.00000000       0.00000000     -49.85940547 </v>
  </varray>
  <energy>
   <i name="e_fr_energy">    -11.86505243 </i>
   <i name="e_wo_entrp">    -11.86523641 </i>
   <i name="e_0_energy">      0.00055194 </i>
  </energy>
  <time name="totalsc">    3.46    7.19</time>
  <eigenvalues>
   <array>
    <dimension dim="1">band</dimension>
    <dimension dim="2">kpoint</dimension>
    <dimension dim="3">spin</dimension>
    <field>eigene</field>
    <field>occ</field>
    <set>
     <set comment="spin 1">
      <set comment="kpoint 1">
       <r>   -1.5427    1.0000 </r>
       <r>    6.0996    0.0000 </r>
       <r>    6.0996    0.0000 </r>
       <r>    7.2161    0.0000 </r>
       <r>    9.4571    0.0000 </r>
       <r>    9.4571    0.0000 </r>
      </set>
      <set comment="kpoint 2">
       <r>   -0.4203    1.0000 </r>
       <r>    5.4266    1.0000 </r>
       <r>    5.6146    1.0335 </r>
       <r>    8.5687    0.0000 </r>
       <r>    9.1451    0.0000 </r>
       <r>    9.7244    0.0000 </r>
      </set>
      <set comment="kpoint 3">
       <r>    0.9066    1.0000 </r>
       <r>    4.7701    1.0000 </r>
       <r>    5.3095    1.0000 </r>
       <r>    9.3719    0.0000 </r>
       <r>   10.0750    0.0000 </r>
       <r>   10.5496    0.0000 </r>
      </set>
      <set comment="kpoint 4">
       <r>    1.5351    1.0000 </r>
       <r>    4.3173    1.0000 </r>
       <r>    6.1139    0.0000 </r>
       <r>    9.6895    0.0000 </r>
       <r>   10.4246    0.0000 </r>
       <r>   12.6780    0.0000 </r>
      </set>
      <set comment="kpoint 5">
       <r>    1.5916    1.0000 </r>
       <r>    4.1646    1.0000 </r>
       <r>    6.9884    0.0000 </r>
       <r>    9.6696    0.0000 </r>
       <r>   10.6081    0.0000 </r>
       <r>   13.8290    0.0000 </r>
      </set>
      <set comment="kpoint 6">
       <r>   -1.9583    1.0000 </r>
       <r>    6.4217    0.0000 </r>
       <r>    6.4217    0.0000 </r>
       <r>    6.5397    0.0000 </r>
       <r>    9.3120    0.0000 </r>
       <r>    9.8299    0.0000 </r>
      </set>
      <set comment="kpoint 7">
       <r>    0.8503    1.0000 </r>
       <r>    4.8861    1.0000 </r>
       <r>    4.9594    1.0000 </r>
       <r>    9.2381    0.0000 </r>
       <r>   10.1175    0.0000 </r>
       <r>   10.4721    0.0000 </r>
      </set>
      <set comment="kpoint 8">
       <r>    2.0166    1.0000 </r>
       <r>    4.4109    1.0000 </r>
       <r>    4.9830    1.0000 </r>
       <r>    9.5255    0.0000 </r>
       <r>   10.4601    0.0000 </r>
       <r>   12.6910    0.0000 </r>
      </set>
      <set comment="kpoint 9">
       <r>    2.2973    1.0000 </r>
       <r>    4.1921    1.0000 </r>
       <r>    5.9471    0.0000 </r>
       <r>    9.7781    0.0000 </r>
       <r>   10.6569    0.0000 </r>
       <r>   14.5496    0.0000 </r>
      </set>
      <set comment="kpoint 10">
       <r>   -1.1422    1.0000 </r>
       <r>    5.9679    0.0000 </r>
       <r>    6.1975    0.0000 </r>
       <r>    7.3814    0.0000 </r>
       <r>    8.6398    0.0000 </r>
       <r>   10.0102    0.0000 </r>
      </set>
      <set comment="kpoint 11">
       <r>    2.9388    1.0000 </r>
       <r>    4.2990    1.0000 </r>
       <r>    5.0207    1.0000 </r>
       <r>    9.8355    0.0000 </r>
       <r>   10.5435    0.0000 </r>
       <r>   14.9776    0.0000 </r>
      </set>
      <set comment="kpoint 12">
       <r>    3.1221    1.0000 </r>
       <r>    4.3892    1.0000 </r>
       <r>    5.2627    1.0000 </r>
       <r>   10.0784    0.0000 </r>
       <r>   10.5938    0.0000 </r>
       <r>   14.3876    0.0000 </r>
      </set>
      <set comment="kpoint 13">
       <r>    0.1792    1.0000 </r>
       <r>    5.2780    1.0000 </r>
       <r>    5.6205    1.0355 </r>
       <r>    8.6614    0.0000 </r>
       <r>    8.9889    0.0000 </r>
       <r>   10.2109    0.0000 </r>
      </set>
      <set comment="kpoint 14">
       <r>   -0.0602    1.0000 </r>
       <r>    5.6437    0.9808 </r>
       <r>    5.7050    0.1534 </r>
       <r>    8.0816    0.0000 </r>
       <r>    8.4895    0.0000 </r>
       <r>   10.4110    0.0000 </r>
      </set>
      <set comment="kpoint 15">
       <r>    1.2174    1.0000 </r>
       <r>    4.6856    1.0000 </r>
       <r>    5.7006    0.2079 </r>
       <r>    9.1944    0.0000 </r>
       <r>   10.4363    0.0000 </r>
       <r>   11.1329    0.0000 </r>
      </set>
      <set comment="kpoint 16">
       <r>    1.2441    1.0000 </r>
       <r>    4.9335    1.0000 </r>
       <r>    5.3634    1.0000 </r>
       <r>    8.3900    0.0000 </r>
       <r>   10.3328    0.0000 </r>
       <r>   10.7127    0.0000 </r>
      </set>
      <set comment="kpoint 17">
       <r>    1.4615    1.0000 </r>
       <r>    4.3517    1.0000 </r>
       <r>    6.7015    0.0000 </r>
       <r>    9.3612    0.0000 </r>
       <r>   10.8061    0.0000 </r>
       <r>   13.0742    0.0000 </r>
      </set>
      <set comment="kpoint 18">
       <r>    1.9013    1.0000 </r>
       <r>    4.6320    1.0000 </r>
       <r>    5.6064    1.0271 </r>
       <r>    8.9273    0.0000 </r>
       <r>   10.7505    0.0000 </r>
       <r>   12.7165    0.0000 </r>
      </set>
      <set comment="kpoint 19">
       <r>    2.3677    1.0000 </r>
       <r>    4.3303    1.0000 </r>
       <r>    5.3681    1.0000 </r>
       <r>    8.7010    0.0000 </r>
       <r>   10.4510    0.0000 </r>
       <r>   12.7829    0.0000 </r>
      </set>
      <set comment="kpoint 20">
       <r>    1.9579    1.0000 </r>
       <r>    4.5270    1.0000 </r>
       <r>    6.0967    0.0000 </r>
       <r>    8.8788    0.0000 </r>
       <r>   11.2527    0.0000 </r>
       <r>   13.9601    0.0000 </r>
      </set>
      <set comment="kpoint 21">
       <r>    2.8406    1.0000 </r>
       <r>    4.3893    1.0000 </r>
       <r>    5.2298    1.0000 </r>
       <r>    9.1674    0.0000 </r>
       <r>   10.6686    0.0000 </r>
       <r>   15.0762    0.0000 </r>
      </set>
      <set comment="kpoint 22">
       <r>    3.5004    1.0000 </r>
       <r>    4.4841    1.0000 </r>
       <r>    4.4841    1.0000 </r>
       <r>   10.1222    0.0000 </r>
       <r>   10.1222    0.0000 </r>
       <r>   14.6807    0.0000 </r>
      </set>
      <set comment="kpoint 23">
       <r>    2.2361    1.0000 </r>
       <r>    4.3986    1.0000 </r>
       <r>    4.3986    1.0000 </r>
       <r>   10.0696    0.0000 </r>
       <r>   10.0696    0.0000 </r>
       <r>   12.7949    0.0000 </r>
      </set>
      <set comment="kpoint 24">
       <r>    3.1451    1.0000 </r>
       <r>    4.1464    1.0000 </r>
       <r>    4.7908    1.0000 </r>
       <r>   10.2421    0.0000 </r>
       <r>   10.5688    0.0000 </r>
       <r>   14.9886    0.0000 </r>
      </set>
      <set comment="kpoint 25">
       <r>    3.1600    1.0000 </r>
       <r>    4.0741    1.0000 </r>
       <r>    5.6112    1.0312 </r>
       <r>   10.3009    0.0000 </r>
       <r>   10.7215    0.0000 </r>
       <r>   14.3763    0.0000 </r>
      </set>
      <set comment="kpoint 26">
       <r>   -0.3651    1.0000 </r>
       <r>    6.3876    0.0000 </r>
       <r>    6.3876    0.0000 </r>
       <r>    7.1829    0.0000 </r>
       <r>    7.3954    0.0000 </r>
       <r>   10.6109    0.0000 </r>
      </set>
      <set comment="kpoint 27">
       <r>    3.7500    1.0000 </r>
       <r>    4.4201    1.0000 </r>
       <r>    4.8399    1.0000 </r>
       <r>   10.5545    0.0000 </r>
       <r>   10.7023    0.0000 </r>
       <r>   13.6617    0.0000 </r>
      </set>
      <set comment="kpoint 28">
       <r>    0.8978    1.0000 </r>
       <r>    5.5255    1.0000 </r>
       <r>    6.0248    0.0000 </r>
       <r>    7.2500    0.0000 </r>
       <r>    8.7386    0.0000 </r>
       <r>   10.8183    0.0000 </r>
      </set>
      <set comment="kpoint 29">
       <r>    1.9421    1.0000 </r>
       <r>    4.8964    1.0000 </r>
       <r>    5.5066    1.0000 </r>
       <r>    8.0573    0.0000 </r>
       <r>   10.8663    0.0000 </r>
       <r>   10.9073    0.0000 </r>
      </set>
      <set comment="kpoint 30">
       <r>    2.0671    1.0000 </r>
       <r>    4.5802    1.0000 </r>
       <r>    6.1531    0.0000 </r>
       <r>    7.5316    0.0000 </r>
       <r>    9.9952    0.0000 </r>
       <r>   10.9659    0.0000 </r>
      </set>
      <set comment="kpoint 31">
       <r>    2.1666    1.0000 </r>
       <r>    5.2105    1.0000 </r>
       <r>    5.2687    1.0000 </r>
       <r>    8.0227    0.0000 </r>
       <r>   12.0054    0.0000 </r>
       <r>   12.8706    0.0000 </r>
      </set>
      <set comment="kpoint 32">
       <r>    2.7742    1.0000 </r>
       <r>    4.1928    1.0000 </r>
       <r>    5.7516   -0.0321 </r>
       <r>    8.1665    0.0000 </r>
       <r>   10.7409    0.0000 </r>
       <r>   12.9242    0.0000 </r>
      </set>
      <set comment="kpoint 33">
       <r>    2.7873    1.0000 </r>
       <r>    4.5777    1.0000 </r>
       <r>    5.3089    1.0000 </r>
       <r>    8.1663    0.0000 </r>
       <r>   11.7804    0.0000 </r>
       <r>   14.5918    0.0000 </r>
      </set>
      <set comment="kpoint 34">
       <r>    3.6559    1.0000 </r>
       <r>    3.7190    1.0000 </r>
       <r>    4.9778    1.0000 </r>
       <r>    9.4334    0.0000 </r>
       <r>   10.6000    0.0000 </r>
       <r>   15.3820    0.0000 </r>
      </set>
      <set comment="kpoint 35">
       <r>    4.4957    1.0000 </r>
       <r>    4.4957    1.0000 </r>
       <r>    4.4957    1.0000 </r>
       <r>   10.8186    0.0000 </r>
       <r>   10.8186    0.0000 </r>
       <r>   12.7438    0.0000 </r>
      </set>
      <set comment="kpoint 36">
       <r>    1.9740    1.0000 </r>
       <r>    4.7942    1.0000 </r>
       <r>    6.9683    0.0000 </r>
       <r>    6.9683    0.0000 </r>
       <r>    8.8986    0.0000 </r>
       <r>   10.6902    0.0000 </r>
      </set>
      <set comment="kpoint 37">
       <r>    2.7978    1.0000 </r>
       <r>    3.8635    1.0000 </r>
       <r>    7.0326    0.0000 </r>
       <r>    7.6171    0.0000 </r>
       <r>   10.5619    0.0000 </r>
       <r>   10.8426    0.0000 </r>
      </set>
      <set comment="kpoint 38">
       <r>    2.8344    1.0000 </r>
       <r>    3.7812    1.0000 </r>
       <r>    6.8594    0.0000 </r>
       <r>    7.4978    0.0000 </r>
       <r>   12.5514    0.0000 </r>
       <r>   12.8396    0.0000 </r>
      </set>
      <set comment="kpoint 39">
       <r>    3.1268    1.0000 </r>
       <r>    3.1879    1.0000 </r>
       <r>    6.8675    0.0000 </r>
       <r>    8.8499    0.0000 </r>
       <r>   10.8239    0.0000 </r>
       <r>   12.9374    0.0000 </r>
      </set>
      <set comment="kpoint 40">
       <r>    2.9165    1.0000 </r>
       <r>    3.2457    1.0000 </r>
       <r>    6.5967    0.0000 </r>
       <r>    9.3628    0.0000 </r>
       <r>   11.6748    0.0000 </r>
       <r>   15.2777    0.0000 </r>
      </set>
      <set comment="kpoint 41">
       <r>    2.9114    1.0000 </r>
       <r>    2.9999    1.0000 </r>
       <r>    8.6275    0.0000 </r>
       <r>    8.6275    0.0000 </r>
       <r>   10.7779    0.0000 </r>
       <r>   10.9562    0.0000 </r>
      </set>
      <set comment="kpoint 42">
       <r>    2.5210    1.0000 </r>
       <r>    2.6865    1.0000 </r>
       <r>    9.0860    0.0000 </r>
       <r>    9.0907    0.0000 </r>
       <r>   12.2622    0.0000 </r>
       <r>   13.0748    0.0000 </r>
      </set>
      <set comment="kpoint 43">
       <r>    2.3670    1.0000 </r>
       <r>    2.3670    1.0000 </r>
       <r>    9.0136    0.0000 </r>
       <r>   11.4387    0.0000 </r>
       <r>   11.4387    0.0000 </r>
       <r>   15.5821    0.0000 </r>
      </set>
      <set comment="kpoint 44">
       <r>    2.0636    1.0000 </r>
       <r>    2.1114    1.0000 </r>
       <r>   11.3416    0.0000 </r>
       <r>   11.3416    0.0000 </r>
       <r>   12.2491    0.0000 </r>
       <r>   13.5545    0.0000 </r>
      </set>
     </set>
    </set>
   </array>
  </eigenvalues>
  <separator name="orbital magnetization" >
   <v name="MAGDIPOLOUT">      0.00000000      0.00000000      0.00000000</v>
  </separator>
  <dos>
   <i name="efermi">      5.68202446 </i>
   <total>
    <array>
     <dimension dim="1">gridpoints</dimension>
     <dimension dim="2">spin</dimension>
     <field>energy</field>
     <field>total</field>
     <field>integrated</field>
     <set>
      <set comment="spin 1">
       <r>    -2.8353     0.0000     0.0000 </r>
       <r>    -2.7710     0.0000     0.0000 </r>
       <r>    -2.7067     0.0000     0.0000 </r>
       <r>    -2.6424     0.0000     0.0000 </r>
       <r>    -2.5781     0.0000     0.0000 </r>
       <r>    -2.5138     0.0000     0.0000 </r>
       <r>    -2.4495     0.0000     0.0000 </r>
       <r>    -2.3851     0.0000     0.0000 </r>
       <r>    -2.3208     0.0000     0.0000 </r>
       <r>    -2.2565     0.0000     0.0000 </r>
       <r>    -2.1922     0.0000     0.0000 </r>
       <r>    -2.1279     0.0000     0.0000 </r>
       <r>    -2.0636    -0.0010    -0.0001 </r>
       <r>    -1.9993     0.0020     0.0001 </r>
       <r>    -1.9349     0.1579     0.0102 </r>
       <r>    -1.8706     0.0307     0.0122 </r>
       <r>    -1.8063    -0.0030     0.0120 </r>
       <r>    -1.7420     0.0000     0.0120 </r>
       <r>    -1.6777    -0.0001     0.0120 </r>
       <r>    -1.6134    -0.0077     0.0115 </r>
       <r>    -1.5491     0.1055     0.0183 </r>
       <r>    -1.4847     0.1597     0.0286 </r>
       <r>    -1.4204    -0.0083     0.0280 </r>
       <r>    -1.3561    -0.0004     0.0280 </r>
       <r>    -1.2918    -0.0001     0.0280 </r>
       <r>    -1.2275    -0.0136     0.0271 </r>
       <r>    -1.1632     0.1460     0.0365 </r>
       <r>    -1.0988     0.6179     0.0763 </r>
       <r>    -1.0345    -0.0004     0.0762 </r>
       <r>    -0.9702    -0.0035     0.0760 </r>
       <r>    -0.9059     0.0000     0.0760 </r>
       <r>    -0.8416     0.0000     0.0760 </r>
       <r>    -0.7773     0.0000     0.0760 </r>
       <r>    -0.7130     0.0000     0.0760 </r>
       <r>    -0.6486     0.0000     0.0760 </r>
       <r>    -0.5843     0.0000     0.0760 </r>
       <r>    -0.5200    -0.0061     0.0756 </r>
       <r>    -0.4557     0.0315     0.0776 </r>
       <r>    -0.3914     0.6756     0.1211 </r>
       <r>    -0.3271     0.2370     0.1363 </r>
       <r>    -0.2628    -0.0038     0.1361 </r>
       <r>    -0.1984    -0.0015     0.1360 </r>
       <r>    -0.1341    -0.0211     0.1346 </r>
       <r>    -0.0698     0.2751     0.1523 </r>
       <r>    -0.0055     0.5167     0.1856 </r>
       <r>     0.0588    -0.0239     0.1840 </r>
       <r>     0.1231    -0.0252     0.1824 </r>
       <r>     0.1875     0.5010     0.2146 </r>
       <r>     0.2518     0.2925     0.2334 </r>
       <r>     0.3161    -0.0219     0.2320 </r>
       <r>     0.3804    -0.0003     0.2320 </r>
       <r>     0.4447     0.0000     0.2320 </r>
       <r>     0.5090     0.0000     0.2320 </r>
       <r>     0.5733     0.0000     0.2320 </r>
       <r>     0.6377     0.0000     0.2320 </r>
       <r>     0.7020    -0.0001     0.2320 </r>
       <r>     0.7663    -0.0151     0.2310 </r>
       <r>     0.8306     0.1143     0.2384 </r>
       <r>     0.8949     1.2213     0.3169 </r>
       <r>     0.9592     0.9705     0.3793 </r>
       <r>     1.0235    -0.0494     0.3762 </r>
       <r>     1.0879    -0.0032     0.3760 </r>
       <r>     1.1522    -0.0445     0.3731 </r>
       <r>     1.2165     0.5595     0.4091 </r>
       <r>     1.2808     1.7076     0.5189 </r>
       <r>     1.3451     0.0272     0.5206 </r>
       <r>     1.4094    -0.0325     0.5186 </r>
       <r>     1.4737     0.5178     0.5519 </r>
       <r>     1.5381     0.6695     0.5949 </r>
       <r>     1.6024     0.6058     0.6339 </r>
       <r>     1.6667     0.1058     0.6407 </r>
       <r>     1.7310    -0.0107     0.6400 </r>
       <r>     1.7953    -0.0082     0.6395 </r>
       <r>     1.8596    -0.0118     0.6387 </r>
       <r>     1.9240     1.4506     0.7320 </r>
       <r>     1.9883     1.7901     0.8471 </r>
       <r>     2.0526     1.6590     0.9538 </r>
       <r>     2.1169     0.8455     1.0082 </r>
       <r>     2.1812     0.6048     1.0471 </r>
       <r>     2.2455     0.3372     1.0688 </r>
       <r>     2.3098     1.1289     1.1414 </r>
       <r>     2.3742     1.2770     1.2235 </r>
       <r>     2.4385     0.4659     1.2535 </r>
       <r>     2.5028     0.1362     1.2623 </r>
       <r>     2.5671     0.5965     1.3006 </r>
       <r>     2.6314    -0.0317     1.2986 </r>
       <r>     2.6957     0.4578     1.3280 </r>
       <r>     2.7600     0.7760     1.3779 </r>
       <r>     2.8244     3.0463     1.5739 </r>
       <r>     2.8887     1.8714     1.6942 </r>
       <r>     2.9530     1.2988     1.7778 </r>
       <r>     3.0173     0.3831     1.8024 </r>
       <r>     3.0816    -0.0136     1.8015 </r>
       <r>     3.1459     1.7541     1.9143 </r>
       <r>     3.2103     1.6136     2.0181 </r>
       <r>     3.2746     0.7230     2.0646 </r>
       <r>     3.3389     0.0618     2.0686 </r>
       <r>     3.4032    -0.0114     2.0678 </r>
       <r>     3.4675     0.0163     2.0689 </r>
       <r>     3.5318     0.2172     2.0829 </r>
       <r>     3.5961    -0.0072     2.0824 </r>
       <r>     3.6605     0.4164     2.1092 </r>
       <r>     3.7248     0.8949     2.1667 </r>
       <r>     3.7891     1.4156     2.2578 </r>
       <r>     3.8534     0.5597     2.2938 </r>
       <r>     3.9177     0.4941     2.3255 </r>
       <r>     3.9820    -0.0274     2.3238 </r>
       <r>     4.0463     0.0338     2.3260 </r>
       <r>     4.1107     0.2820     2.3441 </r>
       <r>     4.1750     1.6568     2.4507 </r>
       <r>     4.2393     2.5219     2.6129 </r>
       <r>     4.3036     0.6494     2.6546 </r>
       <r>     4.3679     2.5645     2.8196 </r>
       <r>     4.4322     4.2300     3.0916 </r>
       <r>     4.4965     1.0365     3.1583 </r>
       <r>     4.5609     1.1557     3.2326 </r>
       <r>     4.6252     1.8135     3.3492 </r>
       <r>     4.6895     1.3703     3.4374 </r>
       <r>     4.7538     0.5039     3.4698 </r>
       <r>     4.8181     1.4538     3.5633 </r>
       <r>     4.8824     1.2261     3.6421 </r>
       <r>     4.9468     2.4411     3.7991 </r>
       <r>     5.0111     3.1908     4.0043 </r>
       <r>     5.0754     0.6684     4.0473 </r>
       <r>     5.1397    -0.0968     4.0411 </r>
       <r>     5.2040     0.4357     4.0691 </r>
       <r>     5.2683     2.8991     4.2556 </r>
       <r>     5.3326     2.6745     4.4276 </r>
       <r>     5.3970     2.1881     4.5683 </r>
       <r>     5.4613     0.7591     4.6171 </r>
       <r>     5.5256     0.9582     4.6788 </r>
       <r>     5.5899     1.1647     4.7537 </r>
       <r>     5.6542     3.2155     4.9605 </r>
       <r>     5.7185     1.5452     5.0599 </r>
       <r>     5.7828     1.6749     5.1676 </r>
       <r>     5.8472     0.0715     5.1722 </r>
       <r>     5.9115     0.0233     5.1737 </r>
       <r>     5.9758     1.7820     5.2883 </r>
       <r>     6.0401     0.9612     5.3501 </r>
       <r>     6.1044     1.2232     5.4288 </r>
       <r>     6.1687     1.6751     5.5365 </r>
       <r>     6.2331     0.7929     5.5875 </r>
       <r>     6.2974     0.0081     5.5880 </r>
       <r>     6.3617     0.0313     5.5900 </r>
       <r>     6.4260     0.5474     5.6252 </r>
       <r>     6.4903     0.1737     5.6364 </r>
       <r>     6.5546     0.1320     5.6449 </r>
       <r>     6.6189     0.6627     5.6875 </r>
       <r>     6.6833     0.3034     5.7070 </r>
       <r>     6.7476     0.5820     5.7445 </r>
       <r>     6.8119    -0.0434     5.7417 </r>
       <r>     6.8762     1.0843     5.8114 </r>
       <r>     6.9405     0.5033     5.8438 </r>
       <r>     7.0048     0.6633     5.8864 </r>
       <r>     7.0691     0.7589     5.9352 </r>
       <r>     7.1335     0.0060     5.9356 </r>
       <r>     7.1978     0.1745     5.9469 </r>
       <r>     7.2621     0.7936     5.9979 </r>
       <r>     7.3264     0.2096     6.0114 </r>
       <r>     7.3907     0.5734     6.0483 </r>
       <r>     7.4550     0.3756     6.0724 </r>
       <r>     7.5194     0.8301     6.1258 </r>
       <r>     7.5837     0.7295     6.1727 </r>
       <r>     7.6480     0.6210     6.2127 </r>
       <r>     7.7123     0.0599     6.2165 </r>
       <r>     7.7766    -0.0080     6.2160 </r>
       <r>     7.8409     0.0000     6.2160 </r>
       <r>     7.9052    -0.0017     6.2159 </r>
       <r>     7.9696    -0.0356     6.2136 </r>
       <r>     8.0339     0.6420     6.2549 </r>
       <r>     8.0982     1.4011     6.3450 </r>
       <r>     8.1625     1.2241     6.4237 </r>
       <r>     8.2268     1.3275     6.5091 </r>
       <r>     8.2911    -0.0896     6.5033 </r>
       <r>     8.3554     0.0748     6.5082 </r>
       <r>     8.4198     1.2820     6.5906 </r>
       <r>     8.4841     0.4540     6.6198 </r>
       <r>     8.5484     0.5816     6.6572 </r>
       <r>     8.6127     0.7589     6.7060 </r>
       <r>     8.6770     1.5957     6.8086 </r>
       <r>     8.7413     1.2828     6.8911 </r>
       <r>     8.8056     0.3209     6.9118 </r>
       <r>     8.8700     0.8364     6.9656 </r>
       <r>     8.9343     1.7691     7.0794 </r>
       <r>     8.9986     1.1539     7.1536 </r>
       <r>     9.0629     0.6024     7.1923 </r>
       <r>     9.1272     1.4248     7.2839 </r>
       <r>     9.1915     2.2530     7.4288 </r>
       <r>     9.2559     1.2277     7.5078 </r>
       <r>     9.3202     0.2411     7.5233 </r>
       <r>     9.3845     1.8283     7.6409 </r>
       <r>     9.4488     1.2276     7.7199 </r>
       <r>     9.5131     0.9788     7.7828 </r>
       <r>     9.5774     1.0502     7.8503 </r>
       <r>     9.6417    -0.0263     7.8487 </r>
       <r>     9.7061     1.0331     7.9151 </r>
       <r>     9.7704     1.3733     8.0034 </r>
       <r>     9.8347     1.4664     8.0977 </r>
       <r>     9.8990     0.4329     8.1256 </r>
       <r>     9.9633     0.0040     8.1258 </r>
       <r>    10.0276     1.2035     8.2032 </r>
       <r>    10.0919     1.9428     8.3282 </r>
       <r>    10.1563     1.5225     8.4261 </r>
       <r>    10.2206     0.6461     8.4677 </r>
       <r>    10.2849     0.9594     8.5294 </r>
       <r>    10.3492     1.3678     8.6173 </r>
       <r>    10.4135     1.1726     8.6927 </r>
       <r>    10.4778     3.7062     8.9311 </r>
       <r>    10.5422     1.8474     9.0499 </r>
       <r>    10.6065     3.8330     9.2964 </r>
       <r>    10.6708     2.8179     9.4777 </r>
       <r>    10.7351     4.4567     9.7643 </r>
       <r>    10.7994     3.1793     9.9688 </r>
       <r>    10.8637     2.7126    10.1432 </r>
       <r>    10.9280     1.2050    10.2207 </r>
       <r>    10.9924     0.9065    10.2790 </r>
       <r>    11.0567     0.0692    10.2835 </r>
       <r>    11.1210     0.2343    10.2986 </r>
       <r>    11.1853     0.5168    10.3318 </r>
       <r>    11.2496     0.3345    10.3533 </r>
       <r>    11.3139     0.4787    10.3841 </r>
       <r>    11.3782     0.2816    10.4022 </r>
       <r>    11.4426     0.3120    10.4223 </r>
       <r>    11.5069     0.2297    10.4371 </r>
       <r>    11.5712    -0.0208    10.4357 </r>
       <r>    11.6355     0.0146    10.4367 </r>
       <r>    11.6998     0.6228    10.4767 </r>
       <r>    11.7641     0.3033    10.4962 </r>
       <r>    11.8284     0.5718    10.5330 </r>
       <r>    11.8928    -0.0153    10.5320 </r>
       <r>    11.9571    -0.0159    10.5310 </r>
       <r>    12.0214     0.5804    10.5683 </r>
       <r>    12.0857     0.1988    10.5811 </r>
       <r>    12.1500    -0.0209    10.5797 </r>
       <r>    12.2143    -0.0033    10.5795 </r>
       <r>    12.2787     0.7470    10.6276 </r>
       <r>    12.3430     0.2121    10.6412 </r>
       <r>    12.4073    -0.0189    10.6400 </r>
       <r>    12.4716    -0.0173    10.6389 </r>
       <r>    12.5359     0.2047    10.6520 </r>
       <r>    12.6002     0.5327    10.6863 </r>
       <r>    12.6645     0.3634    10.7097 </r>
       <r>    12.7289     2.9184    10.8974 </r>
       <r>    12.7932     1.1758    10.9730 </r>
       <r>    12.8575     1.1176    11.0449 </r>
       <r>    12.9218     1.6401    11.1504 </r>
       <r>    12.9861     1.3796    11.2391 </r>
       <r>    13.0504     0.1651    11.2497 </r>
       <r>    13.1147     1.2664    11.3312 </r>
       <r>    13.1791     0.0219    11.3326 </r>
       <r>    13.2434    -0.0088    11.3320 </r>
       <r>    13.3077     0.0000    11.3320 </r>
       <r>    13.3720     0.0000    11.3320 </r>
       <r>    13.4363    -0.0004    11.3320 </r>
       <r>    13.5006    -0.0055    11.3316 </r>
       <r>    13.5650     0.1242    11.3396 </r>
       <r>    13.6293     0.1176    11.3472 </r>
       <r>    13.6936     0.6491    11.3889 </r>
       <r>    13.7579     0.0439    11.3917 </r>
       <r>    13.8222     0.1479    11.4013 </r>
       <r>    13.8865     0.2205    11.4154 </r>
       <r>    13.9508     0.2677    11.4327 </r>
       <r>    14.0152     0.5117    11.4656 </r>
       <r>    14.0795    -0.0230    11.4641 </r>
       <r>    14.1438    -0.0014    11.4640 </r>
       <r>    14.2081     0.0000    11.4640 </r>
       <r>    14.2724    -0.0043    11.4637 </r>
       <r>    14.3367    -0.0111    11.4630 </r>
       <r>    14.4010     0.8757    11.5193 </r>
       <r>    14.4654     0.2540    11.5357 </r>
       <r>    14.5297     0.2643    11.5527 </r>
       <r>    14.5940     1.6440    11.6584 </r>
       <r>    14.6583     0.4073    11.6846 </r>
       <r>    14.7226     0.1775    11.6960 </r>
       <r>    14.7869     0.0010    11.6961 </r>
       <r>    14.8512    -0.0023    11.6959 </r>
       <r>    14.9156    -0.0473    11.6929 </r>
       <r>    14.9799     0.6991    11.7379 </r>
       <r>    15.0442     0.9851    11.8012 </r>
       <r>    15.1085     1.2606    11.8823 </r>
       <r>    15.1728     0.0993    11.8887 </r>
       <r>    15.2371    -0.0051    11.8883 </r>
       <r>    15.3015     0.6170    11.9280 </r>
       <r>    15.3658     0.3154    11.9483 </r>
       <r>    15.4301     0.5704    11.9850 </r>
       <r>    15.4944    -0.0170    11.9839 </r>
       <r>    15.5587     0.0384    11.9864 </r>
       <r>    15.6230     0.2106    11.9999 </r>
       <r>    15.6873     0.0027    12.0001 </r>
       <r>    15.7517    -0.0014    12.0000 </r>
       <r>    15.8160     0.0000    12.0000 </r>
       <r>    15.8803     0.0000    12.0000 </r>
       <r>    15.9446     0.0000    12.0000 </r>
       <r>    16.0089     0.0000    12.0000 </r>
       <r>    16.0732     0.0000    12.0000 </r>
       <r>    16.1375     0.0000    12.0000 </r>
       <r>    16.2019     0.0000    12.0000 </r>
       <r>    16.2662     0.0000    12.0000 </r>
       <r>    16.3305     0.0000    12.0000 </r>
       <r>    16.3948     0.0000    12.0000 </r>
       <r>    16.4591     0.0000    12.0000 </r>
      </set>
     </set>
    </array>
   </total>
  </dos>
 </calculation>
 <structure name="finalpos" >
  <crystal>
   <varray name="basis" >
    <v>       2.86654409       0.00000000       0.00000000 </v>
    <v>      -0.95551470       2.70260368       0.00000000 </v>
    <v>      -0.95551470      -1.35130184       2.34052345 </v>
   </varray>
   <i name="volume">     18.13234550 </i>
   <varray name="rec_basis" >
    <v>       0.34885213       0.12333785       0.21362743 </v>
    <v>       0.00000000       0.37001356       0.21362743 </v>
    <v>       0.00000000       0.00000000       0.42725485 </v>
   </varray>
  </crystal>
  <varray name="positions" >
   <v>       0.00000000       0.00000000       0.00000000 </v>
  </varray>
 </structure>
</modeling>
