   4   4   1   0
  0.8797333E+01  0.2461200E-09  0.2461200E-09  0.6707900E-09  0.5000000E-15
  1.000000000000000E-004
  CAR 
 unknown system                          
     19.63518874    -16.63484120  301      3.97385203      1.00000000
    -16.635  0.0000E+00  0.0000E+00  0.0000E+00  0.0000E+00
    -16.514  0.0000E+00  0.0000E+00  0.0000E+00  0.0000E+00
    -16.393  0.0000E+00  0.0000E+00  0.0000E+00  0.0000E+00
    -16.272  0.0000E+00  0.0000E+00  0.0000E+00  0.0000E+00
    -16.151  0.0000E+00  0.0000E+00  0.0000E+00  0.0000E+00
    -16.030  0.0000E+00  0.0000E+00  0.0000E+00  0.0000E+00
    -15.909  0.0000E+00  0.0000E+00  0.0000E+00  0.0000E+00
    -15.789  0.0000E+00  0.0000E+00  0.0000E+00  0.0000E+00
    -15.668  0.0000E+00  0.0000E+00  0.0000E+00  0.0000E+00
    -15.547  0.0000E+00  0.0000E+00  0.0000E+00  0.0000E+00
    -15.426 -0.1115E-34 -0.7663E-35 -0.1348E-35 -0.9264E-36
    -15.305 -0.7412E-19 -0.5651E-19 -0.8961E-20 -0.6833E-20
    -15.184 -0.3723E-08 -0.3152E-08 -0.4502E-09 -0.3811E-09
    -15.063 -0.1019E-02 -0.9686E-03 -0.1231E-03 -0.1171E-03
    -14.942  0.6509E-01  0.6401E-01  0.7747E-02  0.7622E-02
    -14.821  0.7646E-01  0.7691E-01  0.1699E-01  0.1692E-01
    -14.700  0.8503E-01  0.8473E-01  0.2727E-01  0.2716E-01
    -14.580  0.3559E+00  0.3500E+00  0.7029E-01  0.6947E-01
    -14.459  0.4954E+00  0.4987E+00  0.1302E+00  0.1298E+00
    -14.338  0.5274E+00  0.5243E+00  0.1940E+00  0.1931E+00
    -14.217  0.2062E+00  0.2130E+00  0.2189E+00  0.2189E+00
    -14.096 -0.1155E-02 -0.1249E-02  0.2188E+00  0.2188E+00
    -13.975 -0.1147E-02 -0.1061E-02  0.2186E+00  0.2186E+00
    -13.854  0.2161E+00  0.2091E+00  0.2447E+00  0.2439E+00
    -13.733  0.5667E+00  0.5700E+00  0.3133E+00  0.3128E+00
    -13.612  0.5331E+00  0.5301E+00  0.3777E+00  0.3769E+00
    -13.491  0.4139E+00  0.4140E+00  0.4277E+00  0.4270E+00
    -13.371  0.5921E+00  0.5950E+00  0.4993E+00  0.4989E+00
    -13.250  0.5436E+00  0.5406E+00  0.5651E+00  0.5642E+00
    -13.129  0.2389E+00  0.2458E+00  0.5939E+00  0.5940E+00
    -13.008 -0.1563E-02 -0.1680E-02  0.5938E+00  0.5938E+00
    -12.887 -0.5158E-09 -0.6156E-09  0.5938E+00  0.5938E+00
    -12.766 -0.2559E-22 -0.1937E-22  0.5938E+00  0.5938E+00
    -12.645 -0.5961E-10 -0.4964E-10  0.5937E+00  0.5937E+00
    -12.524 -0.9549E-03 -0.8776E-03  0.5936E+00  0.5936E+00
    -12.403  0.2957E+00  0.2832E+00  0.6294E+00  0.6279E+00
    -12.282  0.1278E+01  0.1283E+01  0.7839E+00  0.7830E+00
    -12.162  0.1229E+01  0.1224E+01  0.9325E+00  0.9310E+00
    -12.041  0.3009E+00  0.3132E+00  0.9689E+00  0.9689E+00
    -11.920 -0.1037E-02 -0.1126E-02  0.9687E+00  0.9687E+00
    -11.799 -0.9557E-03 -0.8872E-03  0.9686E+00  0.9686E+00
    -11.678  0.2081E+00  0.2013E+00  0.9938E+00  0.9930E+00
    -11.557  0.6370E+00  0.6400E+00  0.1071E+01  0.1070E+01
    -11.436  0.6615E+00  0.6615E+00  0.1151E+01  0.1150E+01
    -11.315  0.4528E-01  0.4897E-01  0.1156E+01  0.1156E+01
    -11.194 -0.7511E-04 -0.8274E-04  0.1156E+01  0.1156E+01
    -11.073 -0.6706E-12 -0.8115E-12  0.1156E+01  0.1156E+01
    -10.953 -0.4708E-17 -0.3779E-17  0.1156E+01  0.1156E+01
    -10.832 -0.1024E-06 -0.8975E-07  0.1156E+01  0.1156E+01
    -10.711 -0.1036E-01 -0.1004E-01  0.1155E+01  0.1155E+01
    -10.590  0.5224E+00  0.5165E+00  0.1218E+01  0.1217E+01
    -10.469  0.6041E+00  0.6039E+00  0.1291E+01  0.1290E+01
    -10.348  0.4256E+00  0.4300E+00  0.1343E+01  0.1342E+01
    -10.227  0.1382E+01  0.1375E+01  0.1510E+01  0.1509E+01
    -10.106  0.1415E+01  0.1412E+01  0.1681E+01  0.1679E+01
     -9.985  0.3144E+00  0.3262E+00  0.1719E+01  0.1719E+01
     -9.864 -0.1024E-02 -0.1101E-02  0.1719E+01  0.1719E+01
     -9.744 -0.4103E-03 -0.3873E-03  0.1719E+01  0.1719E+01
     -9.623  0.1134E+00  0.1102E+00  0.1732E+01  0.1732E+01
     -9.502  0.6360E+00  0.6371E+00  0.1809E+01  0.1809E+01
     -9.381  0.2646E-01  0.2855E-01  0.1813E+01  0.1813E+01
     -9.260 -0.4315E-04 -0.4668E-04  0.1813E+01  0.1813E+01
     -9.139 -0.2652E-12 -0.3092E-12  0.1812E+01  0.1812E+01
     -9.018 -0.7898E-21 -0.6599E-21  0.1812E+01  0.1812E+01
     -8.897 -0.5027E-09 -0.4478E-09  0.1812E+01  0.1812E+01
     -8.776 -0.2037E-02 -0.1940E-02  0.1812E+01  0.1812E+01
     -8.655  0.3419E+00  0.3349E+00  0.1854E+01  0.1853E+01
     -8.535  0.1595E+01  0.1593E+01  0.2046E+01  0.2045E+01
     -8.414  0.3976E+00  0.4075E+00  0.2095E+01  0.2095E+01
     -8.293 -0.6382E-02 -0.6667E-02  0.2094E+01  0.2094E+01
     -8.172 -0.3922E-07 -0.4614E-07  0.2094E+01  0.2094E+01
     -8.051 -0.7096E-15 -0.5901E-15  0.2094E+01  0.2094E+01
     -7.930 -0.3039E-05 -0.2716E-05  0.2094E+01  0.2094E+01
     -7.809 -0.3903E-01 -0.3902E-01  0.2089E+01  0.2089E+01
     -7.688  0.1574E+01  0.1569E+01  0.2279E+01  0.2279E+01
     -7.567  0.1607E-01  0.2088E-01  0.2281E+01  0.2281E+01
     -7.446 -0.2484E-01 -0.2413E-01  0.2278E+01  0.2278E+01
     -7.326  0.1243E+01  0.1229E+01  0.2428E+01  0.2427E+01
     -7.205  0.1785E+01  0.1790E+01  0.2644E+01  0.2643E+01
     -7.084  0.9924E-01  0.1071E+00  0.2656E+01  0.2656E+01
     -6.963 -0.1662E-03 -0.1816E-03  0.2656E+01  0.2656E+01
     -6.842 -0.1321E-11 -0.1572E-11  0.2656E+01  0.2656E+01
     -6.721  0.0000E+00  0.0000E+00  0.2656E+01  0.2656E+01
     -6.600  0.0000E+00  0.0000E+00  0.2656E+01  0.2656E+01
     -6.479 -0.1967E-30 -0.1509E-30  0.2656E+01  0.2656E+01
     -6.358 -0.1493E-15 -0.1282E-15  0.2656E+01  0.2656E+01
     -6.237 -0.8636E-06 -0.7743E-06  0.2656E+01  0.2656E+01
     -6.117 -0.1681E-01 -0.1670E-01  0.2654E+01  0.2654E+01
     -5.996  0.7353E+00  0.7294E+00  0.2743E+01  0.2742E+01
     -5.875  0.8432E+00  0.8462E+00  0.2845E+01  0.2845E+01
     -5.754  0.1465E+01  0.1463E+01  0.3022E+01  0.3022E+01
     -5.633  0.7527E-01  0.7982E-01  0.3031E+01  0.3031E+01
     -5.512 -0.1356E-03 -0.1447E-03  0.3031E+01  0.3031E+01
     -5.391 -0.1151E-11 -0.1307E-11  0.3031E+01  0.3031E+01
     -5.270 -0.4882E-07 -0.4194E-07  0.3031E+01  0.3031E+01
     -5.149 -0.1158E-01 -0.1107E-01  0.3030E+01  0.3030E+01
     -5.028  0.7360E+00  0.7236E+00  0.3119E+01  0.3117E+01
     -4.908  0.8433E+00  0.8557E+00  0.3221E+01  0.3221E+01
     -4.787 -0.1693E-01 -0.1738E-01  0.3219E+01  0.3219E+01
     -4.666 -0.2669E-06 -0.3066E-06  0.3219E+01  0.3219E+01
     -4.545 -0.2683E-07 -0.2412E-07  0.3219E+01  0.3219E+01
     -4.424 -0.1441E-01 -0.1390E-01  0.3217E+01  0.3217E+01
     -4.303  0.1130E+01  0.1113E+01  0.3354E+01  0.3352E+01
     -4.182  0.3554E+01  0.3565E+01  0.3783E+01  0.3783E+01
     -4.061 -0.1673E-01 -0.1141E-01  0.3781E+01  0.3781E+01
     -3.940 -0.1016E-03 -0.1055E-03  0.3781E+01  0.3781E+01
     -3.819  0.7834E-02  0.7501E-02  0.3782E+01  0.3782E+01
     -3.699  0.4179E-01  0.4212E-01  0.3787E+01  0.3787E+01
     -3.578  0.1407E-01  0.1341E-01  0.3789E+01  0.3789E+01
     -3.457  0.1560E-01  0.1636E-01  0.3791E+01  0.3791E+01
     -3.336  0.1107E+00  0.1074E+00  0.3804E+01  0.3804E+01
     -3.215  0.2136E+00  0.2172E+00  0.3830E+01  0.3830E+01
     -3.094  0.1866E+00  0.1846E+00  0.3853E+01  0.3852E+01
     -2.973  0.1023E-01  0.1155E-01  0.3854E+01  0.3854E+01
     -2.852  0.1199E+00  0.1165E+00  0.3868E+01  0.3868E+01
     -2.731  0.9809E+00  0.9602E+00  0.3987E+01  0.3984E+01
     -2.610  0.3820E+01  0.3843E+01  0.4449E+01  0.4449E+01
     -2.490  0.1393E+00  0.1358E+00  0.4466E+01  0.4465E+01
     -2.369  0.3353E+00  0.3398E+00  0.4506E+01  0.4506E+01
     -2.248  0.7327E-01  0.7007E-01  0.4515E+01  0.4515E+01
     -2.127  0.2425E+00  0.2425E+00  0.4544E+01  0.4544E+01
     -2.006  0.1531E+00  0.1521E+00  0.4563E+01  0.4562E+01
     -1.885  0.3329E+01  0.3323E+01  0.4965E+01  0.4964E+01
     -1.764  0.5771E+00  0.5840E+00  0.5035E+01  0.5035E+01
     -1.643  0.8251E+00  0.8235E+00  0.5135E+01  0.5134E+01
     -1.522  0.5696E+00  0.5643E+00  0.5204E+01  0.5202E+01
     -1.401  0.1679E+01  0.1691E+01  0.5407E+01  0.5407E+01
     -1.281  0.1447E+01  0.1437E+01  0.5582E+01  0.5581E+01
     -1.160  0.4923E+00  0.5008E+00  0.5641E+01  0.5641E+01
     -1.039 -0.5465E-02 -0.4730E-02  0.5640E+01  0.5641E+01
     -0.918  0.1387E+00  0.1352E+00  0.5657E+01  0.5657E+01
     -0.797  0.2463E+00  0.2493E+00  0.5687E+01  0.5687E+01
     -0.676  0.6324E+00  0.6232E+00  0.5764E+01  0.5762E+01
     -0.555  0.2856E+00  0.2897E+00  0.5798E+01  0.5797E+01
     -0.434  0.6694E+00  0.6687E+00  0.5879E+01  0.5878E+01
     -0.313  0.2060E+01  0.2052E+01  0.6128E+01  0.6126E+01
     -0.192  0.1588E+01  0.1602E+01  0.6320E+01  0.6320E+01
     -0.072  0.8585E-03  0.1968E-02  0.6320E+01  0.6320E+01
      0.049  0.2870E+00  0.2778E+00  0.6355E+01  0.6354E+01
      0.170  0.3981E+00  0.4074E+00  0.6403E+01  0.6403E+01
      0.291  0.2704E+00  0.2639E+00  0.6436E+01  0.6435E+01
      0.412  0.1882E+01  0.1886E+01  0.6663E+01  0.6663E+01
      0.533  0.1561E+00  0.1562E+00  0.6682E+01  0.6682E+01
      0.654  0.8289E-01  0.7880E-01  0.6692E+01  0.6691E+01
      0.775  0.3759E+00  0.3789E+00  0.6738E+01  0.6737E+01
      0.896  0.4022E+00  0.3981E+00  0.6786E+01  0.6785E+01
      1.017  0.1234E+01  0.1233E+01  0.6935E+01  0.6934E+01
      1.137  0.8306E+00  0.8389E+00  0.7036E+01  0.7036E+01
      1.258 -0.7837E-02 -0.7524E-02  0.7035E+01  0.7035E+01
      1.379  0.4342E+00  0.4301E+00  0.7087E+01  0.7087E+01
      1.500  0.1926E+00  0.1938E+00  0.7111E+01  0.7110E+01
      1.621  0.8208E+00  0.8185E+00  0.7210E+01  0.7209E+01
      1.742  0.1047E+01  0.1045E+01  0.7336E+01  0.7336E+01
      1.863  0.1420E+00  0.1499E+00  0.7354E+01  0.7354E+01
      1.984  0.6605E+00  0.6560E+00  0.7434E+01  0.7433E+01
      2.105  0.1713E+00  0.1735E+00  0.7454E+01  0.7454E+01
      2.226  0.4926E+00  0.4916E+00  0.7514E+01  0.7513E+01
      2.346  0.2418E+00  0.2412E+00  0.7543E+01  0.7543E+01
      2.467  0.4590E+00  0.4613E+00  0.7599E+01  0.7598E+01
      2.588  0.6019E+00  0.5943E+00  0.7671E+01  0.7670E+01
      2.709  0.6948E+00  0.6926E+00  0.7755E+01  0.7754E+01
      2.830  0.4797E+00  0.4919E+00  0.7813E+01  0.7813E+01
      2.951 -0.6589E-02 -0.6958E-02  0.7813E+01  0.7813E+01
      3.072 -0.2955E-07 -0.3529E-07  0.7812E+01  0.7812E+01
      3.193 -0.1321E-02 -0.1260E-02  0.7812E+01  0.7812E+01
      3.314  0.1549E+00  0.1517E+00  0.7831E+01  0.7831E+01
      3.435  0.2853E+00  0.2861E+00  0.7866E+01  0.7865E+01
      3.555  0.1316E+00  0.1309E+00  0.7881E+01  0.7881E+01
      3.676  0.1323E+00  0.1332E+00  0.7897E+01  0.7897E+01
      3.797  0.1907E+00  0.1908E+00  0.7921E+01  0.7920E+01
      3.918  0.4025E+00  0.3956E+00  0.7969E+01  0.7968E+01
      4.039  0.2567E+00  0.2658E+00  0.8000E+01  0.8000E+01
      4.160 -0.1774E-02 -0.1958E-02  0.8000E+01  0.8000E+01
      4.281 -0.5358E-09 -0.6871E-09  0.8000E+01  0.8000E+01
      4.402  0.0000E+00  0.0000E+00  0.8000E+01  0.8000E+01
      4.523  0.0000E+00  0.0000E+00  0.8000E+01  0.8000E+01
      4.644  0.0000E+00  0.0000E+00  0.8000E+01  0.8000E+01
      4.764  0.0000E+00  0.0000E+00  0.8000E+01  0.8000E+01
      4.885  0.0000E+00  0.0000E+00  0.8000E+01  0.8000E+01
      5.006  0.0000E+00  0.0000E+00  0.8000E+01  0.8000E+01
      5.127  0.0000E+00  0.0000E+00  0.8000E+01  0.8000E+01
      5.248 -0.1123E-31 -0.7478E-32  0.8000E+01  0.8000E+01
      5.369 -0.2304E-16 -0.1726E-16  0.8000E+01  0.8000E+01
      5.490 -0.3282E-06 -0.2766E-06  0.8000E+01  0.8000E+01
      5.611 -0.2027E-01 -0.1955E-01  0.7998E+01  0.7998E+01
      5.732  0.9769E+00  0.9662E+00  0.8116E+01  0.8114E+01
      5.853  0.3557E+00  0.3629E+00  0.8159E+01  0.8158E+01
      5.973  0.2418E+00  0.2447E+00  0.8188E+01  0.8188E+01
      6.094 -0.3276E-02 -0.3411E-02  0.8187E+01  0.8187E+01
      6.215  0.1582E-01  0.1361E-01  0.8189E+01  0.8189E+01
      6.336  0.3266E+00  0.3287E+00  0.8229E+01  0.8229E+01
      6.457  0.9621E-01  0.9654E-01  0.8241E+01  0.8241E+01
      6.578  0.6717E-01  0.6578E-01  0.8249E+01  0.8249E+01
      6.699  0.6484E+00  0.6373E+00  0.8327E+01  0.8326E+01
      6.820  0.6574E+00  0.6624E+00  0.8407E+01  0.8406E+01
      6.941  0.3935E+00  0.3944E+00  0.8454E+01  0.8453E+01
      7.062  0.3070E+00  0.3143E+00  0.8491E+01  0.8491E+01
      7.182  0.3983E+00  0.3963E+00  0.8539E+01  0.8539E+01
      7.303  0.4313E+00  0.4202E+00  0.8592E+01  0.8590E+01
      7.424  0.7214E+00  0.7223E+00  0.8679E+01  0.8677E+01
      7.545  0.5188E+00  0.5287E+00  0.8741E+01  0.8741E+01
      7.666  0.2135E+00  0.2124E+00  0.8767E+01  0.8767E+01
      7.787  0.2424E+00  0.2418E+00  0.8797E+01  0.8796E+01
      7.908  0.3885E+00  0.3905E+00  0.8844E+01  0.8843E+01
      8.029 -0.1552E-02 -0.1380E-03  0.8843E+01  0.8843E+01
      8.150  0.2400E+00  0.2362E+00  0.8872E+01  0.8872E+01
      8.271  0.2501E+00  0.2537E+00  0.8903E+01  0.8903E+01
      8.391  0.1894E+00  0.1882E+00  0.8926E+01  0.8925E+01
      8.512  0.3001E-01  0.2864E-01  0.8929E+01  0.8929E+01
      8.633  0.1666E+00  0.1694E+00  0.8949E+01  0.8949E+01
      8.754  0.1539E+00  0.1504E+00  0.8968E+01  0.8967E+01
      8.875  0.3774E-01  0.4008E-01  0.8972E+01  0.8972E+01
      8.996  0.2042E+00  0.2053E+00  0.8997E+01  0.8997E+01
      9.117  0.2724E+00  0.2701E+00  0.9030E+01  0.9030E+01
      9.238  0.5942E-01  0.6148E-01  0.9037E+01  0.9037E+01
      9.359 -0.3461E-02 -0.3433E-02  0.9037E+01  0.9037E+01
      9.480  0.9875E-01  0.9855E-01  0.9049E+01  0.9049E+01
      9.600  0.2678E-02  0.2260E-02  0.9049E+01  0.9049E+01
      9.721  0.8752E+00  0.8694E+00  0.9155E+01  0.9154E+01
      9.842  0.5227E+00  0.5222E+00  0.9218E+01  0.9217E+01
      9.963  0.3587E+00  0.3584E+00  0.9261E+01  0.9261E+01
     10.084  0.2661E+00  0.2684E+00  0.9294E+01  0.9293E+01
     10.205  0.5849E+00  0.5842E+00  0.9364E+01  0.9364E+01
     10.326  0.7252E+00  0.7216E+00  0.9452E+01  0.9451E+01
     10.447  0.2823E+00  0.2916E+00  0.9486E+01  0.9486E+01
     10.568  0.1975E+00  0.1966E+00  0.9510E+01  0.9510E+01
     10.689  0.2962E-01  0.3042E-01  0.9514E+01  0.9514E+01
     10.809  0.7234E-01  0.7180E-01  0.9522E+01  0.9522E+01
     10.930  0.3230E-01  0.3224E-01  0.9526E+01  0.9526E+01
     11.051  0.4695E+00  0.4686E+00  0.9583E+01  0.9583E+01
     11.172  0.1052E+00  0.1067E+00  0.9596E+01  0.9596E+01
     11.293 -0.1134E-02 -0.1124E-02  0.9596E+01  0.9596E+01
     11.414  0.1255E+00  0.1237E+00  0.9611E+01  0.9611E+01
     11.535  0.6884E-01  0.7059E-01  0.9619E+01  0.9619E+01
     11.656  0.2638E-01  0.2627E-01  0.9622E+01  0.9622E+01
     11.777  0.2278E+00  0.2205E+00  0.9650E+01  0.9649E+01
     11.898  0.5587E+00  0.5634E+00  0.9717E+01  0.9717E+01
     12.018  0.5299E+00  0.5263E+00  0.9781E+01  0.9781E+01
     12.139  0.4815E+00  0.4790E+00  0.9840E+01  0.9839E+01
     12.260  0.9364E+00  0.9332E+00  0.9953E+01  0.9951E+01
     12.381  0.1506E+01  0.1505E+01  0.1013E+02  0.1013E+02
     12.502  0.7147E+00  0.7182E+00  0.1022E+02  0.1022E+02
     12.623  0.9104E-01  0.1006E+00  0.1023E+02  0.1023E+02
     12.744  0.1741E+00  0.1596E+00  0.1025E+02  0.1025E+02
     12.865  0.1637E+01  0.1646E+01  0.1045E+02  0.1045E+02
     12.986  0.3837E+00  0.3821E+00  0.1050E+02  0.1050E+02
     13.107  0.1181E+01  0.1183E+01  0.1064E+02  0.1064E+02
     13.227  0.1513E+01  0.1505E+01  0.1082E+02  0.1082E+02
     13.348  0.1200E+01  0.1213E+01  0.1097E+02  0.1097E+02
     13.469  0.4730E+00  0.4700E+00  0.1103E+02  0.1103E+02
     13.590  0.9413E+00  0.9286E+00  0.1114E+02  0.1114E+02
     13.711  0.7100E+00  0.7193E+00  0.1123E+02  0.1122E+02
     13.832  0.9652E+00  0.9625E+00  0.1134E+02  0.1134E+02
     13.953  0.1290E+01  0.1244E+01  0.1150E+02  0.1149E+02
     14.074  0.2134E+01  0.2192E+01  0.1176E+02  0.1176E+02
     14.195  0.8836E+00  0.8802E+00  0.1186E+02  0.1186E+02
     14.316  0.1138E+01  0.1104E+01  0.1200E+02  0.1200E+02
     14.436  0.8165E+00  0.8504E+00  0.1210E+02  0.1210E+02
     14.557  0.4887E+00  0.4876E+00  0.1216E+02  0.1216E+02
     14.678  0.1229E+01  0.1203E+01  0.1231E+02  0.1230E+02
     14.799  0.9019E+00  0.9300E+00  0.1242E+02  0.1242E+02
     14.920  0.4036E+00  0.3979E+00  0.1246E+02  0.1246E+02
     15.041  0.6651E+00  0.6720E+00  0.1255E+02  0.1255E+02
     15.162  0.2003E+00  0.1980E+00  0.1257E+02  0.1257E+02
     15.283  0.6669E+00  0.6573E+00  0.1265E+02  0.1265E+02
     15.404  0.9117E+00  0.9182E+00  0.1276E+02  0.1276E+02
     15.525  0.5049E+00  0.5068E+00  0.1282E+02  0.1282E+02
     15.645  0.4779E+00  0.4815E+00  0.1288E+02  0.1288E+02
     15.766  0.5493E+00  0.5440E+00  0.1295E+02  0.1294E+02
     15.887  0.1599E+00  0.1593E+00  0.1296E+02  0.1296E+02
     16.008  0.4754E+00  0.4729E+00  0.1302E+02  0.1302E+02
     16.129  0.9272E-01  0.1006E+00  0.1303E+02  0.1303E+02
     16.250  0.7223E+00  0.7026E+00  0.1312E+02  0.1312E+02
     16.371  0.1059E+01  0.1076E+01  0.1325E+02  0.1325E+02
     16.492  0.8163E-01  0.8392E-01  0.1326E+02  0.1326E+02
     16.613  0.4062E+00  0.4053E+00  0.1331E+02  0.1331E+02
     16.734  0.5972E+00  0.5912E+00  0.1338E+02  0.1338E+02
     16.854  0.6084E+00  0.6084E+00  0.1345E+02  0.1345E+02
     16.975  0.8888E+00  0.8928E+00  0.1356E+02  0.1356E+02
     17.096  0.7093E+00  0.6941E+00  0.1365E+02  0.1364E+02
     17.217  0.1043E+01  0.1244E+01  0.1377E+02  0.1379E+02
     17.338  0.4836E+00  0.3688E+00  0.1383E+02  0.1384E+02
     17.459  0.6733E+00  0.5996E+00  0.1391E+02  0.1391E+02
     17.580  0.2432E+00  0.2497E+00  0.1394E+02  0.1394E+02
     17.701 -0.1007E-01 -0.9490E-02  0.1394E+02  0.1394E+02
     17.822  0.4023E+00  0.4010E+00  0.1399E+02  0.1399E+02
     17.943 -0.1110E-01 -0.1100E-01  0.1399E+02  0.1399E+02
     18.063  0.9961E-01  0.1002E+00  0.1400E+02  0.1400E+02
     18.184 -0.2404E-02 -0.2510E-02  0.1400E+02  0.1400E+02
     18.305 -0.1343E-07 -0.1611E-07  0.1400E+02  0.1400E+02
     18.426  0.0000E+00  0.0000E+00  0.1400E+02  0.1400E+02
     18.547  0.0000E+00  0.0000E+00  0.1400E+02  0.1400E+02
     18.668  0.0000E+00  0.0000E+00  0.1400E+02  0.1400E+02
     18.789  0.0000E+00  0.0000E+00  0.1400E+02  0.1400E+02
     18.910  0.0000E+00  0.0000E+00  0.1400E+02  0.1400E+02
     19.031  0.0000E+00  0.0000E+00  0.1400E+02  0.1400E+02
     19.152  0.0000E+00  0.0000E+00  0.1400E+02  0.1400E+02
     19.272  0.0000E+00  0.0000E+00  0.1400E+02  0.1400E+02
     19.393  0.0000E+00  0.0000E+00  0.1400E+02  0.1400E+02
     19.514  0.0000E+00  0.0000E+00  0.1400E+02  0.1400E+02
     19.635  0.0000E+00  0.0000E+00  0.1400E+02  0.1400E+02
     19.63518874    -16.63484120  301      3.97385203      1.00000000
    -16.635  0.0000E+00  0.0000E+00  0.0000E+00  0.0000E+00  0.0000E+00  0.0000E+00  0.0000E+00  0.0000E+00  0.0000E+00  0.0000E+00  0.0000E+00  0.0000E+00  0.0000E+00  0.0000E+00  0.0000E+00  0.0000E+00  0.0000E+00  0.0000E+00
    -16.514  0.0000E+00  0.0000E+00  0.0000E+00  0.0000E+00  0.0000E+00  0.0000E+00  0.0000E+00  0.0000E+00  0.0000E+00  0.0000E+00  0.0000E+00  0.0000E+00  0.0000E+00  0.0000E+00  0.0000E+00  0.0000E+00  0.0000E+00  0.0000E+00
    -16.393  0.0000E+00  0.0000E+00  0.0000E+00  0.0000E+00  0.0000E+00  0.0000E+00  0.0000E+00  0.0000E+00  0.0000E+00  0.0000E+00  0.0000E+00  0.0000E+00  0.0000E+00  0.0000E+00  0.0000E+00  0.0000E+00  0.0000E+00  0.0000E+00
    -16.272  0.0000E+00  0.0000E+00  0.0000E+00  0.0000E+00  0.0000E+00  0.0000E+00  0.0000E+00  0.0000E+00  0.0000E+00  0.0000E+00  0.0000E+00  0.0000E+00  0.0000E+00  0.0000E+00  0.0000E+00  0.0000E+00  0.0000E+00  0.0000E+00
    -16.151  0.0000E+00  0.0000E+00  0.0000E+00  0.0000E+00  0.0000E+00  0.0000E+00  0.0000E+00  0.0000E+00  0.0000E+00  0.0000E+00  0.0000E+00  0.0000E+00  0.0000E+00  0.0000E+00  0.0000E+00  0.0000E+00  0.0000E+00  0.0000E+00
    -16.030  0.0000E+00  0.0000E+00  0.0000E+00  0.0000E+00  0.0000E+00  0.0000E+00  0.0000E+00  0.0000E+00  0.0000E+00  0.0000E+00  0.0000E+00  0.0000E+00  0.0000E+00  0.0000E+00  0.0000E+00  0.0000E+00  0.0000E+00  0.0000E+00
    -15.909  0.0000E+00  0.0000E+00  0.0000E+00  0.0000E+00  0.0000E+00  0.0000E+00  0.0000E+00  0.0000E+00  0.0000E+00  0.0000E+00  0.0000E+00  0.0000E+00  0.0000E+00  0.0000E+00  0.0000E+00  0.0000E+00  0.0000E+00  0.0000E+00
    -15.789  0.0000E+00  0.0000E+00  0.0000E+00  0.0000E+00  0.0000E+00  0.0000E+00  0.0000E+00  0.0000E+00  0.0000E+00  0.0000E+00  0.0000E+00  0.0000E+00  0.0000E+00  0.0000E+00  0.0000E+00  0.0000E+00  0.0000E+00  0.0000E+00
    -15.668  0.0000E+00  0.0000E+00  0.0000E+00  0.0000E+00  0.0000E+00  0.0000E+00  0.0000E+00  0.0000E+00  0.0000E+00  0.0000E+00  0.0000E+00  0.0000E+00  0.0000E+00  0.0000E+00  0.0000E+00  0.0000E+00  0.0000E+00  0.0000E+00
    -15.547  0.0000E+00  0.0000E+00  0.0000E+00  0.0000E+00  0.0000E+00  0.0000E+00  0.0000E+00  0.0000E+00  0.0000E+00  0.0000E+00  0.0000E+00  0.0000E+00  0.0000E+00  0.0000E+00  0.0000E+00  0.0000E+00  0.0000E+00  0.0000E+00
    -15.426 -0.1770E-35 -0.1217E-35 -0.3799E-49 -0.5763E-51 -0.1879E-41 -0.1281E-41 -0.1211E-48 -0.1630E-50  0.0000E+00  0.0000E+00  0.0000E+00  0.0000E+00  0.0000E+00  0.0000E+00  0.0000E+00  0.0000E+00  0.0000E+00  0.0000E+00
    -15.305 -0.1177E-19 -0.8974E-20 -0.2392E-33 -0.4031E-35 -0.3216E-25 -0.2435E-25 -0.7566E-33 -0.1137E-34  0.0000E+00  0.0000E+00  0.0000E+00  0.0000E+00  0.0000E+00  0.0000E+00  0.0000E+00  0.0000E+00  0.0000E+00  0.0000E+00
    -15.184 -0.5915E-09 -0.5008E-09 -0.1056E-22 -0.1981E-24 -0.3810E-14 -0.3207E-14 -0.3271E-22 -0.5545E-24  0.0000E+00  0.0000E+00  0.0000E+00  0.0000E+00  0.0000E+00  0.0000E+00  0.0000E+00  0.0000E+00  0.0000E+00  0.0000E+00
    -15.063 -0.1620E-03 -0.1540E-03 -0.2201E-17 -0.4463E-19 -0.2800E-08 -0.2626E-08 -0.6573E-17 -0.1225E-18  0.0000E+00  0.0000E+00  0.0000E+00  0.0000E+00  0.0000E+00  0.0000E+00  0.0000E+00  0.0000E+00  0.0000E+00  0.0000E+00
    -14.942  0.1036E-01  0.1019E-01  0.1339E-15  0.2343E-17  0.3258E-06  0.3150E-06  0.4199E-15  0.6396E-17  0.0000E+00  0.0000E+00  0.0000E+00  0.0000E+00  0.0000E+00  0.0000E+00  0.0000E+00  0.0000E+00  0.0000E+00  0.0000E+00
    -14.821  0.1229E-01  0.1236E-01 -0.4009E-11 -0.3370E-11  0.1683E-05  0.1678E-05 -0.1203E-10 -0.1011E-10  0.0000E+00  0.0000E+00  0.0000E+00  0.0000E+00  0.0000E+00  0.0000E+00  0.0000E+00  0.0000E+00  0.0000E+00  0.0000E+00
    -14.700  0.1392E-01  0.1387E-01 -0.3407E-05 -0.3201E-05  0.1451E-05  0.1464E-05 -0.1022E-04 -0.9604E-05  0.0000E+00  0.0000E+00  0.0000E+00  0.0000E+00  0.0000E+00  0.0000E+00  0.0000E+00  0.0000E+00  0.0000E+00  0.0000E+00
    -14.580  0.5583E-01  0.5492E-01  0.3159E-03  0.3091E-03  0.1401E-05  0.1355E-05  0.9476E-03  0.9273E-03  0.0000E+00  0.0000E+00  0.0000E+00  0.0000E+00  0.0000E+00  0.0000E+00  0.0000E+00  0.0000E+00  0.0000E+00  0.0000E+00
    -14.459  0.7798E-01  0.7847E-01  0.4844E-03  0.4875E-03  0.9449E-05  0.9416E-05  0.1453E-02  0.1462E-02  0.0000E+00  0.0000E+00  0.0000E+00  0.0000E+00  0.0000E+00  0.0000E+00  0.0000E+00  0.0000E+00  0.0000E+00  0.0000E+00
    -14.338  0.8444E-01  0.8392E-01  0.5259E-03  0.5227E-03  0.8753E-05  0.8825E-05  0.1578E-02  0.1568E-02  0.0000E+00  0.0000E+00  0.0000E+00  0.0000E+00  0.0000E+00  0.0000E+00  0.0000E+00  0.0000E+00  0.0000E+00  0.0000E+00
    -14.217  0.3325E-01  0.3433E-01  0.2074E-03  0.2142E-03  0.6393E-06  0.6773E-06  0.6223E-03  0.6426E-03  0.0000E+00  0.0000E+00  0.0000E+00  0.0000E+00  0.0000E+00  0.0000E+00  0.0000E+00  0.0000E+00  0.0000E+00  0.0000E+00
    -14.096 -0.1862E-03 -0.2013E-03 -0.1162E-05 -0.1256E-05 -0.2444E-08 -0.2665E-08 -0.3485E-05 -0.3769E-05  0.0000E+00  0.0000E+00  0.0000E+00  0.0000E+00  0.0000E+00  0.0000E+00  0.0000E+00  0.0000E+00  0.0000E+00  0.0000E+00
    -13.975 -0.1723E-03 -0.1593E-03 -0.9872E-05 -0.9128E-05 -0.2070E-08 -0.1895E-08 -0.3297E-05 -0.3049E-05  0.0000E+00  0.0000E+00  0.0000E+00  0.0000E+00  0.0000E+00  0.0000E+00  0.0000E+00  0.0000E+00  0.0000E+00  0.0000E+00
    -13.854  0.3246E-01  0.3140E-01  0.1860E-02  0.1799E-02  0.5609E-06  0.5280E-06  0.6213E-03  0.6010E-03  0.0000E+00  0.0000E+00  0.0000E+00  0.0000E+00  0.0000E+00  0.0000E+00  0.0000E+00  0.0000E+00  0.0000E+00  0.0000E+00
    -13.733  0.8569E-01  0.8618E-01  0.4913E-02  0.4942E-02  0.8143E-05  0.8101E-05  0.1641E-02  0.1651E-02  0.0000E+00  0.0000E+00  0.0000E+00  0.0000E+00  0.0000E+00  0.0000E+00  0.0000E+00  0.0000E+00  0.0000E+00  0.0000E+00
    -13.612  0.8201E-01  0.8153E-01  0.4717E-02  0.4690E-02  0.8448E-05  0.8507E-05  0.1568E-02  0.1560E-02  0.0000E+00  0.0000E+00  0.0000E+00  0.0000E+00  0.0000E+00  0.0000E+00  0.0000E+00  0.0000E+00  0.0000E+00  0.0000E+00
    -13.491  0.6282E-01  0.6289E-01  0.2785E-02  0.2820E-02  0.1130E-05  0.1144E-05  0.2720E-02  0.2665E-02  0.0000E+00  0.0000E+00  0.0000E+00  0.0000E+00  0.0000E+00  0.0000E+00  0.0000E+00  0.0000E+00  0.0000E+00  0.0000E+00
    -13.371  0.8782E-01  0.8822E-01  0.2255E-02  0.2265E-02  0.7575E-05  0.7531E-05  0.6803E-02  0.6836E-02  0.0000E+00  0.0000E+00  0.0000E+00  0.0000E+00  0.0000E+00  0.0000E+00  0.0000E+00  0.0000E+00  0.0000E+00  0.0000E+00
    -13.250  0.8200E-01  0.8153E-01  0.2118E-02  0.2106E-02  0.8158E-05  0.8216E-05  0.6353E-02  0.6317E-02  0.0000E+00  0.0000E+00  0.0000E+00  0.0000E+00  0.0000E+00  0.0000E+00  0.0000E+00  0.0000E+00  0.0000E+00  0.0000E+00
    -13.129  0.3630E-01  0.3734E-01  0.9386E-03  0.9655E-03  0.7223E-06  0.7617E-06  0.2816E-02  0.2896E-02  0.0000E+00  0.0000E+00  0.0000E+00  0.0000E+00  0.0000E+00  0.0000E+00  0.0000E+00  0.0000E+00  0.0000E+00  0.0000E+00
    -13.008 -0.2376E-03 -0.2553E-03 -0.6144E-05 -0.6602E-05 -0.3065E-08 -0.3334E-08 -0.1843E-04 -0.1980E-04  0.0000E+00  0.0000E+00  0.0000E+00  0.0000E+00  0.0000E+00  0.0000E+00  0.0000E+00  0.0000E+00  0.0000E+00  0.0000E+00
    -12.887 -0.7846E-10 -0.9363E-10 -0.2028E-11 -0.2421E-11 -0.4092E-15 -0.4931E-15 -0.6084E-11 -0.7262E-11  0.0000E+00  0.0000E+00  0.0000E+00  0.0000E+00  0.0000E+00  0.0000E+00  0.0000E+00  0.0000E+00  0.0000E+00  0.0000E+00
    -12.766 -0.3568E-23 -0.2701E-23 -0.3801E-24 -0.2878E-24 -0.7813E-29 -0.5881E-29 -0.2854E-24 -0.2161E-24  0.0000E+00  0.0000E+00  0.0000E+00  0.0000E+00  0.0000E+00  0.0000E+00  0.0000E+00  0.0000E+00  0.0000E+00  0.0000E+00
    -12.645 -0.8314E-11 -0.6923E-11 -0.8856E-12 -0.7376E-12 -0.3828E-16 -0.3171E-16 -0.6650E-12 -0.5538E-12  0.0000E+00  0.0000E+00  0.0000E+00  0.0000E+00  0.0000E+00  0.0000E+00  0.0000E+00  0.0000E+00  0.0000E+00  0.0000E+00
    -12.524 -0.1332E-03 -0.1224E-03 -0.1419E-04 -0.1304E-04 -0.1322E-08 -0.1207E-08 -0.1066E-04 -0.9795E-05  0.0000E+00  0.0000E+00  0.0000E+00  0.0000E+00  0.0000E+00  0.0000E+00  0.0000E+00  0.0000E+00  0.0000E+00  0.0000E+00
    -12.403  0.4124E-01  0.3950E-01  0.4394E-02  0.4209E-02  0.4498E-06  0.4129E-06  0.3299E-02  0.3161E-02  0.0000E+00  0.0000E+00  0.0000E+00  0.0000E+00  0.0000E+00  0.0000E+00  0.0000E+00  0.0000E+00  0.0000E+00  0.0000E+00
    -12.282  0.1794E+00  0.1801E+00  0.1911E-01  0.1918E-01  0.1318E-04  0.1311E-04  0.1435E-01  0.1440E-01  0.0000E+00  0.0000E+00  0.0000E+00  0.0000E+00  0.0000E+00  0.0000E+00  0.0000E+00  0.0000E+00  0.0000E+00  0.0000E+00
    -12.162  0.1757E+00  0.1750E+00  0.1869E-01  0.1862E-01  0.1334E-04  0.1347E-04  0.1403E-01  0.1397E-01  0.0000E+00  0.0000E+00  0.0000E+00  0.0000E+00  0.0000E+00  0.0000E+00  0.0000E+00  0.0000E+00  0.0000E+00  0.0000E+00
    -12.041  0.4329E-01  0.4505E-01  0.4607E-02  0.4795E-02  0.5237E-06  0.5666E-06  0.3456E-02  0.3598E-02  0.0000E+00  0.0000E+00  0.0000E+00  0.0000E+00  0.0000E+00  0.0000E+00  0.0000E+00  0.0000E+00  0.0000E+00  0.0000E+00
    -11.920 -0.1493E-03 -0.1620E-03 -0.1588E-04 -0.1725E-04 -0.1552E-08 -0.1703E-08 -0.1192E-04 -0.1294E-04  0.0000E+00  0.0000E+00  0.0000E+00  0.0000E+00  0.0000E+00  0.0000E+00  0.0000E+00  0.0000E+00  0.0000E+00  0.0000E+00
    -11.799 -0.1294E-03 -0.1201E-03 -0.7739E-05 -0.7185E-05 -0.1267E-08 -0.1169E-08 -0.2322E-04 -0.2155E-04  0.0000E+00  0.0000E+00  0.0000E+00  0.0000E+00  0.0000E+00  0.0000E+00  0.0000E+00  0.0000E+00  0.0000E+00  0.0000E+00
    -11.678  0.2818E-01  0.2726E-01  0.1686E-02  0.1631E-02  0.3753E-06  0.3539E-06  0.5057E-02  0.4892E-02  0.0000E+00  0.0000E+00  0.0000E+00  0.0000E+00  0.0000E+00  0.0000E+00  0.0000E+00  0.0000E+00  0.0000E+00  0.0000E+00
    -11.557  0.8689E-01  0.8727E-01  0.5184E-02  0.5209E-02  0.6336E-05  0.6316E-05  0.1555E-01  0.1563E-01  0.0000E+00  0.0000E+00  0.0000E+00  0.0000E+00  0.0000E+00  0.0000E+00  0.0000E+00  0.0000E+00  0.0000E+00  0.0000E+00
    -11.436  0.9186E-01  0.9185E-01  0.5455E-02  0.5456E-02  0.5022E-05  0.5086E-05  0.1637E-01  0.1637E-01  0.0000E+00  0.0000E+00  0.0000E+00  0.0000E+00  0.0000E+00  0.0000E+00  0.0000E+00  0.0000E+00  0.0000E+00  0.0000E+00
    -11.315  0.6336E-02  0.6850E-02  0.3750E-03  0.4056E-03 -0.1249E-07 -0.6507E-08  0.1125E-02  0.1217E-02  0.0000E+00  0.0000E+00  0.0000E+00  0.0000E+00  0.0000E+00  0.0000E+00  0.0000E+00  0.0000E+00  0.0000E+00  0.0000E+00
    -11.194 -0.1050E-04 -0.1156E-04 -0.6217E-06 -0.6849E-06 -0.8624E-10 -0.9587E-10 -0.1865E-05 -0.2055E-05  0.0000E+00  0.0000E+00  0.0000E+00  0.0000E+00  0.0000E+00  0.0000E+00  0.0000E+00  0.0000E+00  0.0000E+00  0.0000E+00
    -11.073 -0.9379E-13 -0.1135E-12 -0.5552E-14 -0.6718E-14 -0.3605E-18 -0.4396E-18 -0.1666E-13 -0.2015E-13  0.0000E+00  0.0000E+00  0.0000E+00  0.0000E+00  0.0000E+00  0.0000E+00  0.0000E+00  0.0000E+00  0.0000E+00  0.0000E+00
    -10.953 -0.6008E-18 -0.4822E-18 -0.1488E-18 -0.1195E-18 -0.1875E-23 -0.1502E-23 -0.5199E-19 -0.4174E-19  0.0000E+00  0.0000E+00  0.0000E+00  0.0000E+00  0.0000E+00  0.0000E+00  0.0000E+00  0.0000E+00  0.0000E+00  0.0000E+00
    -10.832 -0.1308E-07 -0.1146E-07 -0.3238E-08 -0.2838E-08 -0.7095E-13 -0.6203E-13 -0.1131E-08 -0.9914E-09  0.0000E+00  0.0000E+00  0.0000E+00  0.0000E+00  0.0000E+00  0.0000E+00  0.0000E+00  0.0000E+00  0.0000E+00  0.0000E+00
    -10.711 -0.1325E-02 -0.1284E-02 -0.3277E-03 -0.3177E-03 -0.1908E-07 -0.1826E-07 -0.1145E-03 -0.1110E-03  0.0000E+00  0.0000E+00  0.0000E+00  0.0000E+00  0.0000E+00  0.0000E+00  0.0000E+00  0.0000E+00  0.0000E+00  0.0000E+00
    -10.590  0.6694E-01  0.6617E-01  0.1653E-01  0.1635E-01  0.1723E-05  0.1686E-05  0.5776E-02  0.5712E-02  0.0000E+00  0.0000E+00  0.0000E+00  0.0000E+00  0.0000E+00  0.0000E+00  0.0000E+00  0.0000E+00  0.0000E+00  0.0000E+00