    4    4    1    2
  0.8797333E+01  0.2461200E-09  0.2461200E-09  0.6707900E-09  0.5000000E-15
  1.000000000000000E-004
  CAR 
 unknown system                          
   16   50   14
 
  0.0000000E+00  0.0000000E+00  0.0000000E+00  0.1953125E-02
   1      -14.986203    -14.985133
   2      -14.687185    -14.686110
   3       -3.822594     -3.821397
   4       -1.865562     -1.864212
   5        1.724402      1.724710
   6        1.724415      1.724721
   7        1.729131      1.729439
   8        1.729144      1.729451
   9        8.985829      8.986208
  10       13.143992     13.145259
  11       13.143996     13.145263
  12       13.207083     13.208351
  13       13.207087     13.208353
  14       15.323846     15.324184
 
  0.1250000E+00 -0.6938894E-17  0.0000000E+00  0.1171875E-01
   1      -14.612928    -14.611869
   2      -14.320201    -14.319139
   3       -3.368791     -3.367602
   4       -1.444430     -1.443094
   5        0.305510      0.305925
   6        0.350751      0.351164
   7        0.990042      0.990423
   8        1.028407      1.028786
   9        9.438418      9.438793
  10       13.175516     13.176974
  11       13.284148     13.285601
  12       14.661637     14.662843
  13       14.699905     14.701108
  14       14.908516     14.909667
 
  0.2500000E+00 -0.1387779E-16  0.0000000E+00  0.1171875E-01
   1      -13.501631    -13.500611
   2      -13.228496    -13.227474
   3       -2.740911     -2.740295
   4       -2.637819     -2.637208
   5       -2.036502     -2.035343
   6       -0.329328     -0.328862
   7       -0.278903     -0.278439
   8       -0.209814     -0.208511
   9       10.794429     10.794801
  10       11.750036     11.751094
  11       12.400717     12.401898
  12       12.734038     12.735763
  13       13.021428     13.023159
  14       16.636691     16.637445
 
  0.3750000E+00 -0.5551115E-16  0.0000000E+00  0.1171875E-01
   1      -11.690951    -11.690008
   2      -11.450670    -11.449727
   3       -6.062343     -6.061544
   4       -5.910935     -5.910144
   5       -1.346585     -1.346074
   6       -1.287777     -1.287269
   7        0.056455      0.057551
   8        1.625811      1.627056
   9        8.110530      8.111657
  10        9.106317      9.107586
  11       12.171684     12.173428
  12       12.494221     12.495873
  13       13.152513     13.153200
  14       17.985360     17.986551
 
  0.5000000E+00 -0.2775558E-16  0.0000000E+00  0.5859375E-02
   1       -9.629941     -9.629260
   2       -9.519888     -9.519139
   3       -8.567980     -8.566946
   4       -8.485260     -8.484179
   5       -1.711582     -1.711059
   6       -1.654316     -1.653794
   7        1.943916      1.944786
   8        2.634083      2.635398
   9        6.250490      6.251559
  10        6.915014      6.916514
  11       11.970337     11.972177
  12       12.368887     12.370748
  13       16.027578     16.027540
  14       16.151220     16.152253
 
  0.1250000E+00  0.1250000E+00  0.0000000E+00  0.1171875E-01
   1      -13.870425    -13.869392
   2      -13.591184    -13.590149
   3       -2.475675     -2.474506
   4       -1.504210     -1.503726
   5       -1.458171     -1.457680
   6       -0.611931     -0.610615
   7       -0.418435     -0.417884
   8       -0.387686     -0.387135
   9       10.351577     10.351951
  10       12.834705     12.835740
  11       13.249925     13.251063
  12       13.963183     13.964819
  13       14.139474     14.141128
  14       15.658218     15.657955
 
  0.2500000E+00  0.1250000E+00  0.0000000E+00  0.2343750E-01
   1      -12.408206    -12.407229
   2      -12.155114    -12.154137
   3       -4.341178     -4.340516
   4       -4.230978     -4.230322
   5       -1.961160     -1.960506
   6       -1.896389     -1.895743
   7       -0.743977     -0.742849
   8        0.962907      0.964178
   9        9.654621      9.655675
  10       10.337868     10.339024
  11       12.156404     12.156773
  12       13.943106     13.944809
  13       14.319883     14.321627
  14       17.096520     17.098032
 
  0.3750000E+00  0.1250000E+00  0.0000000E+00  0.2343750E-01
   1      -10.310629    -10.309771
   2      -10.101164    -10.100307
   3       -7.379246     -7.378378
   4       -7.220221     -7.219365
   5       -2.737568     -2.736895
   6       -2.659169     -2.658506
   7        1.550900      1.551915
   8        2.751974      2.753202
   9        6.660333      6.661439
  10        7.458477      7.459749
  11       13.544802     13.546463
  12       13.977895     13.979562
  13       14.823210     14.823760
  14       17.755292     17.749590
 
  0.2500000E+00  0.2500000E+00  0.0000000E+00  0.1171875E-01
   1      -10.642660    -10.641768
   2      -10.423883    -10.422992
   3       -5.845066     -5.844450
   4       -5.768156     -5.767526
   5       -4.263374     -4.262426
   6       -4.204362     -4.203412
   7        1.295000      1.296064
   8        2.737462      2.738695
   9        7.272030      7.273083
  10        7.878241      7.879327
  11       14.339413     14.339798
  12       16.659647     16.661369
  13       16.676587     16.678682
  14       16.891936     16.893174
 
  0.3750000E+00  0.2500000E+00  0.0000000E+00  0.1171875E-01
   1       -8.673990     -8.673336
   2       -8.570160     -8.569428
   3       -7.757622     -7.756792
   4       -7.712072     -7.711196
   5       -5.073792     -5.072807
   6       -4.971917     -4.970954
   7        3.285874      3.286646
   8        3.935616      3.937053
   9        5.709826      5.711181
  10        5.891495      5.892281
  11       16.260773     16.263154
  12       16.283958     16.286341
  13       16.469677     16.470576
  14       16.803699     16.805460
 
  0.0000000E+00  0.0000000E+00  0.1250000E+00  0.3906250E-02
   1      -14.975699    -14.974627
   2      -14.699350    -14.698275
   3       -3.759665     -3.758465
   4       -1.959831     -1.958494
   5        1.712869      1.713176
   6        1.712882      1.713188
   7        1.724168      1.724477
   8        1.724182      1.724489
   9        9.178183      9.178571
  10       13.136832     13.138099
  11       13.136836     13.138102
  12       13.180667     13.181933
  13       13.180671     13.181936
  14       14.935241     14.935689
 
  0.1250000E+00 -0.6938894E-17  0.1250000E+00  0.2343750E-01
   1      -14.602450    -14.601391
   2      -14.332063    -14.331001
   3       -3.306406     -3.305213
   4       -1.535077     -1.533751
   5        0.307328      0.307743
   6        0.348599      0.349012
   7        0.995384      0.995764
   8        1.027319      1.027698
   9        9.628046      9.628433
  10       13.176561     13.178016
  11       13.279683     13.281136
  12       14.664343     14.665544
  13       14.698393     14.699594
  14       14.915965     14.916297
 
  0.2500000E+00 -0.1387779E-16  0.1250000E+00  0.2343750E-01
   1      -13.491820    -13.490800
   2      -13.239429    -13.238407
   3       -2.737128     -2.736512
   4       -2.644961     -2.644351
   5       -1.974857     -1.973692
   6       -0.321739     -0.321273
   7       -0.295005     -0.293711
   8       -0.280818     -0.280354
   9       10.961435     10.961832
  10       11.783795     11.784842
  11       12.359926     12.361107
  12       12.744668     12.746388
  13       13.021781     13.023508
  14       16.323975     16.324696
 
  0.3750000E+00 -0.5551115E-16  0.1250000E+00  0.2343750E-01
   1      -11.682225    -11.681282
   2      -11.460094    -11.459151
   3       -6.057027     -6.056229
   4       -5.918595     -5.917804
   5       -1.343797     -1.343287
   6       -1.292578     -1.292070
   7        0.110205      0.111305
   8        1.551663      1.552897
   9        8.133190      8.134321
  10        9.058226      9.059486
  11       12.184612     12.186373
  12       12.488899     12.490599
  13       13.310048     13.310683
  14       17.740298     17.741401
 
  0.5000000E+00 -0.2775558E-16  0.1250000E+00  0.1171875E-01
   1       -9.624805     -9.624123
   2       -9.523253     -9.522507
   3       -8.566151     -8.565114
   4       -8.489697     -8.488617
   5       -1.709345     -1.708823
   6       -1.656289     -1.655768
   7        1.978820      1.979702
   8        2.624305      2.625600
   9        6.246976      6.248060
  10        6.871809      6.873295
  11       11.984903     11.986744
  12       12.354632     12.356493
  13       16.178210     16.178188
  14       16.259311     16.260373
 
  0.1250000E+00  0.1250000E+00  0.1250000E+00  0.2343750E-01
   1      -13.860462    -13.859429
   2      -13.602175    -13.601140
   3       -2.413824     -2.412649
   4       -1.502966     -1.502482
   5       -1.463016     -1.462526
   6       -0.700216     -0.698910
   7       -0.415252     -0.414701
   8       -0.389212     -0.388661
   9       10.533406     10.533791
  10       12.844034     12.845075
  11       13.224420     13.225556
  12       13.971176     13.972799
  13       14.132408     14.134059
  14       15.665319     15.663136
 
  0.2500000E+00  0.1250000E+00  0.1250000E+00  0.4687500E-01
   1      -12.399074    -12.398097
   2      -12.165209    -12.164232
   3       -4.336300     -4.335637
   4       -4.234033     -4.233377
   5       -1.957496     -1.956842
   6       -1.897127     -1.896481
   7       -0.687145     -0.686013
   8        0.882272      0.883534
   9        9.673285      9.674344
  10       10.304499     10.305651
  11       12.321205     12.321588
  12       13.955863     13.957562
  13       14.311574     14.313317
  14       16.851412     16.852195
 
  0.3750000E+00  0.1250000E+00  0.1250000E+00  0.4687500E-01
   1      -10.302888    -10.302029
   2      -10.109453    -10.108596
   3       -7.373662     -7.372794
   4       -7.226357     -7.225500
   5       -2.734630     -2.733958
   6       -2.661416     -2.660752
   7        1.595813      1.596833
   8        2.707414      2.708630
   9        6.671196      6.672309
  10        7.416090      7.417355
  11       13.560642     13.562310
  12       13.960107     13.961779
  13       14.944965     14.945542
  14       17.432683     17.434025
 
  0.2500000E+00  0.2500000E+00  0.1250000E+00  0.2343750E-01
   1      -10.635406    -10.634515
   2      -10.433031    -10.432141
   3       -5.842790     -5.842174
   4       -5.771992     -5.771364
   5       -4.262426     -4.261478
   6       -4.207397     -4.206447
   7        1.339561      1.340626
   8        2.677176      2.678400
   9        7.290715      7.291770
  10        7.853911      7.854995
  11       14.427449     14.427905
  12       16.341690     16.343451
  13       16.883406     16.884621
  14       16.916426     16.916653
 
  0.3750000E+00  0.2500000E+00  0.1250000E+00  0.2343750E-01
   1       -8.669355     -8.668699
   2       -8.574357     -8.573629
   3       -7.756740     -7.755907
   4       -7.714727     -7.713852
   5       -5.070515     -5.069531
   6       -4.974647     -4.973683
   7        3.322792      3.323580
   8        3.934149      3.935564
   9        5.711689      5.713034
  10        5.869584      5.870388
  11       15.896250     15.898242
  12       15.985438     15.987474
  13       16.572405     16.573131
  14       17.329230     17.132961
 
  0.0000000E+00  0.0000000E+00  0.2500000E+00  0.3906250E-02
   1      -14.944984    -14.943912
   2      -14.733601    -14.732527
   3       -3.575872     -3.574661
   4       -2.208774     -2.207464
   5        1.713187      1.713494
   6        1.713200      1.713506
   7        1.721994      1.722302
   8        1.722007      1.722314
   9        9.731768      9.732187
  10       13.142228     13.143495
  11       13.142232     13.143498
  12       13.173595     13.174861
  13       13.173599     13.174864
  14       13.988434     13.988931
 
  0.1250000E+00 -0.6938894E-17  0.2500000E+00  0.2343750E-01
   1      -14.572355    -14.571295
   2      -14.365592    -14.364531
   3       -3.129218     -3.128017
   4       -1.779958     -1.778658
   5        0.311542      0.311957
   6        0.343656      0.344069
   7        0.996661      0.997041
   8        1.022236      1.022615
   9       10.171706     10.172124
  10       13.164604     13.166035
  11       13.266795     13.268249
  12       14.371223     14.371393
  13       14.663974     14.665182
  14       14.691736     14.692945
 
  0.2500000E+00 -0.1387779E-16  0.2500000E+00  0.2343750E-01
   1      -13.463630    -13.462610
   2      -13.270484    -13.269462
   3       -2.726207     -2.725592
   4       -2.658862     -2.658252
   5       -1.803205     -1.802030
   6       -0.520956     -0.519684
   7       -0.318192     -0.317726
   8       -0.285472     -0.285008
   9       11.405328     11.405881
  10       11.894958     11.895893
  11       12.262839     12.264019
  12       12.772044     12.773747
  13       13.024189     13.025905
  14       15.509787     15.510463
 
  0.3750000E+00 -0.5551115E-16  0.2500000E+00  0.2343750E-01
   1      -11.657299    -11.656356
   2      -11.487104    -11.486161
   3       -6.041128     -6.040330
   4       -5.934120     -5.933328
   5       -1.332856     -1.332346
   6       -1.298319     -1.297810
   7        0.265666      0.266779
   8        1.364662      1.365872
   9        8.215259      8.216402
  10        8.919409      8.920649
  11       12.227468     12.229255
  12       12.464576     12.466336
  13       13.773554     13.774145
  14       17.116700     17.117636
 
  0.5000000E+00 -0.2775558E-16  0.2500000E+00  0.1171875E-01
   1       -9.612266     -9.611579
   2       -9.533288     -9.532552
   3       -8.560437     -8.559393
   4       -8.501883     -8.500806
   5       -1.698368     -1.697845
   6       -1.662731     -1.662210
   7        2.073095      2.074011
   8        2.576308      2.577544
   9        6.242126      6.243259
  10        6.729186      6.730628
  11       12.025617     12.027461
  12       12.308092     12.309950
  13       16.555491     16.556623
  14       16.588949     16.588981
 
  0.1250000E+00  0.1250000E+00  0.2500000E+00  0.2343750E-01
   1      -13.831657    -13.830624
   2      -13.634076    -13.633041
   3       -2.241234     -2.240052
   4       -1.498375     -1.497891
   5       -1.467805     -1.467316
   6       -0.932892     -0.931611
   7       -0.409461     -0.408909
   8       -0.391465     -0.390914
   9       11.056195     11.056616
  10       12.878513     12.879572
  11       13.173370     13.174496
  12       13.971401     13.972946
  13       14.144613     14.146266
  14       15.106491     15.107077
 
  0.2500000E+00  0.1250000E+00  0.2500000E+00  0.4687500E-01
   1      -12.372736    -12.371759
   2      -12.193831    -12.192854
   3       -4.324444     -4.323783
   4       -4.244610     -4.243953
   5       -1.950786     -1.950133
   6       -1.904159     -1.903512
   7       -0.524712     -0.523570
   8        0.674548      0.675788
   9        9.741047      9.742116
  10       10.226277     10.227419
  11       12.788022     12.788448
  12       13.984337     13.986022
  13       14.292435     14.294175
  14       16.228731     16.229701
 
  0.3750000E+00  0.1250000E+00  0.2500000E+00  0.4687500E-01
   1      -10.280844    -10.279986
   2      -10.132853    -10.131995
   3       -7.356727     -7.355861
   4       -7.245134     -7.244276
   5       -2.726572     -2.725900
   6       -2.671175     -2.670510
   7        1.723272      1.724307
   8        2.577453      2.578637
   9        6.718422      6.719552
  10        7.300411      7.301661
  11       13.603764     13.605446
  12       13.908442     13.910125
  13       15.282711     15.283393
  14       17.101126     17.102517
 
  0.2500000E+00  0.2500000E+00  0.2500000E+00  0.2343750E-01
   1      -10.612524    -10.611633
   2      -10.457831    -10.456941
   3       -5.834034     -5.833417
   4       -5.779708     -5.779082
   5       -4.257525     -4.256576
   6       -4.215170     -4.214219
   7        1.481238      1.482315
   8        2.506671      2.507868
   9        7.354870      7.355929
  10        7.785701      7.786784
  11       14.661342     14.662014
  12       15.981662     15.983339
  13       16.939365     16.940462
  14       17.082853     17.085229
 
  0.3750000E+00  0.2500000E+00  0.2500000E+00  0.2343750E-01
   1       -8.656241     -8.655578
   2       -8.583305     -8.582587
   3       -7.755025     -7.754186
   4       -7.722051     -7.721179
   5       -5.059789     -5.058807
   6       -4.986159     -4.985192
   7        3.418191      3.419029
   8        3.897673      3.899004
   9        5.693383      5.694683
  10        5.799016      5.799888
  11       15.483458     15.485333
  12       15.610290     15.612219
  13       16.774472     16.775379
  14       17.510305     17.511851
 
  0.0000000E+00  0.0000000E+00  0.3750000E+00  0.3906250E-02
   1      -14.898221    -14.897149
   2      -14.783893    -14.782819
   3       -3.300065     -3.298844
   4       -2.561577     -2.560300
   5        1.713365      1.713672
   6        1.713378      1.713684
   7        1.718766      1.719074
   8        1.718779      1.719086
   9       10.577166     10.577619
  10       12.803364     12.803869
  11       13.143698     13.144963
  12       13.143703     13.144966
  13       13.163949     13.165214
  14       13.163955     13.165217
 
  0.1250000E+00 -0.6938894E-17  0.3750000E+00  0.2343750E-01
   1      -14.526454    -14.525395
   2      -14.414695    -14.413634
   3       -2.851044     -2.849829
   4       -2.125501     -2.124232
   5        0.317567      0.317982
   6        0.338052      0.338466
   7        1.005085      1.005464
   8        1.017268      1.017647
   9       10.999876     11.000332
  10       13.025470     13.026405
  11       13.255040     13.256494
  12       13.391545     13.392585
  13       14.667865     14.669063
  14       14.693836     14.695039
 
  0.2500000E+00 -0.1387779E-16  0.3750000E+00  0.2343750E-01
   1      -13.420475    -13.419455
   2      -13.316345    -13.315324
   3       -2.712623     -2.712009
   4       -2.675852     -2.675241
   5       -1.536436     -1.535246
   6       -0.848615     -0.847374
   7       -0.314770     -0.314305
   8       -0.297353     -0.296889
   9       11.785625     11.786641
  10       12.129031     12.130167
  11       12.338088     12.338736
  12       12.799248     12.800898
  13       13.055015     13.056651
  14       14.487579     14.488237
 
  0.3750000E+00 -0.5551115E-16  0.3750000E+00  0.2343750E-01
   1      -11.619690    -11.618748
   2      -11.527218    -11.526275
   3       -6.015365     -6.014568
   4       -5.959362     -5.958569
   5       -1.324510     -1.324001
   6       -1.306803     -1.306295
   7        0.501303      0.502434
   8        1.091265      1.092446
   9        8.351758      8.352922
  10        8.735253      8.736469
  11       12.285928     12.287727
  12       12.415215     12.417005
  13       14.484138     14.484745
  14       16.273143     16.273927
 
  0.5000000E+00 -0.2775558E-16  0.3750000E+00  0.1171875E-01
   1       -9.592016     -9.591319
   2       -9.549122     -9.548399
   3       -8.549432     -8.548378
   4       -8.517885     -8.516813
   5       -1.687157     -1.686634
   6       -1.665956     -1.665434
   7        2.216102      2.217081
   8        2.490448      2.491600
   9        6.285110      6.286320
  10        6.558025      6.559403
  11       12.088580     12.090427
  12       12.242745     12.244600
  13       16.975918     16.977125
  14       17.147783     17.148030
 
  0.1250000E+00  0.1250000E+00  0.3750000E+00  0.2343750E-01
   1      -13.787861    -13.786827
   2      -13.680920    -13.679885
   3       -1.969511     -1.968312
   4       -1.491482     -1.490995
   5       -1.474606     -1.474118
   6       -1.266693     -1.265444
   7       -0.405479     -0.404926
   8       -0.396626     -0.396075
   9       11.848654     11.849125
  10       12.932588     12.933681
  11       13.091392     13.092491
  12       13.760224     13.761079
  13       14.143980     14.145640
  14       14.284047     14.285396
 
  0.2500000E+00  0.1250000E+00  0.3750000E+00  0.4687500E-01
   1      -12.333064    -12.332087
   2      -12.236434    -12.235458
   3       -4.305058     -4.304396
   4       -4.263187     -4.262529
   5       -1.943514     -1.942864
   6       -1.913667     -1.913019
   7       -0.273072     -0.271913
   8        0.372044      0.373254
   9        9.841016      9.842102
  10       10.107700     10.108826
  11       13.454411     13.454950
  12       14.016470     14.018097
  13       14.292063     14.293758
  14       15.401728     15.402594
 
  0.3750000E+00  0.1250000E+00  0.3750000E+00  0.4687500E-01
   1      -10.247992    -10.247134
   2      -10.167529    -10.166672
   3       -7.331468     -7.330603
   4       -7.271078     -7.270218
   5       -2.716083     -2.715413
   6       -2.684910     -2.684243
   7        1.918469      1.919532
   8        2.383566      2.384708
   9        6.817082      6.818240
  10        7.136403      7.137626
  11       13.667291     13.668983
  12       13.832899     13.834590
  13       15.750900     15.751773
  14       16.717032     16.718342
 
  0.2500000E+00  0.2500000E+00  0.3750000E+00  0.2343750E-01
   1      -10.578340    -10.577449
   2      -10.494345    -10.493454
   3       -5.820353     -5.819734
   4       -5.791017     -5.790393
   5       -4.249525     -4.248575
   6       -4.226746     -4.225796
   7        1.698890      1.699988
   8        2.250754      2.251915
   9        7.451576      7.452641
  10        7.683276      7.684355
  11       14.958990     14.959973
  12       15.619143     15.620658
  13       17.115788     17.116587
  14       17.194117     17.197066
 
  0.3750000E+00  0.2500000E+00  0.3750000E+00  0.2343750E-01
   1       -8.637513     -8.636839
   2       -8.598007     -8.597304
   3       -7.749217     -7.748368
   4       -7.730999     -7.730132
   5       -5.044474     -5.043496
   6       -5.005339     -5.004370
   7        3.558882      3.559810
   8        3.824508      3.825711
   9        5.675486      5.676706
  10        5.719649      5.720628
  11       15.245322     15.247172
  12       15.328598     15.330479
  13       17.015541     17.016701
  14       17.399372     17.400852
 
  0.0000000E+00  0.0000000E+00  0.5000000E+00  0.1953125E-02
   1      -14.841785    -14.840712
   2      -14.841783    -14.840710
   3       -2.944460     -2.943214
   4       -2.944459     -2.943213
   5        1.715844      1.716151
   6        1.715846      1.716153
   7        1.715857      1.716164
   8        1.715859      1.716166
   9       11.632098     11.632581
  10       11.632098     11.632582
  11       13.153514     13.154780
  12       13.153516     13.154782
  13       13.153518     13.154783
  14       13.153520     13.154785
 
  0.1250000E+00 -0.6938894E-17  0.5000000E+00  0.1171875E-01
   1      -14.471249    -14.470189
   2      -14.471247    -14.470187
   3       -2.499733     -2.498493
   4       -2.499733     -2.498492
   5        0.330502      0.330916
   6        0.330504      0.330918
   7        1.010405      1.010784
   8        1.010407      1.010786
   9       12.028560     12.029055
  10       12.028560     12.029056
  11       13.261109     13.262561
  12       13.261111     13.262563
  13       14.684573     14.685778
  14       14.684575     14.685783
 
  0.2500000E+00 -0.1387779E-16  0.5000000E+00  0.1171875E-01
   1      -13.368932    -13.367911
   2      -13.368930    -13.367909
   3       -2.693740     -2.693128
   4       -2.693739     -2.693126
   5       -1.206176     -1.204964
   6       -1.206175     -1.204963
   7       -0.306623     -0.306158
   8       -0.306621     -0.306156
   9       11.968805     11.969927
  10       11.968805     11.969927
  11       12.773495     12.774886
  12       12.773497     12.774887
  13       13.501362     13.502218
  14       13.501362     13.502219
 
  0.3750000E+00 -0.5551115E-16  0.5000000E+00  0.1171875E-01
   1      -11.574221    -11.573279
   2      -11.574219    -11.573277
   3       -5.988047     -5.987252
   4       -5.988045     -5.987250
   5       -1.317679     -1.317171
   6       -1.317677     -1.317169
   7        0.787351      0.788503
   8        0.787352      0.788504
   9        8.536192      8.537383
  10        8.536193      8.537383
  11       12.350638     12.352437
  12       12.350640     12.352439
  13       15.350178     15.350853
  14       15.350179     15.350854
 
  0.5000000E+00 -0.2775558E-16  0.5000000E+00  0.5859375E-02
   1       -9.570179     -9.569470
   2       -9.570177     -9.569468
   3       -8.537454     -8.536391
   4       -8.537452     -8.536389
   5       -1.678258     -1.677737
   6       -1.678256     -1.677735
   7        2.353767      2.354824
   8        2.353768      2.354825
   9        6.388860      6.390155
  10        6.388861      6.390156
  11       12.162445     12.164294
  12       12.162447     12.164296
  13       17.343890     17.344932
  14       17.343890     17.344932
 
  0.1250000E+00  0.1250000E+00  0.5000000E+00  0.1171875E-01
   1      -13.734919    -13.733885
   2      -13.734917    -13.733883
   3       -1.631459     -1.630245
   4       -1.631458     -1.630244
   5       -1.483833     -1.483338
   6       -1.483831     -1.483336
   7       -0.404774     -0.404223
   8       -0.404772     -0.404221
   9       12.812552     12.813206
  10       12.812553     12.813207
  11       13.016200     13.017144
  12       13.016201     13.017145
  13       14.147702     14.149367
  14       14.147704     14.149369
 
  0.2500000E+00  0.1250000E+00  0.5000000E+00  0.2343750E-01
   1      -12.285200    -12.284223
   2      -12.285198    -12.284221
   3       -4.284638     -4.283978
   4       -4.284636     -4.283976
   5       -1.930303     -1.929654
   6       -1.930301     -1.929652
   7        0.039800      0.040982
   8        0.039800      0.040983
   9        9.966048      9.967153
  10        9.966049      9.967153
  11       13.967284     13.968552
  12       13.967286     13.968553
  13       14.588984     14.590062
  14       14.588985     14.590062
 
  0.3750000E+00  0.1250000E+00  0.5000000E+00  0.2343750E-01
   1      -10.208054    -10.207196
   2      -10.208052    -10.207194
   3       -7.301501     -7.300639
   4       -7.301499     -7.300637
   5       -2.701909     -2.701241
   6       -2.701907     -2.701239
   7        2.147032      2.148130
   8        2.147033      2.148131
   9        6.960375      6.961566
  10        6.960376      6.961566
  11       13.746992     13.748686
  12       13.746994     13.748688
  13       16.254390     16.255502
  14       16.254390     16.255502
 
  0.2500000E+00  0.2500000E+00  0.5000000E+00  0.1171875E-01
   1      -10.536571    -10.535679
   2      -10.536569    -10.535678
   3       -5.805250     -5.804628
   4       -5.805248     -5.804626
   5       -4.237343     -4.236392
   6       -4.237341     -4.236390
   7        1.969603      1.970730
   8        1.969603      1.970731
   9        7.572466      7.573539
  10        7.572466      7.573539
  11       15.280565     15.281849
  12       15.280565     15.281849
  13       17.239044     17.241391
  14       17.239081     17.241680
 
  0.3750000E+00  0.2500000E+00  0.5000000E+00  0.1171875E-01
   1       -8.616894     -8.616205
   2       -8.616892     -8.616204
   3       -7.741327     -7.740468
   4       -7.741325     -7.740466
   5       -5.024864     -5.023890
   6       -5.024862     -5.023888
   7        3.702019      3.703074
   8        3.702020      3.703075
   9        5.678999      5.680107
  10        5.679000      5.680108
  11       15.197591     15.199447
  12       15.197592     15.199448
  13       17.231962     17.233319
  14       17.231964     17.233321
