       N       E                     dE             d eps       ncg     rms          rms(c)
DAV:   1     0.226063015398E+02    0.22606E+02   -0.65084E+03  2816   0.752E+02
DAV:   2    -0.353364264276E+02   -0.57943E+02   -0.53040E+02  3758   0.173E+02
DAV:   3    -0.375607049695E+02   -0.22243E+01   -0.22095E+01  3670   0.328E+01
DAV:   4    -0.375814627357E+02   -0.20758E-01   -0.20750E-01  3500   0.357E+00
DAV:   5    -0.375818603379E+02   -0.39760E-03   -0.39747E-03  3670   0.477E-01    0.123E+01
DAV:   6    -0.368510362369E+02    0.73082E+00   -0.21308E+00  3034   0.938E+00    0.476E+00
DAV:   7    -0.369590507364E+02   -0.10801E+00   -0.13864E+00  3238   0.747E+00    0.188E+00
DAV:   8    -0.369029183949E+02    0.56132E-01   -0.25461E-01  3290   0.360E+00    0.662E-01
DAV:   9    -0.369143746620E+02   -0.11456E-01   -0.18768E-02  3226   0.119E+00    0.328E-01
DAV:  10    -0.369149445192E+02   -0.56986E-03   -0.16746E-03  3528   0.413E-01    0.122E-01
DAV:  11    -0.369151708893E+02   -0.22637E-03   -0.51390E-04  3244   0.201E-01    0.494E-02
DAV:  12    -0.369151924209E+02   -0.21532E-04   -0.96293E-05  2622   0.849E-02
   1 F= -.36915192E+02 E0= -.36915250E+02  d E =0.171771E-03  mag=    -0.0003
