 vasp.5.2.12 11Nov11 complex                                                    
  
 executed on             LinuxIFC date 2012.10.17  09:39:30
 running on    1 nodes
 distr:  one band on    1 nodes,    1 groups


--------------------------------------------------------------------------------------------------------


 INCAR:
 POTCAR:   PAW_PBE C 08Apr2002                    
 POTCAR:   PAW_PBE C 08Apr2002                    
   VRHFIN =C: s2p2                                                              
   LEXCH  = PE                                                                  
   EATOM  =   147.1560 eV,   10.8157 Ry                                         
                                                                                
   TITEL  = PAW_PBE C 08Apr2002                                                 
   LULTRA =        F    use ultrasoft PP ?                                      
   IUNSCR =        0    unscreen: 0-lin 1-nonlin 2-no                           
   RPACOR =     .000    partial core radius                                     
   POMASS =   12.011; ZVAL   =    4.000    mass and valenz                      
   RCORE  =    1.500    outmost cutoff radius                                   
   RWIGS  =    1.630; RWIGS  =     .863    wigner-seitz radius (au A)           
   ENMAX  =  400.000; ENMIN  =  300.000 eV                                      
   ICORE  =        2    local potential                                         
   LCOR   =        T    correct aug charges                                     
   LPAW   =        T    paw PP                                                  
   EAUG   =  644.873                                                            
   DEXC   =     .000                                                            
   RMAX   =    2.266    core radius for proj-oper                               
   RAUG   =    1.300    factor for augmentation sphere                          
   RDEP   =    1.501    radius for radial grids                                 
   RDEPT  =    1.300    core radius for aug-charge                              
   QCUT   =   -5.516; QGAM   =   11.032    optimization parameters              
                                                                                
   Description                                                                  
     l     E      TYP  RCUT    TYP  RCUT                                        
     0   .000     23  1.200                                                     
     0   .000     23  1.200                                                     
     1   .000     23  1.500                                                     
     1  2.500     23  1.500                                                     
     2   .000      7  1.500                                                     
  local pseudopotential read in
  atomic valenz-charges read in
  non local Contribution for L=           0  read in
    real space projection operators read in
  non local Contribution for L=           0  read in
    real space projection operators read in
  non local Contribution for L=           1  read in
    real space projection operators read in
  non local Contribution for L=           1  read in
    real space projection operators read in
    PAW grid and wavefunctions read in
 
   number of l-projection  operators is LMAX  =           4
   number of lm-projection operators is LMMAX =           8
 
 PAW_PBE C 08Apr2002                    :
 energy of atom  1       EATOM= -147.1560
 kinetic energy error for atom=    0.0854 (will be added to EATOM!!)
 
 
 POSCAR:  C                                      
  positions in cartesian coordinates
  No initial velocities read in
 exchange correlation table for  LEXCH =        8
   RHO(1)=    0.500       N(1)  =     2000
   RHO(2)=  100.500       N(2)  =     4000
 


--------------------------------------------------------------------------------------------------------


 ion  position               nearest neighbor table
   1  0.000  0.000  0.000-   2 1.42   2 1.42   2 1.42
   2  0.333  0.667  0.000-   1 1.42   1 1.42   1 1.42
   3  0.333  0.667  0.500-   4 1.42   4 1.42   4 1.42
   4  0.667  0.333  0.500-   3 1.42   3 1.42   3 1.42
 
  LATTYP: Found a hexagonal cell.
 ALAT       =     2.4612000000
 C/A-ratio  =     2.7254591256
  
  Lattice vectors:
  
 A1 = (   2.4612000000,   0.0000000000,   0.0000000000)
 A2 = (  -1.2306000000,   2.1314617238,   0.0000000000)
 A3 = (   0.0000000000,   0.0000000000,   6.7079000000)
 Subroutine PRICEL returns:
 Original cell was already a primitive cell.
 

Analysis of symmetry for initial positions (statically):

 Routine SETGRP: Setting up the symmetry group for a 
 hexagonal supercell.


 Subroutine GETGRP returns: Found 24 space group operations
 (whereof 12 operations were pure point group operations)
 out of a pool of 24 trial point group operations.


The static configuration has the point symmetry D_3h.
 The point group associated with its full space group is D_6h.

Analysis of symmetry for dynamics (positions and initial velocities):

 Subroutine DYNSYM returns: Found 24 space group operations
 (whereof 12 operations were pure point group operations)
 out of a pool of 24 trial space group operations
 (whereof 12 operations were pure point group operations)
 and found also     1 'primitive' translations


The dynamic configuration has the point symmetry D_3h.
 The point group associated with its full space group is D_6h.

Analysis of magnetic symmetry:

 Subroutine MAGSYM returns: Found 24 space group operations
 (whereof 12 operations were pure point group operations)
 out of a pool of 24 trial space group operations
 (whereof 12 operations were pure point group operations)
 and found also     1 'primitive' translations


The magnetic configuration has the point symmetry D_3h.
 The point group associated with its full space group is D_6h.
 
 
 KPOINTS: KPOINTS created by Atomic Simulation Env

Automatic generation of k-mesh.
 
 Subroutine IBZKPT returns following result:
 ===========================================
 
 Found     50 irreducible k-points:
 
 Following reciprocal coordinates:
            Coordinates               Weight
  0.000000  0.000000  0.000000      1.000000
  0.125000  0.000000  0.000000      6.000000
  0.250000  0.000000  0.000000      6.000000
  0.375000  0.000000  0.000000      6.000000
  0.500000  0.000000  0.000000      3.000000
  0.125000  0.125000  0.000000      6.000000
  0.250000  0.125000  0.000000     12.000000
  0.375000  0.125000  0.000000     12.000000
  0.250000  0.250000  0.000000      6.000000
  0.375000  0.250000  0.000000      6.000000
  0.000000  0.000000  0.125000      2.000000
  0.125000  0.000000  0.125000     12.000000
  0.250000  0.000000  0.125000     12.000000
  0.375000  0.000000  0.125000     12.000000
  0.500000  0.000000  0.125000      6.000000
  0.125000  0.125000  0.125000     12.000000
  0.250000  0.125000  0.125000     24.000000
  0.375000  0.125000  0.125000     24.000000
  0.250000  0.250000  0.125000     12.000000
  0.375000  0.250000  0.125000     12.000000
  0.000000  0.000000  0.250000      2.000000
  0.125000  0.000000  0.250000     12.000000
  0.250000  0.000000  0.250000     12.000000
  0.375000  0.000000  0.250000     12.000000
  0.500000  0.000000  0.250000      6.000000
  0.125000  0.125000  0.250000     12.000000
  0.250000  0.125000  0.250000     24.000000
  0.375000  0.125000  0.250000     24.000000
  0.250000  0.250000  0.250000     12.000000
  0.375000  0.250000  0.250000     12.000000
  0.000000  0.000000  0.375000      2.000000
  0.125000  0.000000  0.375000     12.000000
  0.250000  0.000000  0.375000     12.000000
  0.375000  0.000000  0.375000     12.000000
  0.500000  0.000000  0.375000      6.000000
  0.125000  0.125000  0.375000     12.000000
  0.250000  0.125000  0.375000     24.000000
  0.375000  0.125000  0.375000     24.000000
  0.250000  0.250000  0.375000     12.000000
  0.375000  0.250000  0.375000     12.000000
  0.000000  0.000000  0.500000      1.000000
  0.125000  0.000000  0.500000      6.000000
  0.250000  0.000000  0.500000      6.000000
  0.375000  0.000000  0.500000      6.000000
  0.500000  0.000000  0.500000      3.000000
  0.125000  0.125000  0.500000      6.000000
  0.250000  0.125000  0.500000     12.000000
  0.375000  0.125000  0.500000     12.000000
  0.250000  0.250000  0.500000      6.000000
  0.375000  0.250000  0.500000      6.000000
 
 Following cartesian coordinates:
            Coordinates               Weight
  0.000000  0.000000  0.000000      1.000000
  0.050788  0.029323  0.000000      6.000000
  0.101576  0.058645  0.000000      6.000000
  0.152365  0.087968  0.000000      6.000000
  0.203153  0.117290  0.000000      3.000000
  0.050788  0.087968  0.000000      6.000000
  0.101576  0.117290  0.000000     12.000000
  0.152365  0.146613  0.000000     12.000000
  0.101576  0.175936  0.000000      6.000000
  0.152365  0.205258  0.000000      6.000000
  0.000000  0.000000  0.018635      2.000000
  0.050788  0.029323  0.018635     12.000000
  0.101576  0.058645  0.018635     12.000000
  0.152365  0.087968  0.018635     12.000000
  0.203153  0.117290  0.018635      6.000000
  0.050788  0.087968  0.018635     12.000000
  0.101576  0.117290  0.018635     24.000000
  0.152365  0.146613  0.018635     24.000000
  0.101576  0.175936  0.018635     12.000000
  0.152365  0.205258  0.018635     12.000000
  0.000000  0.000000  0.037269      2.000000
  0.050788  0.029323  0.037269     12.000000
  0.101576  0.058645  0.037269     12.000000
  0.152365  0.087968  0.037269     12.000000
  0.203153  0.117290  0.037269      6.000000
  0.050788  0.087968  0.037269     12.000000
  0.101576  0.117290  0.037269     24.000000
  0.152365  0.146613  0.037269     24.000000
  0.101576  0.175936  0.037269     12.000000
  0.152365  0.205258  0.037269     12.000000
  0.000000  0.000000  0.055904      2.000000
  0.050788  0.029323  0.055904     12.000000
  0.101576  0.058645  0.055904     12.000000
  0.152365  0.087968  0.055904     12.000000
  0.203153  0.117290  0.055904      6.000000
  0.050788  0.087968  0.055904     12.000000
  0.101576  0.117290  0.055904     24.000000
  0.152365  0.146613  0.055904     24.000000
  0.101576  0.175936  0.055904     12.000000
  0.152365  0.205258  0.055904     12.000000
  0.000000  0.000000  0.074539      1.000000
  0.050788  0.029323  0.074539      6.000000
  0.101576  0.058645  0.074539      6.000000
  0.152365  0.087968  0.074539      6.000000
  0.203153  0.117290  0.074539      3.000000
  0.050788  0.087968  0.074539      6.000000
  0.101576  0.117290  0.074539     12.000000
  0.152365  0.146613  0.074539     12.000000
  0.101576  0.175936  0.074539      6.000000
  0.152365  0.205258  0.074539      6.000000
 


--------------------------------------------------------------------------------------------------------




 Dimension of arrays:
   k-points           NKPTS =     50   k-points in BZ     NKDIM =     50   number of bands    NBANDS=     14
   number of dos      NEDOS =    301   number of ions     NIONS =      4
   non local maximal  LDIM  =      4   non local SUM 2l+1 LMDIM =      8
   total plane-waves  NPLWV =  10752
   max r-space proj   IRMAX =      1   max aug-charges    IRDMAX=   3805
   dimension x,y,z NGX =    16 NGY =   16 NGZ =   42
   dimension x,y,z NGXF=    32 NGYF=   32 NGZF=   84
   support grid    NGXF=    32 NGYF=   32 NGZF=   84
   ions per type =               4
 NGX,Y,Z   is equivalent  to a cutoff of  10.81, 10.81, 10.41 a.u.
 NGXF,Y,Z  is equivalent  to a cutoff of  21.61, 21.61, 20.82 a.u.


 I would recommend the setting:
   dimension x,y,z NGX =    15 NGY =   15 NGZ =   41
 SYSTEM =  unknown system                          
 POSCAR =   C                                      

 Startparameter for this run:
   NWRITE =      2    write-flag & timer
   PREC   = accura    normal or accurate (medium, high low for compatibility)
   ISTART =      0    job   : 0-new  1-cont  2-samecut
   ICHARG =      2    charge: 1-file 2-atom 10-const
   ISPIN  =      2    spin polarized calculation?
   LNONCOLLINEAR =      F non collinear calculations
   LSORBIT =      F    spin-orbit coupling
   INIWAV =      1    electr: 0-lowe 1-rand  2-diag
   LASPH  =      F    aspherical Exc in radial PAW
   METAGGA=      F    non-selfconsistent MetaGGA calc.

 Electronic Relaxation 1
   ENCUT  =  350.0 eV  25.72 Ry    5.07 a.u.   3.75  3.75 10.23*2*pi/ulx,y,z
   ENINI  =  350.0     initial cutoff
   ENAUG  =  644.9 eV  augmentation charge cutoff
   NELM   =     60;   NELMIN=  2; NELMDL= -5     # of ELM steps 
   EDIFF  = 0.1E-03   stopping-criterion for ELM
   LREAL  =      F    real-space projection
   NLSPLINE    = F    spline interpolate recip. space projectors
   LCOMPAT=      F    compatible to vasp.4.4
   GGA_COMPAT  = T    GGA compatible to vasp.4.4-vasp.4.6
   LMAXPAW     = -100 max onsite density
   LMAXMIX     =    2 max onsite mixed and CHGCAR
   VOSKOWN=      0    Vosko Wilk Nusair interpolation
   ROPT   =    0.00000
 Ionic relaxation
   EDIFFG = 0.1E-02   stopping-criterion for IOM
   NSW    =      0    number of steps for IOM
   NBLOCK =      1;   KBLOCK =      1    inner block; outer block 
   IBRION =     -1    ionic relax: 0-MD 1-quasi-New 2-CG
   NFREE  =      0    steps in history (QN), initial steepest desc. (CG)
   ISIF   =      2    stress and relaxation
   IWAVPR =     10    prediction:  0-non 1-charg 2-wave 3-comb
   ISYM   =      2    0-nonsym 1-usesym 2-fastsym
   LCORR  =      T    Harris-Foulkes like correction to forces

   POTIM  = 0.5000    time-step for ionic-motion
   TEIN   =    0.0    initial temperature
   TEBEG  =    0.0;   TEEND  =   0.0 temperature during run
   SMASS  =  -3.00    Nose mass-parameter (am)
   estimated Nose-frequenzy (Omega)   =  0.10E-29 period in steps =****** mass=  -0.138E-27a.u.
   SCALEE = 1.0000    scale energy and forces
   NPACO  =    256;   APACO  = 16.0  distance and # of slots for P.C.
   PSTRESS=    0.0 pullay stress

  Mass of Ions in am
   POMASS =  12.01
  Ionic Valenz
   ZVAL   =   4.00
  Atomic Wigner-Seitz radii
   RWIGS  =  -1.00
  virtual crystal weights 
   VCA    =   1.00
   NELECT =      16.0000    total number of electrons
   NUPDOWN=      -1.0000    fix difference up-down

 DOS related values:
   EMIN   =  10.00;   EMAX   =-10.00  energy-range for DOS
   EFERMI =   0.00
   ISMEAR =     1;   SIGMA  =   0.05  broadening in eV -4-tet -1-fermi 0-gaus

 Electronic relaxation 2 (details)
   IALGO  =     38    algorithm
   LDIAG  =      T    sub-space diagonalisation (order eigenvalues)
   LSUBROT=      T    optimize rotation matrix (better conditioning)
   TURBO    =      0    0=normal 1=particle mesh
   IRESTART =      0    0=no restart 2=restart with 2 vectors
   NREBOOT  =      0    no. of reboots
   NMIN     =      0    reboot dimension
   EREF     =   0.00    reference energy to select bands
   IMIX   =      4    mixing-type and parameters
     AMIX     =   0.40;   BMIX     =  1.00
     AMIX_MAG =   1.60;   BMIX_MAG =  1.00
     AMIN     =   0.10
     WC   =   100.;   INIMIX=   1;  MIXPRE=   1

 Intra band minimization:
   WEIMIN = 0.0000     energy-eigenvalue tresh-hold
   EBREAK =  0.18E-05  absolut break condition
   DEPER  =   0.30     relativ break condition  

   TIME   =   0.40     timestep for ELM

  volume/ion in A,a.u.               =       8.80        59.37
  Fermi-wavevector in a.u.,A,eV,Ry     =   1.258861  2.378903 21.561578  1.584731
  Thomas-Fermi vector in A             =   2.392450
 
 Write flags
   LWAVE  =      T    write WAVECAR
   LCHARG =      T    write CHGCAR
   LVTOT  =      F    write LOCPOT, total local potential
   LVHAR  =      F    write LOCPOT, Hartree potential only
   LELF   =      F    write electronic localiz. function (ELF)
   LORBIT =     11    0 simple, 1 ext, 2 COOP (PROOUT)


 Dipole corrections
   LMONO  =      F    monopole corrections only (constant potential shift)
   LDIPOL =      F    correct potential (dipole corrections)
   IDIPOL =      0    1-x, 2-y, 3-z, 4-all directions 
   EPSILON=  1.0000000 bulk dielectric constant

 Exchange correlation treatment:
   GGA     =    --    GGA type
   LEXCH   =     8    internal setting for exchange type
   VOSKOWN=      0    Vosko Wilk Nusair interpolation
   LHFCALC =     F    Hartree Fock is set to
   LHFONE  =     F    Hartree Fock one center treatment
   AEXX    =    0.0000 exact exchange contribution

 Linear response parameters
   LEPSILON=     F    determine dielectric tensor
   LRPA    =     F    only Hartree local field effects (RPA)
   LNABLA  =     F    use nabla operator in PAW spheres
   LVEL    =     F    velocity operator in full k-point grid
   LINTERFAST=   F  fast interpolation
   KINTER  =     0    interpolate to denser k-point grid
   CSHIFT  =0.1000    complex shift for real part using Kramers Kronig
   OMEGAMAX=  -1.0    maximum frequency
   RTIME   =    0.100 relaxation time in fs

 Orbital magnetization related:
   ORBITALMAG=     F  switch on orbital magnetization
   LCHIMAG   =     F  perturbation theory with respect to B field
   DQ        =  0.001000  dq finite difference perturbation B field



--------------------------------------------------------------------------------------------------------


 Static calculation
 charge density and potential will be updated during run
 spin polarized calculation
 Variant of blocked Davidson
 Davidson routine will perform the subspace rotation
 perform sub-space diagonalisation
    after iterative eigenvector-optimisation
 modified Broyden-mixing scheme, WC =      100.0
 initial mixing is a Kerker type mixing with AMIX =  0.4000 and BMIX =      1.0000
 Hartree-type preconditioning will be used
 using additional bands            6
 reciprocal scheme for non local part
 calculate Harris-corrections to forces 
   (improved forces if not selfconsistent)
 use gradient corrections 
 use of overlap-Matrix (Vanderbilt PP)
 Methfessel and Paxton  Order N= 1 SIGMA  =   0.05


--------------------------------------------------------------------------------------------------------


  energy-cutoff  :      350.00
  volume of cell :       35.19
      direct lattice vectors                 reciprocal lattice vectors
     2.461200000  0.000000000  0.000000000     0.406305867  0.234580802  0.000000000
    -1.230600000  2.131461724  0.000000000     0.000000000  0.469161603  0.000000000
     0.000000000  0.000000000  6.707900000     0.000000000  0.000000000  0.149077953

  length of vectors
     2.461200000  2.461200000  6.707900000     0.469161603  0.469161603  0.149077953


 
 k-points in units of 2pi/SCALE and weight: KPOINTS created by Atomic Simulation Env
   0.00000000  0.00000000  0.00000000       0.002
   0.05078823  0.02932260  0.00000000       0.012
   0.10157647  0.05864520  0.00000000       0.012
   0.15236470  0.08796780  0.00000000       0.012
   0.20315293  0.11729040  0.00000000       0.006
   0.05078823  0.08796780  0.00000000       0.012
   0.10157647  0.11729040  0.00000000       0.023
   0.15236470  0.14661300  0.00000000       0.023
   0.10157647  0.17593560  0.00000000       0.012
   0.15236470  0.20525820  0.00000000       0.012
   0.00000000  0.00000000  0.01863474       0.004
   0.05078823  0.02932260  0.01863474       0.023
   0.10157647  0.05864520  0.01863474       0.023
   0.15236470  0.08796780  0.01863474       0.023
   0.20315293  0.11729040  0.01863474       0.012
   0.05078823  0.08796780  0.01863474       0.023
   0.10157647  0.11729040  0.01863474       0.047
   0.15236470  0.14661300  0.01863474       0.047
   0.10157647  0.17593560  0.01863474       0.023
   0.15236470  0.20525820  0.01863474       0.023
   0.00000000  0.00000000  0.03726949       0.004
   0.05078823  0.02932260  0.03726949       0.023
   0.10157647  0.05864520  0.03726949       0.023
   0.15236470  0.08796780  0.03726949       0.023
   0.20315293  0.11729040  0.03726949       0.012
   0.05078823  0.08796780  0.03726949       0.023
   0.10157647  0.11729040  0.03726949       0.047
   0.15236470  0.14661300  0.03726949       0.047
   0.10157647  0.17593560  0.03726949       0.023
   0.15236470  0.20525820  0.03726949       0.023
   0.00000000  0.00000000  0.05590423       0.004
   0.05078823  0.02932260  0.05590423       0.023
   0.10157647  0.05864520  0.05590423       0.023
   0.15236470  0.08796780  0.05590423       0.023
   0.20315293  0.11729040  0.05590423       0.012
   0.05078823  0.08796780  0.05590423       0.023
   0.10157647  0.11729040  0.05590423       0.047
   0.15236470  0.14661300  0.05590423       0.047
   0.10157647  0.17593560  0.05590423       0.023
   0.15236470  0.20525820  0.05590423       0.023
   0.00000000  0.00000000  0.07453898       0.002
   0.05078823  0.02932260  0.07453898       0.012
   0.10157647  0.05864520  0.07453898       0.012
   0.15236470  0.08796780  0.07453898       0.012
   0.20315293  0.11729040  0.07453898       0.006
   0.05078823  0.08796780  0.07453898       0.012
   0.10157647  0.11729040  0.07453898       0.023
   0.15236470  0.14661300  0.07453898       0.023
   0.10157647  0.17593560  0.07453898       0.012
   0.15236470  0.20525820  0.07453898       0.012
 
 k-points in reciprocal lattice and weights: KPOINTS created by Atomic Simulation Env
   0.00000000  0.00000000  0.00000000       0.002
   0.12500000  0.00000000  0.00000000       0.012
   0.25000000  0.00000000  0.00000000       0.012
   0.37500000  0.00000000  0.00000000       0.012
   0.50000000  0.00000000  0.00000000       0.006
   0.12500000  0.12500000  0.00000000       0.012
   0.25000000  0.12500000  0.00000000       0.023
   0.37500000  0.12500000  0.00000000       0.023
   0.25000000  0.25000000  0.00000000       0.012
   0.37500000  0.25000000  0.00000000       0.012
   0.00000000  0.00000000  0.12500000       0.004
   0.12500000  0.00000000  0.12500000       0.023
   0.25000000  0.00000000  0.12500000       0.023
   0.37500000  0.00000000  0.12500000       0.023
   0.50000000  0.00000000  0.12500000       0.012
   0.12500000  0.12500000  0.12500000       0.023
   0.25000000  0.12500000  0.12500000       0.047
   0.37500000  0.12500000  0.12500000       0.047
   0.25000000  0.25000000  0.12500000       0.023
   0.37500000  0.25000000  0.12500000       0.023
   0.00000000  0.00000000  0.25000000       0.004
   0.12500000  0.00000000  0.25000000       0.023
   0.25000000  0.00000000  0.25000000       0.023
   0.37500000  0.00000000  0.25000000       0.023
   0.50000000  0.00000000  0.25000000       0.012
   0.12500000  0.12500000  0.25000000       0.023
   0.25000000  0.12500000  0.25000000       0.047
   0.37500000  0.12500000  0.25000000       0.047
   0.25000000  0.25000000  0.25000000       0.023
   0.37500000  0.25000000  0.25000000       0.023
   0.00000000  0.00000000  0.37500000       0.004
   0.12500000  0.00000000  0.37500000       0.023
   0.25000000  0.00000000  0.37500000       0.023
   0.37500000  0.00000000  0.37500000       0.023
   0.50000000  0.00000000  0.37500000       0.012
   0.12500000  0.12500000  0.37500000       0.023
   0.25000000  0.12500000  0.37500000       0.047
   0.37500000  0.12500000  0.37500000       0.047
   0.25000000  0.25000000  0.37500000       0.023
   0.37500000  0.25000000  0.37500000       0.023
   0.00000000  0.00000000  0.50000000       0.002
   0.12500000  0.00000000  0.50000000       0.012
   0.25000000  0.00000000  0.50000000       0.012
   0.37500000  0.00000000  0.50000000       0.012
   0.50000000  0.00000000  0.50000000       0.006
   0.12500000  0.12500000  0.50000000       0.012
   0.25000000  0.12500000  0.50000000       0.023
   0.37500000  0.12500000  0.50000000       0.023
   0.25000000  0.25000000  0.50000000       0.012
   0.37500000  0.25000000  0.50000000       0.012
 
 position of ions in fractional coordinates (direct lattice) 
   0.00000000  0.00000000  0.00000000
   0.33333333  0.66666667  0.00000000
   0.33333333  0.66666667  0.50000000
   0.66666667  0.33333333  0.50000000
 
 position of ions in cartesian coordinates  (Angst):
   0.00000000  0.00000000  0.00000000
   0.00000000  1.42097448  0.00000000
   0.00000000  1.42097448  3.35395000
   1.23060000  0.71048724  3.35395000
 


--------------------------------------------------------------------------------------------------------


 k-point  1 :  0.00000.00000.0000  plane waves:     513
 k-point  2 :  0.12500.00000.0000  plane waves:     523
 k-point  3 :  0.25000.00000.0000  plane waves:     515
 k-point  4 :  0.37500.00000.0000  plane waves:     522
 k-point  5 :  0.50000.00000.0000  plane waves:     526
 k-point  6 :  0.12500.12500.0000  plane waves:     520
 k-point  7 :  0.25000.12500.0000  plane waves:     520
 k-point  8 :  0.37500.12500.0000  plane waves:     526
 k-point  9 :  0.25000.25000.0000  plane waves:     516
 k-point 10 :  0.37500.25000.0000  plane waves:     532
 k-point 11 :  0.00000.00000.1250  plane waves:     525
 k-point 12 :  0.12500.00000.1250  plane waves:     523
 k-point 13 :  0.25000.00000.1250  plane waves:     514
 k-point 14 :  0.37500.00000.1250  plane waves:     525
 k-point 15 :  0.50000.00000.1250  plane waves:     522
 k-point 16 :  0.12500.12500.1250  plane waves:     523
 k-point 17 :  0.25000.12500.1250  plane waves:     518
 k-point 18 :  0.37500.12500.1250  plane waves:     526
 k-point 19 :  0.25000.25000.1250  plane waves:     522
 k-point 20 :  0.37500.25000.1250  plane waves:     527
 k-point 21 :  0.00000.00000.2500  plane waves:     524
 k-point 22 :  0.12500.00000.2500  plane waves:     529
 k-point 23 :  0.25000.00000.2500  plane waves:     515
 k-point 24 :  0.37500.00000.2500  plane waves:     521
 k-point 25 :  0.50000.00000.2500  plane waves:     526
 k-point 26 :  0.12500.12500.2500  plane waves:     521
 k-point 27 :  0.25000.12500.2500  plane waves:     514
 k-point 28 :  0.37500.12500.2500  plane waves:     527
 k-point 29 :  0.25000.25000.2500  plane waves:     521
 k-point 30 :  0.37500.25000.2500  plane waves:     527
 k-point 31 :  0.00000.00000.3750  plane waves:     536
 k-point 32 :  0.12500.00000.3750  plane waves:     529
 k-point 33 :  0.25000.00000.3750  plane waves:     522
 k-point 34 :  0.37500.00000.3750  plane waves:     522
 k-point 35 :  0.50000.00000.3750  plane waves:     514
 k-point 36 :  0.12500.12500.3750  plane waves:     523
 k-point 37 :  0.25000.12500.3750  plane waves:     514
 k-point 38 :  0.37500.12500.3750  plane waves:     527
 k-point 39 :  0.25000.25000.3750  plane waves:     523
 k-point 40 :  0.37500.25000.3750  plane waves:     526
 k-point 41 :  0.00000.00000.5000  plane waves:     536
 k-point 42 :  0.12500.00000.5000  plane waves:     524
 k-point 43 :  0.25000.00000.5000  plane waves:     524
 k-point 44 :  0.37500.00000.5000  plane waves:     526
 k-point 45 :  0.50000.00000.5000  plane waves:     528
 k-point 46 :  0.12500.12500.5000  plane waves:     526
 k-point 47 :  0.25000.12500.5000  plane waves:     516
 k-point 48 :  0.37500.12500.5000  plane waves:     530
 k-point 49 :  0.25000.25000.5000  plane waves:     518
 k-point 50 :  0.37500.25000.5000  plane waves:     528

 maximum and minimum number of plane-waves per node :       536      513

 maximum number of plane-waves:       536
 maximum index in each direction: 
   IXMAX=    3   IYMAX=    3   IZMAX=   10
   IXMIN=   -4   IYMIN=   -3   IZMIN=  -10

 NGX is ok and might be reduce to  16
 NGY is ok and might be reduce to  14
 NGZ is ok and might be reduce to  42

 serial   3D FFT for wavefunctions
 parallel 3D FFT for charge:
    minimum data exchange during FFTs selected (reduces bandwidth)


 total amount of memory used by VASP on root node    54668. kBytes
========================================================================

   base      :      30000. kBytes
   nonl-proj :       1749. kBytes
   fftplans  :       2996. kBytes
   grid      :       7176. kBytes
   one-center:         24. kBytes
   wavefun   :      12723. kBytes
 
 Broyden mixing: mesh for mixing (old mesh)
   NGX =  7   NGY =  7   NGZ = 21
  (NGX  = 32   NGY  = 32   NGZ  = 84)
  gives a total of   1029 points

 initial charge density was supplied:
 charge density of overlapping atoms calculated
 number of electron      16.0000000 magnetization       4.0000000
 keeping initial charge density in first step


--------------------------------------------------------------------------------------------------------


 Maximum index for augmentation-charges         3509 (set IRDMAX)


--------------------------------------------------------------------------------------------------------


 First call to EWALD:  gamma=   0.541
 Maximum number of real-space cells 4x 4x 2
 Maximum number of reciprocal cells 2x 2x 5

    FEWALD:  cpu time    0.00: real time    0.00


----------------------------------------- Iteration    1(   1)  ---------------------------------------


    POTLOK:  cpu time    0.30: real time    0.30
    SETDIJ:  cpu time    0.04: real time    0.04
     EDDAV:  cpu time    5.34: real time    5.34
       DOS:  cpu time    0.01: real time    0.01
    --------------------------------------------
      LOOP:  cpu time    5.69: real time    5.85

 eigenvalue-minimisations  :  2816
 total energy-change (2. order) : 0.2260630E+02  (-0.6508365E+03)
 number of electron      16.0000000 magnetization       4.0000000
 augmentation part       16.0000000 magnetization       4.0000000

 Free energy of the ion-electron system (eV)
  ---------------------------------------------------
  alpha Z        PSCENC =        37.04766603
  Ewald energy   TEWEN  =      -460.60042082
  -1/2 Hartree   DENC   =      -148.78490797
  -exchange  EXHF       =         0.00000000
  -V(xc)+E(xc)   XCENC  =        56.10990993
  PAW double counting   =       150.95130483     -155.51722924
  entropy T*S    EENTRO =        -0.00015437
  eigenvalues    EBANDS =       -44.88233073
  atomic energy  EATOM  =       588.28246388
  ---------------------------------------------------
  free energy    TOTEN  =        22.60630154 eV

  energy without entropy =       22.60645591  energy(sigma->0) =       22.60635300


--------------------------------------------------------------------------------------------------------




----------------------------------------- Iteration    1(   2)  ---------------------------------------


     EDDAV:  cpu time    6.58: real time    6.59
       DOS:  cpu time    0.01: real time    0.01
    --------------------------------------------
      LOOP:  cpu time    6.60: real time    6.60

 eigenvalue-minimisations  :  3758
 total energy-change (2. order) :-0.5794273E+02  (-0.5303951E+02)
 number of electron      16.0000000 magnetization       4.0000000
 augmentation part       16.0000000 magnetization       4.0000000

 Free energy of the ion-electron system (eV)
  ---------------------------------------------------
  alpha Z        PSCENC =        37.04766603
  Ewald energy   TEWEN  =      -460.60042082
  -1/2 Hartree   DENC   =      -148.78490797
  -exchange  EXHF       =         0.00000000
  -V(xc)+E(xc)   XCENC  =        56.10990993
  PAW double counting   =       150.95130483     -155.51722924
  entropy T*S    EENTRO =        -0.00003383
  eigenvalues    EBANDS =      -102.82517923
  atomic energy  EATOM  =       588.28246388
  ---------------------------------------------------
  free energy    TOTEN  =       -35.33642643 eV

  energy without entropy =      -35.33639259  energy(sigma->0) =      -35.33641515


--------------------------------------------------------------------------------------------------------




----------------------------------------- Iteration    1(   3)  ---------------------------------------


     EDDAV:  cpu time    6.47: real time    6.47
       DOS:  cpu time    0.01: real time    0.01
    --------------------------------------------
      LOOP:  cpu time    6.48: real time    6.50

 eigenvalue-minimisations  :  3670
 total energy-change (2. order) :-0.2224279E+01  (-0.2209508E+01)
 number of electron      16.0000000 magnetization       4.0000000
 augmentation part       16.0000000 magnetization       4.0000000

 Free energy of the ion-electron system (eV)
  ---------------------------------------------------
  alpha Z        PSCENC =        37.04766603
  Ewald energy   TEWEN  =      -460.60042082
  -1/2 Hartree   DENC   =      -148.78490797
  -exchange  EXHF       =         0.00000000
  -V(xc)+E(xc)   XCENC  =        56.10990993
  PAW double counting   =       150.95130483     -155.51722924
  entropy T*S    EENTRO =         0.00019584
  eigenvalues    EBANDS =      -105.04968744
  atomic energy  EATOM  =       588.28246388
  ---------------------------------------------------
  free energy    TOTEN  =       -37.56070497 eV

  energy without entropy =      -37.56090080  energy(sigma->0) =      -37.56077025


--------------------------------------------------------------------------------------------------------




----------------------------------------- Iteration    1(   4)  ---------------------------------------


     EDDAV:  cpu time    6.38: real time    6.38
       DOS:  cpu time    0.01: real time    0.01
    --------------------------------------------
      LOOP:  cpu time    6.39: real time    6.40

 eigenvalue-minimisations  :  3500
 total energy-change (2. order) :-0.2075777E-01  (-0.2074988E-01)
 number of electron      16.0000000 magnetization       4.0000000
 augmentation part       16.0000000 magnetization       4.0000000

 Free energy of the ion-electron system (eV)
  ---------------------------------------------------
  alpha Z        PSCENC =        37.04766603
  Ewald energy   TEWEN  =      -460.60042082
  -1/2 Hartree   DENC   =      -148.78490797
  -exchange  EXHF       =         0.00000000
  -V(xc)+E(xc)   XCENC  =        56.10990993
  PAW double counting   =       150.95130483     -155.51722924
  entropy T*S    EENTRO =         0.00019456
  eigenvalues    EBANDS =      -105.07044394
  atomic energy  EATOM  =       588.28246388
  ---------------------------------------------------
  free energy    TOTEN  =       -37.58146274 eV

  energy without entropy =      -37.58165730  energy(sigma->0) =      -37.58152759


--------------------------------------------------------------------------------------------------------




----------------------------------------- Iteration    1(   5)  ---------------------------------------


     EDDAV:  cpu time    6.49: real time    6.49
       DOS:  cpu time    0.01: real time    0.01
    CHARGE:  cpu time    0.45: real time    0.45
    MIXING:  cpu time    0.01: real time    0.01
    --------------------------------------------
      LOOP:  cpu time    6.96: real time    7.15

 eigenvalue-minimisations  :  3670
 total energy-change (2. order) :-0.3976021E-03  (-0.3974747E-03)
 number of electron      15.9999998 magnetization       1.0089576
 augmentation part        0.4140049 magnetization       1.0106450

 Broyden mixing:
  rms(total) = 0.12275E+01    rms(broyden)= 0.12270E+01
  rms(prec ) = 0.15689E+01
  weight for this iteration     100.00

 Free energy of the ion-electron system (eV)
  ---------------------------------------------------
  alpha Z        PSCENC =        37.04766603
  Ewald energy   TEWEN  =      -460.60042082
  -1/2 Hartree   DENC   =      -148.78490797
  -exchange  EXHF       =         0.00000000
  -V(xc)+E(xc)   XCENC  =        56.10990993
  PAW double counting   =       150.95130483     -155.51722924
  entropy T*S    EENTRO =         0.00019453
  eigenvalues    EBANDS =      -105.07084150
  atomic energy  EATOM  =       588.28246388
  ---------------------------------------------------
  free energy    TOTEN  =       -37.58186034 eV

  energy without entropy =      -37.58205487  energy(sigma->0) =      -37.58192518


--------------------------------------------------------------------------------------------------------




----------------------------------------- Iteration    1(   6)  ---------------------------------------


    POTLOK:  cpu time    0.30: real time    0.31
    SETDIJ:  cpu time    0.04: real time    0.04
     EDDAV:  cpu time    5.61: real time    5.61
       DOS:  cpu time    0.01: real time    0.01
    CHARGE:  cpu time    0.44: real time    0.44
    MIXING:  cpu time    0.01: real time    0.01
    --------------------------------------------
      LOOP:  cpu time    6.42: real time    6.44

 eigenvalue-minimisations  :  3034
 total energy-change (2. order) : 0.7308241E+00  (-0.2130807E+00)
 number of electron      15.9999999 magnetization       0.0542916
 augmentation part        0.3976425 magnetization       0.0469553

 Broyden mixing:
  rms(total) = 0.47633E+00    rms(broyden)= 0.47625E+00
  rms(prec ) = 0.69986E+00
  weight for this iteration     100.00

 eigenvalues of (default mixing * dielectric matrix)
  average eigenvalue GAMMA=   0.9503
  0.9503

 Free energy of the ion-electron system (eV)
  ---------------------------------------------------
  alpha Z        PSCENC =        37.04766603
  Ewald energy   TEWEN  =      -460.60042082
  -1/2 Hartree   DENC   =      -165.07432491
  -exchange  EXHF       =         0.00000000
  -V(xc)+E(xc)   XCENC  =        56.80840711
  PAW double counting   =       206.09731244     -211.00779202
  entropy T*S    EENTRO =         0.00007649
  eigenvalues    EBANDS =       -88.40442443
  atomic energy  EATOM  =       588.28246388
  ---------------------------------------------------
  free energy    TOTEN  =       -36.85103624 eV

  energy without entropy =      -36.85111273  energy(sigma->0) =      -36.85106173


--------------------------------------------------------------------------------------------------------




----------------------------------------- Iteration    1(   7)  ---------------------------------------


    POTLOK:  cpu time    0.30: real time    0.30
    SETDIJ:  cpu time    0.04: real time    0.04
     EDDAV:  cpu time    5.89: real time    5.89
       DOS:  cpu time    0.01: real time    0.01
    CHARGE:  cpu time    0.44: real time    0.44
    MIXING:  cpu time    0.01: real time    0.01
    --------------------------------------------
      LOOP:  cpu time    6.69: real time    6.70

 eigenvalue-minimisations  :  3238
 total energy-change (2. order) :-0.1080145E+00  (-0.1386409E+00)
 number of electron      15.9999999 magnetization      -0.1399621
 augmentation part        0.3839766 magnetization      -0.1404427

 Broyden mixing:
  rms(total) = 0.18803E+00    rms(broyden)= 0.18796E+00
  rms(prec ) = 0.26913E+00
  weight for this iteration     100.00

 eigenvalues of (default mixing * dielectric matrix)
  average eigenvalue GAMMA=   1.1893
  0.8414  1.5372

 Free energy of the ion-electron system (eV)
  ---------------------------------------------------
  alpha Z        PSCENC =        37.04766603
  Ewald energy   TEWEN  =      -460.60042082
  -1/2 Hartree   DENC   =      -176.51737635
  -exchange  EXHF       =         0.00000000
  -V(xc)+E(xc)   XCENC  =        57.22885368
  PAW double counting   =       248.54835971     -253.62784288
  entropy T*S    EENTRO =         0.00017215
  eigenvalues    EBANDS =       -77.32092614
  atomic energy  EATOM  =       588.28246388
  ---------------------------------------------------
  free energy    TOTEN  =       -36.95905074 eV

  energy without entropy =      -36.95922289  energy(sigma->0) =      -36.95910812


--------------------------------------------------------------------------------------------------------




----------------------------------------- Iteration    1(   8)  ---------------------------------------


    POTLOK:  cpu time    0.30: real time    0.30
    SETDIJ:  cpu time    0.04: real time    0.04
     EDDAV:  cpu time    5.96: real time    5.96
       DOS:  cpu time    0.01: real time    0.01
    CHARGE:  cpu time    0.44: real time    0.44
    MIXING:  cpu time    0.01: real time    0.01
    --------------------------------------------
      LOOP:  cpu time    6.76: real time    6.77

 eigenvalue-minimisations  :  3290
 total energy-change (2. order) : 0.5613234E-01  (-0.2546130E-01)
 number of electron      15.9999999 magnetization      -0.0329135
 augmentation part        0.3770819 magnetization      -0.0306027

 Broyden mixing:
  rms(total) = 0.66165E-01    rms(broyden)= 0.66099E-01
  rms(prec ) = 0.78386E-01
  weight for this iteration     100.00

 eigenvalues of (default mixing * dielectric matrix)
  average eigenvalue GAMMA=   1.1815
  1.7986  0.9683  0.7776

 Free energy of the ion-electron system (eV)
  ---------------------------------------------------
  alpha Z        PSCENC =        37.04766603
  Ewald energy   TEWEN  =      -460.60042082
  -1/2 Hartree   DENC   =      -182.51928358
  -exchange  EXHF       =         0.00000000
  -V(xc)+E(xc)   XCENC  =        57.63048748
  PAW double counting   =       273.78765934     -278.92376659
  entropy T*S    EENTRO =         0.00017413
  eigenvalues    EBANDS =       -71.60789825
  atomic energy  EATOM  =       588.28246388
  ---------------------------------------------------
  free energy    TOTEN  =       -36.90291839 eV

  energy without entropy =      -36.90309252  energy(sigma->0) =      -36.90297644


--------------------------------------------------------------------------------------------------------




----------------------------------------- Iteration    1(   9)  ---------------------------------------


    POTLOK:  cpu time    0.30: real time    0.30
    SETDIJ:  cpu time    0.04: real time    0.04
     EDDAV:  cpu time    5.87: real time    5.87
       DOS:  cpu time    0.01: real time    0.01
    CHARGE:  cpu time    0.44: real time    0.44
    MIXING:  cpu time    0.01: real time    0.01
    --------------------------------------------
      LOOP:  cpu time    6.67: real time    6.69

 eigenvalue-minimisations  :  3226
 total energy-change (2. order) :-0.1145627E-01  (-0.1876783E-02)
 number of electron      15.9999999 magnetization       0.0124480
 augmentation part        0.3757559 magnetization       0.0149031

 Broyden mixing:
  rms(total) = 0.32825E-01    rms(broyden)= 0.32815E-01
  rms(prec ) = 0.39146E-01
  weight for this iteration     100.00

 eigenvalues of (default mixing * dielectric matrix)
  average eigenvalue GAMMA=   1.2712
  2.1504  1.3593  0.8943  0.6809

 Free energy of the ion-electron system (eV)
  ---------------------------------------------------
  alpha Z        PSCENC =        37.04766603
  Ewald energy   TEWEN  =      -460.60042082
  -1/2 Hartree   DENC   =      -183.20367631
  -exchange  EXHF       =         0.00000000
  -V(xc)+E(xc)   XCENC  =        57.66876514
  PAW double counting   =       278.34450157     -283.46146789
  entropy T*S    EENTRO =         0.00016572
  eigenvalues    EBANDS =       -70.99237199
  atomic energy  EATOM  =       588.28246388
  ---------------------------------------------------
  free energy    TOTEN  =       -36.91437466 eV

  energy without entropy =      -36.91454039  energy(sigma->0) =      -36.91442990


--------------------------------------------------------------------------------------------------------




----------------------------------------- Iteration    1(  10)  ---------------------------------------


    POTLOK:  cpu time    0.30: real time    0.30
    SETDIJ:  cpu time    0.04: real time    0.04
     EDDAV:  cpu time    6.27: real time    6.27
       DOS:  cpu time    0.01: real time    0.01
    CHARGE:  cpu time    0.44: real time    0.44
    MIXING:  cpu time    0.01: real time    0.01
    --------------------------------------------
      LOOP:  cpu time    7.07: real time    7.08

 eigenvalue-minimisations  :  3528
 total energy-change (2. order) :-0.5698572E-03  (-0.1674595E-03)
 number of electron      15.9999999 magnetization       0.0090127
 augmentation part        0.3756483 magnetization       0.0080721

 Broyden mixing:
  rms(total) = 0.12218E-01    rms(broyden)= 0.12217E-01
  rms(prec ) = 0.14975E-01
  weight for this iteration     100.00

 eigenvalues of (default mixing * dielectric matrix)
  average eigenvalue GAMMA=   1.2472
  2.3031  1.5057  0.8851  0.8851  0.6569

 Free energy of the ion-electron system (eV)
  ---------------------------------------------------
  alpha Z        PSCENC =        37.04766603
  Ewald energy   TEWEN  =      -460.60042082
  -1/2 Hartree   DENC   =      -183.43427434
  -exchange  EXHF       =         0.00000000
  -V(xc)+E(xc)   XCENC  =        57.68620808
  PAW double counting   =       280.52692124     -285.62420220
  entropy T*S    EENTRO =         0.00017291
  eigenvalues    EBANDS =       -70.79947929
  atomic energy  EATOM  =       588.28246388
  ---------------------------------------------------
  free energy    TOTEN  =       -36.91494452 eV

  energy without entropy =      -36.91511743  energy(sigma->0) =      -36.91500216


--------------------------------------------------------------------------------------------------------




----------------------------------------- Iteration    1(  11)  ---------------------------------------


    POTLOK:  cpu time    0.30: real time    0.30
    SETDIJ:  cpu time    0.04: real time    0.04
     EDDAV:  cpu time    5.88: real time    5.88
       DOS:  cpu time    0.01: real time    0.01
    CHARGE:  cpu time    0.44: real time    0.44
    MIXING:  cpu time    0.01: real time    0.01
    --------------------------------------------
      LOOP:  cpu time    6.68: real time    6.69

 eigenvalue-minimisations  :  3244
 total energy-change (2. order) :-0.2263701E-03  (-0.5139042E-04)
 number of electron      15.9999999 magnetization       0.0017489
 augmentation part        0.3756873 magnetization       0.0009851

 Broyden mixing:
  rms(total) = 0.49381E-02    rms(broyden)= 0.49376E-02
  rms(prec ) = 0.58129E-02
  weight for this iteration     100.00

 eigenvalues of (default mixing * dielectric matrix)
  average eigenvalue GAMMA=   1.3216
  2.4963  1.8796  1.2883  0.8923  0.7473  0.6258

 Free energy of the ion-electron system (eV)
  ---------------------------------------------------
  alpha Z        PSCENC =        37.04766603
  Ewald energy   TEWEN  =      -460.60042082
  -1/2 Hartree   DENC   =      -183.46864932
  -exchange  EXHF       =         0.00000000
  -V(xc)+E(xc)   XCENC  =        57.68967090
  PAW double counting   =       281.06491350     -286.15185999
  entropy T*S    EENTRO =         0.00017217
  eigenvalues    EBANDS =       -70.77912723
  atomic energy  EATOM  =       588.28246388
  ---------------------------------------------------
  free energy    TOTEN  =       -36.91517089 eV

  energy without entropy =      -36.91534306  energy(sigma->0) =      -36.91522828


--------------------------------------------------------------------------------------------------------




----------------------------------------- Iteration    1(  12)  ---------------------------------------


    POTLOK:  cpu time    0.29: real time    0.30
    SETDIJ:  cpu time    0.04: real time    0.04
     EDDAV:  cpu time    5.07: real time    5.07
       DOS:  cpu time    0.01: real time    0.01
    --------------------------------------------
      LOOP:  cpu time    5.42: real time    5.43

 eigenvalue-minimisations  :  2622
 total energy-change (2. order) :-0.2153166E-04  (-0.9629316E-05)
 number of electron      15.9999999 magnetization       0.0017489
 augmentation part        0.3756873 magnetization       0.0009851

 Free energy of the ion-electron system (eV)
  ---------------------------------------------------
  alpha Z        PSCENC =        37.04766603
  Ewald energy   TEWEN  =      -460.60042082
  -1/2 Hartree   DENC   =      -183.47548289
  -exchange  EXHF       =         0.00000000
  -V(xc)+E(xc)   XCENC  =        57.69064927
  PAW double counting   =       281.11653584     -286.19993087
  entropy T*S    EENTRO =         0.00017177
  eigenvalues    EBANDS =       -70.77684463
  atomic energy  EATOM  =       588.28246388
  ---------------------------------------------------
  free energy    TOTEN  =       -36.91519242 eV

  energy without entropy =      -36.91536419  energy(sigma->0) =      -36.91524968


--------------------------------------------------------------------------------------------------------




 average (electrostatic) potential at core
  the test charge radii are     0.6991
  (the norm of the test charge is              1.0000)
       1 -50.7204       2 -50.7541       3 -50.7541       4 -50.7204
 
 
 
 E-fermi :   3.9739     XC(G=0): -10.3260     alpha+bet :-11.4114


 spin component 1

 k-point   1 :       0.0000    0.0000    0.0000
  band No.  band energies     occupation 
      1     -14.9862      1.00000
      2     -14.6872      1.00000
      3      -3.8226      1.00000
      4      -1.8656      1.00000
      5       1.7244      1.00000
      6       1.7244      1.00000
      7       1.7291      1.00000
      8       1.7291      1.00000
      9       8.9858      0.00000
     10      13.1440      0.00000
     11      13.1440      0.00000
     12      13.2071      0.00000
     13      13.2071      0.00000
     14      15.3238      0.00000

 k-point   2 :       0.1250    0.0000    0.0000
  band No.  band energies     occupation 
      1     -14.6129      1.00000
      2     -14.3202      1.00000
      3      -3.3688      1.00000
      4      -1.4444      1.00000
      5       0.3055      1.00000
      6       0.3508      1.00000
      7       0.9900      1.00000
      8       1.0284      1.00000
      9       9.4384      0.00000
     10      13.1755      0.00000
     11      13.2841      0.00000
     12      14.6616      0.00000
     13      14.6999      0.00000
     14      14.9085      0.00000

 k-point   3 :       0.2500    0.0000    0.0000
  band No.  band energies     occupation 
      1     -13.5016      1.00000
      2     -13.2285      1.00000
      3      -2.7409      1.00000
      4      -2.6378      1.00000
      5      -2.0365      1.00000
      6      -0.3293      1.00000
      7      -0.2789      1.00000
      8      -0.2098      1.00000
      9      10.7944      0.00000
     10      11.7500      0.00000
     11      12.4007      0.00000
     12      12.7340      0.00000
     13      13.0214      0.00000
     14      16.6367      0.00000

 k-point   4 :       0.3750    0.0000    0.0000
  band No.  band energies     occupation 
      1     -11.6910      1.00000
      2     -11.4507      1.00000
      3      -6.0623      1.00000
      4      -5.9109      1.00000
      5      -1.3466      1.00000
      6      -1.2878      1.00000
      7       0.0565      1.00000
      8       1.6258      1.00000
      9       8.1105      0.00000
     10       9.1063      0.00000
     11      12.1717      0.00000
     12      12.4942      0.00000
     13      13.1525      0.00000
     14      17.9854      0.00000

 k-point   5 :       0.5000    0.0000    0.0000
  band No.  band energies     occupation 
      1      -9.6299      1.00000
      2      -9.5199      1.00000
      3      -8.5680      1.00000
      4      -8.4853      1.00000
      5      -1.7116      1.00000
      6      -1.6543      1.00000
      7       1.9439      1.00000
      8       2.6341      1.00000
      9       6.2505      0.00000
     10       6.9150      0.00000
     11      11.9703      0.00000
     12      12.3689      0.00000
     13      16.0276      0.00000
     14      16.1512      0.00000

 k-point   6 :       0.1250    0.1250    0.0000
  band No.  band energies     occupation 
      1     -13.8704      1.00000
      2     -13.5912      1.00000
      3      -2.4757      1.00000
      4      -1.5042      1.00000
      5      -1.4582      1.00000
      6      -0.6119      1.00000
      7      -0.4184      1.00000
      8      -0.3877      1.00000
      9      10.3516      0.00000
     10      12.8347      0.00000
     11      13.2499      0.00000
     12      13.9632      0.00000
     13      14.1395      0.00000
     14      15.6582      0.00000

 k-point   7 :       0.2500    0.1250    0.0000
  band No.  band energies     occupation 
      1     -12.4082      1.00000
      2     -12.1551      1.00000
      3      -4.3412      1.00000
      4      -4.2310      1.00000
      5      -1.9612      1.00000
      6      -1.8964      1.00000
      7      -0.7440      1.00000
      8       0.9629      1.00000
      9       9.6546      0.00000
     10      10.3379      0.00000
     11      12.1564      0.00000
     12      13.9431      0.00000
     13      14.3199      0.00000
     14      17.0965      0.00000

 k-point   8 :       0.3750    0.1250    0.0000
  band No.  band energies     occupation 
      1     -10.3106      1.00000
      2     -10.1012      1.00000
      3      -7.3792      1.00000
      4      -7.2202      1.00000
      5      -2.7376      1.00000
      6      -2.6592      1.00000
      7       1.5509      1.00000
      8       2.7520      1.00000
      9       6.6603      0.00000
     10       7.4585      0.00000
     11      13.5448      0.00000
     12      13.9779      0.00000
     13      14.8232      0.00000
     14      17.7553      0.00000

 k-point   9 :       0.2500    0.2500    0.0000
  band No.  band energies     occupation 
      1     -10.6427      1.00000
      2     -10.4239      1.00000
      3      -5.8451      1.00000
      4      -5.7682      1.00000
      5      -4.2634      1.00000
      6      -4.2044      1.00000
      7       1.2950      1.00000
      8       2.7375      1.00000
      9       7.2720      0.00000
     10       7.8782      0.00000
     11      14.3394      0.00000
     12      16.6596      0.00000
     13      16.6766      0.00000
     14      16.8919      0.00000

 k-point  10 :       0.3750    0.2500    0.0000
  band No.  band energies     occupation 
      1      -8.6740      1.00000
      2      -8.5702      1.00000
      3      -7.7576      1.00000
      4      -7.7121      1.00000
      5      -5.0738      1.00000
      6      -4.9719      1.00000
      7       3.2859      1.00000
      8       3.9356      0.98046
      9       5.7098      0.00000
     10       5.8915      0.00000
     11      16.2608      0.00000
     12      16.2840      0.00000
     13      16.4697      0.00000
     14      16.8037      0.00000

 k-point  11 :       0.0000    0.0000    0.1250
  band No.  band energies     occupation 
      1     -14.9757      1.00000
      2     -14.6993      1.00000
      3      -3.7597      1.00000
      4      -1.9598      1.00000
      5       1.7129      1.00000
      6       1.7129      1.00000
      7       1.7242      1.00000
      8       1.7242      1.00000
      9       9.1782      0.00000
     10      13.1368      0.00000
     11      13.1368      0.00000
     12      13.1807      0.00000
     13      13.1807      0.00000
     14      14.9352      0.00000

 k-point  12 :       0.1250    0.0000    0.1250
  band No.  band energies     occupation 
      1     -14.6025      1.00000
      2     -14.3321      1.00000
      3      -3.3064      1.00000
      4      -1.5351      1.00000
      5       0.3073      1.00000
      6       0.3486      1.00000
      7       0.9954      1.00000
      8       1.0273      1.00000
      9       9.6280      0.00000
     10      13.1766      0.00000
     11      13.2797      0.00000
     12      14.6643      0.00000
     13      14.6984      0.00000
     14      14.9160      0.00000

 k-point  13 :       0.2500    0.0000    0.1250
  band No.  band energies     occupation 
      1     -13.4918      1.00000
      2     -13.2394      1.00000
      3      -2.7371      1.00000
      4      -2.6450      1.00000
      5      -1.9749      1.00000
      6      -0.3217      1.00000
      7      -0.2950      1.00000
      8      -0.2808      1.00000
      9      10.9614      0.00000
     10      11.7838      0.00000
     11      12.3599      0.00000
     12      12.7447      0.00000
     13      13.0218      0.00000
     14      16.3240      0.00000

 k-point  14 :       0.3750    0.0000    0.1250
  band No.  band energies     occupation 
      1     -11.6822      1.00000
      2     -11.4601      1.00000
      3      -6.0570      1.00000
      4      -5.9186      1.00000
      5      -1.3438      1.00000
      6      -1.2926      1.00000
      7       0.1102      1.00000
      8       1.5517      1.00000
      9       8.1332      0.00000
     10       9.0582      0.00000
     11      12.1846      0.00000
     12      12.4889      0.00000
     13      13.3100      0.00000
     14      17.7403      0.00000

 k-point  15 :       0.5000    0.0000    0.1250
  band No.  band energies     occupation 
      1      -9.6248      1.00000
      2      -9.5233      1.00000
      3      -8.5662      1.00000
      4      -8.4897      1.00000
      5      -1.7093      1.00000
      6      -1.6563      1.00000
      7       1.9788      1.00000
      8       2.6243      1.00000
      9       6.2470      0.00000
     10       6.8718      0.00000
     11      11.9849      0.00000
     12      12.3546      0.00000
     13      16.1782      0.00000
     14      16.2593      0.00000

 k-point  16 :       0.1250    0.1250    0.1250
  band No.  band energies     occupation 
      1     -13.8605      1.00000
      2     -13.6022      1.00000
      3      -2.4138      1.00000
      4      -1.5030      1.00000
      5      -1.4630      1.00000
      6      -0.7002      1.00000
      7      -0.4153      1.00000
      8      -0.3892      1.00000
      9      10.5334      0.00000
     10      12.8440      0.00000
     11      13.2244      0.00000
     12      13.9712      0.00000
     13      14.1324      0.00000
     14      15.6653      0.00000

 k-point  17 :       0.2500    0.1250    0.1250
  band No.  band energies     occupation 
      1     -12.3991      1.00000
      2     -12.1652      1.00000
      3      -4.3363      1.00000
      4      -4.2340      1.00000
      5      -1.9575      1.00000
      6      -1.8971      1.00000
      7      -0.6871      1.00000
      8       0.8823      1.00000
      9       9.6733      0.00000
     10      10.3045      0.00000
     11      12.3212      0.00000
     12      13.9559      0.00000
     13      14.3116      0.00000
     14      16.8514      0.00000

 k-point  18 :       0.3750    0.1250    0.1250
  band No.  band energies     occupation 
      1     -10.3029      1.00000
      2     -10.1095      1.00000
      3      -7.3737      1.00000
      4      -7.2264      1.00000
      5      -2.7346      1.00000
      6      -2.6614      1.00000
      7       1.5958      1.00000
      8       2.7074      1.00000
      9       6.6712      0.00000
     10       7.4161      0.00000
     11      13.5606      0.00000
     12      13.9601      0.00000
     13      14.9450      0.00000
     14      17.4327      0.00000

 k-point  19 :       0.2500    0.2500    0.1250
  band No.  band energies     occupation 
      1     -10.6354      1.00000
      2     -10.4330      1.00000
      3      -5.8428      1.00000
      4      -5.7720      1.00000
      5      -4.2624      1.00000
      6      -4.2074      1.00000
      7       1.3396      1.00000
      8       2.6772      1.00000
      9       7.2907      0.00000
     10       7.8539      0.00000
     11      14.4274      0.00000
     12      16.3417      0.00000
     13      16.8834      0.00000
     14      16.9164      0.00000

 k-point  20 :       0.3750    0.2500    0.1250
  band No.  band energies     occupation 
      1      -8.6694      1.00000
      2      -8.5744      1.00000
      3      -7.7567      1.00000
      4      -7.7147      1.00000
      5      -5.0705      1.00000
      6      -4.9746      1.00000
      7       3.3228      1.00000
      8       3.9341      0.98851
      9       5.7117      0.00000
     10       5.8696      0.00000
     11      15.8963      0.00000
     12      15.9854      0.00000
     13      16.5724      0.00000
     14      17.3292      0.00000

 k-point  21 :       0.0000    0.0000    0.2500
  band No.  band energies     occupation 
      1     -14.9450      1.00000
      2     -14.7336      1.00000
      3      -3.5759      1.00000
      4      -2.2088      1.00000
      5       1.7132      1.00000
      6       1.7132      1.00000
      7       1.7220      1.00000
      8       1.7220      1.00000
      9       9.7318      0.00000
     10      13.1422      0.00000
     11      13.1422      0.00000
     12      13.1736      0.00000
     13      13.1736      0.00000
     14      13.9884      0.00000

 k-point  22 :       0.1250    0.0000    0.2500
  band No.  band energies     occupation 
      1     -14.5724      1.00000
      2     -14.3656      1.00000
      3      -3.1292      1.00000
      4      -1.7800      1.00000
      5       0.3115      1.00000
      6       0.3437      1.00000
      7       0.9967      1.00000
      8       1.0222      1.00000
      9      10.1717      0.00000
     10      13.1646      0.00000
     11      13.2668      0.00000
     12      14.3712      0.00000
     13      14.6640      0.00000
     14      14.6917      0.00000

 k-point  23 :       0.2500    0.0000    0.2500
  band No.  band energies     occupation 
      1     -13.4636      1.00000
      2     -13.2705      1.00000
      3      -2.7262      1.00000
      4      -2.6589      1.00000
      5      -1.8032      1.00000
      6      -0.5210      1.00000
      7      -0.3182      1.00000
      8      -0.2855      1.00000
      9      11.4053      0.00000
     10      11.8950      0.00000
     11      12.2628      0.00000
     12      12.7720      0.00000
     13      13.0242      0.00000
     14      15.5098      0.00000

 k-point  24 :       0.3750    0.0000    0.2500
  band No.  band energies     occupation 
      1     -11.6573      1.00000
      2     -11.4871      1.00000
      3      -6.0411      1.00000
      4      -5.9341      1.00000
      5      -1.3329      1.00000
      6      -1.2983      1.00000
      7       0.2657      1.00000
      8       1.3647      1.00000
      9       8.2153      0.00000
     10       8.9194      0.00000
     11      12.2275      0.00000
     12      12.4646      0.00000
     13      13.7736      0.00000
     14      17.1167      0.00000

 k-point  25 :       0.5000    0.0000    0.2500
  band No.  band energies     occupation 
      1      -9.6123      1.00000
      2      -9.5333      1.00000
      3      -8.5604      1.00000
      4      -8.5019      1.00000
      5      -1.6984      1.00000
      6      -1.6627      1.00000
      7       2.0731      1.00000
      8       2.5763      1.00000
      9       6.2421      0.00000
     10       6.7292      0.00000
     11      12.0256      0.00000
     12      12.3081      0.00000
     13      16.5555      0.00000
     14      16.5889      0.00000

 k-point  26 :       0.1250    0.1250    0.2500
  band No.  band energies     occupation 
      1     -13.8317      1.00000
      2     -13.6341      1.00000
      3      -2.2412      1.00000
      4      -1.4984      1.00000
      5      -1.4678      1.00000
      6      -0.9329      1.00000
      7      -0.4095      1.00000
      8      -0.3915      1.00000
      9      11.0562      0.00000
     10      12.8785      0.00000
     11      13.1734      0.00000
     12      13.9714      0.00000
     13      14.1446      0.00000
     14      15.1065      0.00000

 k-point  27 :       0.2500    0.1250    0.2500
  band No.  band energies     occupation 
      1     -12.3727      1.00000
      2     -12.1938      1.00000
      3      -4.3244      1.00000
      4      -4.2446      1.00000
      5      -1.9508      1.00000
      6      -1.9042      1.00000
      7      -0.5247      1.00000
      8       0.6745      1.00000
      9       9.7410      0.00000
     10      10.2263      0.00000
     11      12.7880      0.00000
     12      13.9843      0.00000
     13      14.2924      0.00000
     14      16.2287      0.00000

 k-point  28 :       0.3750    0.1250    0.2500
  band No.  band energies     occupation 
      1     -10.2808      1.00000
      2     -10.1329      1.00000
      3      -7.3567      1.00000
      4      -7.2451      1.00000
      5      -2.7266      1.00000
      6      -2.6712      1.00000
      7       1.7233      1.00000
      8       2.5775      1.00000
      9       6.7184      0.00000
     10       7.3004      0.00000
     11      13.6038      0.00000
     12      13.9084      0.00000
     13      15.2827      0.00000
     14      17.1011      0.00000

 k-point  29 :       0.2500    0.2500    0.2500
  band No.  band energies     occupation 
      1     -10.6125      1.00000
      2     -10.4578      1.00000
      3      -5.8340      1.00000
      4      -5.7797      1.00000
      5      -4.2575      1.00000
      6      -4.2152      1.00000
      7       1.4812      1.00000
      8       2.5067      1.00000
      9       7.3549      0.00000
     10       7.7857      0.00000
     11      14.6613      0.00000
     12      15.9817      0.00000
     13      16.9394      0.00000
     14      17.0829      0.00000

 k-point  30 :       0.3750    0.2500    0.2500
  band No.  band energies     occupation 
      1      -8.6562      1.00000
      2      -8.5833      1.00000
      3      -7.7550      1.00000
      4      -7.7221      1.00000
      5      -5.0598      1.00000
      6      -4.9862      1.00000
      7       3.4182      1.00000
      8       3.8977      1.02659
      9       5.6934      0.00000
     10       5.7990      0.00000
     11      15.4835      0.00000
     12      15.6103      0.00000
     13      16.7745      0.00000
     14      17.5103      0.00000

 k-point  31 :       0.0000    0.0000    0.3750
  band No.  band energies     occupation 
      1     -14.8982      1.00000
      2     -14.7839      1.00000
      3      -3.3001      1.00000
      4      -2.5616      1.00000
      5       1.7134      1.00000
      6       1.7134      1.00000
      7       1.7188      1.00000
      8       1.7188      1.00000
      9      10.5772      0.00000
     10      12.8034      0.00000
     11      13.1437      0.00000
     12      13.1437      0.00000
     13      13.1639      0.00000
     14      13.1640      0.00000

 k-point  32 :       0.1250    0.0000    0.3750
  band No.  band energies     occupation 
      1     -14.5265      1.00000
      2     -14.4147      1.00000
      3      -2.8510      1.00000
      4      -2.1255      1.00000
      5       0.3176      1.00000
      6       0.3381      1.00000
      7       1.0051      1.00000
      8       1.0173      1.00000
      9      10.9999      0.00000
     10      13.0255      0.00000
     11      13.2550      0.00000
     12      13.3915      0.00000
     13      14.6679      0.00000
     14      14.6938      0.00000

 k-point  33 :       0.2500    0.0000    0.3750
  band No.  band energies     occupation 
      1     -13.4205      1.00000
      2     -13.3163      1.00000
      3      -2.7126      1.00000
      4      -2.6759      1.00000
      5      -1.5364      1.00000
      6      -0.8486      1.00000
      7      -0.3148      1.00000
      8      -0.2974      1.00000
      9      11.7856      0.00000
     10      12.1290      0.00000
     11      12.3381      0.00000
     12      12.7992      0.00000
     13      13.0550      0.00000
     14      14.4876      0.00000

 k-point  34 :       0.3750    0.0000    0.3750
  band No.  band energies     occupation 
      1     -11.6197      1.00000
      2     -11.5272      1.00000
      3      -6.0154      1.00000
      4      -5.9594      1.00000
      5      -1.3245      1.00000
      6      -1.3068      1.00000
      7       0.5013      1.00000
      8       1.0913      1.00000
      9       8.3518      0.00000
     10       8.7353      0.00000
     11      12.2859      0.00000
     12      12.4152      0.00000
     13      14.4841      0.00000
     14      16.2731      0.00000

 k-point  35 :       0.5000    0.0000    0.3750
  band No.  band energies     occupation 
      1      -9.5920      1.00000
      2      -9.5491      1.00000
      3      -8.5494      1.00000
      4      -8.5179      1.00000
      5      -1.6872      1.00000
      6      -1.6660      1.00000
      7       2.2161      1.00000
      8       2.4904      1.00000
      9       6.2851      0.00000
     10       6.5580      0.00000
     11      12.0886      0.00000
     12      12.2427      0.00000
     13      16.9759      0.00000
     14      17.1478      0.00000

 k-point  36 :       0.1250    0.1250    0.3750
  band No.  band energies     occupation 
      1     -13.7879      1.00000
      2     -13.6809      1.00000
      3      -1.9695      1.00000
      4      -1.4915      1.00000
      5      -1.4746      1.00000
      6      -1.2667      1.00000
      7      -0.4055      1.00000
      8      -0.3966      1.00000
      9      11.8487      0.00000
     10      12.9326      0.00000
     11      13.0914      0.00000
     12      13.7602      0.00000
     13      14.1440      0.00000
     14      14.2840      0.00000

 k-point  37 :       0.2500    0.1250    0.3750
  band No.  band energies     occupation 
      1     -12.3331      1.00000
      2     -12.2364      1.00000
      3      -4.3051      1.00000
      4      -4.2632      1.00000
      5      -1.9435      1.00000
      6      -1.9137      1.00000
      7      -0.2731      1.00000
      8       0.3720      1.00000
      9       9.8410      0.00000
     10      10.1077      0.00000
     11      13.4544      0.00000
     12      14.0165      0.00000
     13      14.2921      0.00000
     14      15.4017      0.00000

 k-point  38 :       0.3750    0.1250    0.3750
  band No.  band energies     occupation 
      1     -10.2480      1.00000
      2     -10.1675      1.00000
      3      -7.3315      1.00000
      4      -7.2711      1.00000
      5      -2.7161      1.00000
      6      -2.6849      1.00000
      7       1.9185      1.00000
      8       2.3836      1.00000
      9       6.8171      0.00000
     10       7.1364      0.00000
     11      13.6673      0.00000
     12      13.8329      0.00000
     13      15.7509      0.00000
     14      16.7170      0.00000

 k-point  39 :       0.2500    0.2500    0.3750
  band No.  band energies     occupation 
      1     -10.5783      1.00000
      2     -10.4943      1.00000
      3      -5.8204      1.00000
      4      -5.7910      1.00000
      5      -4.2495      1.00000
      6      -4.2267      1.00000
      7       1.6989      1.00000
      8       2.2508      1.00000
      9       7.4516      0.00000
     10       7.6833      0.00000
     11      14.9590      0.00000
     12      15.6191      0.00000
     13      17.1158      0.00000
     14      17.1941      0.00000

 k-point  40 :       0.3750    0.2500    0.3750
  band No.  band energies     occupation 
      1      -8.6375      1.00000
      2      -8.5980      1.00000
      3      -7.7492      1.00000
      4      -7.7310      1.00000
      5      -5.0445      1.00000
      6      -5.0053      1.00000
      7       3.5589      1.00000
      8       3.8245      1.00010
      9       5.6755      0.00000
     10       5.7196      0.00000
     11      15.2453      0.00000
     12      15.3286      0.00000
     13      17.0155      0.00000
     14      17.3994      0.00000

 k-point  41 :       0.0000    0.0000    0.5000
  band No.  band energies     occupation 
      1     -14.8418      1.00000
      2     -14.8418      1.00000
      3      -2.9445      1.00000
      4      -2.9445      1.00000
      5       1.7158      1.00000
      6       1.7158      1.00000
      7       1.7159      1.00000
      8       1.7159      1.00000
      9      11.6321      0.00000
     10      11.6321      0.00000
     11      13.1535      0.00000
     12      13.1535      0.00000
     13      13.1535      0.00000
     14      13.1535      0.00000

 k-point  42 :       0.1250    0.0000    0.5000
  band No.  band energies     occupation 
      1     -14.4712      1.00000
      2     -14.4712      1.00000
      3      -2.4997      1.00000
      4      -2.4997      1.00000
      5       0.3305      1.00000
      6       0.3305      1.00000
      7       1.0104      1.00000
      8       1.0104      1.00000
      9      12.0286      0.00000
     10      12.0286      0.00000
     11      13.2611      0.00000
     12      13.2611      0.00000
     13      14.6846      0.00000
     14      14.6846      0.00000

 k-point  43 :       0.2500    0.0000    0.5000
  band No.  band energies     occupation 
      1     -13.3689      1.00000
      2     -13.3689      1.00000
      3      -2.6937      1.00000
      4      -2.6937      1.00000
      5      -1.2062      1.00000
      6      -1.2062      1.00000
      7      -0.3066      1.00000
      8      -0.3066      1.00000
      9      11.9688      0.00000
     10      11.9688      0.00000
     11      12.7735      0.00000
     12      12.7735      0.00000
     13      13.5014      0.00000
     14      13.5014      0.00000

 k-point  44 :       0.3750    0.0000    0.5000
  band No.  band energies     occupation 
      1     -11.5742      1.00000
      2     -11.5742      1.00000
      3      -5.9880      1.00000
      4      -5.9880      1.00000
      5      -1.3177      1.00000
      6      -1.3177      1.00000
      7       0.7874      1.00000
      8       0.7874      1.00000
      9       8.5362      0.00000
     10       8.5362      0.00000
     11      12.3506      0.00000
     12      12.3506      0.00000
     13      15.3502      0.00000
     14      15.3502      0.00000

 k-point  45 :       0.5000    0.0000    0.5000
  band No.  band energies     occupation 
      1      -9.5702      1.00000
      2      -9.5702      1.00000
      3      -8.5375      1.00000
      4      -8.5375      1.00000
      5      -1.6783      1.00000
      6      -1.6783      1.00000
      7       2.3538      1.00000
      8       2.3538      1.00000
      9       6.3889      0.00000
     10       6.3889      0.00000
     11      12.1624      0.00000
     12      12.1624      0.00000
     13      17.3439      0.00000
     14      17.3439      0.00000

 k-point  46 :       0.1250    0.1250    0.5000
  band No.  band energies     occupation 
      1     -13.7349      1.00000
      2     -13.7349      1.00000
      3      -1.6315      1.00000
      4      -1.6315      1.00000
      5      -1.4838      1.00000
      6      -1.4838      1.00000
      7      -0.4048      1.00000
      8      -0.4048      1.00000
      9      12.8126      0.00000
     10      12.8126      0.00000
     11      13.0162      0.00000
     12      13.0162      0.00000
     13      14.1477      0.00000
     14      14.1477      0.00000

 k-point  47 :       0.2500    0.1250    0.5000
  band No.  band energies     occupation 
      1     -12.2852      1.00000
      2     -12.2852      1.00000
      3      -4.2846      1.00000
      4      -4.2846      1.00000
      5      -1.9303      1.00000
      6      -1.9303      1.00000
      7       0.0398      1.00000
      8       0.0398      1.00000
      9       9.9660      0.00000
     10       9.9660      0.00000
     11      13.9673      0.00000
     12      13.9673      0.00000
     13      14.5890      0.00000
     14      14.5890      0.00000

 k-point  48 :       0.3750    0.1250    0.5000
  band No.  band energies     occupation 
      1     -10.2081      1.00000
      2     -10.2081      1.00000
      3      -7.3015      1.00000
      4      -7.3015      1.00000
      5      -2.7019      1.00000
      6      -2.7019      1.00000
      7       2.1470      1.00000
      8       2.1470      1.00000
      9       6.9604      0.00000
     10       6.9604      0.00000
     11      13.7470      0.00000
     12      13.7470      0.00000
     13      16.2544      0.00000
     14      16.2544      0.00000

 k-point  49 :       0.2500    0.2500    0.5000
  band No.  band energies     occupation 
      1     -10.5366      1.00000
      2     -10.5366      1.00000
      3      -5.8052      1.00000
      4      -5.8052      1.00000
      5      -4.2373      1.00000
      6      -4.2373      1.00000
      7       1.9696      1.00000
      8       1.9696      1.00000
      9       7.5725      0.00000
     10       7.5725      0.00000
     11      15.2806      0.00000
     12      15.2806      0.00000
     13      17.2390      0.00000
     14      17.2391      0.00000

 k-point  50 :       0.3750    0.2500    0.5000
  band No.  band energies     occupation 
      1      -8.6169      1.00000
      2      -8.6169      1.00000
      3      -7.7413      1.00000
      4      -7.7413      1.00000
      5      -5.0249      1.00000
      6      -5.0249      1.00000
      7       3.7020      1.00000
      8       3.7020      1.00000
      9       5.6790      0.00000
     10       5.6790      0.00000
     11      15.1976      0.00000
     12      15.1976      0.00000
     13      17.2320      0.00000
     14      17.2320      0.00000

 spin component 2

 k-point   1 :       0.0000    0.0000    0.0000
  band No.  band energies     occupation 
      1     -14.9851      1.00000
      2     -14.6861      1.00000
      3      -3.8214      1.00000
      4      -1.8642      1.00000
      5       1.7247      1.00000
      6       1.7247      1.00000
      7       1.7294      1.00000
      8       1.7295      1.00000
      9       8.9862      0.00000
     10      13.1453      0.00000
     11      13.1453      0.00000
     12      13.2084      0.00000
     13      13.2084      0.00000
     14      15.3242      0.00000

 k-point   2 :       0.1250    0.0000    0.0000
  band No.  band energies     occupation 
      1     -14.6119      1.00000
      2     -14.3191      1.00000
      3      -3.3676      1.00000
      4      -1.4431      1.00000
      5       0.3059      1.00000
      6       0.3512      1.00000
      7       0.9904      1.00000
      8       1.0288      1.00000
      9       9.4388      0.00000
     10      13.1770      0.00000
     11      13.2856      0.00000
     12      14.6628      0.00000
     13      14.7011      0.00000
     14      14.9097      0.00000

 k-point   3 :       0.2500    0.0000    0.0000
  band No.  band energies     occupation 
      1     -13.5006      1.00000
      2     -13.2275      1.00000
      3      -2.7403      1.00000
      4      -2.6372      1.00000
      5      -2.0353      1.00000
      6      -0.3289      1.00000
      7      -0.2784      1.00000
      8      -0.2085      1.00000
      9      10.7948      0.00000
     10      11.7511      0.00000
     11      12.4019      0.00000
     12      12.7358      0.00000
     13      13.0232      0.00000
     14      16.6374      0.00000

 k-point   4 :       0.3750    0.0000    0.0000
  band No.  band energies     occupation 
      1     -11.6900      1.00000
      2     -11.4497      1.00000
      3      -6.0615      1.00000
      4      -5.9101      1.00000
      5      -1.3461      1.00000
      6      -1.2873      1.00000
      7       0.0576      1.00000
      8       1.6271      1.00000
      9       8.1117      0.00000
     10       9.1076      0.00000
     11      12.1734      0.00000
     12      12.4959      0.00000
     13      13.1532      0.00000
     14      17.9866      0.00000

 k-point   5 :       0.5000    0.0000    0.0000
  band No.  band energies     occupation 
      1      -9.6293      1.00000
      2      -9.5191      1.00000
      3      -8.5669      1.00000
      4      -8.4842      1.00000
      5      -1.7111      1.00000
      6      -1.6538      1.00000
      7       1.9448      1.00000
      8       2.6354      1.00000
      9       6.2516      0.00000
     10       6.9165      0.00000
     11      11.9722      0.00000
     12      12.3707      0.00000
     13      16.0275      0.00000
     14      16.1523      0.00000

 k-point   6 :       0.1250    0.1250    0.0000
  band No.  band energies     occupation 
      1     -13.8694      1.00000
      2     -13.5901      1.00000
      3      -2.4745      1.00000
      4      -1.5037      1.00000
[...]
      3      -2.7120      1.00000
      4      -2.6752      1.00000
      5      -1.5352      1.00000
      6      -0.8474      1.00000
      7      -0.3143      1.00000
      8      -0.2969      1.00000
      9      11.7866      0.00000
     10      12.1302      0.00000
     11      12.3387      0.00000
     12      12.8009      0.00000
     13      13.0567      0.00000
     14      14.4882      0.00000

 k-point  34 :       0.3750    0.0000    0.3750
  band No.  band energies     occupation 
      1     -11.6187      1.00000
      2     -11.5263      1.00000
      3      -6.0146      1.00000
      4      -5.9586      1.00000
      5      -1.3240      1.00000
      6      -1.3063      1.00000
      7       0.5024      1.00000
      8       1.0924      1.00000
      9       8.3529      0.00000
     10       8.7365      0.00000
     11      12.2877      0.00000
     12      12.4170      0.00000
     13      14.4847      0.00000
     14      16.2739      0.00000

 k-point  35 :       0.5000    0.0000    0.3750
  band No.  band energies     occupation 
      1      -9.5913      1.00000
      2      -9.5484      1.00000
      3      -8.5484      1.00000
      4      -8.5168      1.00000
      5      -1.6866      1.00000
      6      -1.6654      1.00000
      7       2.2171      1.00000
      8       2.4916      1.00000
      9       6.2863      0.00000
     10       6.5594      0.00000
     11      12.0904      0.00000
     12      12.2446      0.00000
     13      16.9771      0.00000
     14      17.1480      0.00000

 k-point  36 :       0.1250    0.1250    0.3750
  band No.  band energies     occupation 
      1     -13.7868      1.00000
      2     -13.6799      1.00000
      3      -1.9683      1.00000
      4      -1.4910      1.00000
      5      -1.4741      1.00000
      6      -1.2654      1.00000
      7      -0.4049      1.00000
      8      -0.3961      1.00000
      9      11.8491      0.00000
     10      12.9337      0.00000
     11      13.0925      0.00000
     12      13.7611      0.00000
     13      14.1456      0.00000
     14      14.2854      0.00000

 k-point  37 :       0.2500    0.1250    0.3750
  band No.  band energies     occupation 
      1     -12.3321      1.00000
      2     -12.2355      1.00000
      3      -4.3044      1.00000
      4      -4.2625      1.00000
      5      -1.9429      1.00000
      6      -1.9130      1.00000
      7      -0.2719      1.00000
      8       0.3733      1.00000
      9       9.8421      0.00000
     10      10.1088      0.00000
     11      13.4549      0.00000
     12      14.0181      0.00000
     13      14.2938      0.00000
     14      15.4026      0.00000

 k-point  38 :       0.3750    0.1250    0.3750
  band No.  band energies     occupation 
      1     -10.2471      1.00000
      2     -10.1667      1.00000
      3      -7.3306      1.00000
      4      -7.2702      1.00000
      5      -2.7154      1.00000
      6      -2.6842      1.00000
      7       1.9195      1.00000
      8       2.3847      1.00000
      9       6.8182      0.00000
     10       7.1376      0.00000
     11      13.6690      0.00000
     12      13.8346      0.00000
     13      15.7518      0.00000
     14      16.7183      0.00000

 k-point  39 :       0.2500    0.2500    0.3750
  band No.  band energies     occupation 
      1     -10.5774      1.00000
      2     -10.4935      1.00000
      3      -5.8197      1.00000
      4      -5.7904      1.00000
      5      -4.2486      1.00000
      6      -4.2258      1.00000
      7       1.7000      1.00000
      8       2.2519      1.00000
      9       7.4526      0.00000
     10       7.6844      0.00000
     11      14.9600      0.00000
     12      15.6207      0.00000
     13      17.1166      0.00000
     14      17.1971      0.00000

 k-point  40 :       0.3750    0.2500    0.3750
  band No.  band energies     occupation 
      1      -8.6368      1.00000
      2      -8.5973      1.00000
      3      -7.7484      1.00000
      4      -7.7301      1.00000
      5      -5.0435      1.00000
      6      -5.0044      1.00000
      7       3.5598      1.00000
      8       3.8257      1.00011
      9       5.6767      0.00000
     10       5.7206      0.00000
     11      15.2472      0.00000
     12      15.3305      0.00000
     13      17.0167      0.00000
     14      17.4009      0.00000

 k-point  41 :       0.0000    0.0000    0.5000
  band No.  band energies     occupation 
      1     -14.8407      1.00000
      2     -14.8407      1.00000
      3      -2.9432      1.00000
      4      -2.9432      1.00000
      5       1.7162      1.00000
      6       1.7162      1.00000
      7       1.7162      1.00000
      8       1.7162      1.00000
      9      11.6326      0.00000
     10      11.6326      0.00000
     11      13.1548      0.00000
     12      13.1548      0.00000
     13      13.1548      0.00000
     14      13.1548      0.00000

 k-point  42 :       0.1250    0.0000    0.5000
  band No.  band energies     occupation 
      1     -14.4702      1.00000
      2     -14.4702      1.00000
      3      -2.4985      1.00000
      4      -2.4985      1.00000
      5       0.3309      1.00000
      6       0.3309      1.00000
      7       1.0108      1.00000
      8       1.0108      1.00000
      9      12.0291      0.00000
     10      12.0291      0.00000
     11      13.2626      0.00000
     12      13.2626      0.00000
     13      14.6858      0.00000
     14      14.6858      0.00000

 k-point  43 :       0.2500    0.0000    0.5000
  band No.  band energies     occupation 
      1     -13.3679      1.00000
      2     -13.3679      1.00000
      3      -2.6931      1.00000
      4      -2.6931      1.00000
      5      -1.2050      1.00000
      6      -1.2050      1.00000
      7      -0.3062      1.00000
      8      -0.3062      1.00000
      9      11.9699      0.00000
     10      11.9699      0.00000
     11      12.7749      0.00000
     12      12.7749      0.00000
     13      13.5022      0.00000
     14      13.5022      0.00000

 k-point  44 :       0.3750    0.0000    0.5000
  band No.  band energies     occupation 
      1     -11.5733      1.00000
      2     -11.5733      1.00000
      3      -5.9873      1.00000
      4      -5.9873      1.00000
      5      -1.3172      1.00000
      6      -1.3172      1.00000
      7       0.7885      1.00000
      8       0.7885      1.00000
      9       8.5374      0.00000
     10       8.5374      0.00000
     11      12.3524      0.00000
     12      12.3524      0.00000
     13      15.3509      0.00000
     14      15.3509      0.00000

 k-point  45 :       0.5000    0.0000    0.5000
  band No.  band energies     occupation 
      1      -9.5695      1.00000
      2      -9.5695      1.00000
      3      -8.5364      1.00000
      4      -8.5364      1.00000
      5      -1.6777      1.00000
      6      -1.6777      1.00000
      7       2.3548      1.00000
      8       2.3548      1.00000
      9       6.3902      0.00000
     10       6.3902      0.00000
     11      12.1643      0.00000
     12      12.1643      0.00000
     13      17.3449      0.00000
     14      17.3449      0.00000

 k-point  46 :       0.1250    0.1250    0.5000
  band No.  band energies     occupation 
      1     -13.7339      1.00000
      2     -13.7339      1.00000
      3      -1.6302      1.00000
      4      -1.6302      1.00000
      5      -1.4833      1.00000
      6      -1.4833      1.00000
      7      -0.4042      1.00000
      8      -0.4042      1.00000
      9      12.8132      0.00000
     10      12.8132      0.00000
     11      13.0171      0.00000
     12      13.0171      0.00000
     13      14.1494      0.00000
     14      14.1494      0.00000

 k-point  47 :       0.2500    0.1250    0.5000
  band No.  band energies     occupation 
      1     -12.2842      1.00000
      2     -12.2842      1.00000
      3      -4.2840      1.00000
      4      -4.2840      1.00000
      5      -1.9297      1.00000
      6      -1.9297      1.00000
      7       0.0410      1.00000
      8       0.0410      1.00000
      9       9.9672      0.00000
     10       9.9672      0.00000
     11      13.9686      0.00000
     12      13.9686      0.00000
     13      14.5901      0.00000
     14      14.5901      0.00000

 k-point  48 :       0.3750    0.1250    0.5000
  band No.  band energies     occupation 
      1     -10.2072      1.00000
      2     -10.2072      1.00000
      3      -7.3006      1.00000
      4      -7.3006      1.00000
      5      -2.7012      1.00000
      6      -2.7012      1.00000
      7       2.1481      1.00000
      8       2.1481      1.00000
      9       6.9616      0.00000
     10       6.9616      0.00000
     11      13.7487      0.00000
     12      13.7487      0.00000
     13      16.2555      0.00000
     14      16.2555      0.00000

 k-point  49 :       0.2500    0.2500    0.5000
  band No.  band energies     occupation 
      1     -10.5357      1.00000
      2     -10.5357      1.00000
      3      -5.8046      1.00000
      4      -5.8046      1.00000
      5      -4.2364      1.00000
      6      -4.2364      1.00000
      7       1.9707      1.00000
      8       1.9707      1.00000
      9       7.5735      0.00000
     10       7.5735      0.00000
     11      15.2818      0.00000
     12      15.2818      0.00000
     13      17.2414      0.00000
     14      17.2417      0.00000

 k-point  50 :       0.3750    0.2500    0.5000
  band No.  band energies     occupation 
      1      -8.6162      1.00000
      2      -8.6162      1.00000
      3      -7.7405      1.00000
      4      -7.7405      1.00000
      5      -5.0239      1.00000
      6      -5.0239      1.00000
      7       3.7031      1.00000
      8       3.7031      1.00000
      9       5.6801      0.00000
     10       5.6801      0.00000
     11      15.1994      0.00000
     12      15.1994      0.00000
     13      17.2333      0.00000
     14      17.2333      0.00000


--------------------------------------------------------------------------------------------------------


 soft charge-density along one line, spin component           1
         0         1         2         3         4         5         6         7         8         9
 total charge-density along one line
 
 soft charge-density along one line, spin component           2
         0         1         2         3         4         5         6         7         8         9
 total charge-density along one line
 
 pseudopotential strength for first ion, spin component:           1
  9.767   0.005   0.000   0.000   0.000   0.000   0.000   0.000
  0.005  -0.002   0.000   0.000   0.000   0.000   0.000   0.000
  0.000   0.000  -3.947   0.000   0.000  -0.015   0.000   0.000
  0.000   0.000   0.000  -3.940   0.000   0.000  -0.012   0.000
  0.000   0.000   0.000   0.000  -3.947   0.000   0.000  -0.015
  0.000   0.000  -0.015   0.000   0.000  -0.764   0.000   0.000
  0.000   0.000   0.000  -0.012   0.000   0.000  -0.764   0.000
  0.000   0.000   0.000   0.000  -0.015   0.000   0.000  -0.764
 pseudopotential strength for first ion, spin component:           2
  9.767   0.005   0.000   0.000   0.000   0.000   0.000   0.000
  0.005  -0.002   0.000   0.000   0.000   0.000   0.000   0.000
  0.000   0.000  -3.947   0.000   0.000  -0.015   0.000   0.000
  0.000   0.000   0.000  -3.940   0.000   0.000  -0.012   0.000
  0.000   0.000   0.000   0.000  -3.947   0.000   0.000  -0.015
  0.000   0.000  -0.015   0.000   0.000  -0.764   0.000   0.000
  0.000   0.000   0.000  -0.012   0.000   0.000  -0.764   0.000
  0.000   0.000   0.000   0.000  -0.015   0.000   0.000  -0.764
 total augmentation occupancy for first ion, spin component:           1
  1.474  -1.119   0.000   0.000   0.000   0.000   0.000   0.000
 -1.119   1.054   0.000   0.000   0.000   0.000   0.000   0.000
  0.000   0.000   1.214   0.000   0.000   0.245   0.000   0.000
  0.000   0.000   0.000   0.923   0.000   0.000   0.128   0.000
  0.000   0.000   0.000   0.000   1.214   0.000   0.000   0.245
  0.000   0.000   0.245   0.000   0.000   0.055   0.000   0.000
  0.000   0.000   0.000   0.128   0.000   0.000   0.019   0.000
  0.000   0.000   0.000   0.000   0.245   0.000   0.000   0.055
 total augmentation occupancy for first ion, spin component:           2
  0.000  -0.001   0.000   0.000   0.000   0.000   0.000   0.000
 -0.001   0.002   0.000   0.000   0.000   0.000   0.000   0.000
  0.000   0.000   0.000   0.000   0.000   0.000   0.000   0.000
  0.000   0.000   0.000   0.000   0.000   0.000   0.000   0.000
  0.000   0.000   0.000   0.000   0.000   0.000   0.000   0.000
  0.000   0.000   0.000   0.000   0.000   0.000   0.000   0.000
  0.000   0.000   0.000   0.000   0.000   0.000   0.000   0.000
  0.000   0.000   0.000   0.000   0.000   0.000   0.000   0.000


------------------------ aborting loop because EDIFF is reached ----------------------------------------


 


 total charge     
 
# of ion     s       p       d       tot
----------------------------------------
  1        0.866   1.804   0.000   2.670
  2        0.867   1.800   0.000   2.667
  3        0.867   1.800   0.000   2.667
  4        0.866   1.804   0.000   2.670
------------------------------------------------
tot        3.466   7.207   0.000  10.673
 


 magnetization (x)
 
# of ion     s       p       d       tot
----------------------------------------
  1        0.000   0.000   0.000   0.000
  2        0.000   0.000   0.000   0.000
  3        0.000   0.000   0.000   0.000
  4        0.000   0.000   0.000   0.000
------------------------------------------------
tot        0.000   0.000   0.000   0.000
 
    CHARGE:  cpu time    0.43: real time    0.43
    FORLOC:  cpu time    0.01: real time    0.01
    FORNL :  cpu time    0.58: real time    0.58
    STRESS:  cpu time    0.65: real time    0.65
    FORHAR:  cpu time    0.04: real time    0.04
    MIXING:  cpu time    0.01: real time    0.01

  FORCE on cell =-STRESS in cart. coord.  units (eV):
  Direction    XX          YY          ZZ          XY          YZ          ZX
  --------------------------------------------------------------------------------------
  Alpha Z    37.04767    37.04767    37.04767
  Ewald      78.34827    78.34827  -617.29730     0.00000     0.00000     0.00000
  Hartree   161.11858   161.11858  -138.73161     0.00000     0.00000     0.00000
  E(xc)     -58.50699   -58.50699   -60.64985     0.00000     0.00000     0.00000
  Local    -443.66049  -443.66054   517.49611    -0.00004     0.00000     0.00000
  n-local   -13.53066   -14.42226   -12.78265    -0.66718     0.02050     0.02493
  augment    -1.51731    -1.51727    -1.39190     0.00004     0.00000     0.00000
  Kinetic   237.68079   243.46260   275.31941     6.27015    -0.28715    -0.37116
  Fock        0.00000     0.00000     0.00000     0.00000     0.00000     0.00000
  -------------------------------------------------------------------------------------
  Total      -0.57503    -0.57503    -0.99012     0.00000     0.00000     0.00000
  in kB     -26.18141   -26.18141   -45.08038     0.00000     0.00000     0.00000
  external pressure =      -32.48 kB  Pullay stress =        0.00 kB


 VOLUME and BASIS-vectors are now :
 -----------------------------------------------------------------------------
  energy-cutoff  :      350.00
  volume of cell :       35.19
      direct lattice vectors                 reciprocal lattice vectors
     2.461200000  0.000000000  0.000000000     0.406305867  0.234580802  0.000000000
    -1.230600000  2.131461724  0.000000000     0.000000000  0.469161603  0.000000000
     0.000000000  0.000000000  6.707900000     0.000000000  0.000000000  0.149077953

  length of vectors
     2.461200000  2.461200000  6.707900000     0.469161603  0.469161603  0.149077953


 FORCES acting on ions
    electron-ion (+dipol)            ewald-force                    non-local-force                 convergence-correction
 -----------------------------------------------------------------------------------------------
   0.136E-06 -.787E-07 0.301E-14   0.624E-11 -.358E-11 -.182E-13   0.111E-15 -.555E-16 0.000E+00   0.165E-06 -.955E-07 -.719E-13
   -.173E-05 0.999E-06 -.271E-12   -.624E-11 0.358E-11 -.182E-13   -.555E-16 0.111E-15 0.000E+00   -.167E-06 0.967E-07 -.732E-13
   -.165E-05 0.953E-06 -.860E-13   -.126E-10 0.731E-11 0.182E-13   0.555E-16 -.111E-15 0.000E+00   0.167E-06 -.967E-07 0.125E-12
   0.166E-05 -.957E-06 -.909E-12   0.126E-10 -.731E-11 0.182E-13   -.833E-16 0.555E-16 0.000E+00   -.165E-06 0.955E-07 0.126E-12
 -----------------------------------------------------------------------------------------------
   -.159E-05 0.917E-06 -.126E-11   0.658E-14 -.737E-15 0.316E-29   0.278E-16 0.000E+00 0.000E+00   -.710E-10 0.410E-10 0.106E-12
 
 
 POSITION                                       TOTAL-FORCE (eV/Angst)
 -----------------------------------------------------------------------------------
      0.00000      0.00000      0.00000         0.000000      0.000000      0.000000
      0.00000      1.42097      0.00000         0.000000      0.000000      0.000000
      0.00000      1.42097      3.35395         0.000000      0.000000      0.000000
      1.23060      0.71049      3.35395         0.000000      0.000000      0.000000
 -----------------------------------------------------------------------------------
    total drift:                               -0.000002      0.000001      0.000000


--------------------------------------------------------------------------------------------------------



  FREE ENERGIE OF THE ION-ELECTRON SYSTEM (eV)
  ---------------------------------------------------
  free  energy   TOTEN  =       -36.915192 eV

  energy  without entropy=      -36.915364  energy(sigma->0) =      -36.915250
 


--------------------------------------------------------------------------------------------------------


    POTLOK:  cpu time    0.33: real time    0.33


--------------------------------------------------------------------------------------------------------


 writing wavefunctions
     LOOP+:  cpu time   80.30: real time   81.15
    4ORBIT:  cpu time    0.00: real time    0.00
 


 total charge     
 
# of ion     s       p       d       tot
----------------------------------------
  1        0.866   1.804   0.000   2.670
  2        0.867   1.800   0.000   2.667
  3        0.867   1.800   0.000   2.667
  4        0.866   1.804   0.000   2.670
------------------------------------------------
tot        3.466   7.207   0.000  10.673
 


 magnetization (x)
 
# of ion     s       p       d       tot
----------------------------------------
  1        0.000   0.000   0.000   0.000
  2        0.000   0.000   0.000   0.000
  3        0.000   0.000   0.000   0.000
  4        0.000   0.000   0.000   0.000
------------------------------------------------
tot        0.000   0.000   0.000   0.000
 

 total amount of memory used by VASP on root node    54668. kBytes
========================================================================

   base      :      30000. kBytes
   nonl-proj :       1749. kBytes
   fftplans  :       2996. kBytes
   grid      :       7176. kBytes
   one-center:         24. kBytes
   wavefun   :      12723. kBytes
 
  
  
 General timing and accounting informations for this job:
 ========================================================
  
                  Total CPU time used (sec):       81.414
                            User time (sec):       81.160
                          System time (sec):        0.254
                         Elapsed time (sec):       82.366
  
                   Maximum memory used (kb):           0.
                   Average memory used (kb):           0.
  
                          Minor page faults:        31763
                          Major page faults:            0
                 Voluntary context switches:         6403
