PROCAR lm decomposed
# of k-points:   50         # of bands:  14         # of ions:   4

 k-point    1 :    0.00000000 0.00000000 0.00000000     weight = 0.00195312

band   1 # energy  -14.98620348 # occ.  1.00000000
 
ion      s     py     pz     px    dxy    dyz    dz2    dxz    dx2    tot
  1  0.159  0.000  0.000  0.000  0.000  0.000  0.000  0.000  0.000  0.159
  2  0.159  0.000  0.000  0.000  0.000  0.000  0.000  0.000  0.000  0.159
  3  0.159  0.000  0.000  0.000  0.000  0.000  0.000  0.000  0.000  0.159
  4  0.159  0.000  0.000  0.000  0.000  0.000  0.000  0.000  0.000  0.159
tot  0.635  0.000  0.000  0.000  0.000  0.000  0.000  0.000  0.000  0.635
 
band   2 # energy  -14.68718504 # occ.  1.00000000
 
ion      s     py     pz     px    dxy    dyz    dz2    dxz    dx2    tot
  1  0.165  0.000  0.000  0.000  0.000  0.000  0.000  0.000  0.000  0.165
  2  0.165  0.000  0.000  0.000  0.000  0.000  0.000  0.000  0.000  0.165
  3  0.165  0.000  0.000  0.000  0.000  0.000  0.000  0.000  0.000  0.165
  4  0.165  0.000  0.000  0.000  0.000  0.000  0.000  0.000  0.000  0.165
tot  0.659  0.000  0.000  0.000  0.000  0.000  0.000  0.000  0.000  0.659
 
band   3 # energy   -3.82259366 # occ.  1.00000000
 
ion      s     py     pz     px    dxy    dyz    dz2    dxz    dx2    tot
  1  0.000  0.000  0.096  0.000  0.000  0.000  0.000  0.000  0.000  0.096
  2  0.000  0.000  0.097  0.000  0.000  0.000  0.000  0.000  0.000  0.097
  3  0.000  0.000  0.097  0.000  0.000  0.000  0.000  0.000  0.000  0.097
  4  0.000  0.000  0.096  0.000  0.000  0.000  0.000  0.000  0.000  0.096
tot  0.000  0.000  0.387  0.000  0.000  0.000  0.000  0.000  0.000  0.387
 
band   4 # energy   -1.86556183 # occ.  1.00000000
 
ion      s     py     pz     px    dxy    dyz    dz2    dxz    dx2    tot
  1  0.000  0.000  0.127  0.000  0.000  0.000  0.000  0.000  0.000  0.127
  2  0.000  0.000  0.126  0.000  0.000  0.000  0.000  0.000  0.000  0.126
  3  0.000  0.000  0.126  0.000  0.000  0.000  0.000  0.000  0.000  0.126
  4  0.000  0.000  0.127  0.000  0.000  0.000  0.000  0.000  0.000  0.127
tot  0.000  0.000  0.506  0.000  0.000  0.000  0.000  0.000  0.000  0.506
 
band   5 # energy    1.72440209 # occ.  1.00000000
 
ion      s     py     pz     px    dxy    dyz    dz2    dxz    dx2    tot
  1  0.000  0.052  0.000  0.156  0.000  0.000  0.000  0.000  0.000  0.207
  2  0.000  0.052  0.000  0.156  0.000  0.000  0.000  0.000  0.000  0.208
  3  0.000  0.052  0.000  0.156  0.000  0.000  0.000  0.000  0.000  0.208
  4  0.000  0.052  0.000  0.155  0.000  0.000  0.000  0.000  0.000  0.207
tot  0.000  0.208  0.000  0.623  0.000  0.000  0.000  0.000  0.000  0.831
 
band   6 # energy    1.72441458 # occ.  1.00000000
 
ion      s     py     pz     px    dxy    dyz    dz2    dxz    dx2    tot
  1  0.000  0.156  0.000  0.052  0.000  0.000  0.000  0.000  0.000  0.207
  2  0.000  0.156  0.000  0.052  0.000  0.000  0.000  0.000  0.000  0.208
  3  0.000  0.156  0.000  0.052  0.000  0.000  0.000  0.000  0.000  0.208
  4  0.000  0.155  0.000  0.052  0.000  0.000  0.000  0.000  0.000  0.207
tot  0.000  0.623  0.000  0.208  0.000  0.000  0.000  0.000  0.000  0.831
 
band   7 # energy    1.72913076 # occ.  1.00000000
 
ion      s     py     pz     px    dxy    dyz    dz2    dxz    dx2    tot
  1  0.000  0.052  0.000  0.156  0.000  0.000  0.000  0.000  0.000  0.208
  2  0.000  0.052  0.000  0.156  0.000  0.000  0.000  0.000  0.000  0.208
  3  0.000  0.052  0.000  0.156  0.000  0.000  0.000  0.000  0.000  0.208
  4  0.000  0.052  0.000  0.156  0.000  0.000  0.000  0.000  0.000  0.208
tot  0.000  0.208  0.000  0.623  0.000  0.000  0.000  0.000  0.000  0.831
 
band   8 # energy    1.72914372 # occ.  1.00000000
 
ion      s     py     pz     px    dxy    dyz    dz2    dxz    dx2    tot
  1  0.000  0.156  0.000  0.052  0.000  0.000  0.000  0.000  0.000  0.208
  2  0.000  0.156  0.000  0.052  0.000  0.000  0.000  0.000  0.000  0.208
  3  0.000  0.156  0.000  0.052  0.000  0.000  0.000  0.000  0.000  0.208
  4  0.000  0.156  0.000  0.052  0.000  0.000  0.000  0.000  0.000  0.208
tot  0.000  0.623  0.000  0.208  0.000  0.000  0.000  0.000  0.000  0.831
 
band   9 # energy    8.98582945 # occ.  0.00000000
 
ion      s     py     pz     px    dxy    dyz    dz2    dxz    dx2    tot
  1  0.021  0.000  0.000  0.000  0.000  0.000  0.000  0.000  0.000  0.021
  2  0.020  0.000  0.000  0.000  0.000  0.000  0.000  0.000  0.000  0.020
  3  0.020  0.000  0.000  0.000  0.000  0.000  0.000  0.000  0.000  0.020
  4  0.021  0.000  0.000  0.000  0.000  0.000  0.000  0.000  0.000  0.021
tot  0.082  0.000  0.000  0.000  0.000  0.000  0.000  0.000  0.000  0.082
 
band  10 # energy   13.14399182 # occ.  0.00000000
 
ion      s     py     pz     px    dxy    dyz    dz2    dxz    dx2    tot
  1  0.000  0.033  0.000  0.098  0.000  0.000  0.000  0.000  0.000  0.131
  2  0.000  0.033  0.000  0.099  0.000  0.000  0.000  0.000  0.000  0.132
  3  0.000  0.033  0.000  0.099  0.000  0.000  0.000  0.000  0.000  0.132
  4  0.000  0.033  0.000  0.098  0.000  0.000  0.000  0.000  0.000  0.131
tot  0.000  0.132  0.000  0.395  0.000  0.000  0.000  0.000  0.000  0.526
 
band  11 # energy   13.14399559 # occ.  0.00000000
 
ion      s     py     pz     px    dxy    dyz    dz2    dxz    dx2    tot
  1  0.000  0.098  0.000  0.033  0.000  0.000  0.000  0.000  0.000  0.131
  2  0.000  0.099  0.000  0.033  0.000  0.000  0.000  0.000  0.000  0.132
  3  0.000  0.099  0.000  0.033  0.000  0.000  0.000  0.000  0.000  0.132
  4  0.000  0.098  0.000  0.033  0.000  0.000  0.000  0.000  0.000  0.131
tot  0.000  0.395  0.000  0.132  0.000  0.000  0.000  0.000  0.000  0.526
 
band  12 # energy   13.20708345 # occ.  0.00000000
 
ion      s     py     pz     px    dxy    dyz    dz2    dxz    dx2    tot
  1  0.000  0.033  0.000  0.100  0.000  0.000  0.000  0.000  0.000  0.134
  2  0.000  0.033  0.000  0.098  0.000  0.000  0.000  0.000  0.000  0.131
  3  0.000  0.033  0.000  0.098  0.000  0.000  0.000  0.000  0.000  0.131
  4  0.000  0.033  0.000  0.100  0.000  0.000  0.000  0.000  0.000  0.134
tot  0.000  0.132  0.000  0.397  0.000  0.000  0.000  0.000  0.000  0.530
 
band  13 # energy   13.20708669 # occ.  0.00000000
 
ion      s     py     pz     px    dxy    dyz    dz2    dxz    dx2    tot
  1  0.000  0.100  0.000  0.033  0.000  0.000  0.000  0.000  0.000  0.134
  2  0.000  0.098  0.000  0.033  0.000  0.000  0.000  0.000  0.000  0.131
  3  0.000  0.098  0.000  0.033  0.000  0.000  0.000  0.000  0.000  0.131
  4  0.000  0.100  0.000  0.033  0.000  0.000  0.000  0.000  0.000  0.134
tot  0.000  0.397  0.000  0.132  0.000  0.000  0.000  0.000  0.000  0.530
 
band  14 # energy   15.32384568 # occ.  0.00000000
 
ion      s     py     pz     px    dxy    dyz    dz2    dxz    dx2    tot
  1  0.000  0.000  0.063  0.000  0.000  0.000  0.000  0.000  0.000  0.063
  2  0.000  0.000  0.089  0.000  0.000  0.000  0.000  0.000  0.000  0.089
  3  0.000  0.000  0.092  0.000  0.000  0.000  0.000  0.000  0.000  0.092
  4  0.000  0.000  0.061  0.000  0.000  0.000  0.000  0.000  0.000  0.061
tot  0.000  0.000  0.306  0.000  0.000  0.000  0.000  0.000  0.000  0.306
 

 k-point    2 :    0.12500000 0.00000000 0.00000000     weight = 0.01171875

band   1 # energy  -14.61292787 # occ.  1.00000000
 
ion      s     py     pz     px    dxy    dyz    dz2    dxz    dx2    tot
  1  0.156  0.001  0.000  0.003  0.000  0.000  0.000  0.000  0.000  0.160
  2  0.156  0.001  0.000  0.003  0.000  0.000  0.000  0.000  0.000  0.160
  3  0.156  0.001  0.000  0.003  0.000  0.000  0.000  0.000  0.000  0.160
  4  0.156  0.001  0.000  0.003  0.000  0.000  0.000  0.000  0.000  0.160
tot  0.625  0.004  0.000  0.012  0.000  0.000  0.000  0.000  0.000  0.640
 
band   2 # energy  -14.32020113 # occ.  1.00000000
 
ion      s     py     pz     px    dxy    dyz    dz2    dxz    dx2    tot
  1  0.161  0.001  0.000  0.003  0.000  0.000  0.000  0.000  0.000  0.165
  2  0.161  0.001  0.000  0.003  0.000  0.000  0.000  0.000  0.000  0.165
  3  0.161  0.001  0.000  0.003  0.000  0.000  0.000  0.000  0.000  0.165
  4  0.161  0.001  0.000  0.003  0.000  0.000  0.000  0.000  0.000  0.165
tot  0.646  0.004  0.000  0.012  0.000  0.000  0.000  0.000  0.000  0.662
 
band   3 # energy   -3.36879118 # occ.  1.00000000
 
ion      s     py     pz     px    dxy    dyz    dz2    dxz    dx2    tot
  1  0.000  0.000  0.097  0.000  0.000  0.000  0.000  0.000  0.000  0.097
  2  0.000  0.000  0.098  0.000  0.000  0.000  0.000  0.000  0.000  0.098
  3  0.000  0.000  0.098  0.000  0.000  0.000  0.000  0.000  0.000  0.098
  4  0.000  0.000  0.097  0.000  0.000  0.000  0.000  0.000  0.000  0.097
tot  0.000  0.000  0.390  0.000  0.000  0.000  0.000  0.000  0.000  0.390
 
band   4 # energy   -1.44443018 # occ.  1.00000000
 
ion      s     py     pz     px    dxy    dyz    dz2    dxz    dx2    tot
  1  0.000  0.000  0.127  0.000  0.000  0.000  0.000  0.000  0.000  0.127
  2  0.000  0.000  0.127  0.000  0.000  0.000  0.000  0.000  0.000  0.127
  3  0.000  0.000  0.127  0.000  0.000  0.000  0.000  0.000  0.000  0.127
  4  0.000  0.000  0.127  0.000  0.000  0.000  0.000  0.000  0.000  0.127
tot  0.000  0.000  0.508  0.000  0.000  0.000  0.000  0.000  0.000  0.508
 
band   5 # energy    0.30550976 # occ.  1.00000000
 
ion      s     py     pz     px    dxy    dyz    dz2    dxz    dx2    tot
  1  0.018  0.045  0.000  0.136  0.000  0.000  0.000  0.000  0.000  0.200
  2  0.018  0.046  0.000  0.137  0.000  0.000  0.000  0.000  0.000  0.200
  3  0.018  0.046  0.000  0.137  0.000  0.000  0.000  0.000  0.000  0.200
  4  0.018  0.045  0.000  0.136  0.000  0.000  0.000  0.000  0.000  0.200
tot  0.072  0.182  0.000  0.547  0.000  0.000  0.000  0.000  0.000  0.801
 
band   6 # energy    0.35075084 # occ.  1.00000000
 
ion      s     py     pz     px    dxy    dyz    dz2    dxz    dx2    tot
  1  0.018  0.046  0.000  0.138  0.000  0.000  0.000  0.000  0.000  0.202
  2  0.019  0.046  0.000  0.138  0.000  0.000  0.000  0.000  0.000  0.202
  3  0.019  0.046  0.000  0.138  0.000  0.000  0.000  0.000  0.000  0.202
  4  0.018  0.046  0.000  0.138  0.000  0.000  0.000  0.000  0.000  0.202
tot  0.074  0.183  0.000  0.550  0.000  0.000  0.000  0.000  0.000  0.808
 
band   7 # energy    0.99004226 # occ.  1.00000000
 
ion      s     py     pz     px    dxy    dyz    dz2    dxz    dx2    tot
  1  0.000  0.152  0.000  0.051  0.000  0.000  0.000  0.000  0.000  0.203
  2  0.000  0.153  0.000  0.051  0.000  0.000  0.000  0.000  0.000  0.204
  3  0.000  0.153  0.000  0.051  0.000  0.000  0.000  0.000  0.000  0.203
  4  0.000  0.152  0.000  0.051  0.000  0.000  0.000  0.000  0.000  0.203
tot  0.000  0.610  0.000  0.203  0.000  0.000  0.000  0.000  0.000  0.813
 
band   8 # energy    1.02840738 # occ.  1.00000000
 
ion      s     py     pz     px    dxy    dyz    dz2    dxz    dx2    tot
  1  0.000  0.153  0.000  0.051  0.000  0.000  0.000  0.000  0.000  0.204
  2  0.000  0.153  0.000  0.051  0.000  0.000  0.000  0.000  0.000  0.204
  3  0.000  0.153  0.000  0.051  0.000  0.000  0.000  0.000  0.000  0.204
  4  0.000  0.153  0.000  0.051  0.000  0.000  0.000  0.000  0.000  0.204
tot  0.000  0.613  0.000  0.204  0.000  0.000  0.000  0.000  0.000  0.817
 
band   9 # energy    9.43841778 # occ.  0.00000000
 
ion      s     py     pz     px    dxy    dyz    dz2    dxz    dx2    tot
  1  0.019  0.001  0.000  0.002  0.000  0.000  0.000  0.000  0.000  0.021
  2  0.018  0.001  0.000  0.002  0.000  0.000  0.000  0.000  0.000  0.021
  3  0.018  0.001  0.000  0.002  0.000  0.000  0.000  0.000  0.000  0.021
  4  0.019  0.001  0.000  0.002  0.000  0.000  0.000  0.000  0.000  0.021
tot  0.074  0.002  0.000  0.007  0.000  0.000  0.000  0.000  0.000  0.084
 
band  10 # energy   13.17551616 # occ.  0.00000000
 
ion      s     py     pz     px    dxy    dyz    dz2    dxz    dx2    tot
  1  0.017  0.026  0.000  0.079  0.000  0.000  0.000  0.000  0.000  0.122
  2  0.017  0.027  0.000  0.082  0.000  0.000  0.000  0.000  0.000  0.127
  3  0.017  0.027  0.000  0.082  0.000  0.000  0.000  0.000  0.000  0.127
  4  0.017  0.026  0.000  0.079  0.000  0.000  0.000  0.000  0.000  0.122
tot  0.068  0.107  0.000  0.322  0.000  0.000  0.000  0.000  0.000  0.497
 
band  11 # energy   13.28414766 # occ.  0.00000000
 
ion      s     py     pz     px    dxy    dyz    dz2    dxz    dx2    tot
  1  0.018  0.028  0.000  0.083  0.000  0.000  0.000  0.000  0.000  0.129
  2  0.018  0.027  0.000  0.080  0.000  0.000  0.000  0.000  0.000  0.124
  3  0.018  0.027  0.000  0.080  0.000  0.000  0.000  0.000  0.000  0.124
  4  0.018  0.028  0.000  0.083  0.000  0.000  0.000  0.000  0.000  0.129
tot  0.073  0.109  0.000  0.326  0.000  0.000  0.000  0.000  0.000  0.507
 
band  12 # energy   14.66163703 # occ.  0.00000000
 
ion      s     py     pz     px    dxy    dyz    dz2    dxz    dx2    tot
  1  0.000  0.102  0.000  0.034  0.000  0.000  0.000  0.000  0.000  0.136
  2  0.000  0.104  0.000  0.035  0.000  0.000  0.000  0.000  0.000  0.139
  3  0.000  0.104  0.000  0.035  0.000  0.000  0.000  0.000  0.000  0.139
  4  0.000  0.102  0.000  0.034  0.000  0.000  0.000  0.000  0.000  0.136
tot  0.000  0.413  0.000  0.138  0.000  0.000  0.000  0.000  0.000  0.550
 
band  13 # energy   14.69990471 # occ.  0.00000000
 
ion      s     py     pz     px    dxy    dyz    dz2    dxz    dx2    tot
  1  0.000  0.105  0.000  0.035  0.000  0.000  0.000  0.000  0.000  0.140
  2  0.000  0.103  0.000  0.034  0.000  0.000  0.000  0.000  0.000  0.137
  3  0.000  0.103  0.000  0.034  0.000  0.000  0.000  0.000  0.000  0.137
  4  0.000  0.105  0.000  0.035  0.000  0.000  0.000  0.000  0.000  0.140
tot  0.000  0.415  0.000  0.138  0.000  0.000  0.000  0.000  0.000  0.553
 
band  14 # energy   14.90851576 # occ.  0.00000000
 
ion      s     py     pz     px    dxy    dyz    dz2    dxz    dx2    tot
  1  0.000  0.000  0.154  0.000  0.000  0.000  0.000  0.000  0.000  0.154
  2  0.000  0.000  0.201  0.000  0.000  0.000  0.000  0.000  0.000  0.201
  3  0.000  0.000  0.199  0.000  0.000  0.000  0.000  0.000  0.000  0.199
  4  0.000  0.000  0.153  0.000  0.000  0.000  0.000  0.000  0.000  0.153
tot  0.000  0.000  0.708  0.000  0.000  0.000  0.000  0.000  0.000  0.708
 

 k-point    3 :    0.25000000 0.00000000 0.00000000     weight = 0.01171875

band   1 # energy  -13.50163095 # occ.  1.00000000
 
ion      s     py     pz     px    dxy    dyz    dz2    dxz    dx2    tot
  1  0.147  0.004  0.000  0.011  0.000  0.000  0.000  0.000  0.000  0.163
  2  0.148  0.004  0.000  0.011  0.000  0.000  0.000  0.000  0.000  0.163
  3  0.148  0.004  0.000  0.011  0.000  0.000  0.000  0.000  0.000  0.163
  4  0.147  0.004  0.000  0.011  0.000  0.000  0.000  0.000  0.000  0.163
tot  0.590  0.015  0.000  0.045  0.000  0.000  0.000  0.000  0.000  0.651
 
band   2 # energy  -13.22849565 # occ.  1.00000000
 
ion      s     py     pz     px    dxy    dyz    dz2    dxz    dx2    tot
  1  0.152  0.004  0.000  0.012  0.000  0.000  0.000  0.000  0.000  0.168
  2  0.152  0.004  0.000  0.012  0.000  0.000  0.000  0.000  0.000  0.168
  3  0.152  0.004  0.000  0.012  0.000  0.000  0.000  0.000  0.000  0.168
  4  0.152  0.004  0.000  0.012  0.000  0.000  0.000  0.000  0.000  0.168
tot  0.609  0.016  0.000  0.047  0.000  0.000  0.000  0.000  0.000  0.672
 
band   3 # energy   -2.74091057 # occ.  1.00000000
 
ion      s     py     pz     px    dxy    dyz    dz2    dxz    dx2    tot
  1  0.049  0.035  0.000  0.105  0.000  0.000  0.000  0.000  0.000  0.189
  2  0.049  0.035  0.000  0.105  0.000  0.000  0.000  0.000  0.000  0.190
  3  0.049  0.035  0.000  0.105  0.000  0.000  0.000  0.000  0.000  0.190
  4  0.049  0.035  0.000  0.105  0.000  0.000  0.000  0.000  0.000  0.189
tot  0.198  0.140  0.000  0.420  0.000  0.000  0.000  0.000  0.000  0.757
 
band   4 # energy   -2.63781885 # occ.  1.00000000
 
ion      s     py     pz     px    dxy    dyz    dz2    dxz    dx2    tot
  1  0.050  0.035  0.000  0.106  0.000  0.000  0.000  0.000  0.000  0.192
  2  0.050  0.035  0.000  0.106  0.000  0.000  0.000  0.000  0.000  0.192
  3  0.050  0.035  0.000  0.106  0.000  0.000  0.000  0.000  0.000  0.192
  4  0.050  0.035  0.000  0.106  0.000  0.000  0.000  0.000  0.000  0.192
tot  0.201  0.142  0.000  0.426  0.000  0.000  0.000  0.000  0.000  0.768
 
band   5 # energy   -2.03650223 # occ.  1.00000000
 
ion      s     py     pz     px    dxy    dyz    dz2    dxz    dx2    tot
  1  0.000  0.000  0.099  0.000  0.000  0.000  0.000  0.000  0.000  0.099
  2  0.000  0.000  0.101  0.000  0.000  0.000  0.000  0.000  0.000  0.101
  3  0.000  0.000  0.101  0.000  0.000  0.000  0.000  0.000  0.000  0.101
  4  0.000  0.000  0.099  0.000  0.000  0.000  0.000  0.000  0.000  0.099
tot  0.000  0.000  0.400  0.000  0.000  0.000  0.000  0.000  0.000  0.400
 
band   6 # energy   -0.32932809 # occ.  1.00000000
 
ion      s     py     pz     px    dxy    dyz    dz2    dxz    dx2    tot
  1  0.000  0.149  0.000  0.050  0.000  0.000  0.000  0.000  0.000  0.199
  2  0.000  0.149  0.000  0.050  0.000  0.000  0.000  0.000  0.000  0.199
  3  0.000  0.149  0.000  0.050  0.000  0.000  0.000  0.000  0.000  0.199
  4  0.000  0.149  0.000  0.050  0.000  0.000  0.000  0.000  0.000  0.199
tot  0.000  0.597  0.000  0.199  0.000  0.000  0.000  0.000  0.000  0.796
 
band   7 # energy   -0.27890342 # occ.  1.00000000
 
ion      s     py     pz     px    dxy    dyz    dz2    dxz    dx2    tot
  1  0.000  0.150  0.000  0.050  0.000  0.000  0.000  0.000  0.000  0.200
  2  0.000  0.150  0.000  0.050  0.000  0.000  0.000  0.000  0.000  0.200
  3  0.000  0.150  0.000  0.050  0.000  0.000  0.000  0.000  0.000  0.200
  4  0.000  0.150  0.000  0.050  0.000  0.000  0.000  0.000  0.000  0.200
tot  0.000  0.601  0.000  0.200  0.000  0.000  0.000  0.000  0.000  0.801
 
band   8 # energy   -0.20981411 # occ.  1.00000000
 
ion      s     py     pz     px    dxy    dyz    dz2    dxz    dx2    tot
  1  0.000  0.000  0.130  0.000  0.000  0.000  0.000  0.000  0.000  0.130
  2  0.000  0.000  0.129  0.000  0.000  0.000  0.000  0.000  0.000  0.129
  3  0.000  0.000  0.129  0.000  0.000  0.000  0.000  0.000  0.000  0.129
  4  0.000  0.000  0.130  0.000  0.000  0.000  0.000  0.000  0.000  0.130
tot  0.000  0.000  0.517  0.000  0.000  0.000  0.000  0.000  0.000  0.517
 
band   9 # energy   10.79442914 # occ.  0.00000000
 
ion      s     py     pz     px    dxy    dyz    dz2    dxz    dx2    tot
  1  0.014  0.002  0.000  0.007  0.000  0.000  0.000  0.000  0.000  0.023
  2  0.013  0.002  0.000  0.007  0.000  0.000  0.000  0.000  0.000  0.022
  3  0.013  0.002  0.000  0.007  0.000  0.000  0.000  0.000  0.000  0.022
  4  0.014  0.002  0.000  0.007  0.000  0.000  0.000  0.000  0.000  0.023
tot  0.053  0.009  0.000  0.028  0.000  0.000  0.000  0.000  0.000  0.090
 
band  10 # energy   11.75003645 # occ.  0.00000000
 
ion      s     py     pz     px    dxy    dyz    dz2    dxz    dx2    tot
  1  0.000  0.000  0.135  0.000  0.000  0.000  0.000  0.000  0.000  0.135
  2  0.000  0.000  0.156  0.000  0.000  0.000  0.000  0.000  0.000  0.156
  3  0.000  0.000  0.156  0.000  0.000  0.000  0.000  0.000  0.000  0.156
  4  0.000  0.000  0.135  0.000  0.000  0.000  0.000  0.000  0.000  0.135
tot  0.000  0.000  0.582  0.000  0.000  0.000  0.000  0.000  0.000  0.582
 
band  11 # energy   12.40071693 # occ.  0.00000000
 
ion      s     py     pz     px    dxy    dyz    dz2    dxz    dx2    tot
  1  0.000  0.000  0.171  0.000  0.000  0.000  0.000  0.000  0.000  0.171
  2  0.000  0.000  0.154  0.000  0.000  0.000  0.000  0.000  0.000  0.154
  3  0.000  0.000  0.154  0.000  0.000  0.000  0.000  0.000  0.000  0.154
  4  0.000  0.000  0.171  0.000  0.000  0.000  0.000  0.000  0.000  0.171
tot  0.000  0.000  0.651  0.000  0.000  0.000  0.000  0.000  0.000  0.651
 
band  12 # energy   12.73403829 # occ.  0.00000000
 
ion      s     py     pz     px    dxy    dyz    dz2    dxz    dx2    tot
  1  0.054  0.014  0.000  0.042  0.000  0.000  0.000  0.000  0.000  0.110
  2  0.062  0.014  0.000  0.043  0.000  0.000  0.000  0.000  0.000  0.119
  3  0.062  0.014  0.000  0.043  0.000  0.000  0.000  0.000  0.000  0.119
  4  0.054  0.014  0.000  0.042  0.000  0.000  0.000  0.000  0.000  0.110
tot  0.233  0.056  0.000  0.169  0.000  0.000  0.000  0.000  0.000  0.459
 
band  13 # energy   13.02142760 # occ.  0.00000000
 
ion      s     py     pz     px    dxy    dyz    dz2    dxz    dx2    tot
  1  0.066  0.014  0.000  0.042  0.000  0.000  0.000  0.000  0.000  0.123
  2  0.060  0.014  0.000  0.041  0.000  0.000  0.000  0.000  0.000  0.114
  3  0.060  0.014  0.000  0.041  0.000  0.000  0.000  0.000  0.000  0.114
  4  0.066  0.014  0.000  0.042  0.000  0.000  0.000  0.000  0.000  0.123
tot  0.252  0.055  0.000  0.166  0.000  0.000  0.000  0.000  0.000  0.474
 
band  14 # energy   16.63669113 # occ.  0.00000000
 
ion      s     py     pz     px    dxy    dyz    dz2    dxz    dx2    tot
  1  0.000  0.000  0.086  0.000  0.000  0.000  0.000  0.000  0.000  0.086
  2  0.000  0.000  0.071  0.000  0.000  0.000  0.000  0.000  0.000  0.071
  3  0.000  0.000  0.071  0.000  0.000  0.000  0.000  0.000  0.000  0.071
  4  0.000  0.000  0.086  0.000  0.000  0.000  0.000  0.000  0.000  0.086
tot  0.000  0.000  0.315  0.000  0.000  0.000  0.000  0.000  0.000  0.315
 

 k-point    4 :    0.37500000 0.00000000 0.00000000     weight = 0.01171875

band   1 # energy  -11.69095134 # occ.  1.00000000
 
ion      s     py     pz     px    dxy    dyz    dz2    dxz    dx2    tot
  1  0.135  0.008  0.000  0.024  0.000  0.000  0.000  0.000  0.000  0.168
  2  0.137  0.008  0.000  0.024  0.000  0.000  0.000  0.000  0.000  0.169
  3  0.137  0.008  0.000  0.024  0.000  0.000  0.000  0.000  0.000  0.169
  4  0.135  0.008  0.000  0.024  0.000  0.000  0.000  0.000  0.000  0.168
tot  0.544  0.032  0.000  0.097  0.000  0.000  0.000  0.000  0.000  0.673
 
band   2 # energy  -11.45066981 # occ.  1.00000000
 
ion      s     py     pz     px    dxy    dyz    dz2    dxz    dx2    tot
  1  0.140  0.008  0.000  0.025  0.000  0.000  0.000  0.000  0.000  0.173
  2  0.139  0.008  0.000  0.025  0.000  0.000  0.000  0.000  0.000  0.173
  3  0.139  0.008  0.000  0.025  0.000  0.000  0.000  0.000  0.000  0.173
  4  0.140  0.008  0.000  0.025  0.000  0.000  0.000  0.000  0.000  0.173
tot  0.558  0.033  0.000  0.100  0.000  0.000  0.000  0.000  0.000  0.691
 
band   3 # energy   -6.06234265 # occ.  1.00000000
 
ion      s     py     pz     px    dxy    dyz    dz2    dxz    dx2    tot
  1  0.076  0.026  0.000  0.078  0.000  0.000  0.000  0.000  0.000  0.180
  2  0.076  0.026  0.000  0.078  0.000  0.000  0.000  0.000  0.000  0.179
  3  0.076  0.026  0.000  0.078  0.000  0.000  0.000  0.000  0.000  0.179
  4  0.076  0.026  0.000  0.078  0.000  0.000  0.000  0.000  0.000  0.180
tot  0.304  0.103  0.000  0.310  0.000  0.000  0.000  0.000  0.000  0.718
 
band   4 # energy   -5.91093499 # occ.  1.00000000
 
ion      s     py     pz     px    dxy    dyz    dz2    dxz    dx2    tot
  1  0.077  0.026  0.000  0.079  0.000  0.000  0.000  0.000  0.000  0.182
  2  0.077  0.026  0.000  0.079  0.000  0.000  0.000  0.000  0.000  0.183
  3  0.077  0.026  0.000  0.079  0.000  0.000  0.000  0.000  0.000  0.183
  4  0.077  0.026  0.000  0.079  0.000  0.000  0.000  0.000  0.000  0.182
tot  0.308  0.105  0.000  0.316  0.000  0.000  0.000  0.000  0.000  0.729
 
band   5 # energy   -1.34658469 # occ.  1.00000000
 
ion      s     py     pz     px    dxy    dyz    dz2    dxz    dx2    tot
  1  0.000  0.148  0.000  0.049  0.000  0.000  0.000  0.000  0.000  0.197
  2  0.000  0.148  0.000  0.049  0.000  0.000  0.000  0.000  0.000  0.198
  3  0.000  0.148  0.000  0.049  0.000  0.000  0.000  0.000  0.000  0.198
  4  0.000  0.148  0.000  0.049  0.000  0.000  0.000  0.000  0.000  0.197
tot  0.000  0.592  0.000  0.197  0.000  0.000  0.000  0.000  0.000  0.790
 
band   6 # energy   -1.28777698 # occ.  1.00000000
 
ion      s     py     pz     px    dxy    dyz    dz2    dxz    dx2    tot
  1  0.000  0.149  0.000  0.050  0.000  0.000  0.000  0.000  0.000  0.199
  2  0.000  0.149  0.000  0.050  0.000  0.000  0.000  0.000  0.000  0.199
  3  0.000  0.149  0.000  0.050  0.000  0.000  0.000  0.000  0.000  0.199
  4  0.000  0.149  0.000  0.050  0.000  0.000  0.000  0.000  0.000  0.199
tot  0.000  0.596  0.000  0.199  0.000  0.000  0.000  0.000  0.000  0.795
 
band   7 # energy    0.05645499 # occ.  1.00000000
 
ion      s     py     pz     px    dxy    dyz    dz2    dxz    dx2    tot
  1  0.000  0.000  0.104  0.000  0.000  0.000  0.000  0.000  0.000  0.104
  2  0.000  0.000  0.109  0.000  0.000  0.000  0.000  0.000  0.000  0.109
  3  0.000  0.000  0.109  0.000  0.000  0.000  0.000  0.000  0.000  0.109
  4  0.000  0.000  0.104  0.000  0.000  0.000  0.000  0.000  0.000  0.104
tot  0.000  0.000  0.426  0.000  0.000  0.000  0.000  0.000  0.000  0.426
 
band   8 # energy    1.62581121 # occ.  1.00000000
 
ion      s     py     pz     px    dxy    dyz    dz2    dxz    dx2    tot
  1  0.000  0.000  0.138  0.000  0.000  0.000  0.000  0.000  0.000  0.138
  2  0.000  0.000  0.130  0.000  0.000  0.000  0.000  0.000  0.000  0.130
  3  0.000  0.000  0.130  0.000  0.000  0.000  0.000  0.000  0.000  0.130
  4  0.000  0.000  0.138  0.000  0.000  0.000  0.000  0.000  0.000  0.138
tot  0.000  0.000  0.536  0.000  0.000  0.000  0.000  0.000  0.000  0.536
 
band   9 # energy    8.11052996 # occ.  0.00000000
 
ion      s     py     pz     px    dxy    dyz    dz2    dxz    dx2    tot
  1  0.000  0.000  0.104  0.000  0.000  0.000  0.000  0.000  0.000  0.104
  2  0.000  0.000  0.134  0.000  0.000  0.000  0.000  0.000  0.000  0.134
  3  0.000  0.000  0.134  0.000  0.000  0.000  0.000  0.000  0.000  0.134
  4  0.000  0.000  0.104  0.000  0.000  0.000  0.000  0.000  0.000  0.104
tot  0.000  0.000  0.475  0.000  0.000  0.000  0.000  0.000  0.000  0.475
 
band  10 # energy    9.10631743 # occ.  0.00000000
 
ion      s     py     pz     px    dxy    dyz    dz2    dxz    dx2    tot
  1  0.000  0.000  0.156  0.000  0.000  0.000  0.000  0.000  0.000  0.156
  2  0.000  0.000  0.130  0.000  0.000  0.000  0.000  0.000  0.000  0.130
  3  0.000  0.000  0.130  0.000  0.000  0.000  0.000  0.000  0.000  0.130
  4  0.000  0.000  0.156  0.000  0.000  0.000  0.000  0.000  0.000  0.156
tot  0.000  0.000  0.572  0.000  0.000  0.000  0.000  0.000  0.000  0.572
 
band  11 # energy   12.17168432 # occ.  0.00000000
 
ion      s     py     pz     px    dxy    dyz    dz2    dxz    dx2    tot
  1  0.083  0.008  0.000  0.023  0.000  0.000  0.000  0.000  0.000  0.114
  2  0.072  0.008  0.000  0.023  0.000  0.000  0.000  0.000  0.000  0.102
  3  0.072  0.008  0.000  0.023  0.000  0.000  0.000  0.000  0.000  0.102
  4  0.083  0.008  0.000  0.023  0.000  0.000  0.000  0.000  0.000  0.114
tot  0.311  0.030  0.000  0.091  0.000  0.000  0.000  0.000  0.000  0.432
 
band  12 # energy   12.49422127 # occ.  0.00000000
 
ion      s     py     pz     px    dxy    dyz    dz2    dxz    dx2    tot
  1  0.065  0.009  0.000  0.026  0.000  0.000  0.000  0.000  0.000  0.100
  2  0.081  0.009  0.000  0.026  0.000  0.000  0.000  0.000  0.000  0.116
  3  0.081  0.009  0.000  0.026  0.000  0.000  0.000  0.000  0.000  0.116
  4  0.066  0.009  0.000  0.026  0.000  0.000  0.000  0.000  0.000  0.100
tot  0.293  0.035  0.000  0.105  0.000  0.000  0.000  0.000  0.000  0.434
 
band  13 # energy   13.15251279 # occ.  0.00000000
 
ion      s     py     pz     px    dxy    dyz    dz2    dxz    dx2    tot
  1  0.031  0.001  0.000  0.002  0.000  0.000  0.000  0.000  0.000  0.034
  2  0.026  0.001  0.000  0.002  0.000  0.000  0.000  0.000  0.000  0.028
  3  0.026  0.001  0.000  0.002  0.000  0.000  0.000  0.000  0.000  0.028
  4  0.031  0.001  0.000  0.002  0.000  0.000  0.000  0.000  0.000  0.034
tot  0.114  0.003  0.000  0.008  0.000  0.000  0.000  0.000  0.000  0.124
 
band  14 # energy   17.98536021 # occ.  0.00000000
 
ion      s     py     pz     px    dxy    dyz    dz2    dxz    dx2    tot
  1  0.000  0.000  0.092  0.000  0.000  0.000  0.000  0.000  0.000  0.092
  2  0.000  0.000  0.067  0.000  0.000  0.000  0.000  0.000  0.000  0.067
  3  0.000  0.000  0.067  0.000  0.000  0.000  0.000  0.000  0.000  0.067
  4  0.000  0.000  0.092  0.000  0.000  0.000  0.000  0.000  0.000  0.092
tot  0.000  0.000  0.319  0.000  0.000  0.000  0.000  0.000  0.000  0.319
 

 k-point    5 :    0.50000000 0.00000000 0.00000000     weight = 0.00585938

band   1 # energy   -9.62994088 # occ.  1.00000000
 
ion      s     py     pz     px    dxy    dyz    dz2    dxz    dx2    tot
  1  0.134  0.010  0.000  0.030  0.000  0.000  0.000  0.000  0.000  0.174
  2  0.163  0.006  0.000  0.018  0.000  0.000  0.000  0.000  0.000  0.187
  3  0.163  0.006  0.000  0.018  0.000  0.000  0.000  0.000  0.000  0.187
  4  0.134  0.010  0.000  0.030  0.000  0.000  0.000  0.000  0.000  0.174
tot  0.594  0.032  0.000  0.096  0.000  0.000  0.000  0.000  0.000  0.722
 
band   2 # energy   -9.51988829 # occ.  1.00000000
 
ion      s     py     pz     px    dxy    dyz    dz2    dxz    dx2    tot
  1  0.167  0.006  0.000  0.017  0.000  0.000  0.000  0.000  0.000  0.190
  2  0.133  0.010  0.000  0.031  0.000  0.000  0.000  0.000  0.000  0.175
  3  0.133  0.010  0.000  0.031  0.000  0.000  0.000  0.000  0.000  0.175
  4  0.167  0.006  0.000  0.017  0.000  0.000  0.000  0.000  0.000  0.190
tot  0.600  0.033  0.000  0.098  0.000  0.000  0.000  0.000  0.000  0.731
 
band   3 # energy   -8.56797987 # occ.  1.00000000
 
ion      s     py     pz     px    dxy    dyz    dz2    dxz    dx2    tot
  1  0.050  0.027  0.000  0.081  0.000  0.000  0.000  0.000  0.000  0.159
  2  0.089  0.022  0.000  0.065  0.000  0.000  0.000  0.000  0.000  0.176
  3  0.089  0.022  0.000  0.065  0.000  0.000  0.000  0.000  0.000  0.176
  4  0.050  0.027  0.000  0.081  0.000  0.000  0.000  0.000  0.000  0.159
tot  0.278  0.098  0.000  0.293  0.000  0.000  0.000  0.000  0.000  0.669
 
band   4 # energy   -8.48526042 # occ.  1.00000000
 