<?xml version="1.0" encoding="ISO-8859-1"?>
<modeling>
 <generator>
  <i name="program" type="string">vasp </i>
  <i name="version" type="string">5.2.12  </i>
  <i name="subversion" type="string">11Nov11 complex                                                      parallel </i>
  <i name="platform" type="string">LinuxIFC </i>
  <i name="date" type="string">2012 10 17 </i>
  <i name="time" type="string">09:39:30 </i>
 </generator>
 <incar>
  <i type="string" name="PREC">accurate</i>
  <i type="int" name="ISPIN">     2</i>
  <i name="ENCUT">    350.00000000</i>
  <i type="logical" name="LREAL"> F  </i>
  <i type="int" name="ISMEAR">     1</i>
  <i name="SIGMA">      0.05000000</i>
  <i type="logical" name="LORBIT"> F  </i>
 </incar>
 <kpoints>
  <generation param="Gamma">
   <v type="int" name="divisions">       8        8        8 </v>
   <v name="usershift">      0.00000000       0.00000000       0.00000000 </v>
   <v name="genvec1">      0.12500000       0.00000000       0.00000000 </v>
   <v name="genvec2">      0.00000000       0.12500000       0.00000000 </v>
   <v name="genvec3">      0.00000000       0.00000000       0.12500000 </v>
   <v name="shift">      0.00000000       0.00000000       0.00000000 </v>
  </generation>
  <varray name="kpointlist" >
   <v>       0.00000000       0.00000000       0.00000000 </v>
   <v>       0.12500000       0.00000000       0.00000000 </v>
   <v>       0.25000000       0.00000000       0.00000000 </v>
   <v>       0.37500000       0.00000000       0.00000000 </v>
   <v>       0.50000000       0.00000000       0.00000000 </v>
   <v>       0.12500000       0.12500000       0.00000000 </v>
   <v>       0.25000000       0.12500000       0.00000000 </v>
   <v>       0.37500000       0.12500000       0.00000000 </v>
   <v>       0.25000000       0.25000000       0.00000000 </v>
   <v>       0.37500000       0.25000000       0.00000000 </v>
   <v>       0.00000000       0.00000000       0.12500000 </v>
   <v>       0.12500000       0.00000000       0.12500000 </v>
   <v>       0.25000000       0.00000000       0.12500000 </v>
   <v>       0.37500000       0.00000000       0.12500000 </v>
   <v>       0.50000000       0.00000000       0.12500000 </v>
   <v>       0.12500000       0.12500000       0.12500000 </v>
   <v>       0.25000000       0.12500000       0.12500000 </v>
   <v>       0.37500000       0.12500000       0.12500000 </v>
   <v>       0.25000000       0.25000000       0.12500000 </v>
   <v>       0.37500000       0.25000000       0.12500000 </v>
   <v>       0.00000000       0.00000000       0.25000000 </v>
   <v>       0.12500000       0.00000000       0.25000000 </v>
   <v>       0.25000000       0.00000000       0.25000000 </v>
   <v>       0.37500000       0.00000000       0.25000000 </v>
   <v>       0.50000000       0.00000000       0.25000000 </v>
   <v>       0.12500000       0.12500000       0.25000000 </v>
   <v>       0.25000000       0.12500000       0.25000000 </v>
   <v>       0.37500000       0.12500000       0.25000000 </v>
   <v>       0.25000000       0.25000000       0.25000000 </v>
   <v>       0.37500000       0.25000000       0.25000000 </v>
   <v>       0.00000000       0.00000000       0.37500000 </v>
   <v>       0.12500000       0.00000000       0.37500000 </v>
   <v>       0.25000000       0.00000000       0.37500000 </v>
   <v>       0.37500000       0.00000000       0.37500000 </v>
   <v>       0.50000000       0.00000000       0.37500000 </v>
   <v>       0.12500000       0.12500000       0.37500000 </v>
   <v>       0.25000000       0.12500000       0.37500000 </v>
   <v>       0.37500000       0.12500000       0.37500000 </v>
   <v>       0.25000000       0.25000000       0.37500000 </v>
   <v>       0.37500000       0.25000000       0.37500000 </v>
   <v>       0.00000000       0.00000000       0.50000000 </v>
   <v>       0.12500000       0.00000000       0.50000000 </v>
   <v>       0.25000000       0.00000000       0.50000000 </v>
   <v>       0.37500000       0.00000000       0.50000000 </v>
   <v>       0.50000000       0.00000000       0.50000000 </v>
   <v>       0.12500000       0.12500000       0.50000000 </v>
   <v>       0.25000000       0.12500000       0.50000000 </v>
   <v>       0.37500000       0.12500000       0.50000000 </v>
   <v>       0.25000000       0.25000000       0.50000000 </v>
   <v>       0.37500000       0.25000000       0.50000000 </v>
  </varray>
  <varray name="weights" >
   <v>       0.00195312 </v>
   <v>       0.01171875 </v>
   <v>       0.01171875 </v>
   <v>       0.01171875 </v>
   <v>       0.00585938 </v>
   <v>       0.01171875 </v>
   <v>       0.02343750 </v>
   <v>       0.02343750 </v>
   <v>       0.01171875 </v>
   <v>       0.01171875 </v>
   <v>       0.00390625 </v>
   <v>       0.02343750 </v>
   <v>       0.02343750 </v>
   <v>       0.02343750 </v>
   <v>       0.01171875 </v>
   <v>       0.02343750 </v>
   <v>       0.04687500 </v>
   <v>       0.04687500 </v>
   <v>       0.02343750 </v>
   <v>       0.02343750 </v>
   <v>       0.00390625 </v>
   <v>       0.02343750 </v>
   <v>       0.02343750 </v>
   <v>       0.02343750 </v>
   <v>       0.01171875 </v>
   <v>       0.02343750 </v>
   <v>       0.04687500 </v>
   <v>       0.04687500 </v>
   <v>       0.02343750 </v>
   <v>       0.02343750 </v>
   <v>       0.00390625 </v>
   <v>       0.02343750 </v>
   <v>       0.02343750 </v>
   <v>       0.02343750 </v>
   <v>       0.01171875 </v>
   <v>       0.02343750 </v>
   <v>       0.04687500 </v>
   <v>       0.04687500 </v>
   <v>       0.02343750 </v>
   <v>       0.02343750 </v>
   <v>       0.00195312 </v>
   <v>       0.01171875 </v>
   <v>       0.01171875 </v>
   <v>       0.01171875 </v>
   <v>       0.00585938 </v>
   <v>       0.01171875 </v>
   <v>       0.02343750 </v>
   <v>       0.02343750 </v>
   <v>       0.01171875 </v>
   <v>       0.01171875 </v>
  </varray>
 </kpoints>
 <parameters>
  <separator name="general" >
   <i type="string" name="SYSTEM">unknown system</i>
   <i type="logical" name="LCOMPAT"> F  </i>
  </separator>
  <separator name="electronic" >
   <i type="string" name="PREC">accura</i>
   <i name="ENMAX">    350.00000000</i>
   <i name="ENAUG">    644.87300000</i>
   <i name="EDIFF">      0.00010000</i>
   <i type="int" name="IALGO">    38</i>
   <i type="int" name="IWAVPR">    10</i>
   <i type="int" name="NBANDS">    14</i>
   <i name="NELECT">     16.00000000</i>
   <i type="int" name="TURBO">     0</i>
   <i type="int" name="IRESTART">     0</i>
   <i type="int" name="NREBOOT">     0</i>
   <i type="int" name="NMIN">     0</i>
   <i name="EREF">      0.00000000</i>
   <separator name="electronic smearing" >
    <i type="int" name="ISMEAR">     1</i>
    <i name="SIGMA">      0.05000000</i>
    <i name="KSPACING">      0.50000000</i>
    <i type="logical" name="KGAMMA"> T  </i>
   </separator>
   <separator name="electronic projectors" >
    <i type="logical" name="LREAL"> F  </i>
    <v name="ROPT">      0.00000000</v>
    <i type="int" name="LMAXPAW">  -100</i>
    <i type="int" name="LMAXMIX">     2</i>
    <i type="logical" name="NLSPLINE"> F  </i>
   </separator>
   <separator name="electronic startup" >
    <i type="int" name="ISTART">     0</i>
    <i type="int" name="ICHARG">     2</i>
    <i type="int" name="INIWAV">     1</i>
   </separator>
   <separator name="electronic spin" >
    <i type="int" name="ISPIN">     2</i>
    <i type="logical" name="LNONCOLLINEAR"> F  </i>
    <v name="MAGMOM">      1.00000000      1.00000000      1.00000000      1.00000000</v>
    <i name="NUPDOWN">     -1.00000000</i>
    <i type="logical" name="LSORBIT"> F  </i>
    <v name="SAXIS">      0.00000000      0.00000000      1.00000000</v>
    <i type="logical" name="LSPIRAL"> F  </i>
    <v name="QSPIRAL">      0.00000000      0.00000000      0.00000000</v>
    <i type="logical" name="LZEROZ"> F  </i>
   </separator>
   <separator name="electronic exchange-correlation" >
    <i type="logical" name="LASPH"> F  </i>
    <i type="logical" name="LMETAGGA"> F  </i>
   </separator>
   <separator name="electronic convergence" >
    <i type="int" name="NELM">    60</i>
    <i type="int" name="NELMDL">    -5</i>
    <i type="int" name="NELMIN">     2</i>
    <i name="ENINI">    350.00000000</i>
    <separator name="electronic convergence detail" >
     <i type="logical" name="LDIAG"> T  </i>
     <i type="logical" name="LSUBROT"> T  </i>
     <i name="WEIMIN">      0.00000000</i>
     <i name="EBREAK">      0.00000179</i>
     <i name="DEPER">      0.30000000</i>
     <i type="int" name="NRMM">     4</i>
     <i name="TIME">      0.40000000</i>
    </separator>
   </separator>
   <separator name="electronic mixer" >
    <i name="AMIX">      0.40000000</i>
    <i name="BMIX">      1.00000000</i>
    <i name="AMIN">      0.10000000</i>
    <i name="AMIX_MAG">      1.60000000</i>
    <i name="BMIX_MAG">      1.00000000</i>
    <separator name="electronic mixer details" >
     <i type="int" name="IMIX">     4</i>
     <i type="int" name="MAXMIX">   -45</i>
     <i name="WC">    100.00000000</i>
     <i type="int" name="INIMIX">     1</i>
     <i type="int" name="MIXPRE">     1</i>
     <i type="int" name="MREMOVE">     5</i>
    </separator>
   </separator>
   <separator name="electronic dipolcorrection" >
    <i type="logical" name="LDIPOL"> F  </i>
    <i type="logical" name="LMONO"> F  </i>
    <i type="int" name="IDIPOL">     0</i>
    <i name="EPSILON">      1.00000000</i>
    <v name="DIPOL">   -100.00000000   -100.00000000   -100.00000000</v>
    <i name="EFIELD">      0.00000000</i>
   </separator>
  </separator>
  <separator name="grids" >
   <i type="int" name="NGX">    16</i>
   <i type="int" name="NGY">    16</i>
   <i type="int" name="NGZ">    42</i>
   <i type="int" name="NGXF">    32</i>
   <i type="int" name="NGYF">    32</i>
   <i type="int" name="NGZF">    84</i>
   <i type="logical" name="ADDGRID"> F  </i>
  </separator>
  <separator name="ionic" >
   <i type="int" name="NSW">     0</i>
   <i type="int" name="IBRION">    -1</i>
   <i type="int" name="ISIF">     2</i>
   <i name="PSTRESS">      0.00000000</i>
   <i name="EDIFFG">      0.00100000</i>
   <i type="int" name="NFREE">     0</i>
   <i name="POTIM">      0.50000000</i>
   <i name="SMASS">     -3.00000000</i>
   <i name="SCALEE">      1.00000000</i>
  </separator>
  <separator name="ionic md" >
   <i name="TEBEG">      0.00010000</i>
   <i name="TEEND">      0.00010000</i>
   <i type="int" name="NBLOCK">     1</i>
   <i type="int" name="KBLOCK">     1</i>
   <i type="int" name="NPACO">   256</i>
   <i name="APACO">     16.00000000</i>
  </separator>
  <separator name="symmetry" >
   <i type="int" name="ISYM">     2</i>
   <i name="SYMPREC">      0.00001000</i>
  </separator>
  <separator name="dos" >
   <i type="logical" name="LORBIT"> F  </i>
   <v name="RWIGS">     -1.00000000</v>
   <i type="int" name="NEDOS">   301</i>
   <i name="EMIN">     10.00000000</i>
   <i name="EMAX">    -10.00000000</i>
   <i name="EFERMI">      0.00000000</i>
  </separator>
  <separator name="writing" >
   <i type="int" name="NWRITE">     2</i>
   <i type="logical" name="LWAVE"> T  </i>
   <i type="logical" name="LCHARG"> T  </i>
   <i type="logical" name="LPARD"> F  </i>
   <i type="logical" name="LVTOT"> F  </i>
   <i type="logical" name="LVHAR"> F  </i>
   <i type="logical" name="LELF"> F  </i>
   <i type="logical" name="LOPTICS"> F  </i>
   <v name="STM">      0.00000000      0.00000000      0.00000000      0.00000000      0.00000000      0.00000000      0.00000000</v>
  </separator>
  <separator name="performance" >
   <i type="int" name="NPAR">     1</i>
   <i type="int" name="NSIM">     4</i>
   <i type="int" name="NBLK">    -1</i>
   <i type="logical" name="LPLANE"> T  </i>
   <i type="logical" name="LSCALAPACK"> F  </i>
   <i type="logical" name="LSCAAWARE"> F  </i>
   <i type="logical" name="LSCALU"> F  </i>
   <i type="logical" name="LASYNC"> F  </i>
   <i type="logical" name="LORBITALREAL"> F  </i>
  </separator>
  <separator name="miscellaneous" >
   <i type="int" name="IDIOT">     3</i>
   <i type="logical" name="LMUSIC"> F  </i>
   <v name="POMASS">     12.01100000</v>
   <v name="DARWINR">      0.00000000</v>
   <v name="DARWINV">      1.00000000</v>
   <i type="logical" name="LCORR"> T  </i>
  </separator>
  <i type="logical" name="GGA_COMPAT"> T  </i>
  <i type="logical" name="LBERRY"> F  </i>
  <i type="int" name="ICORELEVEL">     0</i>
  <i type="logical" name="LDAU"> F  </i>
  <i type="int" name="I_CONSTRAINED_M">     0</i>
  <separator name="electronic exchange-correlation" >
   <i type="string" name="GGA">--</i>
   <i type="int" name="VOSKOWN">     0</i>
   <i type="logical" name="LHFCALC"> F  </i>
   <i type="string" name="PRECFOCK"></i>
   <i type="logical" name="LHFONE"> F  </i>
   <i type="logical" name="LRHFCALC"> F  </i>
   <i type="logical" name="LTHOMAS"> F  </i>
   <i type="logical" name="LMODELHF"> F  </i>
   <i name="ENCUT4O">     -1.00000000</i>
   <i type="int" name="EXXOEP">     0</i>
   <i type="int" name="FOURORBIT">     0</i>
   <i name="AEXX">      0.00000000</i>
   <i name="HFALPHA">      0.00000000</i>
   <i name="ALDAX">      1.00000000</i>
   <i name="AGGAX">      1.00000000</i>
   <i name="ALDAC">      1.00000000</i>
   <i name="AGGAC">      1.00000000</i>
   <i type="int" name="NKREDX">     1</i>
   <i type="int" name="NKREDY">     1</i>
   <i type="int" name="NKREDZ">     1</i>
   <i type="logical" name="SHIFTRED"> F  </i>
   <i type="logical" name="ODDONLY"> F  </i>
   <i type="logical" name="EVENONLY"> F  </i>
   <i type="int" name="LMAXFOCK">     0</i>
   <i type="int" name="NMAXFOCKAE">     0</i>
   <i type="logical" name="LFOCKAEDFT"> F  </i>
   <i name="HFSCREEN">      0.00000000</i>
   <i name="HFSCREENC">      0.00000000</i>
  </separator>
  <separator name="vdW DFT" >
   <i type="logical" name="LUSE_VDW"> F  </i>
   <i name="Zab_VDW">     -0.84910000</i>
   <i name="PARAM1">      0.12340000</i>
   <i name="PARAM2">      1.00000000</i>
   <i name="PARAM3">      0.00000000</i>
  </separator>
  <separator name="model GW" >
   <i type="int" name="MODEL_GW">     0</i>
   <i name="MODEL_EPS0">      5.27839982</i>
   <i name="MODEL_ALPHA">      1.00000000</i>
  </separator>
  <separator name="linear response parameters" >
   <i type="logical" name="LEPSILON"> F  </i>
   <i type="logical" name="LRPA"> F  </i>
   <i type="logical" name="LNABLA"> F  </i>
   <i type="logical" name="LVEL"> F  </i>
   <i type="int" name="KINTER">     0</i>
   <i name="CSHIFT">      0.10000000</i>
   <i name="OMEGAMAX">     -1.00000000</i>
  </separator>
  <separator name="orbital magnetization" >
   <i type="logical" name="NUCIND"> F  </i>
   <v name="MAGPOS">      0.00000000      0.00000000      0.00000000</v>
   <i type="logical" name="LNICSALL"> T  </i>
   <i type="logical" name="ORBITALMAG"> F  </i>
   <i type="logical" name="LMAGBLOCH"> F  </i>
   <i type="logical" name="LCHIMAG"> F  </i>
   <i type="logical" name="LGAUGE"> T  </i>
   <i type="int" name="MAGATOM">     0</i>
   <v name="MAGDIPOL">      0.00000000      0.00000000      0.00000000</v>
   <v name="AVECCONST">      0.00000000      0.00000000      0.00000000</v>
  </separator>
  <separator name="response functions" >
   <i type="logical" name="LADDER"> F  </i>
   <i type="logical" name="LHARTREE"> T  </i>
   <i type="int" name="IBSE">     0</i>
   <i type="logical" name="LTCTE"> F  </i>
   <i type="logical" name="LTETE"> F  </i>
   <i type="logical" name="LFXCEPS"> F  </i>
   <i type="logical" name="L2ORDER"> F  </i>
   <i type="logical" name="LUSEW"> F  </i>
   <i name="ENCUTGW">     -2.00000000</i>
   <i name="ENCUTGWSOFT">     -2.00000000</i>
   <i name="ENCUTLF">     -1.00000000</i>
   <i type="int" name="LMAXMP2">    -1</i>
   <i name="SCISSOR">      0.00000000</i>
   <i type="int" name="NOMEGA">     0</i>
   <i type="int" name="NOMEGAR">     0</i>
   <i type="int" name="NBANDSGW">    -1</i>
   <i type="int" name="NBANDSO">    -1</i>
   <i type="int" name="NBANDSV">    -1</i>
   <i name="OPTEMAX">      0.00000000</i>
   <i type="int" name="NELM">     1</i>
   <i type="int" name="DIM">     3</i>
   <i type="int" name="ANTIRES">     0</i>
   <i name="OMEGAMAX">    -30.00000000</i>
   <i name="OMEGATL">   -200.00000000</i>
   <i type="int" name="OMEGAGRID">     0</i>
   <i name="CSHIFT">     -0.10000000</i>
   <i type="logical" name="SELFENERGY"> F  </i>
   <i type="logical" name="LSPECTRAL"> F  </i>
   <i type="logical" name="ODDONLYGW"> F  </i>
   <i type="logical" name="EVENONLYGW"> F  </i>
   <i type="int" name="NKREDLFX">     1</i>
   <i type="int" name="NKREDLFY">     1</i>
   <i type="int" name="NKREDLFZ">     1</i>
   <i type="int" name="MAXMEM">  1800</i>
   <i type="int" name="TELESCOPE">     0</i>
  </separator>
 </parameters>
 <atominfo>
  <atoms>       4 </atoms>
  <types>       1 </types>
  <array name="atoms" >
   <dimension dim="1">ion</dimension>
   <field type="string">element</field>
   <field type="int">atomtype</field>
   <set>
    <rc><c>C </c><c>   1</c></rc>
    <rc><c>C </c><c>   1</c></rc>
    <rc><c>C </c><c>   1</c></rc>
    <rc><c>C </c><c>   1</c></rc>
   </set>
  </array>
  <array name="atomtypes" >
   <dimension dim="1">type</dimension>
   <field type="int">atomspertype</field>
   <field type="string">element</field>
   <field>mass</field>
   <field>valence</field>
   <field type="string">pseudopotential</field>
   <set>
    <rc><c>   4</c><c>C </c><c>     12.01100000</c><c>      4.00000000</c><c> PAW_PBE C 08Apr2002                    </c></rc>
   </set>
  </array>
 </atominfo>
 <structure name="initialpos" >
  <crystal>
   <varray name="basis" >
    <v>       2.46120000       0.00000000       0.00000000 </v>
    <v>      -1.23060000       2.13146172       0.00000000 </v>
    <v>       0.00000000       0.00000000       6.70790000 </v>
   </varray>
   <i name="volume">     35.18933212 </i>
   <varray name="rec_basis" >
    <v>       0.40630587       0.23458080       0.00000000 </v>
    <v>       0.00000000       0.46916160       0.00000000 </v>
    <v>       0.00000000       0.00000000       0.14907795 </v>
   </varray>
  </crystal>
  <varray name="positions" >
   <v>       0.00000000       0.00000000       0.00000000 </v>
   <v>       0.33333333       0.66666667       0.00000000 </v>
   <v>       0.33333333       0.66666667       0.50000000 </v>
   <v>       0.66666667       0.33333333       0.50000000 </v>
  </varray>
 </structure>
 <calculation>
  <scstep>
   <time name="dav">    5.34    5.34</time>
   <time name="total">    5.69    5.85</time>
   <energy>
    <i name="alphaZ">     37.04766603 </i>
    <i name="ewald">   -460.60042082 </i>
    <i name="hartreedc">   -148.78490797 </i>
    <i name="XCdc">     56.10990993 </i>
    <i name="pawpsdc">    150.95130483 </i>
    <i name="pawaedc">   -155.51722924 </i>
    <i name="eentropy">     -0.00015437 </i>
    <i name="bandstr">    -44.88233073 </i>
    <i name="atom">    588.28246388 </i>
    <i name="e_fr_energy">     22.60630154 </i>
    <i name="e_wo_entrp">     22.60645591 </i>
    <i name="e_0_energy">     22.60635300 </i>
   </energy>
  </scstep>
  <scstep>
   <time name="dav">    6.58    6.59</time>
   <time name="total">    6.60    6.60</time>
   <energy>
    <i name="e_fr_energy">    -35.33642643 </i>
    <i name="e_wo_entrp">    -35.33639259 </i>
    <i name="e_0_energy">    -35.33641515 </i>
   </energy>
  </scstep>
  <scstep>
   <time name="dav">    6.47    6.47</time>
   <time name="total">    6.48    6.50</time>
   <energy>
    <i name="e_fr_energy">    -37.56070497 </i>
    <i name="e_wo_entrp">    -37.56090080 </i>
    <i name="e_0_energy">    -37.56077025 </i>
   </energy>
  </scstep>
  <scstep>
   <time name="dav">    6.38    6.38</time>
   <time name="total">    6.39    6.40</time>
   <energy>
    <i name="e_fr_energy">    -37.58146274 </i>
    <i name="e_wo_entrp">    -37.58165730 </i>
    <i name="e_0_energy">    -37.58152759 </i>
   </energy>
  </scstep>
  <scstep>
   <time name="dav">    6.49    6.49</time>
   <time name="total">    6.96    7.15</time>
   <energy>
    <i name="e_fr_energy">    -37.58186034 </i>
    <i name="e_wo_entrp">    -37.58205487 </i>
    <i name="e_0_energy">    -37.58192518 </i>
   </energy>
  </scstep>
  <scstep>
   <time name="dav">    5.61    5.61</time>
   <time name="total">    6.42    6.44</time>
   <energy>
    <i name="e_fr_energy">    -36.85103624 </i>
    <i name="e_wo_entrp">    -36.85111273 </i>
    <i name="e_0_energy">    -36.85106173 </i>
   </energy>
  </scstep>
  <scstep>
   <time name="dav">    5.89    5.89</time>
   <time name="total">    6.69    6.70</time>
   <energy>
    <i name="e_fr_energy">    -36.95905074 </i>
    <i name="e_wo_entrp">    -36.95922289 </i>
    <i name="e_0_energy">    -36.95910812 </i>
   </energy>
  </scstep>
  <scstep>
   <time name="dav">    5.96    5.96</time>
   <time name="total">    6.76    6.77</time>
   <energy>
    <i name="e_fr_energy">    -36.90291839 </i>
    <i name="e_wo_entrp">    -36.90309252 </i>
    <i name="e_0_energy">    -36.90297644 </i>
   </energy>
  </scstep>
  <scstep>
   <time name="dav">    5.87    5.87</time>
   <time name="total">    6.67    6.69</time>
   <energy>
    <i name="e_fr_energy">    -36.91437466 </i>
    <i name="e_wo_entrp">    -36.91454039 </i>
    <i name="e_0_energy">    -36.91442990 </i>
   </energy>
  </scstep>
  <scstep>
   <time name="dav">    6.27    6.27</time>
   <time name="total">    7.07    7.08</time>
   <energy>
    <i name="e_fr_energy">    -36.91494452 </i>
    <i name="e_wo_entrp">    -36.91511743 </i>
    <i name="e_0_energy">    -36.91500216 </i>
   </energy>
  </scstep>
  <scstep>
   <time name="dav">    5.88    5.88</time>
   <time name="total">    6.68    6.69</time>
   <energy>
    <i name="e_fr_energy">    -36.91517089 </i>
    <i name="e_wo_entrp">    -36.91534306 </i>
    <i name="e_0_energy">    -36.91522828 </i>
   </energy>
  </scstep>
  <scstep>
   <time name="dav">    5.07    5.07</time>
   <time name="total">    5.42    5.43</time>
   <energy>
    <i name="alphaZ">     37.04766603 </i>
    <i name="ewald">   -460.60042082 </i>
    <i name="hartreedc">   -183.47548289 </i>
    <i name="XCdc">     57.69064927 </i>
    <i name="pawpsdc">    281.11653584 </i>
    <i name="pawaedc">   -286.19993087 </i>
    <i name="eentropy">      0.00017177 </i>
    <i name="bandstr">    -70.77684463 </i>
    <i name="atom">    588.28246388 </i>
    <i name="e_fr_energy">    -36.91519242 </i>
    <i name="e_wo_entrp">    -36.91536419 </i>
    <i name="e_0_energy">    -36.91524968 </i>
   </energy>
  </scstep>
  <parameters_embedded>
   <separator name="dft+d2" >
    <i type="logical" name="LVDW"> F  </i>
   </separator>
  </parameters_embedded>
  <structure>
   <crystal>
    <varray name="basis" >
     <v>       2.46120000       0.00000000       0.00000000 </v>
     <v>      -1.23060000       2.13146172       0.00000000 </v>
     <v>       0.00000000       0.00000000       6.70790000 </v>
    </varray>
    <i name="volume">     35.18933212 </i>
    <varray name="rec_basis" >
     <v>       0.40630587       0.23458080       0.00000000 </v>
     <v>       0.00000000       0.46916160       0.00000000 </v>
     <v>       0.00000000       0.00000000       0.14907795 </v>
    </varray>
   </crystal>
   <varray name="positions" >
    <v>       0.00000000       0.00000000       0.00000000 </v>
    <v>       0.33333333       0.66666667       0.00000000 </v>
    <v>       0.33333333       0.66666667       0.50000000 </v>
    <v>       0.66666667       0.33333333       0.50000000 </v>
   </varray>
  </structure>
  <varray name="forces" >
   <v>       0.00000000       0.00000000       0.00000000 </v>
   <v>       0.00000000       0.00000000       0.00000000 </v>
   <v>       0.00000000       0.00000000       0.00000000 </v>
   <v>       0.00000000       0.00000000       0.00000000 </v>
  </varray>
  <varray name="stress" >
   <v>     -26.18140878       0.00000000       0.00000000 </v>
   <v>       0.00000000     -26.18140878       0.00000000 </v>
   <v>       0.00000000       0.00000000     -45.08038385 </v>
  </varray>
  <energy>
   <i name="e_fr_energy">    -36.91519242 </i>
   <i name="e_wo_entrp">    -36.91524968 </i>
   <i name="e_0_energy">      0.00017177 </i>
  </energy>
  <time name="totalsc">   80.30   81.15</time>
  <eigenvalues>
   <array>
    <dimension dim="1">band</dimension>
    <dimension dim="2">kpoint</dimension>
    <dimension dim="3">spin</dimension>
    <field>eigene</field>
    <field>occ</field>
    <set>
     <set comment="spin 1">
      <set comment="kpoint 1">
       <r>  -14.9862    1.0000 </r>
       <r>  -14.6872    1.0000 </r>
       <r>   -3.8226    1.0000 </r>
       <r>   -1.8656    1.0000 </r>
       <r>    1.7244    1.0000 </r>
       <r>    1.7244    1.0000 </r>
       <r>    1.7291    1.0000 </r>
       <r>    1.7291    1.0000 </r>
       <r>    8.9858    0.0000 </r>
       <r>   13.1440    0.0000 </r>
       <r>   13.1440    0.0000 </r>
       <r>   13.2071    0.0000 </r>
       <r>   13.2071    0.0000 </r>
       <r>   15.3238    0.0000 </r>
      </set>
      <set comment="kpoint 2">
       <r>  -14.6129    1.0000 </r>
       <r>  -14.3202    1.0000 </r>
       <r>   -3.3688    1.0000 </r>
       <r>   -1.4444    1.0000 </r>
       <r>    0.3055    1.0000 </r>
       <r>    0.3508    1.0000 </r>
       <r>    0.9900    1.0000 </r>
       <r>    1.0284    1.0000 </r>
       <r>    9.4384    0.0000 </r>
       <r>   13.1755    0.0000 </r>
       <r>   13.2841    0.0000 </r>
       <r>   14.6616    0.0000 </r>
       <r>   14.6999    0.0000 </r>
       <r>   14.9085    0.0000 </r>
      </set>
      <set comment="kpoint 3">
       <r>  -13.5016    1.0000 </r>
       <r>  -13.2285    1.0000 </r>
       <r>   -2.7409    1.0000 </r>
       <r>   -2.6378    1.0000 </r>
       <r>   -2.0365    1.0000 </r>
       <r>   -0.3293    1.0000 </r>
       <r>   -0.2789    1.0000 </r>
       <r>   -0.2098    1.0000 </r>
       <r>   10.7944    0.0000 </r>
       <r>   11.7500    0.0000 </r>
       <r>   12.4007    0.0000 </r>
       <r>   12.7340    0.0000 </r>
       <r>   13.0214    0.0000 </r>
       <r>   16.6367    0.0000 </r>
      </set>
      <set comment="kpoint 4">
       <r>  -11.6910    1.0000 </r>
       <r>  -11.4507    1.0000 </r>
       <r>   -6.0623    1.0000 </r>
       <r>   -5.9109    1.0000 </r>
       <r>   -1.3466    1.0000 </r>
       <r>   -1.2878    1.0000 </r>
       <r>    0.0565    1.0000 </r>
       <r>    1.6258    1.0000 </r>
       <r>    8.1105    0.0000 </r>
       <r>    9.1063    0.0000 </r>
       <r>   12.1717    0.0000 </r>
       <r>   12.4942    0.0000 </r>
       <r>   13.1525    0.0000 </r>
       <r>   17.9854    0.0000 </r>
      </set>
      <set comment="kpoint 5">
       <r>   -9.6299    1.0000 </r>
       <r>   -9.5199    1.0000 </r>
       <r>   -8.5680    1.0000 </r>
       <r>   -8.4853    1.0000 </r>
       <r>   -1.7116    1.0000 </r>
       <r>   -1.6543    1.0000 </r>
       <r>    1.9439    1.0000 </r>
       <r>    2.6341    1.0000 </r>
       <r>    6.2505    0.0000 </r>
       <r>    6.9150    0.0000 </r>
       <r>   11.9703    0.0000 </r>
       <r>   12.3689    0.0000 </r>
       <r>   16.0276    0.0000 </r>
       <r>   16.1512    0.0000 </r>
      </set>
      <set comment="kpoint 6">
       <r>  -13.8704    1.0000 </r>
       <r>  -13.5912    1.0000 </r>
       <r>   -2.4757    1.0000 </r>
       <r>   -1.5042    1.0000 </r>
       <r>   -1.4582    1.0000 </r>
       <r>   -0.6119    1.0000 </r>
       <r>   -0.4184    1.0000 </r>
       <r>   -0.3877    1.0000 </r>
       <r>   10.3516    0.0000 </r>
       <r>   12.8347    0.0000 </r>
       <r>   13.2499    0.0000 </r>
       <r>   13.9632    0.0000 </r>
       <r>   14.1395    0.0000 </r>
       <r>   15.6582    0.0000 </r>
      </set>
      <set comment="kpoint 7">
       <r>  -12.4082    1.0000 </r>
       <r>  -12.1551    1.0000 </r>
       <r>   -4.3412    1.0000 </r>
       <r>   -4.2310    1.0000 </r>
       <r>   -1.9612    1.0000 </r>
       <r>   -1.8964    1.0000 </r>
       <r>   -0.7440    1.0000 </r>
       <r>    0.9629    1.0000 </r>
       <r>    9.6546    0.0000 </r>
       <r>   10.3379    0.0000 </r>
       <r>   12.1564    0.0000 </r>
       <r>   13.9431    0.0000 </r>
       <r>   14.3199    0.0000 </r>
       <r>   17.0965    0.0000 </r>
      </set>
      <set comment="kpoint 8">
       <r>  -10.3106    1.0000 </r>
       <r>  -10.1012    1.0000 </r>
       <r>   -7.3792    1.0000 </r>
       <r>   -7.2202    1.0000 </r>
       <r>   -2.7376    1.0000 </r>
       <r>   -2.6592    1.0000 </r>
       <r>    1.5509    1.0000 </r>
       <r>    2.7520    1.0000 </r>
       <r>    6.6603    0.0000 </r>
       <r>    7.4585    0.0000 </r>
       <r>   13.5448    0.0000 </r>
       <r>   13.9779    0.0000 </r>
       <r>   14.8232    0.0000 </r>
       <r>   17.7553    0.0000 </r>
      </set>
      <set comment="kpoint 9">
       <r>  -10.6427    1.0000 </r>
       <r>  -10.4239    1.0000 </r>
       <r>   -5.8451    1.0000 </r>
       <r>   -5.7682    1.0000 </r>
       <r>   -4.2634    1.0000 </r>
       <r>   -4.2044    1.0000 </r>
       <r>    1.2950    1.0000 </r>
       <r>    2.7375    1.0000 </r>
       <r>    7.2720    0.0000 </r>
       <r>    7.8782    0.0000 </r>
       <r>   14.3394    0.0000 </r>
       <r>   16.6596    0.0000 </r>
       <r>   16.6766    0.0000 </r>
       <r>   16.8919    0.0000 </r>
      </set>
      <set comment="kpoint 10">
       <r>   -8.6740    1.0000 </r>
       <r>   -8.5702    1.0000 </r>
       <r>   -7.7576    1.0000 </r>
       <r>   -7.7121    1.0000 </r>
       <r>   -5.0738    1.0000 </r>
       <r>   -4.9719    1.0000 </r>
       <r>    3.2859    1.0000 </r>
       <r>    3.9356    0.9805 </r>
       <r>    5.7098    0.0000 </r>
       <r>    5.8915    0.0000 </r>
       <r>   16.2608    0.0000 </r>
       <r>   16.2840    0.0000 </r>
       <r>   16.4697    0.0000 </r>
       <r>   16.8037    0.0000 </r>
      </set>
      <set comment="kpoint 11">
       <r>  -14.9757    1.0000 </r>
       <r>  -14.6993    1.0000 </r>
       <r>   -3.7597    1.0000 </r>
       <r>   -1.9598    1.0000 </r>
       <r>    1.7129    1.0000 </r>
       <r>    1.7129    1.0000 </r>
       <r>    1.7242    1.0000 </r>
       <r>    1.7242    1.0000 </r>
       <r>    9.1782    0.0000 </r>
       <r>   13.1368    0.0000 </r>
       <r>   13.1368    0.0000 </r>
       <r>   13.1807    0.0000 </r>
       <r>   13.1807    0.0000 </r>
       <r>   14.9352    0.0000 </r>
      </set>
      <set comment="kpoint 12">
       <r>  -14.6025    1.0000 </r>
       <r>  -14.3321    1.0000 </r>
       <r>   -3.3064    1.0000 </r>
       <r>   -1.5351    1.0000 </r>
       <r>    0.3073    1.0000 </r>
       <r>    0.3486    1.0000 </r>
       <r>    0.9954    1.0000 </r>
       <r>    1.0273    1.0000 </r>
       <r>    9.6280    0.0000 </r>
       <r>   13.1766    0.0000 </r>
       <r>   13.2797    0.0000 </r>
       <r>   14.6643    0.0000 </r>
       <r>   14.6984    0.0000 </r>
       <r>   14.9160    0.0000 </r>
      </set>
      <set comment="kpoint 13">
       <r>  -13.4918    1.0000 </r>
       <r>  -13.2394    1.0000 </r>
       <r>   -2.7371    1.0000 </r>
       <r>   -2.6450    1.0000 </r>
       <r>   -1.9749    1.0000 </r>
       <r>   -0.3217    1.0000 </r>
       <r>   -0.2950    1.0000 </r>
       <r>   -0.2808    1.0000 </r>
       <r>   10.9614    0.0000 </r>
       <r>   11.7838    0.0000 </r>
       <r>   12.3599    0.0000 </r>
       <r>   12.7447    0.0000 </r>
       <r>   13.0218    0.0000 </r>
       <r>   16.3240    0.0000 </r>
      </set>
      <set comment="kpoint 14">
       <r>  -11.6822    1.0000 </r>
       <r>  -11.4601    1.0000 </r>
       <r>   -6.0570    1.0000 </r>
       <r>   -5.9186    1.0000 </r>
       <r>   -1.3438    1.0000 </r>
       <r>   -1.2926    1.0000 </r>
       <r>    0.1102    1.0000 </r>
       <r>    1.5517    1.0000 </r>
       <r>    8.1332    0.0000 </r>
       <r>    9.0582    0.0000 </r>
       <r>   12.1846    0.0000 </r>
       <r>   12.4889    0.0000 </r>
       <r>   13.3100    0.0000 </r>
       <r>   17.7403    0.0000 </r>
      </set>
      <set comment="kpoint 15">
       <r>   -9.6248    1.0000 </r>
       <r>   -9.5233    1.0000 </r>
       <r>   -8.5662    1.0000 </r>
       <r>   -8.4897    1.0000 </r>
       <r>   -1.7093    1.0000 </r>
       <r>   -1.6563    1.0000 </r>
       <r>    1.9788    1.0000 </r>
       <r>    2.6243    1.0000 </r>
       <r>    6.2470    0.0000 </r>
       <r>    6.8718    0.0000 </r>
       <r>   11.9849    0.0000 </r>
       <r>   12.3546    0.0000 </r>
       <r>   16.1782    0.0000 </r>
       <r>   16.2593    0.0000 </r>
      </set>
      <set comment="kpoint 16">
       <r>  -13.8605    1.0000 </r>
       <r>  -13.6022    1.0000 </r>
       <r>   -2.4138    1.0000 </r>
       <r>   -1.5030    1.0000 </r>
       <r>   -1.4630    1.0000 </r>
       <r>   -0.7002    1.0000 </r>
       <r>   -0.4153    1.0000 </r>
       <r>   -0.3892    1.0000 </r>
       <r>   10.5334    0.0000 </r>
       <r>   12.8440    0.0000 </r>
       <r>   13.2244    0.0000 </r>
       <r>   13.9712    0.0000 </r>
       <r>   14.1324    0.0000 </r>
       <r>   15.6653    0.0000 </r>
      </set>
      <set comment="kpoint 17">
       <r>  -12.3991    1.0000 </r>
       <r>  -12.1652    1.0000 </r>
       <r>   -4.3363    1.0000 </r>
       <r>   -4.2340    1.0000 </r>
       <r>   -1.9575    1.0000 </r>
       <r>   -1.8971    1.0000 </r>
       <r>   -0.6871    1.0000 </r>
       <r>    0.8823    1.0000 </r>
       <r>    9.6733    0.0000 </r>
       <r>   10.3045    0.0000 </r>
       <r>   12.3212    0.0000 </r>
       <r>   13.9559    0.0000 </r>
       <r>   14.3116    0.0000 </r>
       <r>   16.8514    0.0000 </r>
      </set>
      <set comment="kpoint 18">
       <r>  -10.3029    1.0000 </r>
       <r>  -10.1095    1.0000 </r>
       <r>   -7.3737    1.0000 </r>
       <r>   -7.2264    1.0000 </r>
       <r>   -2.7346    1.0000 </r>
       <r>   -2.6614    1.0000 </r>
       <r>    1.5958    1.0000 </r>
       <r>    2.7074    1.0000 </r>
       <r>    6.6712    0.0000 </r>
       <r>    7.4161    0.0000 </r>
       <r>   13.5606    0.0000 </r>
       <r>   13.9601    0.0000 </r>
       <r>   14.9450    0.0000 </r>
       <r>   17.4327    0.0000 </r>
      </set>
      <set comment="kpoint 19">
       <r>  -10.6354    1.0000 </r>
       <r>  -10.4330    1.0000 </r>
       <r>   -5.8428    1.0000 </r>
       <r>   -5.7720    1.0000 </r>
       <r>   -4.2624    1.0000 </r>
       <r>   -4.2074    1.0000 </r>
       <r>    1.3396    1.0000 </r>
       <r>    2.6772    1.0000 </r>
       <r>    7.2907    0.0000 </r>
       <r>    7.8539    0.0000 </r>
       <r>   14.4274    0.0000 </r>
       <r>   16.3417    0.0000 </r>
       <r>   16.8834    0.0000 </r>
       <r>   16.9164    0.0000 </r>
      </set>
      <set comment="kpoint 20">
       <r>   -8.6694    1.0000 </r>
       <r>   -8.5744    1.0000 </r>
       <r>   -7.7567    1.0000 </r>
       <r>   -7.7147    1.0000 </r>
       <r>   -5.0705    1.0000 </r>
       <r>   -4.9746    1.0000 </r>
       <r>    3.3228    1.0000 </r>
       <r>    3.9341    0.9885 </r>
       <r>    5.7117    0.0000 </r>
       <r>    5.8696    0.0000 </r>
       <r>   15.8963    0.0000 </r>
       <r>   15.9854    0.0000 </r>
       <r>   16.5724    0.0000 </r>
       <r>   17.3292    0.0000 </r>
      </set>
      <set comment="kpoint 21">
       <r>  -14.9450    1.0000 </r>
       <r>  -14.7336    1.0000 </r>
       <r>   -3.5759    1.0000 </r>
       <r>   -2.2088    1.0000 </r>
       <r>    1.7132    1.0000 </r>
       <r>    1.7132    1.0000 </r>
       <r>    1.7220    1.0000 </r>
       <r>    1.7220    1.0000 </r>
       <r>    9.7318    0.0000 </r>
       <r>   13.1422    0.0000 </r>
       <r>   13.1422    0.0000 </r>
       <r>   13.1736    0.0000 </r>
       <r>   13.1736    0.0000 </r>
       <r>   13.9884    0.0000 </r>
      </set>
      <set comment="kpoint 22">
       <r>  -14.5724    1.0000 </r>
       <r>  -14.3656    1.0000 </r>
       <r>   -3.1292    1.0000 </r>
       <r>   -1.7800    1.0000 </r>
       <r>    0.3115    1.0000 </r>
       <r>    0.3437    1.0000 </r>
       <r>    0.9967    1.0000 </r>
       <r>    1.0222    1.0000 </r>
       <r>   10.1717    0.0000 </r>
       <r>   13.1646    0.0000 </r>
       <r>   13.2668    0.0000 </r>
       <r>   14.3712    0.0000 </r>
       <r>   14.6640    0.0000 </r>
       <r>   14.6917    0.0000 </r>
      </set>
      <set comment="kpoint 23">
       <r>  -13.4636    1.0000 </r>
       <r>  -13.2705    1.0000 </r>
       <r>   -2.7262    1.0000 </r>
       <r>   -2.6589    1.0000 </r>
       <r>   -1.8032    1.0000 </r>
       <r>   -0.5210    1.0000 </r>
       <r>   -0.3182    1.0000 </r>
       <r>   -0.2855    1.0000 </r>
       <r>   11.4053    0.0000 </r>
       <r>   11.8950    0.0000 </r>
       <r>   12.2628    0.0000 </r>
       <r>   12.7720    0.0000 </r>
       <r>   13.0242    0.0000 </r>
       <r>   15.5098    0.0000 </r>
      </set>
      <set comment="kpoint 24">
       <r>  -11.6573    1.0000 </r>
       <r>  -11.4871    1.0000 </r>
       <r>   -6.0411    1.0000 </r>
       <r>   -5.9341    1.0000 </r>
       <r>   -1.3329    1.0000 </r>
       <r>   -1.2983    1.0000 </r>
       <r>    0.2657    1.0000 </r>
       <r>    1.3647    1.0000 </r>
       <r>    8.2153    0.0000 </r>
       <r>    8.9194    0.0000 </r>
       <r>   12.2275    0.0000 </r>
       <r>   12.4646    0.0000 </r>
       <r>   13.7736    0.0000 </r>
       <r>   17.1167    0.0000 </r>
      </set>
      <set comment="kpoint 25">
       <r>   -9.6123    1.0000 </r>
       <r>   -9.5333    1.0000 </r>
       <r>   -8.5604    1.0000 </r>
       <r>   -8.5019    1.0000 </r>
       <r>   -1.6984    1.0000 </r>
       <r>   -1.6627    1.0000 </r>
       <r>    2.0731    1.0000 </r>
       <r>    2.5763    1.0000 </r>
       <r>    6.2421    0.0000 </r>
       <r>    6.7292    0.0000 </r>
       <r>   12.0256    0.0000 </r>
       <r>   12.3081    0.0000 </r>
       <r>   16.5555    0.0000 </r>
       <r>   16.5889    0.0000 </r>
      </set>
      <set comment="kpoint 26">
       <r>  -13.8317    1.0000 </r>
       <r>  -13.6341    1.0000 </r>
       <r>   -2.2412    1.0000 </r>
       <r>   -1.4984    1.0000 </r>
       <r>   -1.4678    1.0000 </r>
       <r>   -0.9329    1.0000 </r>
       <r>   -0.4095    1.0000 </r>
       <r>   -0.3915    1.0000 </r>
       <r>   11.0562    0.0000 </r>
       <r>   12.8785    0.0000 </r>
       <r>   13.1734    0.0000 </r>
       <r>   13.9714    0.0000 </r>
       <r>   14.1446    0.0000 </r>
       <r>   15.1065    0.0000 </r>
      </set>
      <set comment="kpoint 27">
       <r>  -12.3727    1.0000 </r>
       <r>  -12.1938    1.0000 </r>
       <r>   -4.3244    1.0000 </r>
       <r>   -4.2446    1.0000 </r>
       <r>   -1.9508    1.0000 </r>
       <r>   -1.9042    1.0000 </r>
       <r>   -0.5247    1.0000 </r>
       <r>    0.6745    1.0000 </r>
       <r>    9.7410    0.0000 </r>
       <r>   10.2263    0.0000 </r>
       <r>   12.7880    0.0000 </r>
       <r>   13.9843    0.0000 </r>
       <r>   14.2924    0.0000 </r>
       <r>   16.2287    0.0000 </r>
      </set>
      <set comment="kpoint 28">
       <r>  -10.2808    1.0000 </r>
       <r>  -10.1329    1.0000 </r>
       <r>   -7.3567    1.0000 </r>
       <r>   -7.2451    1.0000 </r>
       <r>   -2.7266    1.0000 </r>
       <r>   -2.6712    1.0000 </r>
       <r>    1.7233    1.0000 </r>
       <r>    2.5775    1.0000 </r>
       <r>    6.7184    0.0000 </r>
       <r>    7.3004    0.0000 </r>
       <r>   13.6038    0.0000 </r>
       <r>   13.9084    0.0000 </r>
       <r>   15.2827    0.0000 </r>
       <r>   17.1011    0.0000 </r>
      </set>
      <set comment="kpoint 29">
       <r>  -10.6125    1.0000 </r>
       <r>  -10.4578    1.0000 </r>
       <r>   -5.8340    1.0000 </r>
       <r>   -5.7797    1.0000 </r>
       <r>   -4.2575    1.0000 </r>
       <r>   -4.2152    1.0000 </r>
       <r>    1.4812    1.0000 </r>
       <r>    2.5067    1.0000 </r>
       <r>    7.3549    0.0000 </r>
       <r>    7.7857    0.0000 </r>
       <r>   14.6613    0.0000 </r>
       <r>   15.9817    0.0000 </r>
       <r>   16.9394    0.0000 </r>
       <r>   17.0829    0.0000 </r>
      </set>
      <set comment="kpoint 30">
       <r>   -8.6562    1.0000 </r>
       <r>   -8.5833    1.0000 </r>
       <r>   -7.7550    1.0000 </r>
       <r>   -7.7221    1.0000 </r>
       <r>   -5.0598    1.0000 </r>
       <r>   -4.9862    1.0000 </r>
       <r>    3.4182    1.0000 </r>
       <r>    3.8977    1.0266 </r>
       <r>    5.6934    0.0000 </r>
       <r>    5.7990    0.0000 </r>
       <r>   15.4835    0.0000 </r>
       <r>   15.6103    0.0000 </r>
       <r>   16.7745    0.0000 </r>
       <r>   17.5103    0.0000 </r>
      </set>
      <set comment="kpoint 31">
       <r>  -14.8982    1.0000 </r>
       <r>  -14.7839    1.0000 </r>
       <r>   -3.3001    1.0000 </r>
       <r>   -2.5616    1.0000 </r>
       <r>    1.7134    1.0000 </r>
       <r>    1.7134    1.0000 </r>
       <r>    1.7188    1.0000 </r>
       <r>    1.7188    1.0000 </r>
       <r>   10.5772    0.0000 </r>
       <r>   12.8034    0.0000 </r>
       <r>   13.1437    0.0000 </r>
       <r>   13.1437    0.0000 </r>
       <r>   13.1639    0.0000 </r>
       <r>   13.1640    0.0000 </r>
      </set>
      <set comment="kpoint 32">
       <r>  -14.5265    1.0000 </r>
       <r>  -14.4147    1.0000 </r>
       <r>   -2.8510    1.0000 </r>
       <r>   -2.1255    1.0000 </r>
       <r>    0.3176    1.0000 </r>
       <r>    0.3381    1.0000 </r>
       <r>    1.0051    1.0000 </r>
       <r>    1.0173    1.0000 </r>
       <r>   10.9999    0.0000 </r>
       <r>   13.0255    0.0000 </r>
       <r>   13.2550    0.0000 </r>
       <r>   13.3915    0.0000 </r>
       <r>   14.6679    0.0000 </r>
       <r>   14.6938    0.0000 </r>
      </set>
      <set comment="kpoint 33">
       <r>  -13.4205    1.0000 </r>
       <r>  -13.3163    1.0000 </r>
       <r>   -2.7126    1.0000 </r>
       <r>   -2.6759    1.0000 </r>
       <r>   -1.5364    1.0000 </r>
       <r>   -0.8486    1.0000 </r>
       <r>   -0.3148    1.0000 </r>
       <r>   -0.2974    1.0000 </r>
       <r>   11.7856    0.0000 </r>
       <r>   12.1290    0.0000 </r>
       <r>   12.3381    0.0000 </r>
       <r>   12.7992    0.0000 </r>
       <r>   13.0550    0.0000 </r>
       <r>   14.4876    0.0000 </r>
      </set>
      <set comment="kpoint 34">
       <r>  -11.6197    1.0000 </r>
       <r>  -11.5272    1.0000 </r>
       <r>   -6.0154    1.0000 </r>
       <r>   -5.9594    1.0000 </r>
       <r>   -1.3245    1.0000 </r>
       <r>   -1.3068    1.0000 </r>
       <r>    0.5013    1.0000 </r>
       <r>    1.0913    1.0000 </r>
       <r>    8.3518    0.0000 </r>
       <r>    8.7353    0.0000 </r>
       <r>   12.2859    0.0000 </r>
       <r>   12.4152    0.0000 </r>
       <r>   14.4841    0.0000 </r>
       <r>   16.2731    0.0000 </r>
      </set>
      <set comment="kpoint 35">
       <r>   -9.5920    1.0000 </r>
       <r>   -9.5491    1.0000 </r>
       <r>   -8.5494    1.0000 </r>
       <r>   -8.5179    1.0000 </r>
       <r>   -1.6872    1.0000 </r>
       <r>   -1.6660    1.0000 </r>
       <r>    2.2161    1.0000 </r>
       <r>    2.4904    1.0000 </r>
       <r>    6.2851    0.0000 </r>
       <r>    6.5580    0.0000 </r>
       <r>   12.0886    0.0000 </r>
       <r>   12.2427    0.0000 </r>
       <r>   16.9759    0.0000 </r>
       <r>   17.1478    0.0000 </r>
      </set>
      <set comment="kpoint 36">
       <r>  -13.7879    1.0000 </r>
       <r>  -13.6809    1.0000 </r>
       <r>   -1.9695    1.0000 </r>
       <r>   -1.4915    1.0000 </r>
       <r>   -1.4746    1.0000 </r>
       <r>   -1.2667    1.0000 </r>
       <r>   -0.4055    1.0000 </r>
       <r>   -0.3966    1.0000 </r>
       <r>   11.8487    0.0000 </r>
       <r>   12.9326    0.0000 </r>
       <r>   13.0914    0.0000 </r>
       <r>   13.7602    0.0000 </r>
       <r>   14.1440    0.0000 </r>
       <r>   14.2840    0.0000 </r>
      </set>
      <set comment="kpoint 37">
       <r>  -12.3331    1.0000 </r>
       <r>  -12.2364    1.0000 </r>
       <r>   -4.3051    1.0000 </r>
       <r>   -4.2632    1.0000 </r>
       <r>   -1.9435    1.0000 </r>
       <r>   -1.9137    1.0000 </r>
       <r>   -0.2731    1.0000 </r>
       <r>    0.3720    1.0000 </r>
       <r>    9.8410    0.0000 </r>
       <r>   10.1077    0.0000 </r>
       <r>   13.4544    0.0000 </r>
       <r>   14.0165    0.0000 </r>
       <r>   14.2921    0.0000 </r>
       <r>   15.4017    0.0000 </r>
      </set>
      <set comment="kpoint 38">
       <r>  -10.2480    1.0000 </r>
       <r>  -10.1675    1.0000 </r>
       <r>   -7.3315    1.0000 </r>
       <r>   -7.2711    1.0000 </r>
       <r>   -2.7161    1.0000 </r>
       <r>   -2.6849    1.0000 </r>
       <r>    1.9185    1.0000 </r>
       <r>    2.3836    1.0000 </r>
       <r>    6.8171    0.0000 </r>
       <r>    7.1364    0.0000 </r>
       <r>   13.6673    0.0000 </r>
       <r>   13.8329    0.0000 </r>
       <r>   15.7509    0.0000 </r>
       <r>   16.7170    0.0000 </r>
      </set>
      <set comment="kpoint 39">
       <r>  -10.5783    1.0000 </r>
       <r>  -10.4943    1.0000 </r>
       <r>   -5.8204    1.0000 </r>
       <r>   -5.7910    1.0000 </r>
       <r>   -4.2495    1.0000 </r>
       <r>   -4.2267    1.0000 </r>
       <r>    1.6989    1.0000 </r>
       <r>    2.2508    1.0000 </r>
       <r>    7.4516    0.0000 </r>
       <r>    7.6833    0.0000 </r>
       <r>   14.9590    0.0000 </r>
       <r>   15.6191    0.0000 </r>
       <r>   17.1158    0.0000 </r>
       <r>   17.1941    0.0000 </r>
      </set>
      <set comment="kpoint 40">
       <r>   -8.6375    1.0000 </r>
       <r>   -8.5980    1.0000 </r>
       <r>   -7.7492    1.0000 </r>
       <r>   -7.7310    1.0000 </r>
       <r>   -5.0445    1.0000 </r>
       <r>   -5.0053    1.0000 </r>
       <r>    3.5589    1.0000 </r>
       <r>    3.8245    1.0001 </r>
       <r>    5.6755    0.0000 </r>
       <r>    5.7196    0.0000 </r>
       <r>   15.2453    0.0000 </r>
       <r>   15.3286    0.0000 </r>
       <r>   17.0155    0.0000 </r>
       <r>   17.3994    0.0000 </r>
      </set>
      <set comment="kpoint 41">
       <r>  -14.8418    1.0000 </r>
       <r>  -14.8418    1.0000 </r>
       <r>   -2.9445    1.0000 </r>
       <r>   -2.9445    1.0000 </r>
       <r>    1.7158    1.0000 </r>
       <r>    1.7158    1.0000 </r>
       <r>    1.7159    1.0000 </r>
       <r>    1.7159    1.0000 </r>
       <r>   11.6321    0.0000 </r>
       <r>   11.6321    0.0000 </r>
       <r>   13.1535    0.0000 </r>
       <r>   13.1535    0.0000 </r>
       <r>   13.1535    0.0000 </r>
       <r>   13.1535    0.0000 </r>
      </set>
      <set comment="kpoint 42">
       <r>  -14.4712    1.0000 </r>
       <r>  -14.4712    1.0000 </r>
       <r>   -2.4997    1.0000 </r>
       <r>   -2.4997    1.0000 </r>
       <r>    0.3305    1.0000 </r>
       <r>    0.3305    1.0000 </r>
       <r>    1.0104    1.0000 </r>
       <r>    1.0104    1.0000 </r>
       <r>   12.0286    0.0000 </r>
       <r>   12.0286    0.0000 </r>
       <r>   13.2611    0.0000 </r>
       <r>   13.2611    0.0000 </r>
       <r>   14.6846    0.0000 </r>
       <r>   14.6846    0.0000 </r>
      </set>
      <set comment="kpoint 43">
       <r>  -13.3689    1.0000 </r>
       <r>  -13.3689    1.0000 </r>
       <r>   -2.6937    1.0000 </r>
       <r>   -2.6937    1.0000 </r>
       <r>   -1.2062    1.0000 </r>
       <r>   -1.2062    1.0000 </r>
       <r>   -0.3066    1.0000 </r>
       <r>   -0.3066    1.0000 </r>
       <r>   11.9688    0.0000 </r>
       <r>   11.9688    0.0000 </r>
       <r>   12.7735    0.0000 </r>
       <r>   12.7735    0.0000 </r>
       <r>   13.5014    0.0000 </r>
       <r>   13.5014    0.0000 </r>
      </set>
      <set comment="kpoint 44">
       <r>  -11.5742    1.0000 </r>
       <r>  -11.5742    1.0000 </r>
       <r>   -5.9880    1.0000 </r>
       <r>   -5.9880    1.0000 </r>
       <r>   -1.3177    1.0000 </r>
       <r>   -1.3177    1.0000 </r>
       <r>    0.7874    1.0000 </r>
       <r>    0.7874    1.0000 </r>
       <r>    8.5362    0.0000 </r>
       <r>    8.5362    0.0000 </r>
       <r>   12.3506    0.0000 </r>
       <r>   12.3506    0.0000 </r>
       <r>   15.3502    0.0000 </r>
       <r>   15.3502    0.0000 </r>
      </set>
      <set comment="kpoint 45">
       <r>   -9.5702    1.0000 </r>
       <r>   -9.5702    1.0000 </r>
       <r>   -8.5375    1.0000 </r>
       <r>   -8.5375    1.0000 </r>
       <r>   -1.6783    1.0000 </r>
       <r>   -1.6783    1.0000 </r>
       <r>    2.3538    1.0000 </r>
       <r>    2.3538    1.0000 </r>
       <r>    6.3889    0.0000 </r>
       <r>    6.3889    0.0000 </r>
       <r>   12.1624    0.0000 </r>
       <r>   12.1624    0.0000 </r>
       <r>   17.3439    0.0000 </r>
       <r>   17.3439    0.0000 </r>
      </set>
      <set comment="kpoint 46">
       <r>  -13.7349    1.0000 </r>
       <r>  -13.7349    1.0000 </r>
       <r>   -1.6315    1.0000 </r>
       <r>   -1.6315    1.0000 </r>
       <r>   -1.4838    1.0000 </r>
       <r>   -1.4838    1.0000 </r>
       <r>   -0.4048    1.0000 </r>
       <r>   -0.4048    1.0000 </r>
       <r>   12.8126    0.0000 </r>
       <r>   12.8126    0.0000 </r>
       <r>   13.0162    0.0000 </r>
       <r>   13.0162    0.0000 </r>
       <r>   14.1477    0.0000 </r>
       <r>   14.1477    0.0000 </r>
      </set>
      <set comment="kpoint 47">
       <r>  -12.2852    1.0000 </r>
       <r>  -12.2852    1.0000 </r>
       <r>   -4.2846    1.0000 </r>
       <r>   -4.2846    1.0000 </r>
       <r>   -1.9303    1.0000 </r>
       <r>   -1.9303    1.0000 </r>
       <r>    0.0398    1.0000 </r>
       <r>    0.0398    1.0000 </r>
       <r>    9.9660    0.0000 </r>
       <r>    9.9660    0.0000 </r>
       <r>   13.9673    0.0000 </r>
       <r>   13.9673    0.0000 </r>
       <r>   14.5890    0.0000 </r>
       <r>   14.5890    0.0000 </r>
      </set>
      <set comment="kpoint 48">
       <r>  -10.2081    1.0000 </r>
       <r>  -10.2081    1.0000 </r>
       <r>   -7.3015    1.0000 </r>
       <r>   -7.3015    1.0000 </r>
       <r>   -2.7019    1.0000 </r>
       <r>   -2.7019    1.0000 </r>
       <r>    2.1470    1.0000 </r>
       <r>    2.1470    1.0000 </r>
       <r>    6.9604    0.0000 </r>
       <r>    6.9604    0.0000 </r>
       <r>   13.7470    0.0000 </r>
       <r>   13.7470    0.0000 </r>
       <r>   16.2544    0.0000 </r>
       <r>   16.2544    0.0000 </r>
      </set>
      <set comment="kpoint 49">
       <r>  -10.5366    1.0000 </r>
       <r>  -10.5366    1.0000 </r>
       <r>   -5.8052    1.0000 </r>
       <r>   -5.8052    1.0000 </r>
       <r>   -4.2373    1.0000 </r>
       <r>   -4.2373    1.0000 </r>
       <r>    1.9696    1.0000 </r>
       <r>    1.9696    1.0000 </r>
       <r>    7.5725    0.0000 </r>
       <r>    7.5725    0.0000 </r>
       <r>   15.2806    0.0000 </r>
       <r>   15.2806    0.0000 </r>
       <r>   17.2390    0.0000 </r>
       <r>   17.2391    0.0000 </r>
      </set>
      <set comment="kpoint 50">
       <r>   -8.6169    1.0000 </r>
       <r>   -8.6169    1.0000 </r>
       <r>   -7.7413    1.0000 </r>
       <r>   -7.7413    1.0000 </r>
       <r>   -5.0249    1.0000 </r>
       <r>   -5.0249    1.0000 </r>
       <r>    3.7020    1.0000 </r>
       <r>    3.7020    1.0000 </r>
       <r>    5.6790    0.0000 </r>
       <r>    5.6790    0.0000 </r>
       <r>   15.1976    0.0000 </r>
       <r>   15.1976    0.0000 </r>
       <r>   17.2320    0.0000 </r>
       <r>   17.2320    0.0000 </r>
      </set>
     </set>
     <set comment="spin 2">
      <set comment="kpoint 1">
       <r>  -14.9851    1.0000 </r>
       <r>  -14.6861    1.0000 </r>
       <r>   -3.8214    1.0000 </r>
       <r>   -1.8642    1.0000 </r>
       <r>    1.7247    1.0000 </r>
       <r>    1.7247    1.0000 </r>
       <r>    1.7294    1.0000 </r>
       <r>    1.7295    1.0000 </r>
       <r>    8.9862    0.0000 </r>
       <r>   13.1453    0.0000 </r>
       <r>   13.1453    0.0000 </r>
       <r>   13.2084    0.0000 </r>
       <r>   13.2084    0.0000 </r>
       <r>   15.3242    0.0000 </r>
      </set>
      <set comment="kpoint 2">
       <r>  -14.6119    1.0000 </r>
       <r>  -14.3191    1.0000 </r>
       <r>   -3.3676    1.0000 </r>
       <r>   -1.4431    1.0000 </r>
       <r>    0.3059    1.0000 </r>
       <r>    0.3512    1.0000 </r>
       <r>    0.9904    1.0000 </r>
       <r>    1.0288    1.0000 </r>
       <r>    9.4388    0.0000 </r>
       <r>   13.1770    0.0000 </r>
       <r>   13.2856    0.0000 </r>
       <r>   14.6628    0.0000 </r>
       <r>   14.7011    0.0000 </r>
       <r>   14.9097    0.0000 </r>
      </set>
      <set comment="kpoint 3">
       <r>  -13.5006    1.0000 </r>
       <r>  -13.2275    1.0000 </r>
       <r>   -2.7403    1.0000 </r>
       <r>   -2.6372    1.0000 </r>
       <r>   -2.0353    1.0000 </r>
       <r>   -0.3289    1.0000 </r>
       <r>   -0.2784    1.0000 </r>
       <r>   -0.2085    1.0000 </r>
       <r>   10.7948    0.0000 </r>
       <r>   11.7511    0.0000 </r>
       <r>   12.4019    0.0000 </r>
       <r>   12.7358    0.0000 </r>
       <r>   13.0232    0.0000 </r>
       <r>   16.6374    0.0000 </r>
      </set>
      <set comment="kpoint 4">
       <r>  -11.6900    1.0000 </r>
       <r>  -11.4497    1.0000 </r>
       <r>   -6.0615    1.0000 </r>
       <r>   -5.9101    1.0000 </r>
       <r>   -1.3461    1.0000 </r>
       <r>   -1.2873    1.0000 </r>
       <r>    0.0576    1.0000 </r>
       <r>    1.6271    1.0000 </r>
       <r>    8.1117    0.0000 </r>
       <r>    9.1076    0.0000 </r>
       <r>   12.1734    0.0000 </r>
       <r>   12.4959    0.0000 </r>
       <r>   13.1532    0.0000 </r>
       <r>   17.9866    0.0000 </r>
      </set>
      <set comment="kpoint 5">
       <r>   -9.6293    1.0000 </r>
       <r>   -9.5191    1.0000 </r>
       <r>   -8.5669    1.0000 </r>
       <r>   -8.4842    1.0000 </r>
       <r>   -1.7111    1.0000 </r>
       <r>   -1.6538    1.0000 </r>
       <r>    1.9448    1.0000 </r>
       <r>    2.6354    1.0000 </r>
       <r>    6.2516    0.0000 </r>
       <r>    6.9165    0.0000 </r>
       <r>   11.9722    0.0000 </r>
       <r>   12.3707    0.0000 </r>
       <r>   16.0275    0.0000 </r>
       <r>   16.1523    0.0000 </r>
      </set>
      <set comment="kpoint 6">
       <r>  -13.8694    1.0000 </r>
       <r>  -13.5901    1.0000 </r>
       <r>   -2.4745    1.0000 </r>
       <r>   -1.5037    1.0000 </r>
       <r>   -1.4577    1.0000 </r>
       <r>   -0.6106    1.0000 </r>
       <r>   -0.4179    1.0000 </r>
       <r>   -0.3871    1.0000 </r>
       <r>   10.3520    0.0000 </r>
       <r>   12.8357    0.0000 </r>
       <r>   13.2511    0.0000 </r>
       <r>   13.9648    0.0000 </r>
       <r>   14.1411    0.0000 </r>
       <r>   15.6580    0.0000 </r>
      </set>
      <set comment="kpoint 7">
       <r>  -12.4072    1.0000 </r>
       <r>  -12.1541    1.0000 </r>
       <r>   -4.3405    1.0000 </r>
       <r>   -4.2303    1.0000 </r>
       <r>   -1.9605    1.0000 </r>
       <r>   -1.8957    1.0000 </r>
       <r>   -0.7428    1.0000 </r>
       <r>    0.9642    1.0000 </r>
       <r>    9.6557    0.0000 </r>
       <r>   10.3390    0.0000 </r>
       <r>   12.1568    0.0000 </r>
       <r>   13.9448    0.0000 </r>
       <r>   14.3216    0.0000 </r>
       <r>   17.0980    0.0000 </r>
      </set>
      <set comment="kpoint 8">
       <r>  -10.3098    1.0000 </r>
       <r>  -10.1003    1.0000 </r>
       <r>   -7.3784    1.0000 </r>
       <r>   -7.2194    1.0000 </r>
       <r>   -2.7369    1.0000 </r>
       <r>   -2.6585    1.0000 </r>
       <r>    1.5519    1.0000 </r>
       <r>    2.7532    1.0000 </r>
       <r>    6.6614    0.0000 </r>
       <r>    7.4597    0.0000 </r>
       <r>   13.5465    0.0000 </r>
       <r>   13.9796    0.0000 </r>
       <r>   14.8238    0.0000 </r>
       <r>   17.7496    0.0000 </r>
      </set>
      <set comment="kpoint 9">
       <r>  -10.6418    1.0000 </r>
       <r>  -10.4230    1.0000 </r>
       <r>   -5.8444    1.0000 </r>
       <r>   -5.7675    1.0000 </r>
       <r>   -4.2624    1.0000 </r>
       <r>   -4.2034    1.0000 </r>
       <r>    1.2961    1.0000 </r>
       <r>    2.7387    1.0000 </r>
       <r>    7.2731    0.0000 </r>
       <r>    7.8793    0.0000 </r>
       <r>   14.3398    0.0000 </r>
       <r>   16.6614    0.0000 </r>
       <r>   16.6787    0.0000 </r>
       <r>   16.8932    0.0000 </r>
      </set>
      <set comment="kpoint 10">
       <r>   -8.6733    1.0000 </r>
       <r>   -8.5694    1.0000 </r>
       <r>   -7.7568    1.0000 </r>
       <r>   -7.7112    1.0000 </r>
       <r>   -5.0728    1.0000 </r>
       <r>   -4.9710    1.0000 </r>
       <r>    3.2866    1.0000 </r>
       <r>    3.9371    0.9718 </r>
       <r>    5.7112    0.0000 </r>
       <r>    5.8923    0.0000 </r>
       <r>   16.2632    0.0000 </r>
       <r>   16.2863    0.0000 </r>
       <r>   16.4706    0.0000 </r>
       <r>   16.8055    0.0000 </r>
      </set>
      <set comment="kpoint 11">
       <r>  -14.9746    1.0000 </r>
       <r>  -14.6983    1.0000 </r>
       <r>   -3.7585    1.0000 </r>
       <r>   -1.9585    1.0000 </r>
       <r>    1.7132    1.0000 </r>
       <r>    1.7132    1.0000 </r>
       <r>    1.7245    1.0000 </r>
       <r>    1.7245    1.0000 </r>
       <r>    9.1786    0.0000 </r>
       <r>   13.1381    0.0000 </r>
       <r>   13.1381    0.0000 </r>
       <r>   13.1819    0.0000 </r>
       <r>   13.1819    0.0000 </r>
       <r>   14.9357    0.0000 </r>
      </set>
      <set comment="kpoint 12">
       <r>  -14.6014    1.0000 </r>
       <r>  -14.3310    1.0000 </r>
       <r>   -3.3052    1.0000 </r>
       <r>   -1.5338    1.0000 </r>
       <r>    0.3077    1.0000 </r>
       <r>    0.3490    1.0000 </r>
       <r>    0.9958    1.0000 </r>
       <r>    1.0277    1.0000 </r>
       <r>    9.6284    0.0000 </r>
       <r>   13.1780    0.0000 </r>
       <r>   13.2811    0.0000 </r>
       <r>   14.6655    0.0000 </r>
       <r>   14.6996    0.0000 </r>
       <r>   14.9163    0.0000 </r>
      </set>
      <set comment="kpoint 13">
       <r>  -13.4908    1.0000 </r>
       <r>  -13.2384    1.0000 </r>
       <r>   -2.7365    1.0000 </r>
       <r>   -2.6444    1.0000 </r>
       <r>   -1.9737    1.0000 </r>
       <r>   -0.3213    1.0000 </r>
       <r>   -0.2937    1.0000 </r>
       <r>   -0.2804    1.0000 </r>
       <r>   10.9618    0.0000 </r>
       <r>   11.7848    0.0000 </r>
       <r>   12.3611    0.0000 </r>
       <r>   12.7464    0.0000 </r>
       <r>   13.0235    0.0000 </r>
       <r>   16.3247    0.0000 </r>
      </set>
      <set comment="kpoint 14">
       <r>  -11.6813    1.0000 </r>
       <r>  -11.4592    1.0000 </r>
       <r>   -6.0562    1.0000 </r>
       <r>   -5.9178    1.0000 </r>
       <r>   -1.3433    1.0000 </r>
       <r>   -1.2921    1.0000 </r>
       <r>    0.1113    1.0000 </r>
       <r>    1.5529    1.0000 </r>
       <r>    8.1343    0.0000 </r>
       <r>    9.0595    0.0000 </r>
       <r>   12.1864    0.0000 </r>
       <r>   12.4906    0.0000 </r>
       <r>   13.3107    0.0000 </r>
       <r>   17.7414    0.0000 </r>
      </set>
      <set comment="kpoint 15">
       <r>   -9.6241    1.0000 </r>
       <r>   -9.5225    1.0000 </r>
       <r>   -8.5651    1.0000 </r>
       <r>   -8.4886    1.0000 </r>
       <r>   -1.7088    1.0000 </r>
       <r>   -1.6558    1.0000 </r>
       <r>    1.9797    1.0000 </r>
       <r>    2.6256    1.0000 </r>
       <r>    6.2481    0.0000 </r>
       <r>    6.8733    0.0000 </r>
       <r>   11.9867    0.0000 </r>
       <r>   12.3565    0.0000 </r>
       <r>   16.1782    0.0000 </r>
       <r>   16.2604    0.0000 </r>
      </set>
      <set comment="kpoint 16">
       <r>  -13.8594    1.0000 </r>
       <r>  -13.6011    1.0000 </r>
       <r>   -2.4126    1.0000 </r>
       <r>   -1.5025    1.0000 </r>
       <r>   -1.4625    1.0000 </r>
       <r>   -0.6989    1.0000 </r>
       <r>   -0.4147    1.0000 </r>
       <r>   -0.3887    1.0000 </r>
       <r>   10.5338    0.0000 </r>
       <r>   12.8451    0.0000 </r>
       <r>   13.2256    0.0000 </r>
       <r>   13.9728    0.0000 </r>
       <r>   14.1341    0.0000 </r>
       <r>   15.6631    0.0000 </r>
      </set>
      <set comment="kpoint 17">
       <r>  -12.3981    1.0000 </r>
       <r>  -12.1642    1.0000 </r>
       <r>   -4.3356    1.0000 </r>
       <r>   -4.2334    1.0000 </r>
       <r>   -1.9568    1.0000 </r>
       <r>   -1.8965    1.0000 </r>
       <r>   -0.6860    1.0000 </r>
       <r>    0.8835    1.0000 </r>
       <r>    9.6743    0.0000 </r>
       <r>   10.3057    0.0000 </r>
       <r>   12.3216    0.0000 </r>
       <r>   13.9576    0.0000 </r>
       <r>   14.3133    0.0000 </r>
       <r>   16.8522    0.0000 </r>
      </set>
      <set comment="kpoint 18">
       <r>  -10.3020    1.0000 </r>
       <r>  -10.1086    1.0000 </r>
       <r>   -7.3728    1.0000 </r>
       <r>   -7.2255    1.0000 </r>
       <r>   -2.7340    1.0000 </r>
       <r>   -2.6608    1.0000 </r>
       <r>    1.5968    1.0000 </r>
       <r>    2.7086    1.0000 </r>
       <r>    6.6723    0.0000 </r>
       <r>    7.4174    0.0000 </r>
       <r>   13.5623    0.0000 </r>
       <r>   13.9618    0.0000 </r>
       <r>   14.9455    0.0000 </r>
       <r>   17.4340    0.0000 </r>
      </set>
      <set comment="kpoint 19">
       <r>  -10.6345    1.0000 </r>
       <r>  -10.4321    1.0000 </r>
       <r>   -5.8422    1.0000 </r>
       <r>   -5.7714    1.0000 </r>
       <r>   -4.2615    1.0000 </r>
       <r>   -4.2064    1.0000 </r>
       <r>    1.3406    1.0000 </r>
       <r>    2.6784    1.0000 </r>
       <r>    7.2918    0.0000 </r>
       <r>    7.8550    0.0000 </r>
       <r>   14.4279    0.0000 </r>
       <r>   16.3435    0.0000 </r>
       <r>   16.8846    0.0000 </r>
       <r>   16.9167    0.0000 </r>
      </set>
      <set comment="kpoint 20">
       <r>   -8.6687    1.0000 </r>
       <r>   -8.5736    1.0000 </r>
       <r>   -7.7559    1.0000 </r>
       <r>   -7.7139    1.0000 </r>
       <r>   -5.0695    1.0000 </r>
       <r>   -4.9737    1.0000 </r>
       <r>    3.3236    1.0000 </r>
       <r>    3.9356    0.9808 </r>
       <r>    5.7130    0.0000 </r>
       <r>    5.8704    0.0000 </r>
       <r>   15.8982    0.0000 </r>
       <r>   15.9875    0.0000 </r>
       <r>   16.5731    0.0000 </r>
       <r>   17.1330    0.0000 </r>
      </set>
      <set comment="kpoint 21">
       <r>  -14.9439    1.0000 </r>
       <r>  -14.7325    1.0000 </r>
       <r>   -3.5747    1.0000 </r>
       <r>   -2.2075    1.0000 </r>
       <r>    1.7135    1.0000 </r>
       <r>    1.7135    1.0000 </r>
       <r>    1.7223    1.0000 </r>
       <r>    1.7223    1.0000 </r>
       <r>    9.7322    0.0000 </r>
       <r>   13.1435    0.0000 </r>
       <r>   13.1435    0.0000 </r>
       <r>   13.1749    0.0000 </r>
       <r>   13.1749    0.0000 </r>
       <r>   13.9889    0.0000 </r>
      </set>
      <set comment="kpoint 22">
       <r>  -14.5713    1.0000 </r>
       <r>  -14.3645    1.0000 </r>
       <r>   -3.1280    1.0000 </r>
       <r>   -1.7787    1.0000 </r>
       <r>    0.3120    1.0000 </r>
       <r>    0.3441    1.0000 </r>
       <r>    0.9970    1.0000 </r>
       <r>    1.0226    1.0000 </r>
       <r>   10.1721    0.0000 </r>
       <r>   13.1660    0.0000 </r>
       <r>   13.2682    0.0000 </r>
       <r>   14.3714    0.0000 </r>
       <r>   14.6652    0.0000 </r>
       <r>   14.6929    0.0000 </r>
      </set>
      <set comment="kpoint 23">
       <r>  -13.4626    1.0000 </r>
       <r>  -13.2695    1.0000 </r>
       <r>   -2.7256    1.0000 </r>
       <r>   -2.6583    1.0000 </r>
       <r>   -1.8020    1.0000 </r>
       <r>   -0.5197    1.0000 </r>
       <r>   -0.3177    1.0000 </r>
       <r>   -0.2850    1.0000 </r>
       <r>   11.4059    0.0000 </r>
       <r>   11.8959    0.0000 </r>
       <r>   12.2640    0.0000 </r>
       <r>   12.7737    0.0000 </r>
       <r>   13.0259    0.0000 </r>
       <r>   15.5105    0.0000 </r>
      </set>
      <set comment="kpoint 24">
       <r>  -11.6564    1.0000 </r>
       <r>  -11.4862    1.0000 </r>
       <r>   -6.0403    1.0000 </r>
       <r>   -5.9333    1.0000 </r>
       <r>   -1.3323    1.0000 </r>
       <r>   -1.2978    1.0000 </r>
       <r>    0.2668    1.0000 </r>
       <r>    1.3659    1.0000 </r>
       <r>    8.2164    0.0000 </r>
       <r>    8.9206    0.0000 </r>
       <r>   12.2293    0.0000 </r>
       <r>   12.4663    0.0000 </r>
       <r>   13.7741    0.0000 </r>
       <r>   17.1176    0.0000 </r>
      </set>
      <set comment="kpoint 25">
       <r>   -9.6116    1.0000 </r>
       <r>   -9.5326    1.0000 </r>
       <r>   -8.5594    1.0000 </r>
       <r>   -8.5008    1.0000 </r>
       <r>   -1.6978    1.0000 </r>
       <r>   -1.6622    1.0000 </r>
       <r>    2.0740    1.0000 </r>
       <r>    2.5775    1.0000 </r>
       <r>    6.2433    0.0000 </r>
       <r>    6.7306    0.0000 </r>
       <r>   12.0275    0.0000 </r>
       <r>   12.3100    0.0000 </r>
       <r>   16.5566    0.0000 </r>
       <r>   16.5890    0.0000 </r>
      </set>
      <set comment="kpoint 26">
       <r>  -13.8306    1.0000 </r>
       <r>  -13.6330    1.0000 </r>
       <r>   -2.2401    1.0000 </r>
       <r>   -1.4979    1.0000 </r>
       <r>   -1.4673    1.0000 </r>
       <r>   -0.9316    1.0000 </r>
       <r>   -0.4089    1.0000 </r>
       <r>   -0.3909    1.0000 </r>
       <r>   11.0566    0.0000 </r>
       <r>   12.8796    0.0000 </r>
       <r>   13.1745    0.0000 </r>
       <r>   13.9729    0.0000 </r>
       <r>   14.1463    0.0000 </r>
       <r>   15.1071    0.0000 </r>
      </set>
      <set comment="kpoint 27">
       <r>  -12.3718    1.0000 </r>
       <r>  -12.1929    1.0000 </r>
       <r>   -4.3238    1.0000 </r>
       <r>   -4.2440    1.0000 </r>
       <r>   -1.9501    1.0000 </r>
       <r>   -1.9035    1.0000 </r>
       <r>   -0.5236    1.0000 </r>
       <r>    0.6758    1.0000 </r>
       <r>    9.7421    0.0000 </r>
       <r>   10.2274    0.0000 </r>
       <r>   12.7884    0.0000 </r>
       <r>   13.9860    0.0000 </r>
       <r>   14.2942    0.0000 </r>
       <r>   16.2297    0.0000 </r>
      </set>
      <set comment="kpoint 28">
       <r>  -10.2800    1.0000 </r>
       <r>  -10.1320    1.0000 </r>
       <r>   -7.3559    1.0000 </r>
       <r>   -7.2443    1.0000 </r>
       <r>   -2.7259    1.0000 </r>
       <r>   -2.6705    1.0000 </r>
       <r>    1.7243    1.0000 </r>
       <r>    2.5786    1.0000 </r>
       <r>    6.7196    0.0000 </r>
       <r>    7.3017    0.0000 </r>
       <r>   13.6054    0.0000 </r>
       <r>   13.9101    0.0000 </r>
       <r>   15.2834    0.0000 </r>
       <r>   17.1025    0.0000 </r>
      </set>
      <set comment="kpoint 29">
       <r>  -10.6116    1.0000 </r>
       <r>  -10.4569    1.0000 </r>
       <r>   -5.8334    1.0000 </r>
       <r>   -5.7791    1.0000 </r>
       <r>   -4.2566    1.0000 </r>
       <r>   -4.2142    1.0000 </r>
       <r>    1.4823    1.0000 </r>
       <r>    2.5079    1.0000 </r>
       <r>    7.3559    0.0000 </r>
       <r>    7.7868    0.0000 </r>
       <r>   14.6620    0.0000 </r>
       <r>   15.9833    0.0000 </r>
       <r>   16.9405    0.0000 </r>
       <r>   17.0852    0.0000 </r>
      </set>
      <set comment="kpoint 30">
       <r>   -8.6556    1.0000 </r>
       <r>   -8.5826    1.0000 </r>
       <r>   -7.7542    1.0000 </r>
       <r>   -7.7212    1.0000 </r>
       <r>   -5.0588    1.0000 </r>
       <r>   -4.9852    1.0000 </r>
       <r>    3.4190    1.0000 </r>
       <r>    3.8990    1.0278 </r>
       <r>    5.6947    0.0000 </r>
       <r>    5.7999    0.0000 </r>
       <r>   15.4853    0.0000 </r>
       <r>   15.6122    0.0000 </r>
       <r>   16.7754    0.0000 </r>
       <r>   17.5119    0.0000 </r>
      </set>
      <set comment="kpoint 31">
       <r>  -14.8971    1.0000 </r>
       <r>  -14.7828    1.0000 </r>
       <r>   -3.2988    1.0000 </r>
       <r>   -2.5603    1.0000 </r>
       <r>    1.7137    1.0000 </r>
       <r>    1.7137    1.0000 </r>
       <r>    1.7191    1.0000 </r>
       <r>    1.7191    1.0000 </r>
       <r>   10.5776    0.0000 </r>
       <r>   12.8039    0.0000 </r>
       <r>   13.1450    0.0000 </r>
       <r>   13.1450    0.0000 </r>
       <r>   13.1652    0.0000 </r>
       <r>   13.1652    0.0000 </r>
      </set>
      <set comment="kpoint 32">
       <r>  -14.5254    1.0000 </r>
       <r>  -14.4136    1.0000 </r>
       <r>   -2.8498    1.0000 </r>
       <r>   -2.1242    1.0000 </r>
       <r>    0.3180    1.0000 </r>
       <r>    0.3385    1.0000 </r>
       <r>    1.0055    1.0000 </r>
       <r>    1.0176    1.0000 </r>
       <r>   11.0003    0.0000 </r>
       <r>   13.0264    0.0000 </r>
       <r>   13.2565    0.0000 </r>
       <r>   13.3926    0.0000 </r>
       <r>   14.6691    0.0000 </r>
       <r>   14.6950    0.0000 </r>
      </set>
      <set comment="kpoint 33">
       <r>  -13.4195    1.0000 </r>
       <r>  -13.3153    1.0000 </r>
       <r>   -2.7120    1.0000 </r>
       <r>   -2.6752    1.0000 </r>
       <r>   -1.5352    1.0000 </r>
       <r>   -0.8474    1.0000 </r>
       <r>   -0.3143    1.0000 </r>
       <r>   -0.2969    1.0000 </r>
       <r>   11.7866    0.0000 </r>
       <r>   12.1302    0.0000 </r>
       <r>   12.3387    0.0000 </r>
       <r>   12.8009    0.0000 </r>
       <r>   13.0567    0.0000 </r>
       <r>   14.4882    0.0000 </r>
      </set>
      <set comment="kpoint 34">
       <r>  -11.6187    1.0000 </r>
       <r>  -11.5263    1.0000 </r>
       <r>   -6.0146    1.0000 </r>
       <r>   -5.9586    1.0000 </r>
       <r>   -1.3240    1.0000 </r>
       <r>   -1.3063    1.0000 </r>
       <r>    0.5024    1.0000 </r>
       <r>    1.0924    1.0000 </r>
       <r>    8.3529    0.0000 </r>
       <r>    8.7365    0.0000 </r>
       <r>   12.2877    0.0000 </r>
       <r>   12.4170    0.0000 </r>
       <r>   14.4847    0.0000 </r>
       <r>   16.2739    0.0000 </r>
      </set>
      <set comment="kpoint 35">
       <r>   -9.5913    1.0000 </r>
       <r>   -9.5484    1.0000 </r>
       <r>   -8.5484    1.0000 </r>
       <r>   -8.5168    1.0000 </r>
       <r>   -1.6866    1.0000 </r>
       <r>   -1.6654    1.0000 </r>
       <r>    2.2171    1.0000 </r>
       <r>    2.4916    1.0000 </r>
       <r>    6.2863    0.0000 </r>
       <r>    6.5594    0.0000 </r>
       <r>   12.0904    0.0000 </r>
       <r>   12.2446    0.0000 </r>
       <r>   16.9771    0.0000 </r>
       <r>   17.1480    0.0000 </r>
      </set>
      <set comment="kpoint 36">
       <r>  -13.7868    1.0000 </r>
       <r>  -13.6799    1.0000 </r>
       <r>   -1.9683    1.0000 </r>
       <r>   -1.4910    1.0000 </r>
       <r>   -1.4741    1.0000 </r>
       <r>   -1.2654    1.0000 </r>
       <r>   -0.4049    1.0000 </r>
       <r>   -0.3961    1.0000 </r>
       <r>   11.8491    0.0000 </r>
       <r>   12.9337    0.0000 </r>
       <r>   13.0925    0.0000 </r>
       <r>   13.7611    0.0000 </r>
       <r>   14.1456    0.0000 </r>
       <r>   14.2854    0.0000 </r>
      </set>
      <set comment="kpoint 37">
       <r>  -12.3321    1.0000 </r>
       <r>  -12.2355    1.0000 </r>
       <r>   -4.3044    1.0000 </r>
       <r>   -4.2625    1.0000 </r>
       <r>   -1.9429    1.0000 </r>
       <r>   -1.9130    1.0000 </r>
       <r>   -0.2719    1.0000 </r>
       <r>    0.3733    1.0000 </r>
       <r>    9.8421    0.0000 </r>
       <r>   10.1088    0.0000 </r>
       <r>   13.4549    0.0000 </r>
       <r>   14.0181    0.0000 </r>
       <r>   14.2938    0.0000 </r>
       <r>   15.4026    0.0000 </r>
      </set>
      <set comment="kpoint 38">
       <r>  -10.2471    1.0000 </r>
       <r>  -10.1667    1.0000 </r>
       <r>   -7.3306    1.0000 </r>
       <r>   -7.2702    1.0000 </r>
       <r>   -2.7154    1.0000 </r>
       <r>   -2.6842    1.0000 </r>
       <r>    1.9195    1.0000 </r>
       <r>    2.3847    1.0000 </r>
       <r>    6.8182    0.0000 </r>
       <r>    7.1376    0.0000 </r>
       <r>   13.6690    0.0000 </r>
       <r>   13.8346    0.0000 </r>
       <r>   15.7518    0.0000 </r>
       <r>   16.7183    0.0000 </r>
      </set>
      <set comment="kpoint 39">
       <r>  -10.5774    1.0000 </r>
       <r>  -10.4935    1.0000 </r>
       <r>   -5.8197    1.0000 </r>
       <r>   -5.7904    1.0000 </r>
       <r>   -4.2486    1.0000 </r>
       <r>   -4.2258    1.0000 </r>
       <r>    1.7000    1.0000 </r>
       <r>    2.2519    1.0000 </r>
       <r>    7.4526    0.0000 </r>
       <r>    7.6844    0.0000 </r>
       <r>   14.9600    0.0000 </r>
       <r>   15.6207    0.0000 </r>
       <r>   17.1166    0.0000 </r>
       <r>   17.1971    0.0000 </r>
      </set>
      <set comment="kpoint 40">
       <r>   -8.6368    1.0000 </r>
       <r>   -8.5973    1.0000 </r>
       <r>   -7.7484    1.0000 </r>
       <r>   -7.7301    1.0000 </r>
       <r>   -5.0435    1.0000 </r>
       <r>   -5.0044    1.0000 </r>
       <r>    3.5598    1.0000 </r>
       <r>    3.8257    1.0001 </r>
       <r>    5.6767    0.0000 </r>
       <r>    5.7206    0.0000 </r>
       <r>   15.2472    0.0000 </r>
       <r>   15.3305    0.0000 </r>
       <r>   17.0167    0.0000 </r>
       <r>   17.4009    0.0000 </r>
      </set>
      <set comment="kpoint 41">
       <r>  -14.8407    1.0000 </r>
       <r>  -14.8407    1.0000 </r>
       <r>   -2.9432    1.0000 </r>
       <r>   -2.9432    1.0000 </r>
       <r>    1.7162    1.0000 </r>
       <r>    1.7162    1.0000 </r>
       <r>    1.7162    1.0000 </r>
       <r>    1.7162    1.0000 </r>
       <r>   11.6326    0.0000 </r>
       <r>   11.6326    0.0000 </r>
       <r>   13.1548    0.0000 </r>
       <r>   13.1548    0.0000 </r>
       <r>   13.1548    0.0000 </r>
       <r>   13.1548    0.0000 </r>
      </set>
      <set comment="kpoint 42">
       <r>  -14.4702    1.0000 </r>
       <r>  -14.4702    1.0000 </r>
       <r>   -2.4985    1.0000 </r>
       <r>   -2.4985    1.0000 </r>
       <r>    0.3309    1.0000 </r>
       <r>    0.3309    1.0000 </r>
       <r>    1.0108    1.0000 </r>
       <r>    1.0108    1.0000 </r>
       <r>   12.0291    0.0000 </r>
       <r>   12.0291    0.0000 </r>
       <r>   13.2626    0.0000 </r>
       <r>   13.2626    0.0000 </r>
       <r>   14.6858    0.0000 </r>
       <r>   14.6858    0.0000 </r>
      </set>
      <set comment="kpoint 43">
       <r>  -13.3679    1.0000 </r>
       <r>  -13.3679    1.0000 </r>
       <r>   -2.6931    1.0000 </r>
       <r>   -2.6931    1.0000 </r>
       <r>   -1.2050    1.0000 </r>
       <r>   -1.2050    1.0000 </r>
       <r>   -0.3062    1.0000 </r>
       <r>   -0.3062    1.0000 </r>
       <r>   11.9699    0.0000 </r>
       <r>   11.9699    0.0000 </r>
       <r>   12.7749    0.0000 </r>
       <r>   12.7749    0.0000 </r>
       <r>   13.5022    0.0000 </r>
       <r>   13.5022    0.0000 </r>
      </set>
      <set comment="kpoint 44">
       <r>  -11.5733    1.0000 </r>
       <r>  -11.5733    1.0000 </r>
       <r>   -5.9873    1.0000 </r>
       <r>   -5.9873    1.0000 </r>
       <r>   -1.3172    1.0000 </r>
       <r>   -1.3172    1.0000 </r>
       <r>    0.7885    1.0000 </r>
       <r>    0.7885    1.0000 </r>
       <r>    8.5374    0.0000 </r>
       <r>    8.5374    0.0000 </r>
       <r>   12.3524    0.0000 </r>
       <r>   12.3524    0.0000 </r>
       <r>   15.3509    0.0000 </r>
       <r>   15.3509    0.0000 </r>
      </set>
      <set comment="kpoint 45">
       <r>   -9.5695    1.0000 </r>
       <r>   -9.5695    1.0000 </r>
       <r>   -8.5364    1.0000 </r>
       <r>   -8.5364    1.0000 </r>
       <r>   -1.6777    1.0000 </r>
       <r>   -1.6777    1.0000 </r>
       <r>    2.3548    1.0000 </r>
       <r>    2.3548    1.0000 </r>
       <r>    6.3902    0.0000 </r>
       <r>    6.3902    0.0000 </r>
       <r>   12.1643    0.0000 </r>
       <r>   12.1643    0.0000 </r>
       <r>   17.3449    0.0000 </r>
       <r>   17.3449    0.0000 </r>
      </set>
      <set comment="kpoint 46">
       <r>  -13.7339    1.0000 </r>
       <r>  -13.7339    1.0000 </r>
       <r>   -1.6302    1.0000 </r>
       <r>   -1.6302    1.0000 </r>
       <r>   -1.4833    1.0000 </r>
       <r>   -1.4833    1.0000 </r>
       <r>   -0.4042    1.0000 </r>
       <r>   -0.4042    1.0000 </r>
       <r>   12.8132    0.0000 </r>
       <r>   12.8132    0.0000 </r>
       <r>   13.0171    0.0000 </r>
       <r>   13.0171    0.0000 </r>
       <r>   14.1494    0.0000 </r>
       <r>   14.1494    0.0000 </r>
      </set>
      <set comment="kpoint 47">
       <r>  -12.2842    1.0000 </r>
       <r>  -12.2842    1.0000 </r>
       <r>   -4.2840    1.0000 </r>
       <r>   -4.2840    1.0000 </r>
       <r>   -1.9297    1.0000 </r>
       <r>   -1.9297    1.0000 </r>
       <r>    0.0410    1.0000 </r>
       <r>    0.0410    1.0000 </r>
       <r>    9.9672    0.0000 </r>
       <r>    9.9672    0.0000 </r>
       <r>   13.9686    0.0000 </r>
       <r>   13.9686    0.0000 </r>
       <r>   14.5901    0.0000 </r>
       <r>   14.5901    0.0000 </r>
      </set>
      <set comment="kpoint 48">
       <r>  -10.2072    1.0000 </r>
       <r>  -10.2072    1.0000 </r>
       <r>   -7.3006    1.0000 </r>
       <r>   -7.3006    1.0000 </r>
       <r>   -2.7012    1.0000 </r>
       <r>   -2.7012    1.0000 </r>
       <r>    2.1481    1.0000 </r>
       <r>    2.1481    1.0000 </r>
       <r>    6.9616    0.0000 </r>
       <r>    6.9616    0.0000 </r>
       <r>   13.7487    0.0000 </r>
       <r>   13.7487    0.0000 </r>
       <r>   16.2555    0.0000 </r>
       <r>   16.2555    0.0000 </r>
      </set>
      <set comment="kpoint 49">
       <r>  -10.5357    1.0000 </r>
       <r>  -10.5357    1.0000 </r>
       <r>   -5.8046    1.0000 </r>
       <r>   -5.8046    1.0000 </r>
       <r>   -4.2364    1.0000 </r>
       <r>   -4.2364    1.0000 </r>
       <r>    1.9707    1.0000 </r>
       <r>    1.9707    1.0000 </r>
       <r>    7.5735    0.0000 </r>
       <r>    7.5735    0.0000 </r>
       <r>   15.2818    0.0000 </r>
       <r>   15.2818    0.0000 </r>
       <r>   17.2414    0.0000 </r>
       <r>   17.2417    0.0000 </r>
      </set>
      <set comment="kpoint 50">
       <r>   -8.6162    1.0000 </r>
       <r>   -8.6162    1.0000 </r>
       <r>   -7.7405    1.0000 </r>
       <r>   -7.7405    1.0000 </r>
       <r>   -5.0239    1.0000 </r>
       <r>   -5.0239    1.0000 </r>
       <r>    3.7031    1.0000 </r>
       <r>    3.7031    1.0000 </r>
       <r>    5.6801    0.0000 </r>
       <r>    5.6801    0.0000 </r>
       <r>   15.1994    0.0000 </r>
       <r>   15.1994    0.0000 </r>
       <r>   17.2333    0.0000 </r>
       <r>   17.2333    0.0000 </r>
      </set>
     </set>
    </set>
   </array>
  </eigenvalues>
  <separator name="orbital magnetization" >
   <v name="MAGDIPOLOUT">      0.00000000      0.00000000      0.00000000</v>
  </separator>
  <dos>
   <i name="efermi">      3.97385203 </i>
   <total>
    <array>
     <dimension dim="1">gridpoints</dimension>
     <dimension dim="2">spin</dimension>
     <field>energy</field>
     <field>total</field>
[...]
       </set>
       <set comment="band 10">
        <r>  0.0004  0.0002  0.0000  0.0008  0.0000  0.0000  0.0000  0.0000  0.0000 </r>
        <r>  0.0000  0.0000  0.0000  0.0005  0.0000  0.0000  0.0000  0.0000  0.0000 </r>
        <r>  0.0000  0.0000  0.2836  0.0000  0.0000  0.0000  0.0000  0.0000  0.0000 </r>
        <r>  0.0000  0.0000  0.2866  0.0000  0.0000  0.0000  0.0000  0.0000  0.0000 </r>
       </set>
       <set comment="band 11">
        <r>  0.0568  0.0304  0.0000  0.0860  0.0000  0.0000  0.0000  0.0000  0.0000 </r>
        <r>  0.0672  0.0378  0.0000  0.0899  0.0000  0.0000  0.0000  0.0000  0.0000 </r>
        <r>  0.0000  0.0000  0.0224  0.0000  0.0000  0.0000  0.0000  0.0000  0.0000 </r>
        <r>  0.0000  0.0000  0.0092  0.0000  0.0000  0.0000  0.0000  0.0000  0.0000 </r>
       </set>
       <set comment="band 12">
        <r>  0.0000  0.0000  0.0092  0.0000  0.0000  0.0000  0.0000  0.0000  0.0000 </r>
        <r>  0.0000  0.0000  0.0224  0.0000  0.0000  0.0000  0.0000  0.0000  0.0000 </r>
        <r>  0.0672  0.0378  0.0000  0.0899  0.0000  0.0000  0.0000  0.0000  0.0000 </r>
        <r>  0.0568  0.0304  0.0000  0.0860  0.0000  0.0000  0.0000  0.0000  0.0000 </r>
       </set>
       <set comment="band 13">
        <r>  0.0705  0.0113  0.0000  0.0113  0.0000  0.0000  0.0000  0.0000  0.0000 </r>
        <r>  0.0595  0.0056  0.0000  0.0106  0.0000  0.0000  0.0000  0.0000  0.0000 </r>
        <r>  0.0000  0.0000  0.0440  0.0000  0.0000  0.0000  0.0000  0.0000  0.0000 </r>
        <r>  0.0000  0.0000  0.0537  0.0000  0.0000  0.0000  0.0000  0.0000  0.0000 </r>
       </set>
       <set comment="band 14">
        <r>  0.0000  0.0000  0.0537  0.0000  0.0000  0.0000  0.0000  0.0000  0.0000 </r>
        <r>  0.0000  0.0000  0.0440  0.0000  0.0000  0.0000  0.0000  0.0000  0.0000 </r>
        <r>  0.0595  0.0056  0.0000  0.0106  0.0000  0.0000  0.0000  0.0000  0.0000 </r>
        <r>  0.0705  0.0113  0.0000  0.0113  0.0000  0.0000  0.0000  0.0000  0.0000 </r>
       </set>
      </set>
      <set comment="kpoint 48">
       <set comment="band 1">
        <r>  0.2631  0.0421  0.0000  0.0444  0.0000  0.0000  0.0000  0.0000  0.0000 </r>
        <r>  0.2641  0.0420  0.0000  0.0442  0.0000  0.0000  0.0000  0.0000  0.0000 </r>
        <r>  0.0000  0.0000  0.0000  0.0000  0.0000  0.0000  0.0000  0.0000  0.0000 </r>
        <r>  0.0000  0.0000  0.0000  0.0000  0.0000  0.0000  0.0000  0.0000  0.0000 </r>
       </set>
       <set comment="band 2">
        <r>  0.0000  0.0000  0.0000  0.0000  0.0000  0.0000  0.0000  0.0000  0.0000 </r>
        <r>  0.0000  0.0000  0.0000  0.0000  0.0000  0.0000  0.0000  0.0000  0.0000 </r>
        <r>  0.2641  0.0420  0.0000  0.0442  0.0000  0.0000  0.0000  0.0000  0.0000 </r>
        <r>  0.2631  0.0421  0.0000  0.0444  0.0000  0.0000  0.0000  0.0000  0.0000 </r>
       </set>
       <set comment="band 3">
        <r>  0.1695  0.0294  0.0000  0.1557  0.0000  0.0000  0.0000  0.0000  0.0000 </r>
        <r>  0.1688  0.0297  0.0000  0.1562  0.0000  0.0000  0.0000  0.0000  0.0000 </r>
        <r>  0.0000  0.0000  0.0000  0.0000  0.0000  0.0000  0.0000  0.0000  0.0000 </r>
        <r>  0.0000  0.0000  0.0000  0.0000  0.0000  0.0000  0.0000  0.0000  0.0000 </r>
       </set>
       <set comment="band 4">
        <r>  0.0000  0.0000  0.0000  0.0000  0.0000  0.0000  0.0000  0.0000  0.0000 </r>
        <r>  0.0000  0.0000  0.0000  0.0000  0.0000  0.0000  0.0000  0.0000  0.0000 </r>
        <r>  0.1688  0.0297  0.0000  0.1562  0.0000  0.0000  0.0000  0.0000  0.0000 </r>
        <r>  0.1695  0.0294  0.0000  0.1557  0.0000  0.0000  0.0000  0.0000  0.0000 </r>
       </set>
       <set comment="band 5">
        <r>  0.0276  0.2613  0.0000  0.0892  0.0000  0.0000  0.0000  0.0000  0.0000 </r>
        <r>  0.0275  0.2616  0.0000  0.0893  0.0000  0.0000  0.0000  0.0000  0.0000 </r>
        <r>  0.0000  0.0000  0.0000  0.0000  0.0000  0.0000  0.0000  0.0000  0.0000 </r>
        <r>  0.0000  0.0000  0.0000  0.0000  0.0000  0.0000  0.0000  0.0000  0.0000 </r>
       </set>
       <set comment="band 6">
        <r>  0.0000  0.0000  0.0000  0.0000  0.0000  0.0000  0.0000  0.0000  0.0000 </r>
        <r>  0.0000  0.0000  0.0000  0.0000  0.0000  0.0000  0.0000  0.0000  0.0000 </r>
        <r>  0.0275  0.2616  0.0000  0.0893  0.0000  0.0000  0.0000  0.0000  0.0000 </r>
        <r>  0.0276  0.2613  0.0000  0.0892  0.0000  0.0000  0.0000  0.0000  0.0000 </r>
       </set>
       <set comment="band 7">
        <r>  0.0000  0.0000  0.2465  0.0000  0.0000  0.0000  0.0000  0.0000  0.0000 </r>
        <r>  0.0000  0.0000  0.2485  0.0000  0.0000  0.0000  0.0000  0.0000  0.0000 </r>
        <r>  0.0007  0.0001  0.0000  0.0001  0.0000  0.0000  0.0000  0.0000  0.0000 </r>
        <r>  0.0002  0.0003  0.0000  0.0005  0.0000  0.0000  0.0000  0.0000  0.0000 </r>
       </set>
       <set comment="band 8">
        <r>  0.0002  0.0003  0.0000  0.0005  0.0000  0.0000  0.0000  0.0000  0.0000 </r>
        <r>  0.0007  0.0001  0.0000  0.0001  0.0000  0.0000  0.0000  0.0000  0.0000 </r>
        <r>  0.0000  0.0000  0.2485  0.0000  0.0000  0.0000  0.0000  0.0000  0.0000 </r>
        <r>  0.0000  0.0000  0.2465  0.0000  0.0000  0.0000  0.0000  0.0000  0.0000 </r>
       </set>
       <set comment="band 9">
        <r>  0.0000  0.0000  0.2473  0.0000  0.0000  0.0000  0.0000  0.0000  0.0000 </r>
        <r>  0.0000  0.0000  0.2448  0.0000  0.0000  0.0000  0.0000  0.0000  0.0000 </r>
        <r>  0.0001  0.0002  0.0000  0.0007  0.0000  0.0000  0.0000  0.0000  0.0000 </r>
        <r>  0.0007  0.0001  0.0000  0.0004  0.0000  0.0000  0.0000  0.0000  0.0000 </r>
       </set>
       <set comment="band 10">
        <r>  0.0007  0.0001  0.0000  0.0004  0.0000  0.0000  0.0000  0.0000  0.0000 </r>
        <r>  0.0001  0.0002  0.0000  0.0007  0.0000  0.0000  0.0000  0.0000  0.0000 </r>
        <r>  0.0000  0.0000  0.2448  0.0000  0.0000  0.0000  0.0000  0.0000  0.0000 </r>
        <r>  0.0000  0.0000  0.2473  0.0000  0.0000  0.0000  0.0000  0.0000  0.0000 </r>
       </set>
       <set comment="band 11">
        <r>  0.1362  0.0400  0.0000  0.0546  0.0000  0.0000  0.0000  0.0000  0.0000 </r>
        <r>  0.1413  0.0431  0.0000  0.0580  0.0000  0.0000  0.0000  0.0000  0.0000 </r>
        <r>  0.0000  0.0000  0.0004  0.0000  0.0000  0.0000  0.0000  0.0000  0.0000 </r>
        <r>  0.0000  0.0000  0.0000  0.0000  0.0000  0.0000  0.0000  0.0000  0.0000 </r>
       </set>
       <set comment="band 12">
        <r>  0.0000  0.0000  0.0000  0.0000  0.0000  0.0000  0.0000  0.0000  0.0000 </r>
        <r>  0.0000  0.0000  0.0004  0.0000  0.0000  0.0000  0.0000  0.0000  0.0000 </r>
        <r>  0.1413  0.0431  0.0000  0.0580  0.0000  0.0000  0.0000  0.0000  0.0000 </r>
        <r>  0.1362  0.0400  0.0000  0.0546  0.0000  0.0000  0.0000  0.0000  0.0000 </r>
       </set>
       <set comment="band 13">
        <r>  0.0161  0.0109  0.0000  0.0034  0.0000  0.0000  0.0000  0.0000  0.0000 </r>
        <r>  0.0062  0.0111  0.0001  0.0112  0.0000  0.0000  0.0000  0.0000  0.0000 </r>
        <r>  0.0000  0.0000  0.0684  0.0000  0.0000  0.0000  0.0000  0.0000  0.0000 </r>
        <r>  0.0000  0.0000  0.0646  0.0000  0.0000  0.0000  0.0000  0.0000  0.0000 </r>
       </set>
       <set comment="band 14">
        <r>  0.0000  0.0000  0.0646  0.0000  0.0000  0.0000  0.0000  0.0000  0.0000 </r>
        <r>  0.0000  0.0000  0.0684  0.0000  0.0000  0.0000  0.0000  0.0000  0.0000 </r>
        <r>  0.0062  0.0111  0.0001  0.0112  0.0000  0.0000  0.0000  0.0000  0.0000 </r>
        <r>  0.0161  0.0109  0.0000  0.0034  0.0000  0.0000  0.0000  0.0000  0.0000 </r>
       </set>
      </set>
      <set comment="kpoint 49">
       <set comment="band 1">
        <r>  0.2602  0.0637  0.0000  0.0223  0.0000  0.0000  0.0000  0.0000  0.0000 </r>
        <r>  0.2610  0.0636  0.0000  0.0222  0.0000  0.0000  0.0000  0.0000  0.0000 </r>
        <r>  0.0000  0.0000  0.0000  0.0000  0.0000  0.0000  0.0000  0.0000  0.0000 </r>
        <r>  0.0000  0.0000  0.0000  0.0000  0.0000  0.0000  0.0000  0.0000  0.0000 </r>
       </set>
       <set comment="band 2">
        <r>  0.0000  0.0000  0.0000  0.0000  0.0000  0.0000  0.0000  0.0000  0.0000 </r>
        <r>  0.0000  0.0000  0.0000  0.0000  0.0000  0.0000  0.0000  0.0000  0.0000 </r>
        <r>  0.2610  0.0636  0.0000  0.0222  0.0000  0.0000  0.0000  0.0000  0.0000 </r>
        <r>  0.2602  0.0637  0.0000  0.0223  0.0000  0.0000  0.0000  0.0000  0.0000 </r>
       </set>
       <set comment="band 3">
        <r>  0.1921  0.1123  0.0000  0.0751  0.0000  0.0000  0.0000  0.0000  0.0000 </r>
        <r>  0.1917  0.1129  0.0000  0.0751  0.0000  0.0000  0.0000  0.0000  0.0000 </r>
        <r>  0.0000  0.0000  0.0000  0.0000  0.0000  0.0000  0.0000  0.0000  0.0000 </r>
        <r>  0.0000  0.0000  0.0000  0.0000  0.0000  0.0000  0.0000  0.0000  0.0000 </r>
       </set>
       <set comment="band 4">
        <r>  0.0000  0.0000  0.0000  0.0000  0.0000  0.0000  0.0000  0.0000  0.0000 </r>
        <r>  0.0000  0.0000  0.0000  0.0000  0.0000  0.0000  0.0000  0.0000  0.0000 </r>
        <r>  0.1917  0.1129  0.0000  0.0751  0.0000  0.0000  0.0000  0.0000  0.0000 </r>
        <r>  0.1921  0.1123  0.0000  0.0751  0.0000  0.0000  0.0000  0.0000  0.0000 </r>
       </set>
       <set comment="band 5">
        <r>  0.0250  0.1174  0.0000  0.2051  0.0000  0.0000  0.0000  0.0000  0.0000 </r>
        <r>  0.0248  0.1174  0.0000  0.2056  0.0000  0.0000  0.0000  0.0000  0.0000 </r>
        <r>  0.0000  0.0000  0.0000  0.0000  0.0000  0.0000  0.0000  0.0000  0.0000 </r>
        <r>  0.0000  0.0000  0.0000  0.0000  0.0000  0.0000  0.0000  0.0000  0.0000 </r>
       </set>
       <set comment="band 6">
        <r>  0.0000  0.0000  0.0000  0.0000  0.0000  0.0000  0.0000  0.0000  0.0000 </r>
        <r>  0.0000  0.0000  0.0000  0.0000  0.0000  0.0000  0.0000  0.0000  0.0000 </r>
        <r>  0.0248  0.1174  0.0000  0.2056  0.0000  0.0000  0.0000  0.0000  0.0000 </r>
        <r>  0.0250  0.1174  0.0000  0.2051  0.0000  0.0000  0.0000  0.0000  0.0000 </r>
       </set>
       <set comment="band 7">
        <r>  0.0000  0.0000  0.2408  0.0000  0.0000  0.0000  0.0000  0.0000  0.0000 </r>
        <r>  0.0000  0.0000  0.2427  0.0000  0.0000  0.0000  0.0000  0.0000  0.0000 </r>
        <r>  0.0008  0.0002  0.0000  0.0001  0.0000  0.0000  0.0000  0.0000  0.0000 </r>
        <r>  0.0004  0.0006  0.0000  0.0002  0.0000  0.0000  0.0000  0.0000  0.0000 </r>
       </set>
       <set comment="band 8">
        <r>  0.0004  0.0006  0.0000  0.0002  0.0000  0.0000  0.0000  0.0000  0.0000 </r>
        <r>  0.0008  0.0002  0.0000  0.0001  0.0000  0.0000  0.0000  0.0000  0.0000 </r>
        <r>  0.0000  0.0000  0.2427  0.0000  0.0000  0.0000  0.0000  0.0000  0.0000 </r>
        <r>  0.0000  0.0000  0.2408  0.0000  0.0000  0.0000  0.0000  0.0000  0.0000 </r>
       </set>
       <set comment="band 9">
        <r>  0.0000  0.0000  0.2766  0.0000  0.0000  0.0000  0.0000  0.0000  0.0000 </r>
        <r>  0.0000  0.0000  0.2741  0.0000  0.0000  0.0000  0.0000  0.0000  0.0000 </r>
        <r>  0.0001  0.0002  0.0000  0.0002  0.0000  0.0000  0.0000  0.0000  0.0000 </r>
        <r>  0.0000  0.0002  0.0000  0.0007  0.0000  0.0000  0.0000  0.0000  0.0000 </r>
       </set>
       <set comment="band 10">
        <r>  0.0000  0.0002  0.0000  0.0007  0.0000  0.0000  0.0000  0.0000  0.0000 </r>
        <r>  0.0001  0.0002  0.0000  0.0002  0.0000  0.0000  0.0000  0.0000  0.0000 </r>
        <r>  0.0000  0.0000  0.2741  0.0000  0.0000  0.0000  0.0000  0.0000  0.0000 </r>
        <r>  0.0000  0.0000  0.2766  0.0000  0.0000  0.0000  0.0000  0.0000  0.0000 </r>
       </set>
       <set comment="band 11">
        <r>  0.0000  0.0015  0.0261  0.0009  0.0000  0.0000  0.0000  0.0000  0.0000 </r>
        <r>  0.0012  0.0087  0.0301  0.0071  0.0000  0.0000  0.0000  0.0000  0.0000 </r>
        <r>  0.0034  0.0248  0.0106  0.0201  0.0000  0.0000  0.0000  0.0000  0.0000 </r>
        <r>  0.0001  0.0041  0.0092  0.0026  0.0000  0.0000  0.0000  0.0000  0.0000 </r>
       </set>
       <set comment="band 12">
        <r>  0.0001  0.0041  0.0092  0.0026  0.0000  0.0000  0.0000  0.0000  0.0000 </r>
        <r>  0.0034  0.0248  0.0106  0.0201  0.0000  0.0000  0.0000  0.0000  0.0000 </r>
        <r>  0.0012  0.0087  0.0301  0.0071  0.0000  0.0000  0.0000  0.0000  0.0000 </r>
        <r>  0.0000  0.0015  0.0261  0.0009  0.0000  0.0000  0.0000  0.0000  0.0000 </r>
       </set>
       <set comment="band 13">
        <r>  0.0154  0.0813  0.0003  0.1619  0.0000  0.0000  0.0000  0.0000  0.0000 </r>
        <r>  0.0798  0.0211  0.0000  0.0575  0.0000  0.0000  0.0000  0.0000  0.0000 </r>
        <r>  0.0024  0.0006  0.0002  0.0015  0.0000  0.0000  0.0000  0.0000  0.0000 </r>
        <r>  0.0004  0.0025  0.0110  0.0047  0.0000  0.0000  0.0000  0.0000  0.0000 </r>
       </set>
       <set comment="band 14">
        <r>  0.0003  0.0024  0.0109  0.0049  0.0000  0.0000  0.0000  0.0000  0.0000 </r>
        <r>  0.0024  0.0005  0.0002  0.0015  0.0000  0.0000  0.0000  0.0000  0.0000 </r>
        <r>  0.0808  0.0214  0.0000  0.0554  0.0000  0.0000  0.0000  0.0000  0.0000 </r>
        <r>  0.0147  0.0833  0.0003  0.1619  0.0000  0.0000  0.0000  0.0000  0.0000 </r>
       </set>
      </set>
      <set comment="kpoint 50">
       <set comment="band 1">
        <r>  0.2685  0.0422  0.0000  0.0562  0.0000  0.0000  0.0000  0.0000  0.0000 </r>
        <r>  0.2721  0.0417  0.0000  0.0551  0.0000  0.0000  0.0000  0.0000  0.0000 </r>
        <r>  0.0000  0.0000  0.0000  0.0000  0.0000  0.0000  0.0000  0.0000  0.0000 </r>
        <r>  0.0000  0.0000  0.0000  0.0000  0.0000  0.0000  0.0000  0.0000  0.0000 </r>
       </set>
       <set comment="band 2">
        <r>  0.0000  0.0000  0.0000  0.0000  0.0000  0.0000  0.0000  0.0000  0.0000 </r>
        <r>  0.0000  0.0000  0.0000  0.0000  0.0000  0.0000  0.0000  0.0000  0.0000 </r>
        <r>  0.2721  0.0417  0.0000  0.0551  0.0000  0.0000  0.0000  0.0000  0.0000 </r>
        <r>  0.2685  0.0422  0.0000  0.0562  0.0000  0.0000  0.0000  0.0000  0.0000 </r>
       </set>
       <set comment="band 3">
        <r>  0.1816  0.0443  0.0000  0.1293  0.0000  0.0000  0.0000  0.0000  0.0000 </r>
        <r>  0.1783  0.0449  0.0000  0.1307  0.0000  0.0000  0.0000  0.0000  0.0000 </r>
        <r>  0.0000  0.0000  0.0000  0.0000  0.0000  0.0000  0.0000  0.0000  0.0000 </r>
        <r>  0.0000  0.0000  0.0000  0.0000  0.0000  0.0000  0.0000  0.0000  0.0000 </r>
       </set>
       <set comment="band 4">
        <r>  0.0000  0.0000  0.0000  0.0000  0.0000  0.0000  0.0000  0.0000  0.0000 </r>
        <r>  0.0000  0.0000  0.0000  0.0000  0.0000  0.0000  0.0000  0.0000  0.0000 </r>
        <r>  0.1783  0.0449  0.0000  0.1307  0.0000  0.0000  0.0000  0.0000  0.0000 </r>
        <r>  0.1816  0.0443  0.0000  0.1293  0.0000  0.0000  0.0000  0.0000  0.0000 </r>
       </set>
       <set comment="band 5">
        <r>  0.0420  0.2074  0.0000  0.0961  0.0000  0.0000  0.0000  0.0000  0.0000 </r>
        <r>  0.0418  0.2077  0.0000  0.0962  0.0000  0.0000  0.0000  0.0000  0.0000 </r>
        <r>  0.0000  0.0000  0.0000  0.0000  0.0000  0.0000  0.0000  0.0000  0.0000 </r>
        <r>  0.0000  0.0000  0.0000  0.0000  0.0000  0.0000  0.0000  0.0000  0.0000 </r>
       </set>
       <set comment="band 6">
        <r>  0.0000  0.0000  0.0000  0.0000  0.0000  0.0000  0.0000  0.0000  0.0000 </r>
        <r>  0.0000  0.0000  0.0000  0.0000  0.0000  0.0000  0.0000  0.0000  0.0000 </r>
        <r>  0.0418  0.2077  0.0000  0.0962  0.0000  0.0000  0.0000  0.0000  0.0000 </r>
        <r>  0.0420  0.2074  0.0000  0.0961  0.0000  0.0000  0.0000  0.0000  0.0000 </r>
       </set>
       <set comment="band 7">
        <r>  0.0000  0.0000  0.2562  0.0000  0.0000  0.0000  0.0000  0.0000  0.0000 </r>
        <r>  0.0000  0.0000  0.2618  0.0000  0.0000  0.0000  0.0000  0.0000  0.0000 </r>
        <r>  0.0005  0.0001  0.0000  0.0002  0.0000  0.0000  0.0000  0.0000  0.0000 </r>
        <r>  0.0000  0.0002  0.0000  0.0007  0.0000  0.0000  0.0000  0.0000  0.0000 </r>
       </set>
       <set comment="band 8">
        <r>  0.0000  0.0002  0.0000  0.0007  0.0000  0.0000  0.0000  0.0000  0.0000 </r>
        <r>  0.0005  0.0001  0.0000  0.0002  0.0000  0.0000  0.0000  0.0000  0.0000 </r>
        <r>  0.0000  0.0000  0.2618  0.0000  0.0000  0.0000  0.0000  0.0000  0.0000 </r>
        <r>  0.0000  0.0000  0.2562  0.0000  0.0000  0.0000  0.0000  0.0000  0.0000 </r>
       </set>
       <set comment="band 9">
        <r>  0.0000  0.0000  0.2617  0.0000  0.0000  0.0000  0.0000  0.0000  0.0000 </r>
        <r>  0.0000  0.0000  0.2558  0.0000  0.0000  0.0000  0.0000  0.0000  0.0000 </r>
        <r>  0.0002  0.0002  0.0000  0.0004  0.0000  0.0000  0.0000  0.0000  0.0000 </r>
        <r>  0.0002  0.0006  0.0000  0.0002  0.0000  0.0000  0.0000  0.0000  0.0000 </r>
       </set>
       <set comment="band 10">
        <r>  0.0002  0.0006  0.0000  0.0002  0.0000  0.0000  0.0000  0.0000  0.0000 </r>
        <r>  0.0002  0.0002  0.0000  0.0004  0.0000  0.0000  0.0000  0.0000  0.0000 </r>
        <r>  0.0000  0.0000  0.2558  0.0000  0.0000  0.0000  0.0000  0.0000  0.0000 </r>
        <r>  0.0000  0.0000  0.2617  0.0000  0.0000  0.0000  0.0000  0.0000  0.0000 </r>
       </set>
       <set comment="band 11">
        <r>  0.0000  0.0000  0.0111  0.0000  0.0000  0.0000  0.0000  0.0000  0.0000 </r>
        <r>  0.0000  0.0000  0.0112  0.0000  0.0000  0.0000  0.0000  0.0000  0.0000 </r>
        <r>  0.0036  0.0284  0.0000  0.0296  0.0000  0.0000  0.0000  0.0000  0.0000 </r>
        <r>  0.0005  0.0009  0.0000  0.0005  0.0000  0.0000  0.0000  0.0000  0.0000 </r>
       </set>
       <set comment="band 12">
        <r>  0.0005  0.0009  0.0000  0.0005  0.0000  0.0000  0.0000  0.0000  0.0000 </r>
        <r>  0.0036  0.0284  0.0000  0.0296  0.0000  0.0000  0.0000  0.0000  0.0000 </r>
        <r>  0.0000  0.0000  0.0112  0.0000  0.0000  0.0000  0.0000  0.0000  0.0000 </r>
        <r>  0.0000  0.0000  0.0111  0.0000  0.0000  0.0000  0.0000  0.0000  0.0000 </r>
       </set>
       <set comment="band 13">
        <r>  0.0793  0.1353  0.0000  0.0855  0.0000  0.0000  0.0000  0.0000  0.0000 </r>
        <r>  0.0802  0.0712  0.0000  0.0352  0.0000  0.0000  0.0000  0.0000  0.0000 </r>
        <r>  0.0000  0.0000  0.0104  0.0000  0.0000  0.0000  0.0000  0.0000  0.0000 </r>
        <r>  0.0000  0.0000  0.0046  0.0000  0.0000  0.0000  0.0000  0.0000  0.0000 </r>
       </set>
       <set comment="band 14">
        <r>  0.0000  0.0000  0.0046  0.0000  0.0000  0.0000  0.0000  0.0000  0.0000 </r>
        <r>  0.0000  0.0000  0.0104  0.0000  0.0000  0.0000  0.0000  0.0000  0.0000 </r>
        <r>  0.0802  0.0712  0.0000  0.0352  0.0000  0.0000  0.0000  0.0000  0.0000 </r>
        <r>  0.0793  0.1353  0.0000  0.0855  0.0000  0.0000  0.0000  0.0000  0.0000 </r>
       </set>
      </set>
     </set>
    </set>
   </array>
  </projected>
 </calculation>
 <structure name="finalpos" >
  <crystal>
   <varray name="basis" >
    <v>       2.46120000       0.00000000       0.00000000 </v>
    <v>      -1.23060000       2.13146172       0.00000000 </v>
    <v>       0.00000000       0.00000000       6.70790000 </v>
   </varray>
   <i name="volume">     35.18933212 </i>
   <varray name="rec_basis" >
    <v>       0.40630587       0.23458080       0.00000000 </v>
    <v>       0.00000000       0.46916160       0.00000000 </v>
    <v>       0.00000000       0.00000000       0.14907795 </v>
   </varray>
  </crystal>
  <varray name="positions" >
   <v>       0.00000000       0.00000000       0.00000000 </v>
   <v>       0.33333333       0.66666667       0.00000000 </v>
   <v>       0.33333333       0.66666667       0.50000000 </v>
   <v>       0.66666667       0.33333333       0.50000000 </v>
  </varray>
 </structure>
</modeling>
