   1   1   1   0
  0.1865462E+02  0.2976920E-09  0.2976920E-09  0.2976920E-09  0.5000000E-15
  1.000000000000000E-004
  CAR 
 unknown system                          
     24.02638039     -3.28259990  301      5.74205709      1.00000000
     -3.283  0.0000E+00  0.0000E+00  0.0000E+00  0.0000E+00
     -3.192  0.0000E+00  0.0000E+00  0.0000E+00  0.0000E+00
     -3.101  0.0000E+00  0.0000E+00  0.0000E+00  0.0000E+00
     -3.010  0.0000E+00  0.0000E+00  0.0000E+00  0.0000E+00
     -2.918  0.0000E+00  0.0000E+00  0.0000E+00  0.0000E+00
     -2.827  0.0000E+00  0.0000E+00  0.0000E+00  0.0000E+00
     -2.736  0.0000E+00  0.0000E+00  0.0000E+00  0.0000E+00
     -2.645  0.0000E+00  0.0000E+00  0.0000E+00  0.0000E+00
     -2.554  0.0000E+00  0.0000E+00  0.0000E+00  0.0000E+00
     -2.463 -0.3381E-35 -0.2759E-31 -0.3078E-36 -0.2512E-32
     -2.372 -0.1455E-22 -0.1754E-19 -0.1325E-23 -0.1596E-20
     -2.281 -0.7470E-13 -0.1303E-10 -0.6800E-14 -0.1186E-11
     -2.190 -0.4423E-06 -0.1067E-04 -0.4026E-07 -0.9712E-06
     -2.099 -0.1978E-02 -0.3521E-02 -0.1801E-03 -0.3215E-03
     -2.008  0.6484E-01  0.9975E-01  0.5723E-02  0.8758E-02
     -1.917  0.3977E-01  0.5629E-02  0.9343E-02  0.9271E-02
     -1.826 -0.9186E-03 -0.1272E-03  0.9259E-02  0.9259E-02
     -1.735 -0.6200E-07 -0.1061E-08  0.9259E-02  0.9259E-02
     -1.644 -0.3637E-14 -0.2318E-15  0.9259E-02  0.9259E-02
     -1.553 -0.1670E-09 -0.1383E-07  0.9259E-02  0.9259E-02
     -1.462 -0.7466E-04 -0.8148E-03  0.9252E-02  0.9185E-02
     -1.371 -0.7621E-02  0.4349E-01  0.8559E-02  0.1314E-01
     -1.280  0.3113E+00  0.2728E+00  0.3690E-01  0.3797E-01
     -1.189  0.1736E-02 -0.1029E-01  0.3705E-01  0.3704E-01
     -1.098 -0.1846E-03 -0.1139E-04  0.3704E-01  0.3704E-01
     -1.007 -0.8321E-09 -0.7011E-11  0.3704E-01  0.3704E-01
     -0.916 -0.1957E-08 -0.1185E-06  0.3704E-01  0.3704E-01
     -0.825 -0.2942E-03 -0.2262E-02  0.3701E-01  0.3683E-01
     -0.734  0.1047E-01  0.1037E+00  0.3796E-01  0.4627E-01
     -0.643  0.3049E+00  0.2105E+00  0.6572E-01  0.6543E-01
     -0.552 -0.9924E-02 -0.6783E-02  0.6482E-01  0.6481E-01
     -0.461 -0.4396E-04 -0.1992E-05  0.6481E-01  0.6481E-01
     -0.370 -0.3561E-05 -0.5782E-04  0.6481E-01  0.6481E-01
     -0.279 -0.3399E-02  0.2628E-03  0.6451E-01  0.6483E-01
     -0.188  0.8743E-01  0.9473E-01  0.7246E-01  0.7346E-01
     -0.097  0.1366E+00  0.2499E+00  0.8490E-01  0.9621E-01
     -0.006  0.1920E+00  0.6320E-01  0.1024E+00  0.1020E+00
      0.086 -0.5818E-02 -0.1214E-02  0.1019E+00  0.1019E+00
      0.177 -0.1254E-05 -0.3395E-07  0.1019E+00  0.1019E+00
      0.268 -0.3432E-04 -0.4977E-03  0.1018E+00  0.1018E+00
      0.359 -0.2144E-01  0.1391E-01  0.9990E-01  0.1031E+00
      0.450  0.5691E+00  0.6155E+00  0.1517E+00  0.1591E+00
      0.541  0.6363E-01 -0.2063E-01  0.1575E+00  0.1572E+00
      0.632  0.7094E-02  0.9712E-01  0.1581E+00  0.1661E+00
      0.723  0.3067E+00  0.2172E+00  0.1861E+00  0.1858E+00
      0.814 -0.9561E-02 -0.7153E-02  0.1852E+00  0.1852E+00
      0.905 -0.4945E-04 -0.2377E-05  0.1852E+00  0.1852E+00
      0.996 -0.6481E-04 -0.6837E-03  0.1852E+00  0.1851E+00
      1.087 -0.1220E-01  0.2558E-01  0.1841E+00  0.1875E+00
      1.178  0.4317E+00  0.5454E+00  0.2234E+00  0.2371E+00
      1.269  0.2933E+00  0.1686E+00  0.2501E+00  0.2525E+00
      1.360  0.2896E+00  0.2809E+00  0.2764E+00  0.2780E+00
      1.451  0.1157E+00  0.2238E+00  0.2870E+00  0.2984E+00
      1.542  0.2024E+00  0.6917E-01  0.3054E+00  0.3047E+00
      1.633  0.2084E+00  0.3890E+00  0.3244E+00  0.3401E+00
      1.724  0.1156E+01  0.1145E+01  0.4296E+00  0.4443E+00
      1.815  0.2243E+00  0.2727E+00  0.4500E+00  0.4692E+00
      1.906  0.5711E+00  0.3487E+00  0.5020E+00  0.5009E+00
      1.997 -0.2156E-01 -0.1015E-01  0.5000E+00  0.5000E+00
      2.088 -0.1885E-01 -0.1534E-01  0.4983E+00  0.4986E+00
      2.179  0.5836E+00  0.8154E+00  0.5514E+00  0.5728E+00
      2.270  0.6482E+00  0.6164E+00  0.6104E+00  0.6289E+00
      2.361  0.3351E+00  0.2987E+00  0.6409E+00  0.6561E+00
      2.452  0.8267E+00  0.7245E+00  0.7162E+00  0.7221E+00
      2.543  0.1914E+00  0.2270E+00  0.7336E+00  0.7427E+00
      2.634  0.2680E+00  0.4509E+00  0.7580E+00  0.7838E+00
      2.725  0.8571E+00  0.5620E+00  0.8360E+00  0.8349E+00
      2.816 -0.2928E-01 -0.1739E-01  0.8333E+00  0.8333E+00
      2.907 -0.1494E-01 -0.3054E-01  0.8320E+00  0.8305E+00
      2.998  0.5395E+00  0.9578E+00  0.8811E+00  0.9177E+00
      3.089  0.6843E+00  0.2838E+00  0.9434E+00  0.9436E+00
      3.181  0.9345E+00  0.1184E+01  0.1028E+01  0.1051E+01
      3.272  0.7173E+00  0.6269E+00  0.1094E+01  0.1108E+01
      3.363  0.1821E+00  0.8635E-02  0.1110E+01  0.1109E+01
      3.454  0.3994E+00  0.5869E+00  0.1147E+01  0.1163E+01
      3.545  0.4517E+00  0.3401E+00  0.1188E+01  0.1194E+01
      3.636  0.1248E+00  0.1680E+00  0.1199E+01  0.1209E+01
      3.727  0.2403E+00  0.1547E+00  0.1221E+01  0.1223E+01
      3.818  0.6452E+00  0.8020E+00  0.1280E+01  0.1296E+01
      3.909  0.2643E+00  0.4546E-01  0.1304E+01  0.1300E+01
      4.000  0.1012E+01  0.1664E+01  0.1396E+01  0.1452E+01
      4.091  0.8388E+00  0.2257E+00  0.1472E+01  0.1472E+01
      4.182  0.5257E+00  0.6148E+00  0.1520E+01  0.1528E+01
      4.273  0.3373E+00  0.3015E+00  0.1551E+01  0.1556E+01
      4.364  0.5027E-01 -0.8137E-02  0.1555E+01  0.1555E+01
      4.455  0.7647E-01  0.2086E+00  0.1562E+01  0.1574E+01
      4.546  0.9562E+00  0.9964E+00  0.1649E+01  0.1665E+01
      4.637  0.3915E+00  0.4589E+00  0.1685E+01  0.1706E+01
      4.728  0.7951E+00  0.8743E+00  0.1757E+01  0.1786E+01
      4.819  0.8624E+00  0.5240E+00  0.1836E+01  0.1834E+01
      4.910  0.1096E+00  0.4546E+00  0.1846E+01  0.1875E+01
      5.001  0.1308E+01  0.1081E+01  0.1965E+01  0.1973E+01
      5.092  0.6648E-01 -0.3990E-02  0.1971E+01  0.1973E+01
      5.183  0.3958E+00  0.5053E+00  0.2007E+01  0.2019E+01
      5.274  0.8118E+00  0.9490E+00  0.2081E+01  0.2105E+01
      5.365  0.1007E+01  0.7883E+00  0.2173E+01  0.2177E+01
      5.456  0.1908E+00  0.3540E+00  0.2190E+01  0.2209E+01
      5.547  0.8979E+00  0.1015E+01  0.2272E+01  0.2302E+01
      5.638  0.1375E+01  0.1071E+01  0.2397E+01  0.2399E+01
      5.729  0.6902E+00  0.1099E+01  0.2460E+01  0.2499E+01
      5.820  0.8786E+00  0.4252E+00  0.2540E+01  0.2538E+01
      5.911 -0.4042E-01  0.4896E-02  0.2536E+01  0.2538E+01
      6.002  0.2840E+00  0.2820E+00  0.2562E+01  0.2564E+01
      6.093  0.5584E+00  0.7377E+00  0.2613E+01  0.2631E+01
      6.185  0.5854E+00  0.5152E+00  0.2666E+01  0.2678E+01
      6.276  0.7584E+00  0.9339E+00  0.2735E+01  0.2763E+01
      6.367  0.6751E+00  0.4137E+00  0.2797E+01  0.2801E+01
      6.458  0.4647E+00  0.4815E+00  0.2839E+01  0.2845E+01
      6.549  0.3350E+00  0.2917E+00  0.2869E+01  0.2871E+01
      6.640 -0.2916E-01 -0.3825E-01  0.2867E+01  0.2868E+01
      6.731  0.1215E+01  0.1673E+01  0.2977E+01  0.3020E+01
      6.822  0.1645E+01  0.1466E+01  0.3127E+01  0.3154E+01
      6.913  0.7088E+00  0.5384E+00  0.3192E+01  0.3203E+01
      7.004  0.3478E+00  0.2240E+00  0.3223E+01  0.3223E+01
      7.095 -0.1163E-01 -0.7779E-02  0.3222E+01  0.3222E+01
      7.186 -0.7174E-02 -0.1743E-01  0.3222E+01  0.3221E+01
      7.277  0.2805E+00  0.4845E+00  0.3247E+01  0.3265E+01
      7.368  0.3809E+00  0.3267E+00  0.3282E+01  0.3294E+01
      7.459  0.5680E+00  0.4094E+00  0.3333E+01  0.3332E+01
      7.550  0.5960E+00  0.8510E+00  0.3388E+01  0.3409E+01
      7.641  0.3640E+00  0.2998E+00  0.3421E+01  0.3437E+01
      7.732  0.8786E+00  0.7207E+00  0.3501E+01  0.3502E+01
      7.823 -0.8831E-02 -0.2325E-01  0.3500E+01  0.3500E+01
      7.914 -0.3527E-02 -0.9737E-02  0.3500E+01  0.3499E+01
      8.005  0.1265E+00  0.2492E+00  0.3511E+01  0.3522E+01
      8.096  0.3288E+00  0.4137E+00  0.3541E+01  0.3559E+01
      8.187  0.1143E+01  0.1148E+01  0.3645E+01  0.3664E+01
      8.278  0.8507E+00  0.8990E+00  0.3723E+01  0.3746E+01
      8.369  0.9064E+00  0.7609E+00  0.3805E+01  0.3815E+01
      8.460  0.1068E+01  0.1104E+01  0.3902E+01  0.3916E+01
      8.551  0.1485E+00 -0.6650E-02  0.3916E+01  0.3915E+01
      8.642  0.3768E+00  0.5497E+00  0.3950E+01  0.3965E+01
      8.733  0.2477E+00  0.8090E-01  0.3973E+01  0.3972E+01
      8.824 -0.6178E-02 -0.1634E-02  0.3972E+01  0.3972E+01
      8.915 -0.3524E-04 -0.2477E-03  0.3972E+01  0.3972E+01
      9.006 -0.1080E-01  0.4887E-02  0.3971E+01  0.3973E+01
      9.097  0.3002E+00  0.4066E+00  0.3999E+01  0.4010E+01
      9.189  0.7386E+00  0.6780E+00  0.4066E+01  0.4071E+01
      9.280  0.1673E+00  0.1991E+00  0.4081E+01  0.4090E+01
      9.371  0.3526E+00  0.3105E+00  0.4113E+01  0.4118E+01
      9.462  0.3433E-01 -0.1817E-01  0.4116E+01  0.4116E+01
      9.553  0.1384E+01  0.1760E+01  0.4242E+01  0.4276E+01
      9.644  0.5033E+00  0.1674E+00  0.4288E+01  0.4292E+01
      9.735  0.6515E+00  0.7851E+00  0.4347E+01  0.4363E+01
      9.826  0.2580E+00  0.7711E-01  0.4371E+01  0.4370E+01
      9.917  0.6564E-01  0.1600E+00  0.4377E+01  0.4385E+01
     10.008  0.5012E+00  0.5764E+00  0.4422E+01  0.4437E+01
     10.099  0.3983E+00  0.3090E+00  0.4459E+01  0.4465E+01
     10.190  0.2607E+00  0.1841E+00  0.4482E+01  0.4482E+01
     10.281 -0.1026E-01 -0.5634E-02  0.4481E+01  0.4481E+01
     10.372 -0.1118E-04 -0.1734E-05  0.4481E+01  0.4481E+01
     10.463 -0.1447E-02 -0.4426E-02  0.4481E+01  0.4481E+01
     10.554  0.6750E-01  0.1482E+00  0.4487E+01  0.4495E+01
     10.645  0.4908E+00  0.5880E+00  0.4532E+01  0.4548E+01
     10.736  0.3460E+00  0.2203E+00  0.4564E+01  0.4568E+01
     10.827  0.1050E+01  0.1259E+01  0.4659E+01  0.4683E+01
     10.918  0.1130E+01  0.1028E+01  0.4762E+01  0.4776E+01
     11.009  0.9752E+00  0.1108E+01  0.4851E+01  0.4877E+01
     11.100  0.7717E+00  0.5284E+00  0.4921E+01  0.4925E+01
     11.191  0.3016E-01  0.1270E-01  0.4924E+01  0.4926E+01
     11.282  0.7563E+00  0.8154E+00  0.4993E+01  0.5001E+01
     11.373  0.7141E-01 -0.1913E-01  0.4999E+01  0.4999E+01
     11.464  0.2843E+00  0.4108E+00  0.5025E+01  0.5036E+01
     11.555  0.3775E+00  0.3136E+00  0.5060E+01  0.5065E+01
     11.646  0.4284E+00  0.4591E+00  0.5099E+01  0.5107E+01
     11.737  0.4229E+00  0.3977E+00  0.5137E+01  0.5143E+01
     11.828  0.6244E+00  0.7591E+00  0.5194E+01  0.5212E+01
     11.919  0.1564E+01  0.1481E+01  0.5336E+01  0.5347E+01
     12.010  0.5969E+00  0.4826E+00  0.5391E+01  0.5391E+01
     12.101 -0.2858E-01 -0.1973E-01  0.5388E+01  0.5389E+01
     12.192  0.2994E+00  0.3120E+00  0.5415E+01  0.5417E+01
     12.284  0.1654E-01 -0.6982E-02  0.5417E+01  0.5417E+01
     12.375 -0.3317E-02 -0.8642E-02  0.5416E+01  0.5416E+01
     12.466  0.1487E+00  0.3189E+00  0.5430E+01  0.5445E+01
     12.557  0.4815E+00  0.3075E+00  0.5474E+01  0.5473E+01
     12.648 -0.2028E-01  0.2471E-01  0.5472E+01  0.5475E+01
     12.739  0.3076E+00  0.2678E+00  0.5500E+01  0.5500E+01
     12.830  0.2424E+00  0.5101E+00  0.5522E+01  0.5546E+01
     12.921  0.1090E+01  0.9690E+00  0.5621E+01  0.5634E+01
     13.012  0.4859E+00  0.3887E+00  0.5665E+01  0.5670E+01
     13.103  0.3164E+00  0.2842E+00  0.5694E+01  0.5695E+01
     13.194  0.1467E-02 -0.1660E-01  0.5694E+01  0.5694E+01
     13.285  0.5943E-01  0.2463E+00  0.5700E+01  0.5716E+01
     13.376  0.5694E+00  0.4349E+00  0.5752E+01  0.5756E+01
     13.467  0.2914E+00  0.2485E+00  0.5778E+01  0.5779E+01
     13.558 -0.1473E-01  0.5085E-01  0.5777E+01  0.5783E+01
     13.649  0.6930E+00  0.7971E+00  0.5840E+01  0.5856E+01
     13.740  0.5601E+00  0.3765E+00  0.5891E+01  0.5890E+01
     13.831 -0.2162E-01 -0.1236E-01  0.5889E+01  0.5889E+01
     13.922 -0.3245E-04 -0.2970E-05  0.5889E+01  0.5889E+01
     14.013 -0.2926E-04 -0.2279E-03  0.5889E+01  0.5889E+01
     14.104 -0.2118E-01 -0.8559E-02  0.5887E+01  0.5888E+01
     14.195  0.5603E+00  0.6263E+00  0.5938E+01  0.5945E+01
     14.286  0.7259E-01 -0.6978E-02  0.5945E+01  0.5944E+01
     14.377 -0.1372E-02 -0.2463E-03  0.5944E+01  0.5944E+01
     14.468 -0.1967E-07 -0.8053E-09  0.5944E+01  0.5944E+01
     14.559 -0.2738E-15 -0.4696E-15  0.5944E+01  0.5944E+01
     14.650 -0.7938E-09 -0.2789E-07  0.5944E+01  0.5944E+01
     14.741 -0.2444E-03 -0.1639E-02  0.5944E+01  0.5944E+01
     14.832 -0.1044E-01  0.7642E-01  0.5943E+01  0.5951E+01
     14.923  0.7891E+00  0.9161E+00  0.6015E+01  0.6035E+01
     15.014  0.4586E+00  0.2359E+00  0.6057E+01  0.6056E+01
     15.105 -0.1698E-01 -0.9927E-02  0.6056E+01  0.6055E+01
     15.196  0.1937E-01  0.1815E+00  0.6057E+01  0.6072E+01
     15.288  0.6111E+00  0.4469E+00  0.6113E+01  0.6112E+01
     15.379 -0.2394E-01  0.2546E-01  0.6111E+01  0.6115E+01
     15.470  0.3134E+00  0.3224E+00  0.6139E+01  0.6144E+01
     15.561  0.3779E+00  0.5297E+00  0.6174E+01  0.6192E+01
     15.652  0.8612E+00  0.6558E+00  0.6252E+01  0.6252E+01
     15.743 -0.2009E-01  0.2946E-01  0.6250E+01  0.6255E+01
     15.834  0.3108E+00  0.2635E+00  0.6279E+01  0.6279E+01
     15.925 -0.7871E-02 -0.9828E-02  0.6278E+01  0.6278E+01
     16.016 -0.7165E-04 -0.1019E-04  0.6278E+01  0.6278E+01
     16.107 -0.1540E-02 -0.6689E-02  0.6278E+01  0.6277E+01
     16.198  0.5457E-01  0.1991E+00  0.6283E+01  0.6295E+01
     16.289  0.8023E+00  0.7327E+00  0.6356E+01  0.6362E+01
     16.380  0.1211E+00  0.6642E-01  0.6367E+01  0.6368E+01
     16.471  0.2741E+00  0.4699E+00  0.6392E+01  0.6411E+01
     16.562  0.4199E+00  0.3335E+00  0.6430E+01  0.6441E+01
     16.653  0.5884E+00  0.4588E+00  0.6483E+01  0.6483E+01
     16.744 -0.2145E-01 -0.1891E-01  0.6481E+01  0.6481E+01
     16.835  0.9568E-02  0.1511E+00  0.6482E+01  0.6495E+01
     16.926  0.6187E+00  0.4791E+00  0.6539E+01  0.6539E+01
     17.017 -0.1753E-01 -0.1746E-01  0.6537E+01  0.6537E+01
     17.108 -0.8872E-02  0.2239E-01  0.6536E+01  0.6539E+01
     17.199  0.4047E+00  0.4865E+00  0.6573E+01  0.6583E+01
     17.290  0.2178E+00  0.9511E-01  0.6593E+01  0.6592E+01
     17.381  0.1502E+00  0.2551E+00  0.6607E+01  0.6615E+01
     17.472  0.1435E+00  0.3639E-01  0.6620E+01  0.6619E+01
     17.563  0.3903E+00  0.5788E+00  0.6655E+01  0.6671E+01
     17.654  0.2334E+00  0.5307E-01  0.6676E+01  0.6676E+01
     17.745 -0.5517E-02 -0.2570E-02  0.6676E+01  0.6676E+01
     17.836  0.1244E-02  0.7627E-01  0.6676E+01  0.6683E+01
     17.927  0.2918E+00  0.2074E+00  0.6703E+01  0.6702E+01
     18.018  0.6103E+00  0.8723E+00  0.6758E+01  0.6781E+01
     18.109  0.3236E+00  0.6113E-01  0.6788E+01  0.6787E+01
     18.200  0.5152E-01  0.2627E+00  0.6792E+01  0.6810E+01
     18.291  0.5624E+00  0.3606E+00  0.6843E+01  0.6843E+01
     18.383  0.3049E+00  0.3858E+00  0.6871E+01  0.6878E+01
     18.474  0.9215E-01  0.5118E-02  0.6880E+01  0.6879E+01
     18.565  0.1053E+00  0.2379E+00  0.6889E+01  0.6901E+01
     18.656  0.1955E+00  0.1065E+00  0.6907E+01  0.6910E+01
     18.747  0.4039E+00  0.3894E+00  0.6944E+01  0.6946E+01
     18.838 -0.1601E-01 -0.1035E-01  0.6942E+01  0.6945E+01
     18.929  0.6526E+00  0.7233E+00  0.7002E+01  0.7011E+01
     19.020  0.8463E-01 -0.1457E-01  0.7009E+01  0.7009E+01
     19.111 -0.9386E-02 -0.1093E-01  0.7009E+01  0.7008E+01
     19.202  0.2247E+00  0.2959E+00  0.7029E+01  0.7035E+01
     19.293  0.3629E-01 -0.8087E-01  0.7032E+01  0.7028E+01
     19.384  0.2156E+01  0.4029E+01  0.7229E+01  0.7395E+01
     19.475  0.9170E+01  0.7417E+01  0.8063E+01  0.8070E+01
     19.566  0.2650E+00  0.3837E+00  0.8087E+01  0.8105E+01
     19.657  0.4065E+00  0.3750E+00  0.8124E+01  0.8139E+01
     19.748  0.1159E+01  0.1247E+01  0.8230E+01  0.8252E+01
     19.839  0.2990E+00  0.4578E-01  0.8257E+01  0.8257E+01
     19.930  0.9128E+00  0.1220E+01  0.8340E+01  0.8368E+01
     20.021  0.3307E+00  0.1896E-01  0.8370E+01  0.8369E+01
     20.112  0.2148E+00  0.3888E+00  0.8390E+01  0.8405E+01
     20.203  0.4854E+00  0.4541E+00  0.8434E+01  0.8446E+01
     20.294  0.3529E+00  0.3149E+00  0.8466E+01  0.8475E+01
     20.385  0.1728E+00  0.7568E-01  0.8482E+01  0.8482E+01
     20.476 -0.5258E-02 -0.1545E-02  0.8481E+01  0.8481E+01
     20.567 -0.1275E-05 -0.5508E-05  0.8481E+01  0.8481E+01
     20.658 -0.3535E-02 -0.9079E-02  0.8481E+01  0.8481E+01
     20.749  0.1312E+00  0.2440E+00  0.8493E+01  0.8503E+01
     20.840  0.4329E+00  0.3775E+00  0.8533E+01  0.8537E+01
     20.931  0.4515E-01  0.1312E+00  0.8537E+01  0.8549E+01
     21.022  0.9186E+00  0.8093E+00  0.8620E+01  0.8623E+01
     21.113 -0.4980E-02  0.7485E-02  0.8620E+01  0.8624E+01
     21.204  0.3115E+00  0.2737E+00  0.8648E+01  0.8648E+01
     21.295  0.2195E-03  0.3010E+00  0.8648E+01  0.8676E+01
     21.387 -0.2091E-02 -0.8699E-02  0.8648E+01  0.8675E+01
     21.478  0.9044E-01  0.3837E+00  0.8656E+01  0.8710E+01
     21.569  0.1033E+01  0.7790E+00  0.8750E+01  0.8781E+01
     21.660  0.4194E+00  0.6634E-01  0.8788E+01  0.8787E+01
     21.751  0.6212E-02  0.1261E+00  0.8789E+01  0.8798E+01
     21.842  0.2949E+00  0.1853E+00  0.8816E+01  0.8815E+01
     21.933 -0.9212E-02  0.2025E-01  0.8815E+01  0.8817E+01
     22.024  0.9996E-01  0.7197E-01  0.8824E+01  0.8824E+01
     22.115  0.8093E-01  0.3439E+00  0.8831E+01  0.8855E+01
     22.206  0.1185E+00  0.3970E+00  0.8842E+01  0.8891E+01
     22.297  0.8223E+00  0.2910E+00  0.8917E+01  0.8918E+01
     22.388 -0.3948E-02 -0.1025E-01  0.8917E+01  0.8917E+01
     22.479 -0.3772E-03 -0.4083E-04  0.8917E+01  0.8917E+01
     22.570 -0.1542E-02 -0.7131E-02  0.8917E+01  0.8916E+01
     22.661  0.7655E-01  0.2115E+00  0.8923E+01  0.8935E+01
     22.752  0.2715E+00  0.3279E+00  0.8948E+01  0.8965E+01
     22.843  0.5901E+00  0.3955E+00  0.9002E+01  0.9001E+01
     22.934 -0.2113E-01 -0.1231E-01  0.9000E+01  0.9000E+01
     23.025 -0.6401E-04 -0.2954E-05  0.9000E+01  0.9000E+01
     23.116 -0.7819E-10 -0.5303E-12  0.9000E+01  0.9000E+01
     23.207  0.0000E+00  0.0000E+00  0.9000E+01  0.9000E+01
     23.298  0.0000E+00  0.0000E+00  0.9000E+01  0.9000E+01
     23.389  0.0000E+00  0.0000E+00  0.9000E+01  0.9000E+01
     23.480  0.0000E+00  0.0000E+00  0.9000E+01  0.9000E+01
     23.571  0.0000E+00  0.0000E+00  0.9000E+01  0.9000E+01
     23.662  0.0000E+00  0.0000E+00  0.9000E+01  0.9000E+01
     23.753  0.0000E+00  0.0000E+00  0.9000E+01  0.9000E+01
     23.844  0.0000E+00  0.0000E+00  0.9000E+01  0.9000E+01
     23.935  0.0000E+00  0.0000E+00  0.9000E+01  0.9000E+01
     24.026  0.0000E+00  0.0000E+00  0.9000E+01  0.9000E+01
     24.02638039     -3.28259990  301      5.74205709      1.00000000
     -3.283  0.0000E+00  0.0000E+00  0.0000E+00  0.0000E+00  0.0000E+00  0.0000E+00  0.0000E+00  0.0000E+00  0.0000E+00  0.0000E+00  0.0000E+00  0.0000E+00  0.0000E+00  0.0000E+00  0.0000E+00  0.0000E+00  0.0000E+00  0.0000E+00
     -3.192  0.0000E+00  0.0000E+00  0.0000E+00  0.0000E+00  0.0000E+00  0.0000E+00  0.0000E+00  0.0000E+00  0.0000E+00  0.0000E+00  0.0000E+00  0.0000E+00  0.0000E+00  0.0000E+00  0.0000E+00  0.0000E+00  0.0000E+00  0.0000E+00
     -3.101  0.0000E+00  0.0000E+00  0.0000E+00  0.0000E+00  0.0000E+00  0.0000E+00  0.0000E+00  0.0000E+00  0.0000E+00  0.0000E+00  0.0000E+00  0.0000E+00  0.0000E+00  0.0000E+00  0.0000E+00  0.0000E+00  0.0000E+00  0.0000E+00
     -3.010  0.0000E+00  0.0000E+00  0.0000E+00  0.0000E+00  0.0000E+00  0.0000E+00  0.0000E+00  0.0000E+00  0.0000E+00  0.0000E+00  0.0000E+00  0.0000E+00  0.0000E+00  0.0000E+00  0.0000E+00  0.0000E+00  0.0000E+00  0.0000E+00
     -2.918  0.0000E+00  0.0000E+00  0.0000E+00  0.0000E+00  0.0000E+00  0.0000E+00  0.0000E+00  0.0000E+00  0.0000E+00  0.0000E+00  0.0000E+00  0.0000E+00  0.0000E+00  0.0000E+00  0.0000E+00  0.0000E+00  0.0000E+00  0.0000E+00
     -2.827  0.0000E+00  0.0000E+00  0.0000E+00  0.0000E+00  0.0000E+00  0.0000E+00  0.0000E+00  0.0000E+00  0.0000E+00  0.0000E+00  0.0000E+00  0.0000E+00  0.0000E+00  0.0000E+00  0.0000E+00  0.0000E+00  0.0000E+00  0.0000E+00
     -2.736  0.0000E+00  0.0000E+00  0.0000E+00  0.0000E+00  0.0000E+00  0.0000E+00  0.0000E+00  0.0000E+00  0.0000E+00  0.0000E+00  0.0000E+00  0.0000E+00  0.0000E+00  0.0000E+00  0.0000E+00  0.0000E+00  0.0000E+00  0.0000E+00
     -2.645  0.0000E+00  0.0000E+00  0.0000E+00  0.0000E+00  0.0000E+00  0.0000E+00  0.0000E+00  0.0000E+00  0.0000E+00  0.0000E+00  0.0000E+00  0.0000E+00  0.0000E+00  0.0000E+00  0.0000E+00  0.0000E+00  0.0000E+00  0.0000E+00
     -2.554  0.0000E+00  0.0000E+00  0.0000E+00  0.0000E+00  0.0000E+00  0.0000E+00  0.0000E+00  0.0000E+00  0.0000E+00  0.0000E+00  0.0000E+00  0.0000E+00  0.0000E+00  0.0000E+00  0.0000E+00  0.0000E+00  0.0000E+00  0.0000E+00
     -2.463 -0.2777E-35 -0.2268E-31 -0.2304E-37 -0.1880E-33 -0.2304E-37 -0.1880E-33 -0.2304E-37 -0.1880E-33 -0.9071E-39 -0.7403E-35 -0.9071E-39 -0.7403E-35 -0.5839E-48 -0.3939E-47 -0.9071E-39 -0.7403E-35 -0.2461E-47 -0.4705E-47
     -2.372 -0.1195E-22 -0.1441E-19 -0.9918E-25 -0.1195E-21 -0.9918E-25 -0.1195E-21 -0.9918E-25 -0.1195E-21 -0.3904E-26 -0.4705E-23 -0.3904E-26 -0.4705E-23 -0.2513E-35 -0.2503E-35 -0.3904E-26 -0.4705E-23 -0.1059E-34 -0.2990E-35
     -2.281 -0.6135E-13 -0.1071E-10 -0.5090E-15 -0.8879E-13 -0.5090E-15 -0.8879E-13 -0.5090E-15 -0.8879E-13 -0.2004E-16 -0.3496E-14 -0.2004E-16 -0.3496E-14 -0.1290E-25 -0.1860E-26 -0.2004E-16 -0.3496E-14 -0.5436E-25 -0.2222E-26
     -2.190 -0.3632E-06 -0.8767E-05 -0.3014E-08 -0.7269E-07 -0.3014E-08 -0.7269E-07 -0.3014E-08 -0.7269E-07 -0.1187E-09 -0.2862E-08 -0.1187E-09 -0.2862E-08 -0.7638E-19 -0.1523E-20 -0.1187E-09 -0.2862E-08 -0.3219E-18 -0.1819E-20
     -2.099 -0.1624E-02 -0.2894E-02 -0.1348E-04 -0.2399E-04 -0.1348E-04 -0.2399E-04 -0.1348E-04 -0.2399E-04 -0.5305E-06 -0.9447E-06 -0.5305E-06 -0.9447E-06 -0.3415E-15 -0.5026E-18 -0.5305E-06 -0.9447E-06 -0.1439E-14 -0.6004E-18
     -2.008  0.5325E-01  0.8197E-01  0.4419E-03  0.6797E-03  0.4419E-03  0.6797E-03  0.4419E-03  0.6797E-03  0.1740E-04  0.2676E-04  0.1740E-04  0.2676E-04  0.1120E-13  0.1424E-16  0.1740E-04  0.2676E-04  0.4719E-13  0.1701E-16
     -1.917  0.3266E-01  0.4626E-02  0.2710E-03  0.3835E-04  0.2710E-03  0.3835E-04  0.2710E-03  0.3835E-04  0.1067E-04  0.1510E-05  0.1067E-04  0.1510E-05  0.6868E-14  0.8034E-18  0.1067E-04  0.1510E-05  0.2894E-13  0.9598E-18
     -1.826 -0.7544E-03 -0.1046E-03 -0.6260E-05 -0.8670E-06 -0.6260E-05 -0.8670E-06 -0.6260E-05 -0.8670E-06 -0.2464E-06 -0.3414E-07 -0.2464E-06 -0.3414E-07 -0.1586E-15 -0.1816E-19 -0.2464E-06 -0.3414E-07 -0.6685E-15 -0.2170E-19
     -1.735 -0.5092E-07 -0.8723E-09 -0.4225E-09 -0.7233E-11 -0.4225E-09 -0.7233E-11 -0.4225E-09 -0.7233E-11 -0.1663E-10 -0.2848E-12 -0.1663E-10 -0.2848E-12 -0.1071E-19 -0.1515E-24 -0.1663E-10 -0.2848E-12 -0.4512E-19 -0.1810E-24
     -1.644 -0.2987E-14 -0.1800E-15 -0.2478E-16 -0.1398E-17 -0.2478E-16 -0.1398E-17 -0.2480E-16 -0.1362E-16 -0.9764E-18 -0.5218E-18 -0.9757E-18 -0.9870E-19 -0.3131E-21 -0.1794E-18 -0.9764E-18 -0.5218E-18 -0.9392E-21 -0.5383E-18
     -1.553 -0.1296E-09 -0.1074E-07 -0.1008E-11 -0.8340E-10 -0.1008E-11 -0.8340E-10 -0.9816E-11 -0.8124E-09 -0.3759E-12 -0.3112E-10 -0.7112E-13 -0.5887E-11 -0.1294E-12 -0.1070E-10 -0.3759E-12 -0.3112E-10 -0.3883E-12 -0.3210E-10
     -1.462 -0.5794E-04 -0.6327E-03 -0.4504E-06 -0.4915E-05 -0.4504E-06 -0.4915E-05 -0.4387E-05 -0.4788E-04 -0.1680E-06 -0.1834E-05 -0.3179E-07 -0.3469E-06 -0.5785E-07 -0.6306E-06 -0.1680E-06 -0.1834E-05 -0.1736E-06 -0.1892E-05
     -1.371 -0.5915E-02  0.3378E-01 -0.4598E-04  0.2624E-03 -0.4598E-04  0.2624E-03 -0.4479E-03  0.2556E-02 -0.1715E-04  0.9790E-04 -0.3245E-05  0.1852E-04 -0.5906E-05  0.3366E-04 -0.1715E-04  0.9790E-04 -0.1772E-04  0.1010E-03
     -1.280  0.2416E+00  0.2118E+00  0.1878E-02  0.1645E-02  0.1878E-02  0.1645E-02  0.1829E-01  0.1603E-01  0.7006E-03  0.6140E-03  0.1325E-03  0.1161E-03  0.2412E-03  0.2111E-03  0.7006E-03  0.6140E-03  0.7237E-03  0.6334E-03
     -1.189  0.1347E-02 -0.7991E-02  0.1047E-04 -0.6208E-04  0.1047E-04 -0.6208E-04  0.1020E-03 -0.6047E-03  0.3906E-05 -0.2316E-04  0.7390E-06 -0.4381E-05  0.1345E-05 -0.7964E-05  0.3906E-05 -0.2316E-04  0.4035E-05 -0.2389E-04
     -1.098 -0.1432E-03 -0.8848E-05 -0.1113E-05 -0.6873E-07 -0.1113E-05 -0.6873E-07 -0.1085E-04 -0.6695E-06 -0.4154E-06 -0.2565E-07 -0.7858E-07 -0.4851E-08 -0.1430E-06 -0.8818E-08 -0.4154E-06 -0.2565E-07 -0.4290E-06 -0.2645E-07
     -1.007 -0.6458E-09 -0.5444E-11 -0.5021E-11 -0.4255E-13 -0.5021E-11 -0.4255E-13 -0.4890E-10 -0.4117E-12 -0.1873E-11 -0.1579E-13 -0.3543E-12 -0.3089E-14 -0.6448E-12 -0.5425E-14 -0.1873E-11 -0.1579E-13 -0.1935E-11 -0.1627E-13
     -0.916 -0.1431E-08 -0.8669E-07 -0.1018E-09 -0.6163E-08 -0.1018E-09 -0.6163E-08 -0.9172E-11 -0.5554E-09 -0.7007E-11 -0.4243E-09 -0.3791E-10 -0.2296E-08 -0.1006E-11 -0.6080E-10 -0.7007E-11 -0.4243E-09 -0.3017E-11 -0.1824E-09
     -0.825 -0.2151E-03 -0.1655E-02 -0.1530E-04 -0.1176E-03 -0.1530E-04 -0.1176E-03 -0.1379E-05 -0.1060E-04 -0.1054E-05 -0.8100E-05 -0.5701E-05 -0.4383E-04 -0.1512E-06 -0.1160E-05 -0.1054E-05 -0.8100E-05 -0.4536E-06 -0.3481E-05
     -0.734  0.7656E-02  0.7586E-01  0.5447E-03  0.5393E-02  0.5447E-03  0.5393E-02  0.4909E-04  0.4860E-03  0.3750E-04  0.3713E-03  0.2029E-03  0.2009E-02  0.5382E-05  0.5320E-04  0.3750E-04  0.3713E-03  0.1614E-04  0.1596E-03
     -0.643  0.2229E+00  0.1540E+00  0.1586E-01  0.1095E-01  0.1586E-01  0.1095E-01  0.1429E-02  0.9865E-03  0.1092E-02  0.7537E-03  0.5908E-02  0.4078E-02  0.1567E-03  0.1080E-03  0.1092E-02  0.7537E-03  0.4701E-03  0.3240E-03
     -0.552 -0.7255E-02 -0.4962E-02 -0.5162E-03 -0.3527E-03 -0.5162E-03 -0.3527E-03 -0.4652E-04 -0.3179E-04 -0.3554E-04 -0.2429E-04 -0.1923E-03 -0.1314E-03 -0.5100E-05 -0.3480E-05 -0.3554E-04 -0.2429E-04 -0.1530E-04 -0.1044E-04
     -0.461 -0.3214E-04 -0.1457E-05 -0.2287E-05 -0.1036E-06 -0.2287E-05 -0.1036E-06 -0.2061E-06 -0.9344E-08 -0.1574E-06 -0.7139E-08 -0.8518E-06 -0.3860E-07 -0.2259E-07 -0.1022E-08 -0.1574E-06 -0.7139E-08 -0.6777E-07 -0.3066E-08
     -0.370 -0.2422E-05 -0.3934E-04 -0.1406E-06 -0.2282E-05 -0.1406E-06 -0.2282E-05 -0.1406E-06 -0.2282E-05 -0.1062E-06 -0.1725E-05 -0.1062E-06 -0.1725E-05 -0.3489E-13 -0.9419E-13 -0.1062E-06 -0.1725E-05 -0.1033E-12 -0.6531E-15
     -0.279 -0.2311E-02  0.1788E-03 -0.1342E-03  0.1058E-04 -0.1342E-03  0.9735E-05 -0.1342E-03  0.1058E-04 -0.1014E-03  0.8014E-05 -0.1014E-03  0.7989E-05 -0.7323E-08 -0.2260E-06 -0.1014E-03  0.7989E-05 -0.1277E-20  0.1582E-21
     -0.188  0.5947E-01  0.6452E-01  0.3549E-02  0.4058E-02  0.3157E-02  0.2783E-02  0.3549E-02  0.4058E-02  0.2690E-02  0.3091E-02  0.2678E-02  0.3054E-02 -0.1048E-03 -0.3401E-03  0.2678E-02  0.3054E-02 -0.1107E-18  0.6098E-19
     -0.097  0.9210E-01  0.1684E+00  0.1185E-02  0.1125E-02  0.1802E-01  0.3610E-01  0.1185E-02  0.1125E-02  0.5739E-03  0.1823E-03  0.1065E-02  0.1204E-02  0.4498E-02  0.9329E-02  0.1065E-02  0.1204E-02  0.6204E-17  0.4171E-20
     -0.006  0.1293E+00  0.4259E-01  0.9183E-03  0.3046E-03  0.2757E-01  0.9069E-02  0.9183E-03  0.3046E-03  0.1850E-03  0.6282E-04  0.9630E-03  0.3187E-03  0.7119E-02  0.2338E-02  0.9630E-03  0.3187E-03  0.9809E-17  0.1383E-20
      0.086 -0.3917E-02 -0.8180E-03 -0.2812E-04 -0.5868E-05 -0.8345E-03 -0.1742E-03 -0.2812E-04 -0.5868E-05 -0.5854E-05 -0.1221E-05 -0.2939E-04 -0.6135E-05 -0.2154E-03 -0.4488E-04 -0.2939E-04 -0.6135E-05 -0.2971E-18 -0.2109E-18
      0.177 -0.8442E-06 -0.2276E-07 -0.6062E-08 -0.2683E-09 -0.1798E-06 -0.4465E-08 -0.6064E-08 -0.5196E-09 -0.1263E-08 -0.1635E-09 -0.6335E-08 -0.1817E-09 -0.4642E-07 -0.1173E-08 -0.6335E-08 -0.1815E-09 -0.3366E-12 -0.3505E-10
      0.268 -0.2171E-04 -0.3151E-03 -0.1411E-05 -0.2046E-04 -0.8676E-07 -0.1258E-05 -0.4414E-05 -0.6403E-04 -0.1580E-05 -0.2292E-04 -0.2952E-06 -0.4281E-05 -0.2916E-06 -0.4221E-05 -0.2920E-06 -0.4236E-05 -0.4195E-06 -0.6075E-05
      0.359 -0.1356E-01  0.8808E-02 -0.8813E-03  0.5720E-03 -0.5419E-04  0.3517E-04 -0.2757E-02  0.1790E-02 -0.9868E-03  0.6406E-03 -0.1844E-03  0.1197E-03 -0.1821E-03  0.1180E-03 -0.1824E-03  0.1184E-03 -0.2621E-03  0.1698E-03
      0.450  0.3600E+00  0.3897E+00  0.2340E-01  0.2531E-01  0.1439E-02  0.1556E-02  0.7321E-01  0.7918E-01  0.2620E-01  0.2834E-01  0.4896E-02  0.5294E-02  0.4835E-02  0.5220E-02  0.4843E-02  0.5239E-02  0.6957E-02  0.7513E-02
      0.541  0.4026E-01 -0.1293E-01  0.2622E-02 -0.8051E-03  0.1561E-03 -0.8924E-04  0.8194E-02 -0.2581E-02  0.2924E-02 -0.9939E-03  0.5331E-03 -0.2884E-03  0.5423E-03 -0.1620E-03  0.5258E-03 -0.2976E-03  0.7794E-03 -0.2405E-03
      0.632  0.3994E-02  0.5571E-01  0.1196E-03  0.1982E-02  0.1668E-03  0.1986E-02  0.6214E-03  0.9092E-02  0.5045E-03  0.6550E-02  0.5068E-03  0.6043E-02  0.8436E-05  0.2189E-03  0.5505E-03  0.6554E-02  0.4156E-04  0.6582E-03
      0.723  0.1758E+00  0.1246E+00  0.6265E-02  0.4437E-02  0.6265E-02  0.4437E-02  0.2872E-01  0.2034E-01  0.2068E-01  0.1464E-01  0.1907E-01  0.1350E-01  0.6948E-03  0.4910E-03  0.2068E-01  0.1464E-01  0.2084E-02  0.1473E-02
      0.814 -0.5481E-02 -0.4104E-02 -0.1953E-03 -0.1461E-03 -0.1953E-03 -0.1461E-03 -0.8952E-03 -0.6699E-03 -0.6446E-03 -0.4823E-03 -0.5945E-03 -0.4447E-03 -0.2166E-04 -0.1617E-04 -0.6446E-03 -0.4823E-03 -0.6497E-04 -0.4852E-04
      0.905 -0.2835E-04 -0.1361E-05 -0.1010E-05 -0.4847E-07 -0.1010E-05 -0.4847E-07 -0.4630E-05 -0.2215E-06 -0.3334E-05 -0.1616E-06 -0.3075E-05 -0.1492E-06 -0.1120E-06 -0.5346E-08 -0.3334E-05 -0.1616E-06 -0.3361E-06 -0.1604E-07
      0.996 -0.2734E-04 -0.2933E-03 -0.1253E-05 -0.1575E-04 -0.1255E-05 -0.1584E-04 -0.4502E-06 -0.4294E-05 -0.1052E-04 -0.1064E-03 -0.1107E-04 -0.1143E-03 -0.1221E-07 -0.2409E-06 -0.1052E-04 -0.1064E-03 -0.2849E-07 -0.4055E-06
      1.087 -0.5705E-02  0.1055E-01 -0.5076E-03  0.5359E-03 -0.6454E-03 -0.1940E-03 -0.3155E-04  0.1938E-03 -0.1364E-02  0.4843E-02 -0.1691E-02  0.5070E-02 -0.1731E-03 -0.8810E-03 -0.1365E-02  0.4836E-02 -0.1689E-04  0.1211E-04
      1.178  0.1963E+00  0.2516E+00  0.1435E-01  0.1556E-01  0.2169E-01  0.4315E-01  0.1685E-02  0.1999E-02  0.5192E-01  0.5089E-01  0.6067E-01  0.6045E-01  0.9080E-02  0.3362E-01  0.5200E-01  0.5118E-01  0.4493E-03  0.4789E-03
      1.269  0.1379E+00  0.8150E-01  0.1478E-02  0.2474E-02  0.5021E-01  0.3051E-01  0.1147E-02  0.5887E-03  0.3835E-02 -0.6723E-03  0.4216E-02  0.1740E-02  0.5922E-01  0.3403E-01  0.4354E-02 -0.3729E-03 -0.1257E-04  0.1215E-03