    1    1    1    2
  0.1865462E+02  0.2976920E-09  0.2976920E-09  0.2976920E-09  0.5000000E-15
  1.000000000000000E-004
  CAR 
 unknown system                          
    5   28    9
 
  0.8333333E-01  0.8333333E-01  0.8333333E-01  0.9259259E-02
   1       -2.015233     -2.041283
   2        6.065772      6.044326
   3        6.435299      6.414259
   4        6.435299      6.414259
   5        9.189307      9.170574
   6        9.189307      9.170574
   7       18.920313     18.890415
   8       19.402176     19.389368
   9       21.971845     21.948377
 
  0.2500000E+00  0.8333333E-01  0.8333333E-01  0.2777778E-01
   1       -0.697765     -0.723634
   2        5.213280      5.190824
   3        6.695775      6.674930
   4        6.946349      6.925674
   5        8.414402      8.394976
   6        9.679843      9.661302
   7       19.397966     19.385088
   8       19.750397     19.727782
   9       21.519131     21.492350
 
  0.4166667E+00  0.8333333E-01  0.8333333E-01  0.2777778E-01
   1        1.149792      1.124239
   2        5.303547      5.280415
   3        6.088571      6.067461
   4        6.513507      6.492834
   5       10.000995      9.982693
   6       11.490162     11.473055
   7       17.211551     17.191324
   8       19.405674     19.392774
   9       20.148334     20.123827
 
 -0.4166667E+00  0.8333333E-01  0.8333333E-01  0.2777778E-01
   1        1.461273      1.435912
   2        5.553875      5.532669
   3        6.318711      6.297916
   4        6.414128      6.390768
   5       11.700686     11.684515
   6       11.876433     11.859353
   7       15.783240     15.764332
   8       18.573907     18.548620
   9       19.410283     19.397413
 
 -0.2500000E+00  0.8333333E-01  0.8333333E-01  0.2777778E-01
   1        0.668775      0.643131
   2        4.934173      4.911170
   3        6.276591      6.255725
   4        6.791370      6.770677
   5        9.555421      9.536343
   6       10.570535     10.552844
   7       18.003109     17.981933
   8       19.407878     19.395007
   9       21.578283     21.554765
 
 -0.8333333E-01  0.8333333E-01  0.8333333E-01  0.2777778E-01
   1       -1.320926     -1.346864
   2        5.455876      5.433808
   3        6.777377      6.756511
   4        6.802294      6.781432
   5        8.407046      8.387580
   6        9.520759      9.502279
   7       19.402288     19.389488
   8       20.217649     20.189089
   9       21.162398     21.139964
 
  0.2500000E+00  0.2500000E+00  0.8333333E-01  0.2777778E-01
   1       -0.089924     -0.115513
   2        4.537378      4.514607
   3        6.725192      6.704425
   4        7.543888      7.523381
   5        8.097378      8.077097
   6       10.122718     10.104735
   7       19.403194     19.390406
   8       20.989732     20.968800
   9       22.676626     22.649567
 
  0.4166667E+00  0.2500000E+00  0.8333333E-01  0.5555556E-01
   1        1.679903      1.655210
   2        3.993630      3.970398
   3        5.497212      5.475333
   4        8.152180      8.132019
   5        9.536010      9.516451
   6       11.786826     11.769767
   7       18.898221     18.877542
   8       19.422308     19.409059
   9       22.226834     22.121410
 
 -0.4166667E+00  0.2500000E+00  0.8333333E-01  0.5555556E-01
   1        2.670086      2.645427
   2        4.156057      4.134794
   3        5.586051      5.562559
   4        7.539059      7.518740
   5       11.257619     11.240235
   6       13.676086     13.656865
   7       14.938179     14.918042
   8       19.408658     19.395812
   9       20.971697     20.950114
 
 -0.2500000E+00  0.2500000E+00  0.8333333E-01  0.5555556E-01
   1        2.397091      2.372052
   2        4.521420      4.498687
   3        4.930198      4.908271
   4        7.670939      7.650739
   5        9.538090      9.519112
   6       12.911101     12.894266
   7       17.555693     17.533833
   8       19.411989     19.399083
   9       21.500753     21.477834
 
 -0.8333333E-01  0.2500000E+00  0.8333333E-01  0.5555556E-01
   1        0.422027      0.396414
   2        4.646304      4.623384
   3        6.266423      6.245525
   4        7.400785      7.380362
   5        8.446694      8.426861
   6       10.651017     10.633128
   7       19.383566     19.370108
   8       19.572283     19.552280
   9       22.785063     22.759820
 
  0.4166667E+00  0.4166667E+00  0.8333333E-01  0.2777778E-01
   1        1.709814      1.687202
   2        3.000412      2.976817
   3        6.707617      6.682965
   4        9.931931      9.913023
   5       11.004178     10.985042
   6       11.643708     11.627159
   7       18.356246     18.333188
   8       19.408909     19.395995
   9       19.741172     19.717399
 
 -0.4166667E+00  0.4166667E+00  0.8333333E-01  0.5555556E-01
   1        2.179505      2.157782
   2        3.153418      3.129797
   3        6.729655      6.705252
   4        9.730576      9.711143
   5       11.958412     11.941966
   6       14.168918     14.150019
   7       15.232864     15.209269
   8       18.228894     18.205063
   9       19.408773     19.395866
 
 -0.2500000E+00  0.4166667E+00  0.8333333E-01  0.5555556E-01
   1        3.260824      3.237855
   2        3.787939      3.765457
   3        5.334456      5.310755
   4        8.210958      8.190883
   5       10.913595     10.895873
   6       13.313130     13.291059
   7       16.595426     16.576212
   8       19.363425     19.347980
   9       19.477400     19.460117
 
 -0.8333333E-01  0.4166667E+00  0.8333333E-01  0.5555556E-01
   1        1.843628      1.818393
   2        4.980190      4.958676
   3        5.752636      5.729663
   4        6.826777      6.806185
   5       10.817826     10.799980
   6       12.481942     12.465079
   7       16.261849     16.241897
   8       19.409252     19.396373
   9       19.910166     19.885576
 
 -0.4166667E+00 -0.4166667E+00  0.8333333E-01  0.2777778E-01
   1        1.616550      1.594700
   2        2.653605      2.629859
   3        8.009947      7.984103
   4       11.026098     11.008524
   5       12.159242     12.143393
   6       12.692525     12.674958
   7       16.213816     16.188991
   8       17.877663     17.852254
   9       19.188829     19.170075
 
 -0.2500000E+00 -0.4166667E+00  0.8333333E-01  0.5555556E-01
   1        2.271799      2.249132
   2        3.444365      3.420942
   3        5.709073      5.685284
   4        9.138918      9.119166
   5       10.993717     10.975354
   6       12.840327     12.822982
   7       16.874050     16.851101
   8       19.408446     19.395574
   9       19.921053     19.897564
 
 -0.2500000E+00 -0.2500000E+00  0.8333333E-01  0.2777778E-01
   1        1.202562      1.178097
   2        3.657695      3.634411
   3        6.089598      6.067261
   4        8.628080      8.608182
   5        9.295009      9.275115
   6       10.880000     10.862706
   7       19.401534     19.388764
   8       20.752262     20.731262
   9       22.263094     22.240559
 
  0.2500000E+00  0.2500000E+00  0.2500000E+00  0.9259259E-02
   1       -0.211149     -0.236982
   2        5.151582      5.128871
   3        6.713112      6.692361
   4        6.713112      6.692361
   5        9.366533      9.347758
   6        9.366533      9.347758
   7       18.385966     18.363279
   8       19.407247     19.394377
   9       22.094500     22.070173
 
  0.4166667E+00  0.2500000E+00  0.2500000E+00  0.2777778E-01
   1        1.325086      1.299549
   2        4.699394      4.676233
   3        5.742240      5.721188
   4        7.275971      7.255748
   5        8.643627      8.624128
   6       11.864794     11.847648
   7       18.705192     18.685240
   8       19.416094     19.403052
   9       21.781935     21.756048
 
 -0.4166667E+00  0.2500000E+00  0.2500000E+00  0.2777778E-01
   1        2.984944      2.960004
   2        4.251620      4.230578
   3        5.152834      5.129223
   4        7.697113      7.677103
   5       10.024302     10.005989
   6       13.062584     13.043165
   7       17.156964     17.136838
   8       19.410480     19.397608
   9       20.298641     20.278480
 
 -0.2500000E+00  0.2500000E+00  0.2500000E+00  0.2777778E-01
   1        2.438329      2.414718
   2        3.834374      3.811918
   3        5.607112      5.583485
   4        8.128759      8.108806
   5       11.879415     11.863366
   6       12.850007     12.829700
   7       15.424301     15.403199
   8       19.408860     19.396015
   9       21.584530     21.254102
 
  0.4166667E+00  0.4166667E+00  0.2500000E+00  0.2777778E-01
   1        1.710782      1.685750
   2        4.464898      4.442254
   3        5.589413      5.567350
   4        7.283857      7.263424
   5       10.851114     10.831771
   6       11.581259     11.564769
   7       17.381000     17.360943
   8       19.410857     19.397971
   9       20.819376     20.795300
 
 -0.4166667E+00  0.4166667E+00  0.2500000E+00  0.5555556E-01
   1        3.171970      3.149060
   2        3.997214      3.974441
   3        4.759028      4.735422
   4        8.327135      8.306881
   5       10.782589     10.764482
   6       13.604329     13.585235
   7       16.477931     16.456478
   8       19.405729     19.392790
   9       19.686296     19.664387
 
 -0.2500000E+00  0.4166667E+00  0.2500000E+00  0.5555556E-01
   1        3.012926      2.991690
   2        4.000982      3.977286
   3        5.257592      5.233764
   4        8.278381      8.257554
   5       11.870358     11.853621
   6       14.877566     14.856410
   7       15.602793     15.580917
   8       18.012033     17.989833
   9       19.412504     19.399586
 
 -0.4166667E+00 -0.4166667E+00  0.2500000E+00  0.2777778E-01
   1        2.548717      2.526472
   2        3.529225      3.506127
   3        6.183525      6.159417
   4        9.063673      9.044310
   5       11.445979     11.429237
   6       13.421367     13.396955
   7       15.577873     15.559424
   8       19.392711     19.379798
   9       19.728689     19.710417
 
  0.4166667E+00  0.4166667E+00  0.4166667E+00  0.9259259E-02
   1        1.130666      1.105153
   2        6.062349      6.038749
   3        6.169442      6.148595
   4        6.169442      6.148595
   5       11.236642     11.219788
   6       11.236642     11.219788
   7       16.371378     16.351758
   8       18.714733     18.690249
   9       19.413449     19.400482
 
 -0.4166667E+00  0.4166667E+00  0.4166667E+00  0.2777778E-01
   1        2.152690      2.127561
   2        4.749154      4.728063
   3        5.968196      5.944736
   4        6.893019      6.872525
   5       11.082410     11.065320
   6       12.975767     12.957555
   7       15.510330     15.490758
   8       19.409877     19.397020
   9       20.101353     20.077731
