       N       E                     dE             d eps       ncg     rms          rms(c)
DAV:   1     0.269513253253E+01    0.26951E+01   -0.13188E+03  1226   0.213E+02
DAV:   2    -0.177241065480E+01   -0.44675E+01   -0.38790E+01  1179   0.325E+01
DAV:   3    -0.183021846145E+01   -0.57808E-01   -0.56399E-01  1287   0.302E+00
DAV:   4    -0.183025739033E+01   -0.38929E-04   -0.38927E-04  1315   0.792E-02
DAV:   5    -0.183025740835E+01   -0.18022E-07   -0.17664E-07  1266   0.151E-03    0.695E+00
DAV:   6    -0.112308567851E+02   -0.94006E+01   -0.26853E+00  1087   0.440E+00    0.435E+00
DAV:   7    -0.111462833906E+02    0.84573E-01   -0.43623E-02  1271   0.956E-01    0.465E+00
DAV:   8    -0.114131887700E+02   -0.26691E+00   -0.41191E-01  1109   0.372E+00    0.255E+00
DAV:   9    -0.115707351821E+02   -0.15755E+00   -0.16688E-01  1090   0.200E+00    0.127E+00
DAV:  10    -0.116292148122E+02   -0.58480E-01   -0.69218E-02  1110   0.131E+00    0.395E-01
DAV:  11    -0.116307982359E+02   -0.15834E-02   -0.38917E-03  1093   0.321E-01    0.112E-01
DAV:  12    -0.116307688848E+02    0.29351E-04   -0.17114E-03  1073   0.219E-01    0.965E-02
DAV:  13    -0.116311753864E+02   -0.40650E-03   -0.28082E-04  1062   0.103E-01    0.445E-02
DAV:  14    -0.116311746833E+02    0.70311E-06   -0.10452E-04   621   0.474E-02
   1 F= -.11631175E+02 E0= -.11630899E+02  d E =-.827129E-03  mag=    -0.0346
