PROCAR lm decomposed
# of k-points:   28         # of bands:   9         # of ions:   1

 k-point    1 :    0.08333333 0.08333333 0.08333333     weight = 0.00925926

band   1 # energy   -2.01523255 # occ.  1.00000000
 
ion      s     py     pz     px    dxy    dyz    dz2    dxz    dx2    tot
  1  0.821  0.007  0.007  0.007  0.000  0.000  0.000  0.000  0.000  0.843
 
band   2 # energy    6.06577158 # occ.  0.00000000
 
ion      s     py     pz     px    dxy    dyz    dz2    dxz    dx2    tot
  1  0.000  0.004  0.004  0.004  0.327  0.327  0.000  0.327  0.000  0.991
 
band   3 # energy    6.43529877 # occ.  0.00000000
 
ion      s     py     pz     px    dxy    dyz    dz2    dxz    dx2    tot
  1  0.000  0.001  0.000  0.002  0.124  0.638  0.001  0.231  0.003  0.998
 
band   4 # energy    6.43529877 # occ.  0.00000000
 
ion      s     py     pz     px    dxy    dyz    dz2    dxz    dx2    tot
  1  0.000  0.001  0.001  0.000  0.538  0.024  0.003  0.431  0.001  0.998
 
band   5 # energy    9.18930730 # occ.  0.00000000
 
ion      s     py     pz     px    dxy    dyz    dz2    dxz    dx2    tot
  1  0.000  0.000  0.000  0.000  0.002  0.000  0.774  0.001  0.196  0.973
 
band   6 # energy    9.18930731 # occ.  0.00000000
 
ion      s     py     pz     px    dxy    dyz    dz2    dxz    dx2    tot
  1  0.000  0.000  0.000  0.000  0.000  0.002  0.196  0.001  0.774  0.973
 
band   7 # energy   18.92031315 # occ.  0.00000000
 
ion      s     py     pz     px    dxy    dyz    dz2    dxz    dx2    tot
  1  0.000  0.000  0.000  0.000  0.009  0.009  0.000  0.009  0.000  0.026
 
band   8 # energy   19.40217570 # occ.  0.00000000
 
ion      s     py     pz     px    dxy    dyz    dz2    dxz    dx2    tot
  1 43.813  0.000  0.000  0.000  0.000  0.000  0.000  0.000  0.000 43.813
 
band   9 # energy   21.97184496 # occ.  0.00000000
 
ion      s     py     pz     px    dxy    dyz    dz2    dxz    dx2    tot
  1  0.061  0.033  0.033  0.033  0.005  0.005  0.000  0.005  0.000  0.175
 

 k-point    2 :    0.25000000 0.08333333 0.08333333     weight = 0.02777778

band   1 # energy   -0.69776460 # occ.  1.00000000
 
ion      s     py     pz     px    dxy    dyz    dz2    dxz    dx2    tot
  1  0.731  0.052  0.052  0.005  0.004  0.019  0.001  0.004  0.002  0.868
 
band   2 # energy    5.21327960 # occ.  1.00000000
 
ion      s     py     pz     px    dxy    dyz    dz2    dxz    dx2    tot
  1  0.001  0.007  0.007  0.045  0.435  0.035  0.000  0.435  0.000  0.967
 
band   3 # energy    6.69577468 # occ.  0.00000000
 
ion      s     py     pz     px    dxy    dyz    dz2    dxz    dx2    tot
  1  0.000  0.015  0.015  0.001  0.020  0.705  0.050  0.020  0.149  0.974
 
band   4 # energy    6.94634948 # occ.  0.00000000
 
ion      s     py     pz     px    dxy    dyz    dz2    dxz    dx2    tot
  1  0.000  0.000  0.000  0.000  0.446  0.000  0.067  0.446  0.022  0.982
 
band   5 # energy    8.41440226 # occ.  0.00000000
 
ion      s     py     pz     px    dxy    dyz    dz2    dxz    dx2    tot
  1  0.000  0.002  0.002  0.000  0.044  0.000  0.638  0.044  0.213  0.943
 
band   6 # energy    9.67984336 # occ.  0.00000000
 
ion      s     py     pz     px    dxy    dyz    dz2    dxz    dx2    tot
  1  0.004  0.005  0.005  0.000  0.004  0.184  0.187  0.004  0.562  0.956
 
band   7 # energy   19.39796624 # occ.  0.00000000
 
ion      s     py     pz     px    dxy    dyz    dz2    dxz    dx2    tot
  1 42.715  0.001  0.001  0.000  0.000  0.001  0.000  0.000  0.000 42.717
 
band   8 # energy   19.75039735 # occ.  0.00000000
 
ion      s     py     pz     px    dxy    dyz    dz2    dxz    dx2    tot
  1  1.161  0.026  0.026  0.012  0.000  0.028  0.007  0.000  0.020  1.279
 
band   9 # energy   21.51913086 # occ.  0.00000000
 
ion      s     py     pz     px    dxy    dyz    dz2    dxz    dx2    tot
  1  0.040  0.010  0.010  0.003  0.073  0.030  0.001  0.073  0.004  0.245
 

 k-point    3 :    0.41666667 0.08333333 0.08333333     weight = 0.02777778

band   1 # energy    1.14979153 # occ.  1.00000000
 
ion      s     py     pz     px    dxy    dyz    dz2    dxz    dx2    tot
  1  0.471  0.046  0.046  0.002  0.115  0.146  0.001  0.115  0.002  0.944
 
band   2 # energy    5.30354748 # occ.  1.00000000
 
ion      s     py     pz     px    dxy    dyz    dz2    dxz    dx2    tot
  1  0.036  0.130  0.130  0.156  0.172  0.044  0.012  0.172  0.036  0.889
 
band   3 # energy    6.08857062 # occ.  0.00000000
 
ion      s     py     pz     px    dxy    dyz    dz2    dxz    dx2    tot
  1  0.004  0.001  0.001  0.013  0.091  0.293  0.118  0.091  0.353  0.963
 
band   4 # energy    6.51350734 # occ.  0.00000000
 
ion      s     py     pz     px    dxy    dyz    dz2    dxz    dx2    tot
  1  0.000  0.000  0.000  0.000  0.196  0.000  0.433  0.196  0.144  0.969
 
band   5 # energy   10.00099517 # occ.  0.00000000
 
ion      s     py     pz     px    dxy    dyz    dz2    dxz    dx2    tot
  1  0.000  0.006  0.006  0.000  0.281  0.000  0.267  0.281  0.089  0.932
 
band   6 # energy   11.49016214 # occ.  0.00000000
 
ion      s     py     pz     px    dxy    dyz    dz2    dxz    dx2    tot
  1  0.011  0.022  0.022  0.001  0.031  0.414  0.106  0.031  0.319  0.957
 
band   7 # energy   17.21155088 # occ.  0.00000000
 
ion      s     py     pz     px    dxy    dyz    dz2    dxz    dx2    tot
  1  0.182  0.033  0.033  0.028  0.049  0.107  0.005  0.049  0.014  0.500
 
band   8 # energy   19.40567415 # occ.  0.00000000
 
ion      s     py     pz     px    dxy    dyz    dz2    dxz    dx2    tot
  1 43.433  0.000  0.000  0.000  0.000  0.000  0.000  0.000  0.000 43.434
 
band   9 # energy   20.14833364 # occ.  0.00000000
 
ion      s     py     pz     px    dxy    dyz    dz2    dxz    dx2    tot
  1  0.680  0.071  0.071  0.036  0.079  0.035  0.001  0.079  0.004  1.055
 

 k-point    4 :   -0.41666667 0.08333333 0.08333333     weight = 0.02777778

band   1 # energy    1.46127328 # occ.  1.00000000
 
ion      s     py     pz     px    dxy    dyz    dz2    dxz    dx2    tot
  1  0.344  0.001  0.001  0.020  0.194  0.227  0.000  0.194  0.001  0.982
 
band   2 # energy    5.55387458 # occ.  1.00000070
 
ion      s     py     pz     px    dxy    dyz    dz2    dxz    dx2    tot
  1  0.000  0.073  0.073  0.037  0.045  0.071  0.140  0.045  0.421  0.905
 
band   3 # energy    6.31871089 # occ.  0.00000000
 
ion      s     py     pz     px    dxy    dyz    dz2    dxz    dx2    tot
  1  0.000  0.003  0.003  0.000  0.187  0.000  0.441  0.187  0.147  0.969
 
band   4 # energy    6.41412773 # occ.  0.00000000
 
ion      s     py     pz     px    dxy    dyz    dz2    dxz    dx2    tot
  1  0.006  0.166  0.166  0.199  0.030  0.263  0.012  0.030  0.037  0.910
 
band   5 # energy   11.70068566 # occ.  0.00000000
 
ion      s     py     pz     px    dxy    dyz    dz2    dxz    dx2    tot
  1  0.000  0.000  0.000  0.000  0.301  0.000  0.273  0.301  0.091  0.966
 
band   6 # energy   11.87643307 # occ.  0.00000000
 
ion      s     py     pz     px    dxy    dyz    dz2    dxz    dx2    tot
  1  0.000  0.023  0.023  0.053  0.097  0.312  0.084  0.097  0.253  0.942
 
band   7 # energy   15.78324023 # occ.  0.00000000
 
ion      s     py     pz     px    dxy    dyz    dz2    dxz    dx2    tot
  1  0.464  0.003  0.003  0.004  0.166  0.123  0.000  0.166  0.000  0.929
 
band   8 # energy   18.57390722 # occ.  0.00000000
 
ion      s     py     pz     px    dxy    dyz    dz2    dxz    dx2    tot
  1  0.005  0.014  0.014  0.025  0.000  0.027  0.004  0.000  0.011  0.100
 
band   9 # energy   19.41028250 # occ.  0.00000000
 
ion      s     py     pz     px    dxy    dyz    dz2    dxz    dx2    tot
  1 44.011  0.000  0.000  0.000  0.000  0.000  0.000  0.000  0.000 44.012
 

 k-point    5 :   -0.25000000 0.08333333 0.08333333     weight = 0.02777778

band   1 # energy    0.66877477 # occ.  1.00000000
 
ion      s     py     pz     px    dxy    dyz    dz2    dxz    dx2    tot
  1  0.573  0.020  0.020  0.094  0.067  0.062  0.002  0.067  0.007  0.914
 
band   2 # energy    4.93417262 # occ.  1.00000000
 
ion      s     py     pz     px    dxy    dyz    dz2    dxz    dx2    tot
  1  0.022  0.087  0.087  0.058  0.099  0.457  0.005  0.099  0.014  0.930
 
band   3 # energy    6.27659066 # occ.  0.00000000
 
ion      s     py     pz     px    dxy    dyz    dz2    dxz    dx2    tot
  1  0.003  0.001  0.001  0.000  0.101  0.230  0.131  0.101  0.392  0.959
 
band   4 # energy    6.79136996 # occ.  0.00000000
 
ion      s     py     pz     px    dxy    dyz    dz2    dxz    dx2    tot
  1  0.000  0.009  0.009  0.000  0.275  0.000  0.302  0.275  0.101  0.970
 
band   5 # energy    9.55542071 # occ.  0.00000000
 
ion      s     py     pz     px    dxy    dyz    dz2    dxz    dx2    tot
  1  0.008  0.005  0.005  0.041  0.161  0.175  0.095  0.161  0.284  0.936
 
band   6 # energy   10.57053493 # occ.  0.00000000
 
ion      s     py     pz     px    dxy    dyz    dz2    dxz    dx2    tot
  1  0.000  0.006  0.006  0.000  0.195  0.000  0.411  0.195  0.137  0.949
 
band   7 # energy   18.00310899 # occ.  0.00000000
 
ion      s     py     pz     px    dxy    dyz    dz2    dxz    dx2    tot
  1  0.094  0.031  0.031  0.025  0.050  0.011  0.004  0.050  0.013  0.309
 
band   8 # energy   19.40787759 # occ.  0.00000000
 
ion      s     py     pz     px    dxy    dyz    dz2    dxz    dx2    tot
  1 43.782  0.000  0.000  0.000  0.000  0.000  0.000  0.000  0.000 43.782
 
band   9 # energy   21.57828294 # occ.  0.00000000
 
ion      s     py     pz     px    dxy    dyz    dz2    dxz    dx2    tot
  1  0.282  0.070  0.070  0.085  0.093  0.131  0.002  0.093  0.006  0.830
 

 k-point    6 :   -0.08333333 0.08333333 0.08333333     weight = 0.02777778

band   1 # energy   -1.32092627 # occ.  1.00000000
 
ion      s     py     pz     px    dxy    dyz    dz2    dxz    dx2    tot
  1  0.776  0.006  0.006  0.059  0.002  0.000  0.001  0.002  0.002  0.855
 
band   2 # energy    5.45587626 # occ.  1.00000000
 
ion      s     py     pz     px    dxy    dyz    dz2    dxz    dx2    tot
  1  0.000  0.008  0.008  0.001  0.061  0.840  0.000  0.061  0.000  0.978
 
band   3 # energy    6.77737663 # occ.  0.00000000
 
ion      s     py     pz     px    dxy    dyz    dz2    dxz    dx2    tot
  1  0.000  0.007  0.007  0.004  0.396  0.129  0.011  0.396  0.033  0.982
 
band   4 # energy    6.80229422 # occ.  0.00000000
 
ion      s     py     pz     px    dxy    dyz    dz2    dxz    dx2    tot
  1  0.000  0.010  0.010  0.000  0.469  0.000  0.022  0.469  0.007  0.989
 
band   5 # energy    8.40704615 # occ.  0.00000000
 
ion      s     py     pz     px    dxy    dyz    dz2    dxz    dx2    tot
  1  0.003  0.000  0.000  0.003  0.018  0.005  0.224  0.018  0.671  0.944
 
band   6 # energy    9.52075925 # occ.  0.00000000
 
ion      s     py     pz     px    dxy    dyz    dz2    dxz    dx2    tot
  1  0.000  0.000  0.000  0.000  0.015  0.000  0.705  0.015  0.235  0.970
 
band   7 # energy   19.40228760 # occ.  0.00000000
 
ion      s     py     pz     px    dxy    dyz    dz2    dxz    dx2    tot
  1 43.738  0.000  0.000  0.000  0.000  0.000  0.000  0.000  0.000 43.739
 
band   8 # energy   20.21764950 # occ.  0.00000000
 
ion      s     py     pz     px    dxy    dyz    dz2    dxz    dx2    tot
  1  0.021  0.002  0.002  0.002  0.002  0.056  0.001  0.002  0.002  0.091
 
band   9 # energy   21.16239777 # occ.  0.00000000
 
ion      s     py     pz     px    dxy    dyz    dz2    dxz    dx2    tot
  1  0.131  0.020  0.020  0.031  0.019  0.017  0.008  0.019  0.025  0.293
 

 k-point    7 :    0.25000000 0.25000000 0.08333333     weight = 0.02777778

band   1 # energy   -0.08992419 # occ.  1.00000000
 
ion      s     py     pz     px    dxy    dyz    dz2    dxz    dx2    tot
  1  0.673  0.005  0.143  0.005  0.001  0.005  0.037  0.005  0.000  0.874
 
band   2 # energy    4.53737843 # occ.  1.00000000
 
ion      s     py     pz     px    dxy    dyz    dz2    dxz    dx2    tot
  1  0.000  0.008  0.001  0.008  0.926  0.017  0.000  0.017  0.000  0.977
 
band   3 # energy    6.72519159 # occ.  0.00000000
 
ion      s     py     pz     px    dxy    dyz    dz2    dxz    dx2    tot
  1  0.015  0.007  0.008  0.007  0.016  0.126  0.634  0.126  0.000  0.938
 
band   4 # energy    7.54388793 # occ.  0.00000000
 
ion      s     py     pz     px    dxy    dyz    dz2    dxz    dx2    tot
  1  0.000  0.024  0.000  0.024  0.000  0.419  0.000  0.419  0.082  0.969
 
band   5 # energy    8.09737774 # occ.  0.00000000
 
ion      s     py     pz     px    dxy    dyz    dz2    dxz    dx2    tot
  1  0.011  0.018  0.022  0.018  0.029  0.306  0.243  0.306  0.000  0.951
 
band   6 # energy   10.12271773 # occ.  0.00000000
 
ion      s     py     pz     px    dxy    dyz    dz2    dxz    dx2    tot
  1  0.000  0.002  0.000  0.002  0.000  0.040  0.000  0.040  0.885  0.967
 
band   7 # energy   19.40319448 # occ.  0.00000000
 
ion      s     py     pz     px    dxy    dyz    dz2    dxz    dx2    tot
  1 43.665  0.000  0.000  0.000  0.000  0.000  0.000  0.000  0.000 43.666
 
band   8 # energy   20.98973243 # occ.  0.00000000
 
ion      s     py     pz     px    dxy    dyz    dz2    dxz    dx2    tot
  1  0.196  0.035  0.020  0.035  0.000  0.027  0.094  0.027  0.000  0.433
 
band   9 # energy   22.67662642 # occ.  0.00000000
 
ion      s     py     pz     px    dxy    dyz    dz2    dxz    dx2    tot
  1  0.011  0.007  0.003  0.007  0.180  0.018  0.002  0.018  0.000  0.245
 

 k-point    8 :    0.41666667 0.25000000 0.08333333     weight = 0.05555556

band   1 # energy    1.67990341 # occ.  1.00000000
 
ion      s     py     pz     px    dxy    dyz    dz2    dxz    dx2    tot
  1  0.450  0.033  0.178  0.001  0.027  0.052  0.149  0.011  0.000  0.900
 
band   2 # energy    3.99362990 # occ.  1.00000000
 
ion      s     py     pz     px    dxy    dyz    dz2    dxz    dx2    tot
  1  0.003  0.016  0.006  0.065  0.798  0.005  0.024  0.053  0.000  0.972
 
band   3 # energy    5.49721151 # occ.  1.00000000
 
ion      s     py     pz     px    dxy    dyz    dz2    dxz    dx2    tot
  1  0.049  0.016  0.042  0.000  0.037  0.240  0.502  0.008  0.035  0.929
 
band   4 # energy    8.15218043 # occ.  0.00000000
 
ion      s     py     pz     px    dxy    dyz    dz2    dxz    dx2    tot
  1  0.004  0.023  0.029  0.018  0.016  0.136  0.076  0.262  0.376  0.939
 
band   5 # energy    9.53600990 # occ.  0.00000000
 
ion      s     py     pz     px    dxy    dyz    dz2    dxz    dx2    tot
  1  0.008  0.012  0.049  0.041  0.065  0.039  0.097  0.511  0.107  0.930
 
band   6 # energy   11.78682646 # occ.  0.00000000
 
ion      s     py     pz     px    dxy    dyz    dz2    dxz    dx2    tot
  1  0.023  0.024  0.030  0.000  0.001  0.419  0.040  0.009  0.422  0.968
 
band   7 # energy   18.89822073 # occ.  0.00000000
 
ion      s     py     pz     px    dxy    dyz    dz2    dxz    dx2    tot
  1  0.749  0.164  0.082  0.042  0.011  0.127  0.012  0.042  0.027  1.257
 
band   8 # energy   19.42230848 # occ.  0.00000000
 
ion      s     py     pz     px    dxy    dyz    dz2    dxz    dx2    tot
  1 43.342  0.005  0.001  0.002  0.000  0.005  0.001  0.002  0.001 43.358
 
band   9 # energy   22.22683408 # occ.  0.00000000
 
ion      s     py     pz     px    dxy    dyz    dz2    dxz    dx2    tot
  1  0.000  0.041  0.001  0.459  0.077  0.015  0.021  0.215  0.016  0.845
 

 k-point    9 :   -0.41666667 0.25000000 0.08333333     weight = 0.05555556

band   1 # energy    2.67008625 # occ.  1.00000000
 
ion      s     py     pz     px    dxy    dyz    dz2    dxz    dx2    tot
  1  0.232  0.000  0.069  0.024  0.345  0.158  0.054  0.088  0.000  0.971
 
band   2 # energy    4.15605733 # occ.  1.00000000
 
ion      s     py     pz     px    dxy    dyz    dz2    dxz    dx2    tot
  1  0.001  0.118  0.006  0.063  0.005  0.051  0.554  0.014  0.062  0.873
 
band   3 # energy    5.58605050 # occ.  1.00004696
 
ion      s     py     pz     px    dxy    dyz    dz2    dxz    dx2    tot
  1  0.015  0.040  0.170  0.093  0.340  0.261  0.015  0.011  0.009  0.955
 
band   4 # energy    7.53905929 # occ.  0.00000000
 
ion      s     py     pz     px    dxy    dyz    dz2    dxz    dx2    tot
  1  0.001  0.008  0.025  0.019  0.006  0.030  0.068  0.205  0.576  0.938
 
band   5 # energy   11.25761941 # occ.  0.00000000
 
ion      s     py     pz     px    dxy    dyz    dz2    dxz    dx2    tot
  1  0.034  0.003  0.006  0.002  0.073  0.172  0.029  0.438  0.180  0.937
 
band   6 # energy   13.67608631 # occ.  0.00000000
 
ion      s     py     pz     px    dxy    dyz    dz2    dxz    dx2    tot
  1  0.002  0.059  0.186  0.122  0.134  0.188  0.166  0.001  0.062  0.920
 
band   7 # energy   14.93817923 # occ.  0.00000000
 
ion      s     py     pz     px    dxy    dyz    dz2    dxz    dx2    tot
  1  0.493  0.003  0.001  0.004  0.053  0.115  0.021  0.202  0.024  0.916
 
band   8 # energy   19.40865778 # occ.  0.00000000
 
ion      s     py     pz     px    dxy    dyz    dz2    dxz    dx2    tot
  1 43.919  0.000  0.000  0.000  0.000  0.000  0.000  0.000  0.000 43.920
 
band   9 # energy   20.97169716 # occ.  0.00000000
 
ion      s     py     pz     px    dxy    dyz    dz2    dxz    dx2    tot
  1  0.024  0.011  0.112  0.001  0.013  0.062  0.193  0.011  0.007  0.435
 

 k-point   10 :   -0.25000000 0.25000000 0.08333333     weight = 0.05555556

band   1 # energy    2.39709113 # occ.  1.00000000
 
ion      s     py     pz     px    dxy    dyz    dz2    dxz    dx2    tot
  1  0.386  0.068  0.002  0.151  0.193  0.057  0.016  0.028  0.026  0.929
 
band   2 # energy    4.52141979 # occ.  1.00000000
 
ion      s     py     pz     px    dxy    dyz    dz2    dxz    dx2    tot
  1  0.004  0.059  0.125  0.029  0.022  0.394  0.136  0.114  0.042  0.925
 
band   3 # energy    4.93019752 # occ.  1.00000000
 
ion      s     py     pz     px    dxy    dyz    dz2    dxz    dx2    tot
  1  0.018  0.014  0.031  0.002  0.240  0.189  0.351  0.028  0.067  0.940
 
band   4 # energy    7.67093911 # occ.  0.00000000
 
ion      s     py     pz     px    dxy    dyz    dz2    dxz    dx2    tot
  1  0.001  0.002  0.003  0.050  0.012  0.033  0.079  0.109  0.646  0.936
 
band   5 # energy    9.53809033 # occ.  0.00000000
 
ion      s     py     pz     px    dxy    dyz    dz2    dxz    dx2    tot
  1  0.000  0.000  0.018  0.016  0.000  0.210  0.006  0.561  0.121  0.931
 
band   6 # energy   12.91110147 # occ.  0.00000000
 
ion      s     py     pz     px    dxy    dyz    dz2    dxz    dx2    tot
  1  0.107  0.022  0.003  0.045  0.508  0.002  0.295  0.001  0.000  0.983
 
band   7 # energy   17.55569275 # occ.  0.00000000
 
ion      s     py     pz     px    dxy    dyz    dz2    dxz    dx2    tot
  1  0.217  0.137  0.028  0.117  0.045  0.023  0.122  0.038  0.002  0.731
 
band   8 # energy   19.41198861 # occ.  0.00000000
 
ion      s     py     pz     px    dxy    dyz    dz2    dxz    dx2    tot
  1 44.006  0.000  0.000  0.000  0.000  0.000  0.000  0.000  0.000 44.007
 
band   9 # energy   21.50075266 # occ.  0.00000000
 
ion      s     py     pz     px    dxy    dyz    dz2    dxz    dx2    tot
  1  0.003  0.013  0.466  0.001  0.003  0.181  0.040  0.222  0.001  0.930
 

 k-point   11 :   -0.08333333 0.25000000 0.08333333     weight = 0.05555556

band   1 # energy    0.42202744 # occ.  1.00000000
 
ion      s     py     pz     px    dxy    dyz    dz2    dxz    dx2    tot
  1  0.633  0.041  0.003  0.129  0.046  0.009  0.008  0.009  0.012  0.889
 
band   2 # energy    4.64630352 # occ.  1.00000000
 
ion      s     py     pz     px    dxy    dyz    dz2    dxz    dx2    tot
  1  0.003  0.012  0.062  0.007  0.013  0.710  0.002  0.156  0.002  0.967
 
band   3 # energy    6.26642350 # occ.  0.00000000
 
ion      s     py     pz     px    dxy    dyz    dz2    dxz    dx2    tot
  1  0.004  0.025  0.000  0.001  0.366  0.037  0.318  0.004  0.184  0.939
 
band   4 # energy    7.40078482 # occ.  0.00000000
 
ion      s     py     pz     px    dxy    dyz    dz2    dxz    dx2    tot
  1  0.001  0.006  0.012  0.006  0.100  0.085  0.046  0.434  0.269  0.959
 
band   5 # energy    8.44669368 # occ.  0.00000000
 
ion      s     py     pz     px    dxy    dyz    dz2    dxz    dx2    tot
  1  0.006  0.004  0.009  0.026  0.073  0.101  0.001  0.292  0.427  0.939
 
band   6 # energy   10.65101653 # occ.  0.00000000
 
ion      s     py     pz     px    dxy    dyz    dz2    dxz    dx2    tot
  1  0.010  0.017  0.000  0.012  0.311  0.001  0.563  0.010  0.032  0.956
 
band   7 # energy   19.38356592 # occ.  0.00000000
 
ion      s     py     pz     px    dxy    dyz    dz2    dxz    dx2    tot
  1 37.544  0.008  0.002  0.005  0.010  0.000  0.006  0.001  0.001 37.578
 
band   8 # energy   19.57228273 # occ.  0.00000000
 
ion      s     py     pz     px    dxy    dyz    dz2    dxz    dx2    tot
  1  6.379  0.049  0.016  0.028  0.072  0.001  0.047  0.010  0.010  6.611
 
band   9 # energy   22.78506310 # occ.  0.00000000
 
ion      s     py     pz     px    dxy    dyz    dz2    dxz    dx2    tot
  1  0.080  0.051  0.035  0.040  0.046  0.162  0.001  0.088  0.004  0.507
 

 k-point   12 :    0.41666667 0.41666667 0.08333333     weight = 0.02777778

band   1 # energy    1.70981351 # occ.  1.00000000
 
ion      s     py     pz     px    dxy    dyz    dz2    dxz    dx2    tot
  1  0.224  0.004  0.079  0.004  0.006  0.001  0.578  0.001  0.000  0.896
 
band   2 # energy    3.00041226 # occ.  1.00000000
 
ion      s     py     pz     px    dxy    dyz    dz2    dxz    dx2    tot
  1  0.000  0.008  0.000  0.008  0.985  0.002  0.004  0.002  0.000  1.008
 
band   3 # energy    6.70761733 # occ.  0.00000000
 
ion      s     py     pz     px    dxy    dyz    dz2    dxz    dx2    tot
  1  0.153  0.002  0.420  0.002  0.002  0.060  0.234  0.060  0.000  0.932
 
band   4 # energy    9.93193134 # occ.  0.00000000
 
ion      s     py     pz     px    dxy    dyz    dz2    dxz    dx2    tot
  1  0.000  0.037  0.000  0.037  0.000  0.250  0.000  0.250  0.357  0.932
 
band   5 # energy   11.00417779 # occ.  0.00000000
 
ion      s     py     pz     px    dxy    dyz    dz2    dxz    dx2    tot
  1  0.012  0.047  0.079  0.047  0.007  0.353  0.032  0.353  0.000  0.930
 
band   6 # energy   11.64370849 # occ.  0.00000000
 
ion      s     py     pz     px    dxy    dyz    dz2    dxz    dx2    tot
  1  0.000  0.006  0.000  0.006  0.000  0.178  0.000  0.178  0.598  0.967
 
band   7 # energy   18.35624570 # occ.  0.00000000
 
ion      s     py     pz     px    dxy    dyz    dz2    dxz    dx2    tot
  1  0.166  0.190  0.058  0.190  0.008  0.082  0.007  0.082  0.000  0.784
 
band   8 # energy   19.40890867 # occ.  0.00000000
 
ion      s     py     pz     px    dxy    dyz    dz2    dxz    dx2    tot
  1 43.551  0.002  0.000  0.002  0.000  0.001  0.000  0.001  0.000 43.558
 
band   9 # energy   19.74117249 # occ.  0.00000000
 
ion      s     py     pz     px    dxy    dyz    dz2    dxz    dx2    tot
  1  0.000  0.295  0.000  0.295  0.000  0.087  0.000  0.087  0.023  0.787
 

 k-point   13 :   -0.41666667 0.41666667 0.08333333     weight = 0.05555556

band   1 # energy    2.17950538 # occ.  1.00000000
 
ion      s     py     pz     px    dxy    dyz    dz2    dxz    dx2    tot
  1  0.093  0.036  0.008  0.001  0.035  0.001  0.715  0.000  0.004  0.893
 
band   2 # energy    3.15341833 # occ.  1.00000000
 
ion      s     py     pz     px    dxy    dyz    dz2    dxz    dx2    tot
  1  0.000  0.014  0.000  0.063  0.894  0.001  0.022  0.002  0.000  0.996
 
band   3 # energy    6.72965451 # occ.  0.00000000
 
ion      s     py     pz     px    dxy    dyz    dz2    dxz    dx2    tot
  1  0.034  0.002  0.469  0.000  0.003  0.372  0.016  0.029  0.009  0.933
 
band   4 # energy    9.73057582 # occ.  0.00000000
 
ion      s     py     pz     px    dxy    dyz    dz2    dxz    dx2    tot
  1  0.031  0.057  0.027  0.007  0.000  0.001  0.007  0.022  0.757  0.910
 
band   5 # energy   11.95841207 # occ.  0.00000000
 
ion      s     py     pz     px    dxy    dyz    dz2    dxz    dx2    tot
  1  0.010  0.002  0.001  0.017  0.006  0.122  0.000  0.774  0.021  0.953
 
band   6 # energy   14.16891771 # occ.  0.00000000
 
ion      s     py     pz     px    dxy    dyz    dz2    dxz    dx2    tot
  1  0.022  0.008  0.320  0.016  0.003  0.485  0.023  0.091  0.009  0.976
 
band   7 # energy   15.23286382 # occ.  0.00000000
 
ion      s     py     pz     px    dxy    dyz    dz2    dxz    dx2    tot
  1  0.401  0.092  0.014  0.142  0.032  0.003  0.015  0.032  0.088  0.819
 
band   8 # energy   18.22889373 # occ.  0.00000000
 
ion      s     py     pz     px    dxy    dyz    dz2    dxz    dx2    tot
  1  0.074  0.032  0.021  0.498  0.036  0.002  0.044  0.033  0.079  0.819
 
band   9 # energy   19.40877328 # occ.  0.00000000
 
ion      s     py     pz     px    dxy    dyz    dz2    dxz    dx2    tot
  1 43.537  0.003  0.000  0.001  0.000  0.000  0.001  0.000  0.001 43.544
 

 k-point   14 :   -0.25000000 0.41666667 0.08333333     weight = 0.05555556

band   1 # energy    3.26082390 # occ.  1.00000000
 
ion      s     py     pz     px    dxy    dyz    dz2    dxz    dx2    tot
  1  0.105  0.008  0.016  0.014  0.407  0.019  0.354  0.011  0.007  0.941
 
band   2 # energy    3.78793931 # occ.  1.00000000
 
ion      s     py     pz     px    dxy    dyz    dz2    dxz    dx2    tot
  1  0.041  0.132  0.003  0.132  0.196  0.031  0.309  0.012  0.043  0.898
 
band   3 # energy    5.33445649 # occ.  1.00000000
 
ion      s     py     pz     px    dxy    dyz    dz2    dxz    dx2    tot
  1  0.002  0.009  0.272  0.020  0.080  0.472  0.002  0.094  0.001  0.952
 
band   4 # energy    8.21095757 # occ.  0.00000000
 
ion      s     py     pz     px    dxy    dyz    dz2    dxz    dx2    tot
  1  0.024  0.008  0.007  0.042  0.007  0.005  0.044  0.049  0.731  0.918
 
band   5 # energy   10.91359537 # occ.  0.00000000
 
ion      s     py     pz     px    dxy    dyz    dz2    dxz    dx2    tot
  1  0.022  0.001  0.010  0.000  0.018  0.240  0.002  0.604  0.035  0.931
 
band   6 # energy   13.31312973 # occ.  0.00000000
 
ion      s     py     pz     px    dxy    dyz    dz2    dxz    dx2    tot
  1  0.423  0.018  0.018  0.087  0.236  0.002  0.015  0.022  0.049  0.869
 
band   7 # energy   16.59542560 # occ.  0.00000000
 
ion      s     py     pz     px    dxy    dyz    dz2    dxz    dx2    tot
  1  0.103  0.037  0.259  0.075  0.013  0.179  0.154  0.147  0.002  0.968
 
band   8 # energy   19.36342463 # occ.  0.00000000
 
ion      s     py     pz     px    dxy    dyz    dz2    dxz    dx2    tot
  1 24.587  0.021  0.107  0.057  0.011  0.042  0.093  0.037  0.003 24.958
 
band   9 # energy   19.47740031 # occ.  0.00000000
 
ion      s     py     pz     px    dxy    dyz    dz2    dxz    dx2    tot
  1 19.472  0.032  0.144  0.081  0.014  0.055  0.147  0.047  0.005 19.997
 

 k-point   15 :   -0.08333333 0.41666667 0.08333333     weight = 0.05555556

band   1 # energy    1.84362807 # occ.  1.00000000
 
ion      s     py     pz     px    dxy    dyz    dz2    dxz    dx2    tot
  1  0.351  0.012  0.004  0.068  0.193  0.200  0.003  0.127  0.009  0.965
 
band   2 # energy    4.98019002 # occ.  1.00000000
 
ion      s     py     pz     px    dxy    dyz    dz2    dxz    dx2    tot
  1  0.004  0.128  0.077  0.057  0.076  0.010  0.330  0.025  0.163  0.871
 
band   3 # energy    5.75263643 # occ.  0.32530836
 
ion      s     py     pz     px    dxy    dyz    dz2    dxz    dx2    tot
  1  0.028  0.036  0.111  0.084  0.156  0.404  0.102  0.018  0.022  0.962
 
band   4 # energy    6.82677658 # occ.  0.00000000
 
ion      s     py     pz     px    dxy    dyz    dz2    dxz    dx2    tot
  1  0.000  0.004  0.004  0.017  0.046  0.050  0.148  0.245  0.444  0.959
 
band   5 # energy   10.81782583 # occ.  0.00000000
 
ion      s     py     pz     px    dxy    dyz    dz2    dxz    dx2    tot
  1  0.000  0.003  0.013  0.036  0.005  0.176  0.011  0.409  0.280  0.933
 
band   6 # energy   12.48194215 # occ.  0.00000000
 
ion      s     py     pz     px    dxy    dyz    dz2    dxz    dx2    tot
  1  0.032  0.029  0.022  0.055  0.440  0.033  0.340  0.013  0.002  0.966
 
band   7 # energy   16.26184879 # occ.  0.00000000
 
ion      s     py     pz     px    dxy    dyz    dz2    dxz    dx2    tot
  1  0.360  0.044  0.032  0.041  0.107  0.081  0.026  0.135  0.001  0.827
 
band   8 # energy   19.40925201 # occ.  0.00000000
 
ion      s     py     pz     px    dxy    dyz    dz2    dxz    dx2    tot
  1 43.859  0.000  0.000  0.000  0.000  0.000  0.000  0.000  0.000 43.860
 
band   9 # energy   19.91016589 # occ.  0.00000000
 
ion      s     py     pz     px    dxy    dyz    dz2    dxz    dx2    tot
  1  0.157  0.014  0.013  0.044  0.007  0.044  0.026  0.010  0.022  0.337
 

 k-point   16 :   -0.41666667-0.41666667 0.08333333     weight = 0.02777778

band   1 # energy    1.61654978 # occ.  1.00000000
 
ion      s     py     pz     px    dxy    dyz    dz2    dxz    dx2    tot
  1  0.124  0.004  0.008  0.004  0.005  0.000  0.754  0.000  0.000  0.899
 
band   2 # energy    2.65360484 # occ.  1.00000000
 
ion      s     py     pz     px    dxy    dyz    dz2    dxz    dx2    tot
  1  0.000  0.007  0.000  0.007  1.002  0.000  0.003  0.000  0.000  1.020
 
band   3 # energy    8.00994712 # occ.  0.00000000
 
ion      s     py     pz     px    dxy    dyz    dz2    dxz    dx2    tot
  1  0.037  0.000  0.710  0.000  0.000  0.077  0.026  0.077  0.000  0.929
 
band   4 # energy   11.02609833 # occ.  0.00000000
 
ion      s     py     pz     px    dxy    dyz    dz2    dxz    dx2    tot
  1  0.000  0.022  0.000  0.022  0.000  0.059  0.000  0.059  0.781  0.943
 
band   5 # energy   12.15924179 # occ.  0.00000000
 
ion      s     py     pz     px    dxy    dyz    dz2    dxz    dx2    tot
  1  0.000  0.003  0.000  0.003  0.000  0.410  0.000  0.410  0.144  0.968
 
band   6 # energy   12.69252493 # occ.  0.00000000
 
ion      s     py     pz     px    dxy    dyz    dz2    dxz    dx2    tot
  1  0.002  0.018  0.141  0.018  0.001  0.386  0.006  0.386  0.000  0.960
 