<?xml version="1.0" encoding="ISO-8859-1"?>
<modeling>
 <generator>
  <i name="program" type="string">vasp </i>
  <i name="version" type="string">5.2.12  </i>
  <i name="subversion" type="string">11Nov11 complex                                                      parallel </i>
  <i name="platform" type="string">LinuxIFC </i>
  <i name="date" type="string">2012 10 17 </i>
  <i name="time" type="string">11:06:58 </i>
 </generator>
 <incar>
  <i type="int" name="ISTART">     0</i>
  <i type="string" name="PREC">accurate</i>
  <i type="int" name="ISPIN">     2</i>
  <i name="ENCUT">    200.00000000</i>
  <v name="MAGMOM">      6.00000000</v>
  <i type="logical" name="LREAL"> F  </i>
  <i type="int" name="ISMEAR">     1</i>
  <i name="SIGMA">      0.05000000</i>
  <i type="logical" name="LORBIT"> F  </i>
 </incar>
 <kpoints>
  <generation param="Monkhorst-Pack">
   <v type="int" name="divisions">       6        6        6 </v>
   <v name="usershift">      0.00000000       0.00000000       0.00000000 </v>
   <v name="genvec1">      0.16666667       0.00000000       0.00000000 </v>
   <v name="genvec2">      0.00000000       0.16666667       0.00000000 </v>
   <v name="genvec3">      0.00000000       0.00000000       0.16666667 </v>
   <v name="shift">      0.50000000       0.50000000       0.50000000 </v>
  </generation>
  <varray name="kpointlist" >
   <v>       0.08333333       0.08333333       0.08333333 </v>
   <v>       0.25000000       0.08333333       0.08333333 </v>
   <v>       0.41666667       0.08333333       0.08333333 </v>
   <v>      -0.41666667       0.08333333       0.08333333 </v>
   <v>      -0.25000000       0.08333333       0.08333333 </v>
   <v>      -0.08333333       0.08333333       0.08333333 </v>
   <v>       0.25000000       0.25000000       0.08333333 </v>
   <v>       0.41666667       0.25000000       0.08333333 </v>
   <v>      -0.41666667       0.25000000       0.08333333 </v>
   <v>      -0.25000000       0.25000000       0.08333333 </v>
   <v>      -0.08333333       0.25000000       0.08333333 </v>
   <v>       0.41666667       0.41666667       0.08333333 </v>
   <v>      -0.41666667       0.41666667       0.08333333 </v>
   <v>      -0.25000000       0.41666667       0.08333333 </v>
   <v>      -0.08333333       0.41666667       0.08333333 </v>
   <v>      -0.41666667      -0.41666667       0.08333333 </v>
   <v>      -0.25000000      -0.41666667       0.08333333 </v>
   <v>      -0.25000000      -0.25000000       0.08333333 </v>
   <v>       0.25000000       0.25000000       0.25000000 </v>
   <v>       0.41666667       0.25000000       0.25000000 </v>
   <v>      -0.41666667       0.25000000       0.25000000 </v>
   <v>      -0.25000000       0.25000000       0.25000000 </v>
   <v>       0.41666667       0.41666667       0.25000000 </v>
   <v>      -0.41666667       0.41666667       0.25000000 </v>
   <v>      -0.25000000       0.41666667       0.25000000 </v>
   <v>      -0.41666667      -0.41666667       0.25000000 </v>
   <v>       0.41666667       0.41666667       0.41666667 </v>
   <v>      -0.41666667       0.41666667       0.41666667 </v>
  </varray>
  <varray name="weights" >
   <v>       0.00925926 </v>
   <v>       0.02777778 </v>
   <v>       0.02777778 </v>
   <v>       0.02777778 </v>
   <v>       0.02777778 </v>
   <v>       0.02777778 </v>
   <v>       0.02777778 </v>
   <v>       0.05555556 </v>
   <v>       0.05555556 </v>
   <v>       0.05555556 </v>
   <v>       0.05555556 </v>
   <v>       0.02777778 </v>
   <v>       0.05555556 </v>
   <v>       0.05555556 </v>
   <v>       0.05555556 </v>
   <v>       0.02777778 </v>
   <v>       0.05555556 </v>
   <v>       0.02777778 </v>
   <v>       0.00925926 </v>
   <v>       0.02777778 </v>
   <v>       0.02777778 </v>
   <v>       0.02777778 </v>
   <v>       0.02777778 </v>
   <v>       0.05555556 </v>
   <v>       0.05555556 </v>
   <v>       0.02777778 </v>
   <v>       0.00925926 </v>
   <v>       0.02777778 </v>
  </varray>
 </kpoints>
 <parameters>
  <separator name="general" >
   <i type="string" name="SYSTEM">unknown system</i>
   <i type="logical" name="LCOMPAT"> F  </i>
  </separator>
  <separator name="electronic" >
   <i type="string" name="PREC">accura</i>
   <i name="ENMAX">    200.00000000</i>
   <i name="ENAUG">    332.07500000</i>
   <i name="EDIFF">      0.00010000</i>
   <i type="int" name="IALGO">    38</i>
   <i type="int" name="IWAVPR">    10</i>
   <i type="int" name="NBANDS">     9</i>
   <i name="NELECT">      5.00000000</i>
   <i type="int" name="TURBO">     0</i>
   <i type="int" name="IRESTART">     0</i>
   <i type="int" name="NREBOOT">     0</i>
   <i type="int" name="NMIN">     0</i>
   <i name="EREF">      0.00000000</i>
   <separator name="electronic smearing" >
    <i type="int" name="ISMEAR">     1</i>
    <i name="SIGMA">      0.05000000</i>
    <i name="KSPACING">      0.50000000</i>
    <i type="logical" name="KGAMMA"> T  </i>
   </separator>
   <separator name="electronic projectors" >
    <i type="logical" name="LREAL"> F  </i>
    <v name="ROPT">      0.00000000</v>
    <i type="int" name="LMAXPAW">  -100</i>
    <i type="int" name="LMAXMIX">     2</i>
    <i type="logical" name="NLSPLINE"> F  </i>
   </separator>
   <separator name="electronic startup" >
    <i type="int" name="ISTART">     0</i>
    <i type="int" name="ICHARG">     2</i>
    <i type="int" name="INIWAV">     1</i>
   </separator>
   <separator name="electronic spin" >
    <i type="int" name="ISPIN">     2</i>
    <i type="logical" name="LNONCOLLINEAR"> F  </i>
    <v name="MAGMOM">      6.00000000</v>
    <i name="NUPDOWN">     -1.00000000</i>
    <i type="logical" name="LSORBIT"> F  </i>
    <v name="SAXIS">      0.00000000      0.00000000      1.00000000</v>
    <i type="logical" name="LSPIRAL"> F  </i>
    <v name="QSPIRAL">      0.00000000      0.00000000      0.00000000</v>
    <i type="logical" name="LZEROZ"> F  </i>
   </separator>
   <separator name="electronic exchange-correlation" >
    <i type="logical" name="LASPH"> F  </i>
    <i type="logical" name="LMETAGGA"> F  </i>
   </separator>
   <separator name="electronic convergence" >
    <i type="int" name="NELM">    60</i>
    <i type="int" name="NELMDL">    -5</i>
    <i type="int" name="NELMIN">     2</i>
    <i name="ENINI">    200.00000000</i>
    <separator name="electronic convergence detail" >
     <i type="logical" name="LDIAG"> T  </i>
     <i type="logical" name="LSUBROT"> T  </i>
     <i name="WEIMIN">      0.00000000</i>
     <i name="EBREAK">      0.00000278</i>
     <i name="DEPER">      0.30000000</i>
     <i type="int" name="NRMM">     4</i>
     <i name="TIME">      0.40000000</i>
    </separator>
   </separator>
   <separator name="electronic mixer" >
    <i name="AMIX">      0.40000000</i>
    <i name="BMIX">      1.00000000</i>
    <i name="AMIN">      0.10000000</i>
    <i name="AMIX_MAG">      1.60000000</i>
    <i name="BMIX_MAG">      1.00000000</i>
    <separator name="electronic mixer details" >
     <i type="int" name="IMIX">     4</i>
     <i type="int" name="MAXMIX">   -45</i>
     <i name="WC">    100.00000000</i>
     <i type="int" name="INIMIX">     1</i>
     <i type="int" name="MIXPRE">     1</i>
     <i type="int" name="MREMOVE">     5</i>
    </separator>
   </separator>
   <separator name="electronic dipolcorrection" >
    <i type="logical" name="LDIPOL"> F  </i>
    <i type="logical" name="LMONO"> F  </i>
    <i type="int" name="IDIPOL">     0</i>
    <i name="EPSILON">      1.00000000</i>
    <v name="DIPOL">   -100.00000000   -100.00000000   -100.00000000</v>
    <i name="EFIELD">      0.00000000</i>
   </separator>
  </separator>
  <separator name="grids" >
   <i type="int" name="NGX">    14</i>
   <i type="int" name="NGY">    14</i>
   <i type="int" name="NGZ">    14</i>
   <i type="int" name="NGXF">    28</i>
   <i type="int" name="NGYF">    28</i>
   <i type="int" name="NGZF">    28</i>
   <i type="logical" name="ADDGRID"> F  </i>
  </separator>
  <separator name="ionic" >
   <i type="int" name="NSW">     0</i>
   <i type="int" name="IBRION">    -1</i>
   <i type="int" name="ISIF">     2</i>
   <i name="PSTRESS">      0.00000000</i>
   <i name="EDIFFG">      0.00100000</i>
   <i type="int" name="NFREE">     0</i>
   <i name="POTIM">      0.50000000</i>
   <i name="SMASS">     -3.00000000</i>
   <i name="SCALEE">      1.00000000</i>
  </separator>
  <separator name="ionic md" >
   <i name="TEBEG">      0.00010000</i>
   <i name="TEEND">      0.00010000</i>
   <i type="int" name="NBLOCK">     1</i>
   <i type="int" name="KBLOCK">     1</i>
   <i type="int" name="NPACO">   256</i>
   <i name="APACO">     16.00000000</i>
  </separator>
  <separator name="symmetry" >
   <i type="int" name="ISYM">     2</i>
   <i name="SYMPREC">      0.00001000</i>
  </separator>
  <separator name="dos" >
   <i type="logical" name="LORBIT"> F  </i>
   <v name="RWIGS">     -1.00000000</v>
   <i type="int" name="NEDOS">   301</i>
   <i name="EMIN">     10.00000000</i>
   <i name="EMAX">    -10.00000000</i>
   <i name="EFERMI">      0.00000000</i>
  </separator>
  <separator name="writing" >
   <i type="int" name="NWRITE">     2</i>
   <i type="logical" name="LWAVE"> T  </i>
   <i type="logical" name="LCHARG"> T  </i>
   <i type="logical" name="LPARD"> F  </i>
   <i type="logical" name="LVTOT"> F  </i>
   <i type="logical" name="LVHAR"> F  </i>
   <i type="logical" name="LELF"> F  </i>
   <i type="logical" name="LOPTICS"> F  </i>
   <v name="STM">      0.00000000      0.00000000      0.00000000      0.00000000      0.00000000      0.00000000      0.00000000</v>
  </separator>
  <separator name="performance" >
   <i type="int" name="NPAR">     1</i>
   <i type="int" name="NSIM">     4</i>
   <i type="int" name="NBLK">    -1</i>
   <i type="logical" name="LPLANE"> T  </i>
   <i type="logical" name="LSCALAPACK"> F  </i>
   <i type="logical" name="LSCAAWARE"> F  </i>
   <i type="logical" name="LSCALU"> F  </i>
   <i type="logical" name="LASYNC"> F  </i>
   <i type="logical" name="LORBITALREAL"> F  </i>
  </separator>
  <separator name="miscellaneous" >
   <i type="int" name="IDIOT">     3</i>
   <i type="logical" name="LMUSIC"> F  </i>
   <v name="POMASS">    180.94800000</v>
   <v name="DARWINR">      0.00000000</v>
   <v name="DARWINV">      1.00000000</v>
   <i type="logical" name="LCORR"> T  </i>
  </separator>
  <i type="logical" name="GGA_COMPAT"> T  </i>
  <i type="logical" name="LBERRY"> F  </i>
  <i type="int" name="ICORELEVEL">     0</i>
  <i type="logical" name="LDAU"> F  </i>
  <i type="int" name="I_CONSTRAINED_M">     0</i>
  <separator name="electronic exchange-correlation" >
   <i type="string" name="GGA">--</i>
   <i type="int" name="VOSKOWN">     0</i>
   <i type="logical" name="LHFCALC"> F  </i>
   <i type="string" name="PRECFOCK"></i>
   <i type="logical" name="LHFONE"> F  </i>
   <i type="logical" name="LRHFCALC"> F  </i>
   <i type="logical" name="LTHOMAS"> F  </i>
   <i type="logical" name="LMODELHF"> F  </i>
   <i name="ENCUT4O">     -1.00000000</i>
   <i type="int" name="EXXOEP">     0</i>
   <i type="int" name="FOURORBIT">     0</i>
   <i name="AEXX">      0.00000000</i>
   <i name="HFALPHA">      0.00000000</i>
   <i name="ALDAX">      1.00000000</i>
   <i name="AGGAX">      1.00000000</i>
   <i name="ALDAC">      1.00000000</i>
   <i name="AGGAC">      1.00000000</i>
   <i type="int" name="NKREDX">     1</i>
   <i type="int" name="NKREDY">     1</i>
   <i type="int" name="NKREDZ">     1</i>
   <i type="logical" name="SHIFTRED"> F  </i>
   <i type="logical" name="ODDONLY"> F  </i>
   <i type="logical" name="EVENONLY"> F  </i>
   <i type="int" name="LMAXFOCK">     0</i>
   <i type="int" name="NMAXFOCKAE">     0</i>
   <i type="logical" name="LFOCKAEDFT"> F  </i>
   <i name="HFSCREEN">      0.00000000</i>
   <i name="HFSCREENC">      0.00000000</i>
  </separator>
  <separator name="vdW DFT" >
   <i type="logical" name="LUSE_VDW"> F  </i>
   <i name="Zab_VDW">     -0.84910000</i>
   <i name="PARAM1">      0.12340000</i>
   <i name="PARAM2">      1.00000000</i>
   <i name="PARAM3">      0.00000000</i>
  </separator>
  <separator name="model GW" >
   <i type="int" name="MODEL_GW">     0</i>
   <i name="MODEL_EPS0">     11.19276915</i>
   <i name="MODEL_ALPHA">      1.00000000</i>
  </separator>
  <separator name="linear response parameters" >
   <i type="logical" name="LEPSILON"> F  </i>
   <i type="logical" name="LRPA"> F  </i>
   <i type="logical" name="LNABLA"> F  </i>
   <i type="logical" name="LVEL"> F  </i>
   <i type="int" name="KINTER">     0</i>
   <i name="CSHIFT">      0.10000000</i>
   <i name="OMEGAMAX">     -1.00000000</i>
  </separator>
  <separator name="orbital magnetization" >
   <i type="logical" name="NUCIND"> F  </i>
   <v name="MAGPOS">      0.00000000      0.00000000      0.00000000</v>
   <i type="logical" name="LNICSALL"> T  </i>
   <i type="logical" name="ORBITALMAG"> F  </i>
   <i type="logical" name="LMAGBLOCH"> F  </i>
   <i type="logical" name="LCHIMAG"> F  </i>
   <i type="logical" name="LGAUGE"> T  </i>
   <i type="int" name="MAGATOM">     0</i>
   <v name="MAGDIPOL">      0.00000000      0.00000000      0.00000000</v>
   <v name="AVECCONST">      0.00000000      0.00000000      0.00000000</v>
  </separator>
  <separator name="response functions" >
   <i type="logical" name="LADDER"> F  </i>
   <i type="logical" name="LHARTREE"> T  </i>
   <i type="int" name="IBSE">     0</i>
   <i type="logical" name="LTCTE"> F  </i>
   <i type="logical" name="LTETE"> F  </i>
   <i type="logical" name="LFXCEPS"> F  </i>
   <i type="logical" name="L2ORDER"> F  </i>
   <i type="logical" name="LUSEW"> F  </i>
   <i name="ENCUTGW">     -2.00000000</i>
   <i name="ENCUTGWSOFT">     -2.00000000</i>
   <i name="ENCUTLF">     -1.00000000</i>
   <i type="int" name="LMAXMP2">    -1</i>
   <i name="SCISSOR">      0.00000000</i>
   <i type="int" name="NOMEGA">     0</i>
   <i type="int" name="NOMEGAR">     0</i>
   <i type="int" name="NBANDSGW">    -1</i>
   <i type="int" name="NBANDSO">    -1</i>
   <i type="int" name="NBANDSV">    -1</i>
   <i name="OPTEMAX">      0.00000000</i>
   <i type="int" name="NELM">     1</i>
   <i type="int" name="DIM">     3</i>
   <i type="int" name="ANTIRES">     0</i>
   <i name="OMEGAMAX">    -30.00000000</i>
   <i name="OMEGATL">   -200.00000000</i>
   <i type="int" name="OMEGAGRID">     0</i>
   <i name="CSHIFT">     -0.10000000</i>
   <i type="logical" name="SELFENERGY"> F  </i>
   <i type="logical" name="LSPECTRAL"> F  </i>
   <i type="logical" name="ODDONLYGW"> F  </i>
   <i type="logical" name="EVENONLYGW"> F  </i>
   <i type="int" name="NKREDLFX">     1</i>
   <i type="int" name="NKREDLFY">     1</i>
   <i type="int" name="NKREDLFZ">     1</i>
   <i type="int" name="MAXMEM">  1800</i>
   <i type="int" name="TELESCOPE">     0</i>
  </separator>
 </parameters>
 <atominfo>
  <atoms>       1 </atoms>
  <types>       1 </types>
  <array name="atoms" >
   <dimension dim="1">ion</dimension>
   <field type="string">element</field>
   <field type="int">atomtype</field>
   <set>
    <rc><c>Ta</c><c>   1</c></rc>
   </set>
  </array>
  <array name="atomtypes" >
   <dimension dim="1">type</dimension>
   <field type="int">atomspertype</field>
   <field type="string">element</field>
   <field>mass</field>
   <field>valence</field>
   <field type="string">pseudopotential</field>
   <set>
    <rc><c>   1</c><c>Ta</c><c>    180.94800000</c><c>      5.00000000</c><c>  PAW_PBE Ta 17Jan2003                  </c></rc>
   </set>
  </array>
 </atominfo>
 <structure name="initialpos" >
  <crystal>
   <varray name="basis" >
    <v>       0.00000000       2.10500000       2.10500000 </v>
    <v>       2.10500000       0.00000000       2.10500000 </v>
    <v>       2.10500000       2.10500000       0.00000000 </v>
   </varray>
   <i name="volume">     18.65461525 </i>
   <varray name="rec_basis" >
    <v>      -0.23752969       0.23752969       0.23752969 </v>
    <v>       0.23752969      -0.23752969       0.23752969 </v>
    <v>       0.23752969       0.23752969      -0.23752969 </v>
   </varray>
  </crystal>
  <varray name="positions" >
   <v>       0.00000000       0.00000000       0.00000000 </v>
  </varray>
 </structure>
 <calculation>
  <scstep>
   <time name="dav">    0.66    0.66</time>
   <time name="total">    0.76    0.77</time>
   <energy>
    <i name="alphaZ">     29.72710466 </i>
    <i name="ewald">   -196.02445976 </i>
    <i name="hartreedc">     -2.70983790 </i>
    <i name="XCdc">    -60.71258554 </i>
    <i name="pawpsdc">    143.51874798 </i>
    <i name="pawaedc">    -69.33493833 </i>
    <i name="eentropy">      0.00003922 </i>
    <i name="bandstr">     27.65156189 </i>
    <i name="atom">    130.57950032 </i>
    <i name="e_fr_energy">      2.69513253 </i>
    <i name="e_wo_entrp">      2.69509331 </i>
    <i name="e_0_energy">      2.69511946 </i>
   </energy>
  </scstep>
  <scstep>
   <time name="dav">    0.65    0.65</time>
   <time name="total">    0.65    0.66</time>
   <energy>
    <i name="e_fr_energy">     -1.77241065 </i>
    <i name="e_wo_entrp">     -1.77145884 </i>
    <i name="e_0_energy">     -1.77209338 </i>
   </energy>
  </scstep>
  <scstep>
   <time name="dav">    0.69    0.69</time>
   <time name="total">    0.70    0.71</time>
   <energy>
    <i name="e_fr_energy">     -1.83021846 </i>
    <i name="e_wo_entrp">     -1.82982626 </i>
    <i name="e_0_energy">     -1.83008773 </i>
   </energy>
  </scstep>
  <scstep>
   <time name="dav">    0.71    0.71</time>
   <time name="total">    0.71    0.73</time>
   <energy>
    <i name="e_fr_energy">     -1.83025739 </i>
    <i name="e_wo_entrp">     -1.82986683 </i>
    <i name="e_0_energy">     -1.83012720 </i>
   </energy>
  </scstep>
  <scstep>
   <time name="dav">    0.68    0.68</time>
   <time name="total">    0.74    0.78</time>
   <energy>
    <i name="e_fr_energy">     -1.83025741 </i>
    <i name="e_wo_entrp">     -1.82986687 </i>
    <i name="e_0_energy">     -1.83012723 </i>
   </energy>
  </scstep>
  <scstep>
   <time name="dav">    0.60    0.60</time>
   <time name="total">    0.75    0.75</time>
   <energy>
    <i name="e_fr_energy">    -11.23085679 </i>
    <i name="e_wo_entrp">    -11.23088718 </i>
    <i name="e_0_energy">    -11.23086692 </i>
   </energy>
  </scstep>
  <scstep>
   <time name="dav">    0.68    0.68</time>
   <time name="total">    0.82    0.84</time>
   <energy>
    <i name="e_fr_energy">    -11.14628339 </i>
    <i name="e_wo_entrp">    -11.14647746 </i>
    <i name="e_0_energy">    -11.14634808 </i>
   </energy>
  </scstep>
  <scstep>
   <time name="dav">    0.59    0.60</time>
   <time name="total">    0.74    0.76</time>
   <energy>
    <i name="e_fr_energy">    -11.41318877 </i>
    <i name="e_wo_entrp">    -11.41295524 </i>
    <i name="e_0_energy">    -11.41311093 </i>
   </energy>
  </scstep>
  <scstep>
   <time name="dav">    0.59    0.59</time>
   <time name="total">    0.74    0.76</time>
   <energy>
    <i name="e_fr_energy">    -11.57073518 </i>
    <i name="e_wo_entrp">    -11.57097929 </i>
    <i name="e_0_energy">    -11.57081655 </i>
   </energy>
  </scstep>
  <scstep>
   <time name="dav">    0.60    0.61</time>
   <time name="total">    0.75    0.78</time>
   <energy>
    <i name="e_fr_energy">    -11.62921481 </i>
    <i name="e_wo_entrp">    -11.62871361 </i>
    <i name="e_0_energy">    -11.62904775 </i>
   </energy>
  </scstep>
  <scstep>
   <time name="dav">    0.59    0.59</time>
   <time name="total">    0.73    0.75</time>
   <energy>
    <i name="e_fr_energy">    -11.63079824 </i>
    <i name="e_wo_entrp">    -11.62988992 </i>
    <i name="e_0_energy">    -11.63049546 </i>
   </energy>
  </scstep>
  <scstep>
   <time name="dav">    0.57    0.58</time>
   <time name="total">    0.72    0.73</time>
   <energy>
    <i name="e_fr_energy">    -11.63076888 </i>
    <i name="e_wo_entrp">    -11.62983749 </i>
    <i name="e_0_energy">    -11.63045842 </i>
   </energy>
  </scstep>
  <scstep>
   <time name="dav">    0.57    0.57</time>
   <time name="total">    0.71    0.73</time>
   <energy>
    <i name="e_fr_energy">    -11.63117539 </i>
    <i name="e_wo_entrp">    -11.63034703 </i>
    <i name="e_0_energy">    -11.63089927 </i>
   </energy>
  </scstep>
  <scstep>
   <time name="dav">    0.40    0.40</time>
   <time name="total">    0.49    0.52</time>
   <energy>
    <i name="alphaZ">     29.72710466 </i>
    <i name="ewald">   -196.02445976 </i>
    <i name="hartreedc">     -0.66796607 </i>
    <i name="XCdc">    -65.99220383 </i>
    <i name="pawpsdc">    188.44238395 </i>
    <i name="pawaedc">   -115.04217397 </i>
    <i name="eentropy">     -0.00082713 </i>
    <i name="bandstr">     17.34746714 </i>
    <i name="atom">    130.57950032 </i>
    <i name="e_fr_energy">    -11.63117468 </i>
    <i name="e_wo_entrp">    -11.63034755 </i>
    <i name="e_0_energy">    -11.63089897 </i>
   </energy>
  </scstep>
  <parameters_embedded>
   <separator name="dft+d2" >
    <i type="logical" name="LVDW"> F  </i>
   </separator>
  </parameters_embedded>
  <structure>
   <crystal>
    <varray name="basis" >
     <v>       0.00000000       2.10500000       2.10500000 </v>
     <v>       2.10500000       0.00000000       2.10500000 </v>
     <v>       2.10500000       2.10500000       0.00000000 </v>
    </varray>
    <i name="volume">     18.65461525 </i>
    <varray name="rec_basis" >
     <v>      -0.23752969       0.23752969       0.23752969 </v>
     <v>       0.23752969      -0.23752969       0.23752969 </v>
     <v>       0.23752969       0.23752969      -0.23752969 </v>
    </varray>
   </crystal>
   <varray name="positions" >
    <v>       0.00000000       0.00000000       0.00000000 </v>
   </varray>
  </structure>
  <varray name="forces" >
   <v>       0.00000000       0.00000000       0.00000000 </v>
  </varray>
  <varray name="stress" >
   <v>     -27.98573724       0.00000000       0.00000000 </v>
   <v>       0.00000000     -27.98573724       0.00000000 </v>
   <v>       0.00000000       0.00000000     -27.98573724 </v>
  </varray>
  <energy>
   <i name="e_fr_energy">    -11.63117468 </i>
   <i name="e_wo_entrp">    -11.63089897 </i>
   <i name="e_0_energy">     -0.00082713 </i>
  </energy>
  <time name="totalsc">   10.60   11.13</time>
  <eigenvalues>
   <array>
    <dimension dim="1">band</dimension>
    <dimension dim="2">kpoint</dimension>
    <dimension dim="3">spin</dimension>
    <field>eigene</field>
    <field>occ</field>
    <set>
     <set comment="spin 1">
      <set comment="kpoint 1">
       <r>   -2.0152    1.0000 </r>
       <r>    6.0658    0.0000 </r>
       <r>    6.4353    0.0000 </r>
       <r>    6.4353    0.0000 </r>
       <r>    9.1893    0.0000 </r>
       <r>    9.1893    0.0000 </r>
       <r>   18.9203    0.0000 </r>
       <r>   19.4022    0.0000 </r>
       <r>   21.9718    0.0000 </r>
      </set>
      <set comment="kpoint 2">
       <r>   -0.6978    1.0000 </r>
       <r>    5.2133    1.0000 </r>
       <r>    6.6958    0.0000 </r>
       <r>    6.9463    0.0000 </r>
       <r>    8.4144    0.0000 </r>
       <r>    9.6798    0.0000 </r>
       <r>   19.3980    0.0000 </r>
       <r>   19.7504    0.0000 </r>
       <r>   21.5191    0.0000 </r>
      </set>
      <set comment="kpoint 3">
       <r>    1.1498    1.0000 </r>
       <r>    5.3035    1.0000 </r>
       <r>    6.0886    0.0000 </r>
       <r>    6.5135    0.0000 </r>
       <r>   10.0010    0.0000 </r>
       <r>   11.4902    0.0000 </r>
       <r>   17.2116    0.0000 </r>
       <r>   19.4057    0.0000 </r>
       <r>   20.1483    0.0000 </r>
      </set>
      <set comment="kpoint 4">
       <r>    1.4613    1.0000 </r>
       <r>    5.5539    1.0000 </r>
       <r>    6.3187    0.0000 </r>
       <r>    6.4141    0.0000 </r>
       <r>   11.7007    0.0000 </r>
       <r>   11.8764    0.0000 </r>
       <r>   15.7832    0.0000 </r>
       <r>   18.5739    0.0000 </r>
       <r>   19.4103    0.0000 </r>
      </set>
      <set comment="kpoint 5">
       <r>    0.6688    1.0000 </r>
       <r>    4.9342    1.0000 </r>
       <r>    6.2766    0.0000 </r>
       <r>    6.7914    0.0000 </r>
       <r>    9.5554    0.0000 </r>
       <r>   10.5705    0.0000 </r>
       <r>   18.0031    0.0000 </r>
       <r>   19.4079    0.0000 </r>
       <r>   21.5783    0.0000 </r>
      </set>
      <set comment="kpoint 6">
       <r>   -1.3209    1.0000 </r>
       <r>    5.4559    1.0000 </r>
       <r>    6.7774    0.0000 </r>
       <r>    6.8023    0.0000 </r>
       <r>    8.4070    0.0000 </r>
       <r>    9.5208    0.0000 </r>
       <r>   19.4023    0.0000 </r>
       <r>   20.2176    0.0000 </r>
       <r>   21.1624    0.0000 </r>
      </set>
      <set comment="kpoint 7">
       <r>   -0.0899    1.0000 </r>
       <r>    4.5374    1.0000 </r>
       <r>    6.7252    0.0000 </r>
       <r>    7.5439    0.0000 </r>
       <r>    8.0974    0.0000 </r>
       <r>   10.1227    0.0000 </r>
       <r>   19.4032    0.0000 </r>
       <r>   20.9897    0.0000 </r>
       <r>   22.6766    0.0000 </r>
      </set>
      <set comment="kpoint 8">
       <r>    1.6799    1.0000 </r>
       <r>    3.9936    1.0000 </r>
       <r>    5.4972    1.0000 </r>
       <r>    8.1522    0.0000 </r>
       <r>    9.5360    0.0000 </r>
       <r>   11.7868    0.0000 </r>
       <r>   18.8982    0.0000 </r>
       <r>   19.4223    0.0000 </r>
       <r>   22.2268    0.0000 </r>
      </set>
      <set comment="kpoint 9">
       <r>    2.6701    1.0000 </r>
       <r>    4.1561    1.0000 </r>
       <r>    5.5861    1.0000 </r>
       <r>    7.5391    0.0000 </r>
       <r>   11.2576    0.0000 </r>
       <r>   13.6761    0.0000 </r>
       <r>   14.9382    0.0000 </r>
       <r>   19.4087    0.0000 </r>
       <r>   20.9717    0.0000 </r>
      </set>
      <set comment="kpoint 10">
       <r>    2.3971    1.0000 </r>
       <r>    4.5214    1.0000 </r>
       <r>    4.9302    1.0000 </r>
       <r>    7.6709    0.0000 </r>
       <r>    9.5381    0.0000 </r>
       <r>   12.9111    0.0000 </r>
       <r>   17.5557    0.0000 </r>
       <r>   19.4120    0.0000 </r>
       <r>   21.5008    0.0000 </r>
      </set>
      <set comment="kpoint 11">
       <r>    0.4220    1.0000 </r>
       <r>    4.6463    1.0000 </r>
       <r>    6.2664    0.0000 </r>
       <r>    7.4008    0.0000 </r>
       <r>    8.4467    0.0000 </r>
       <r>   10.6510    0.0000 </r>
       <r>   19.3836    0.0000 </r>
       <r>   19.5723    0.0000 </r>
       <r>   22.7851    0.0000 </r>
      </set>
      <set comment="kpoint 12">
       <r>    1.7098    1.0000 </r>
       <r>    3.0004    1.0000 </r>
       <r>    6.7076    0.0000 </r>
       <r>    9.9319    0.0000 </r>
       <r>   11.0042    0.0000 </r>
       <r>   11.6437    0.0000 </r>
       <r>   18.3562    0.0000 </r>
       <r>   19.4089    0.0000 </r>
       <r>   19.7412    0.0000 </r>
      </set>
      <set comment="kpoint 13">
       <r>    2.1795    1.0000 </r>
       <r>    3.1534    1.0000 </r>
       <r>    6.7297    0.0000 </r>
       <r>    9.7306    0.0000 </r>
       <r>   11.9584    0.0000 </r>
       <r>   14.1689    0.0000 </r>
       <r>   15.2329    0.0000 </r>
       <r>   18.2289    0.0000 </r>
       <r>   19.4088    0.0000 </r>
      </set>
      <set comment="kpoint 14">
       <r>    3.2608    1.0000 </r>
       <r>    3.7879    1.0000 </r>
       <r>    5.3345    1.0000 </r>
       <r>    8.2110    0.0000 </r>
       <r>   10.9136    0.0000 </r>
       <r>   13.3131    0.0000 </r>
       <r>   16.5954    0.0000 </r>
       <r>   19.3634    0.0000 </r>
       <r>   19.4774    0.0000 </r>
      </set>
      <set comment="kpoint 15">
       <r>    1.8436    1.0000 </r>
       <r>    4.9802    1.0000 </r>
       <r>    5.7526    0.3253 </r>
       <r>    6.8268    0.0000 </r>
       <r>   10.8178    0.0000 </r>
       <r>   12.4819    0.0000 </r>
       <r>   16.2618    0.0000 </r>
       <r>   19.4093    0.0000 </r>
       <r>   19.9102    0.0000 </r>
      </set>
      <set comment="kpoint 16">
       <r>    1.6165    1.0000 </r>
       <r>    2.6536    1.0000 </r>
       <r>    8.0099    0.0000 </r>
       <r>   11.0261    0.0000 </r>
       <r>   12.1592    0.0000 </r>
       <r>   12.6925    0.0000 </r>
       <r>   16.2138    0.0000 </r>
       <r>   17.8777    0.0000 </r>
       <r>   19.1888    0.0000 </r>
      </set>
      <set comment="kpoint 17">
       <r>    2.2718    1.0000 </r>
       <r>    3.4444    1.0000 </r>
       <r>    5.7091    0.9450 </r>
       <r>    9.1389    0.0000 </r>
       <r>   10.9937    0.0000 </r>
       <r>   12.8403    0.0000 </r>
       <r>   16.8740    0.0000 </r>
       <r>   19.4084    0.0000 </r>
       <r>   19.9211    0.0000 </r>
      </set>
      <set comment="kpoint 18">
       <r>    1.2026    1.0000 </r>
       <r>    3.6577    1.0000 </r>
       <r>    6.0896    0.0000 </r>
       <r>    8.6281    0.0000 </r>
       <r>    9.2950    0.0000 </r>
       <r>   10.8800    0.0000 </r>
       <r>   19.4015    0.0000 </r>
       <r>   20.7523    0.0000 </r>
       <r>   22.2631    0.0000 </r>
      </set>
      <set comment="kpoint 19">
       <r>   -0.2111    1.0000 </r>
       <r>    5.1516    1.0000 </r>
       <r>    6.7131    0.0000 </r>
       <r>    6.7131    0.0000 </r>
       <r>    9.3665    0.0000 </r>
       <r>    9.3665    0.0000 </r>
       <r>   18.3860    0.0000 </r>
       <r>   19.4072    0.0000 </r>
       <r>   22.0945    0.0000 </r>
      </set>
      <set comment="kpoint 20">
       <r>    1.3251    1.0000 </r>
       <r>    4.6994    1.0000 </r>
       <r>    5.7422    0.4969 </r>
       <r>    7.2760    0.0000 </r>
       <r>    8.6436    0.0000 </r>
       <r>   11.8648    0.0000 </r>
       <r>   18.7052    0.0000 </r>
       <r>   19.4161    0.0000 </r>
       <r>   21.7819    0.0000 </r>
      </set>
      <set comment="kpoint 21">
       <r>    2.9849    1.0000 </r>
       <r>    4.2516    1.0000 </r>
       <r>    5.1528    1.0000 </r>
       <r>    7.6971    0.0000 </r>
       <r>   10.0243    0.0000 </r>
       <r>   13.0626    0.0000 </r>
       <r>   17.1570    0.0000 </r>
       <r>   19.4105    0.0000 </r>
       <r>   20.2986    0.0000 </r>
      </set>
      <set comment="kpoint 22">
       <r>    2.4383    1.0000 </r>
       <r>    3.8344    1.0000 </r>
       <r>    5.6071    1.0005 </r>
       <r>    8.1288    0.0000 </r>
       <r>   11.8794    0.0000 </r>
       <r>   12.8500    0.0000 </r>
       <r>   15.4243    0.0000 </r>
       <r>   19.4089    0.0000 </r>
       <r>   21.5845    0.0000 </r>
      </set>
      <set comment="kpoint 23">
       <r>    1.7108    1.0000 </r>
       <r>    4.4649    1.0000 </r>
       <r>    5.5894    1.0001 </r>
       <r>    7.2839    0.0000 </r>
       <r>   10.8511    0.0000 </r>
       <r>   11.5813    0.0000 </r>
       <r>   17.3810    0.0000 </r>
       <r>   19.4109    0.0000 </r>
       <r>   20.8194    0.0000 </r>
      </set>
      <set comment="kpoint 24">
       <r>    3.1720    1.0000 </r>
       <r>    3.9972    1.0000 </r>
       <r>    4.7590    1.0000 </r>
       <r>    8.3271    0.0000 </r>
       <r>   10.7826    0.0000 </r>
       <r>   13.6043    0.0000 </r>
       <r>   16.4779    0.0000 </r>
       <r>   19.4057    0.0000 </r>
       <r>   19.6863    0.0000 </r>
      </set>
      <set comment="kpoint 25">
       <r>    3.0129    1.0000 </r>
       <r>    4.0010    1.0000 </r>
       <r>    5.2576    1.0000 </r>
       <r>    8.2784    0.0000 </r>
       <r>   11.8704    0.0000 </r>
       <r>   14.8776    0.0000 </r>
       <r>   15.6028    0.0000 </r>
       <r>   18.0120    0.0000 </r>
       <r>   19.4125    0.0000 </r>
      </set>
      <set comment="kpoint 26">
       <r>    2.5487    1.0000 </r>
       <r>    3.5292    1.0000 </r>
       <r>    6.1835    0.0000 </r>
       <r>    9.0637    0.0000 </r>
       <r>   11.4460    0.0000 </r>
       <r>   13.4214    0.0000 </r>
       <r>   15.5779    0.0000 </r>
       <r>   19.3927    0.0000 </r>
       <r>   19.7287    0.0000 </r>
      </set>
      <set comment="kpoint 27">
       <r>    1.1307    1.0000 </r>
       <r>    6.0623    0.0000 </r>
       <r>    6.1694    0.0000 </r>
       <r>    6.1694    0.0000 </r>
       <r>   11.2366    0.0000 </r>
       <r>   11.2366    0.0000 </r>
       <r>   16.3714    0.0000 </r>
       <r>   18.7147    0.0000 </r>
       <r>   19.4134    0.0000 </r>
      </set>
      <set comment="kpoint 28">
       <r>    2.1527    1.0000 </r>
       <r>    4.7492    1.0000 </r>
       <r>    5.9682    0.0000 </r>
       <r>    6.8930    0.0000 </r>
       <r>   11.0824    0.0000 </r>
       <r>   12.9758    0.0000 </r>
       <r>   15.5103    0.0000 </r>
       <r>   19.4099    0.0000 </r>
       <r>   20.1014    0.0000 </r>
      </set>
     </set>
     <set comment="spin 2">
      <set comment="kpoint 1">
       <r>   -2.0413    1.0000 </r>
       <r>    6.0443    0.0000 </r>
       <r>    6.4143    0.0000 </r>
       <r>    6.4143    0.0000 </r>
       <r>    9.1706    0.0000 </r>
       <r>    9.1706    0.0000 </r>
       <r>   18.8904    0.0000 </r>
       <r>   19.3894    0.0000 </r>
       <r>   21.9484    0.0000 </r>
      </set>
      <set comment="kpoint 2">
       <r>   -0.7236    1.0000 </r>
       <r>    5.1908    1.0000 </r>
       <r>    6.6749    0.0000 </r>
       <r>    6.9257    0.0000 </r>
       <r>    8.3950    0.0000 </r>
       <r>    9.6613    0.0000 </r>
       <r>   19.3851    0.0000 </r>
       <r>   19.7278    0.0000 </r>
       <r>   21.4924    0.0000 </r>
      </set>
      <set comment="kpoint 3">
       <r>    1.1242    1.0000 </r>
       <r>    5.2804    1.0000 </r>
       <r>    6.0675    0.0000 </r>
       <r>    6.4928    0.0000 </r>
       <r>    9.9827    0.0000 </r>
       <r>   11.4731    0.0000 </r>
       <r>   17.1913    0.0000 </r>
       <r>   19.3928    0.0000 </r>
       <r>   20.1238    0.0000 </r>
      </set>
      <set comment="kpoint 4">
       <r>    1.4359    1.0000 </r>
       <r>    5.5327    1.0000 </r>
       <r>    6.2979    0.0000 </r>
       <r>    6.3908    0.0000 </r>
       <r>   11.6845    0.0000 </r>
       <r>   11.8594    0.0000 </r>
       <r>   15.7643    0.0000 </r>
       <r>   18.5486    0.0000 </r>
       <r>   19.3974    0.0000 </r>
      </set>
      <set comment="kpoint 5">
       <r>    0.6431    1.0000 </r>
       <r>    4.9112    1.0000 </r>
       <r>    6.2557    0.0000 </r>
       <r>    6.7707    0.0000 </r>
       <r>    9.5363    0.0000 </r>
       <r>   10.5528    0.0000 </r>
       <r>   17.9819    0.0000 </r>
       <r>   19.3950    0.0000 </r>
       <r>   21.5548    0.0000 </r>
      </set>
      <set comment="kpoint 6">
       <r>   -1.3469    1.0000 </r>
       <r>    5.4338    1.0000 </r>
       <r>    6.7565    0.0000 </r>
       <r>    6.7814    0.0000 </r>
       <r>    8.3876    0.0000 </r>
       <r>    9.5023    0.0000 </r>
       <r>   19.3895    0.0000 </r>
       <r>   20.1891    0.0000 </r>
       <r>   21.1400    0.0000 </r>
      </set>
      <set comment="kpoint 7">
       <r>   -0.1155    1.0000 </r>
       <r>    4.5146    1.0000 </r>
       <r>    6.7044    0.0000 </r>
       <r>    7.5234    0.0000 </r>
       <r>    8.0771    0.0000 </r>
       <r>   10.1047    0.0000 </r>
       <r>   19.3904    0.0000 </r>
       <r>   20.9688    0.0000 </r>
       <r>   22.6496    0.0000 </r>
      </set>
      <set comment="kpoint 8">
       <r>    1.6552    1.0000 </r>
       <r>    3.9704    1.0000 </r>
       <r>    5.4753    1.0000 </r>
       <r>    8.1320    0.0000 </r>
       <r>    9.5165    0.0000 </r>
       <r>   11.7698    0.0000 </r>
       <r>   18.8775    0.0000 </r>
       <r>   19.4091    0.0000 </r>
       <r>   22.1214    0.0000 </r>
      </set>
      <set comment="kpoint 9">
       <r>    2.6454    1.0000 </r>
       <r>    4.1348    1.0000 </r>
       <r>    5.5626    1.0000 </r>
       <r>    7.5187    0.0000 </r>
       <r>   11.2402    0.0000 </r>
       <r>   13.6569    0.0000 </r>
       <r>   14.9180    0.0000 </r>
       <r>   19.3958    0.0000 </r>
       <r>   20.9501    0.0000 </r>
      </set>
      <set comment="kpoint 10">
       <r>    2.3721    1.0000 </r>
       <r>    4.4987    1.0000 </r>
       <r>    4.9083    1.0000 </r>
       <r>    7.6507    0.0000 </r>
       <r>    9.5191    0.0000 </r>
       <r>   12.8943    0.0000 </r>
       <r>   17.5338    0.0000 </r>
       <r>   19.3991    0.0000 </r>
       <r>   21.4778    0.0000 </r>
      </set>
      <set comment="kpoint 11">
       <r>    0.3964    1.0000 </r>
       <r>    4.6234    1.0000 </r>
       <r>    6.2455    0.0000 </r>
       <r>    7.3804    0.0000 </r>
       <r>    8.4269    0.0000 </r>
       <r>   10.6331    0.0000 </r>
       <r>   19.3701    0.0000 </r>
       <r>   19.5523    0.0000 </r>
       <r>   22.7598    0.0000 </r>
      </set>
      <set comment="kpoint 12">
       <r>    1.6872    1.0000 </r>
       <r>    2.9768    1.0000 </r>
       <r>    6.6830    0.0000 </r>
       <r>    9.9130    0.0000 </r>
       <r>   10.9850    0.0000 </r>
       <r>   11.6272    0.0000 </r>
       <r>   18.3332    0.0000 </r>
       <r>   19.3960    0.0000 </r>
       <r>   19.7174    0.0000 </r>
      </set>
      <set comment="kpoint 13">
       <r>    2.1578    1.0000 </r>
       <r>    3.1298    1.0000 </r>
       <r>    6.7053    0.0000 </r>
       <r>    9.7111    0.0000 </r>
       <r>   11.9420    0.0000 </r>
       <r>   14.1500    0.0000 </r>
       <r>   15.2093    0.0000 </r>
       <r>   18.2051    0.0000 </r>
       <r>   19.3959    0.0000 </r>
      </set>
      <set comment="kpoint 14">
       <r>    3.2379    1.0000 </r>
       <r>    3.7655    1.0000 </r>
       <r>    5.3108    1.0000 </r>
       <r>    8.1909    0.0000 </r>
       <r>   10.8959    0.0000 </r>
       <r>   13.2911    0.0000 </r>
       <r>   16.5762    0.0000 </r>
       <r>   19.3480    0.0000 </r>
       <r>   19.4601    0.0000 </r>
      </set>
      <set comment="kpoint 15">
       <r>    1.8184    1.0000 </r>
       <r>    4.9587    1.0000 </r>
       <r>    5.7297    0.7028 </r>
       <r>    6.8062    0.0000 </r>
       <r>   10.8000    0.0000 </r>
       <r>   12.4651    0.0000 </r>
       <r>   16.2419    0.0000 </r>
       <r>   19.3964    0.0000 </r>
       <r>   19.8856    0.0000 </r>
      </set>
      <set comment="kpoint 16">
       <r>    1.5947    1.0000 </r>
       <r>    2.6299    1.0000 </r>
       <r>    7.9841    0.0000 </r>
       <r>   11.0085    0.0000 </r>
       <r>   12.1434    0.0000 </r>
       <r>   12.6750    0.0000 </r>
       <r>   16.1890    0.0000 </r>
       <r>   17.8523    0.0000 </r>
       <r>   19.1701    0.0000 </r>
      </set>
      <set comment="kpoint 17">
       <r>    2.2491    1.0000 </r>
       <r>    3.4209    1.0000 </r>
       <r>    5.6853    1.0341 </r>
       <r>    9.1192    0.0000 </r>
       <r>   10.9754    0.0000 </r>
       <r>   12.8230    0.0000 </r>
       <r>   16.8511    0.0000 </r>
       <r>   19.3956    0.0000 </r>
       <r>   19.8976    0.0000 </r>
      </set>
      <set comment="kpoint 18">
       <r>    1.1781    1.0000 </r>
       <r>    3.6344    1.0000 </r>
       <r>    6.0673    0.0000 </r>
       <r>    8.6082    0.0000 </r>
       <r>    9.2751    0.0000 </r>
       <r>   10.8627    0.0000 </r>
       <r>   19.3888    0.0000 </r>
       <r>   20.7313    0.0000 </r>
       <r>   22.2406    0.0000 </r>
      </set>
      <set comment="kpoint 19">
       <r>   -0.2370    1.0000 </r>
       <r>    5.1289    1.0000 </r>
       <r>    6.6924    0.0000 </r>
       <r>    6.6924    0.0000 </r>
       <r>    9.3478    0.0000 </r>
       <r>    9.3478    0.0000 </r>
       <r>   18.3633    0.0000 </r>
       <r>   19.3944    0.0000 </r>
       <r>   22.0702    0.0000 </r>
      </set>
      <set comment="kpoint 20">
       <r>    1.2995    1.0000 </r>
       <r>    4.6762    1.0000 </r>
       <r>    5.7212    0.8214 </r>
       <r>    7.2557    0.0000 </r>
       <r>    8.6241    0.0000 </r>
       <r>   11.8476    0.0000 </r>
       <r>   18.6852    0.0000 </r>
       <r>   19.4031    0.0000 </r>
       <r>   21.7560    0.0000 </r>
      </set>
      <set comment="kpoint 21">
       <r>    2.9600    1.0000 </r>
       <r>    4.2306    1.0000 </r>
       <r>    5.1292    1.0000 </r>
       <r>    7.6771    0.0000 </r>
       <r>   10.0060    0.0000 </r>
       <r>   13.0432    0.0000 </r>
       <r>   17.1368    0.0000 </r>
       <r>   19.3976    0.0000 </r>
       <r>   20.2785    0.0000 </r>
      </set>
      <set comment="kpoint 22">
       <r>    2.4147    1.0000 </r>
       <r>    3.8119    1.0000 </r>
       <r>    5.5835    1.0000 </r>
       <r>    8.1088    0.0000 </r>
       <r>   11.8634    0.0000 </r>
       <r>   12.8297    0.0000 </r>
       <r>   15.4032    0.0000 </r>
       <r>   19.3960    0.0000 </r>
       <r>   21.2541    0.0000 </r>
      </set>
      <set comment="kpoint 23">
       <r>    1.6857    1.0000 </r>
       <r>    4.4423    1.0000 </r>
       <r>    5.5674    1.0000 </r>
       <r>    7.2634    0.0000 </r>
       <r>   10.8318    0.0000 </r>
       <r>   11.5648    0.0000 </r>
       <r>   17.3609    0.0000 </r>
       <r>   19.3980    0.0000 </r>
       <r>   20.7953    0.0000 </r>
      </set>
      <set comment="kpoint 24">
       <r>    3.1491    1.0000 </r>
       <r>    3.9744    1.0000 </r>
       <r>    4.7354    1.0000 </r>
       <r>    8.3069    0.0000 </r>
       <r>   10.7645    0.0000 </r>
       <r>   13.5852    0.0000 </r>
       <r>   16.4565    0.0000 </r>
       <r>   19.3928    0.0000 </r>
       <r>   19.6644    0.0000 </r>
      </set>
      <set comment="kpoint 25">
       <r>    2.9917    1.0000 </r>
       <r>    3.9773    1.0000 </r>
       <r>    5.2338    1.0000 </r>
       <r>    8.2576    0.0000 </r>
       <r>   11.8536    0.0000 </r>
       <r>   14.8564    0.0000 </r>
       <r>   15.5809    0.0000 </r>
       <r>   17.9898    0.0000 </r>
       <r>   19.3996    0.0000 </r>
      </set>
      <set comment="kpoint 26">
       <r>    2.5265    1.0000 </r>
       <r>    3.5061    1.0000 </r>
       <r>    6.1594    0.0000 </r>
       <r>    9.0443    0.0000 </r>
       <r>   11.4292    0.0000 </r>
       <r>   13.3970    0.0000 </r>
       <r>   15.5594    0.0000 </r>
       <r>   19.3798    0.0000 </r>
       <r>   19.7104    0.0000 </r>
      </set>
      <set comment="kpoint 27">
       <r>    1.1052    1.0000 </r>
       <r>    6.0387    0.0000 </r>
       <r>    6.1486    0.0000 </r>
       <r>    6.1486    0.0000 </r>
       <r>   11.2198    0.0000 </r>
       <r>   11.2198    0.0000 </r>
       <r>   16.3518    0.0000 </r>
       <r>   18.6902    0.0000 </r>
       <r>   19.4005    0.0000 </r>
      </set>
      <set comment="kpoint 28">
       <r>    2.1276    1.0000 </r>
       <r>    4.7281    1.0000 </r>
       <r>    5.9447    0.0000 </r>
       <r>    6.8725    0.0000 </r>
       <r>   11.0653    0.0000 </r>
       <r>   12.9576    0.0000 </r>
       <r>   15.4908    0.0000 </r>
       <r>   19.3970    0.0000 </r>
       <r>   20.0777    0.0000 </r>
      </set>
     </set>
    </set>
   </array>
  </eigenvalues>
  <separator name="orbital magnetization" >
   <v name="MAGDIPOLOUT">      0.00000000      0.00000000      0.00000000</v>
  </separator>
  <dos>
   <i name="efermi">      5.74205709 </i>
   <total>
    <array>
     <dimension dim="1">gridpoints</dimension>
     <dimension dim="2">spin</dimension>
     <field>energy</field>
     <field>total</field>
     <field>integrated</field>
     <set>
      <set comment="spin 1">
       <r>    -3.2826     0.0000     0.0000 </r>
       <r>    -3.1916     0.0000     0.0000 </r>
       <r>    -3.1005     0.0000     0.0000 </r>
       <r>    -3.0095     0.0000     0.0000 </r>
       <r>    -2.9185     0.0000     0.0000 </r>
       <r>    -2.8275     0.0000     0.0000 </r>
       <r>    -2.7364     0.0000     0.0000 </r>
       <r>    -2.6454     0.0000     0.0000 </r>
       <r>    -2.5544     0.0000     0.0000 </r>
       <r>    -2.4633     0.0000     0.0000 </r>
       <r>    -2.3723     0.0000     0.0000 </r>
       <r>    -2.2813     0.0000     0.0000 </r>
       <r>    -2.1902     0.0000     0.0000 </r>
       <r>    -2.0992    -0.0020    -0.0002 </r>
       <r>    -2.0082     0.0648     0.0057 </r>
       <r>    -1.9172     0.0398     0.0093 </r>
       <r>    -1.8261    -0.0009     0.0093 </r>
       <r>    -1.7351     0.0000     0.0093 </r>
       <r>    -1.6441     0.0000     0.0093 </r>
       <r>    -1.5530     0.0000     0.0093 </r>
       <r>    -1.4620    -0.0001     0.0093 </r>
       <r>    -1.3710    -0.0076     0.0086 </r>
       <r>    -1.2799     0.3113     0.0369 </r>
       <r>    -1.1889     0.0017     0.0371 </r>
       <r>    -1.0979    -0.0002     0.0370 </r>
       <r>    -1.0069     0.0000     0.0370 </r>
       <r>    -0.9158     0.0000     0.0370 </r>
       <r>    -0.8248    -0.0003     0.0370 </r>
       <r>    -0.7338     0.0105     0.0380 </r>
       <r>    -0.6427     0.3049     0.0657 </r>
       <r>    -0.5517    -0.0099     0.0648 </r>
       <r>    -0.4607     0.0000     0.0648 </r>
       <r>    -0.3696     0.0000     0.0648 </r>
       <r>    -0.2786    -0.0034     0.0645 </r>
       <r>    -0.1876     0.0874     0.0725 </r>
       <r>    -0.0966     0.1366     0.0849 </r>
       <r>    -0.0055     0.1920     0.1024 </r>
       <r>     0.0855    -0.0058     0.1019 </r>
       <r>     0.1765     0.0000     0.1019 </r>
       <r>     0.2676     0.0000     0.1018 </r>
       <r>     0.3586    -0.0214     0.0999 </r>
       <r>     0.4496     0.5691     0.1517 </r>
       <r>     0.5407     0.0636     0.1575 </r>
       <r>     0.6317     0.0071     0.1581 </r>
       <r>     0.7227     0.3067     0.1861 </r>
       <r>     0.8137    -0.0096     0.1852 </r>
       <r>     0.9048     0.0000     0.1852 </r>
       <r>     0.9958    -0.0001     0.1852 </r>
       <r>     1.0868    -0.0122     0.1841 </r>
       <r>     1.1779     0.4317     0.2234 </r>
       <r>     1.2689     0.2933     0.2501 </r>
       <r>     1.3599     0.2896     0.2764 </r>
       <r>     1.4510     0.1157     0.2870 </r>
       <r>     1.5420     0.2024     0.3054 </r>
       <r>     1.6330     0.2084     0.3244 </r>
       <r>     1.7240     1.1557     0.4296 </r>
       <r>     1.8151     0.2243     0.4500 </r>
       <r>     1.9061     0.5711     0.5020 </r>
       <r>     1.9971    -0.0216     0.5000 </r>
       <r>     2.0882    -0.0188     0.4983 </r>
       <r>     2.1792     0.5836     0.5514 </r>
       <r>     2.2702     0.6482     0.6104 </r>
       <r>     2.3613     0.3351     0.6409 </r>
       <r>     2.4523     0.8267     0.7162 </r>
       <r>     2.5433     0.1914     0.7336 </r>
       <r>     2.6343     0.2680     0.7580 </r>
       <r>     2.7254     0.8571     0.8360 </r>
       <r>     2.8164    -0.0293     0.8333 </r>
       <r>     2.9074    -0.0149     0.8320 </r>
       <r>     2.9985     0.5395     0.8811 </r>
       <r>     3.0895     0.6843     0.9434 </r>
       <r>     3.1805     0.9345     1.0284 </r>
       <r>     3.2716     0.7173     1.0937 </r>
       <r>     3.3626     0.1821     1.1103 </r>
       <r>     3.4536     0.3994     1.1467 </r>
       <r>     3.5446     0.4517     1.1878 </r>
       <r>     3.6357     0.1248     1.1991 </r>
       <r>     3.7267     0.2403     1.2210 </r>
       <r>     3.8177     0.6452     1.2798 </r>
       <r>     3.9088     0.2643     1.3038 </r>
       <r>     3.9998     1.0121     1.3959 </r>
       <r>     4.0908     0.8388     1.4723 </r>
       <r>     4.1819     0.5257     1.5202 </r>
       <r>     4.2729     0.3373     1.5509 </r>
       <r>     4.3639     0.0503     1.5554 </r>
       <r>     4.4549     0.0765     1.5624 </r>
       <r>     4.5460     0.9562     1.6494 </r>
       <r>     4.6370     0.3915     1.6851 </r>
       <r>     4.7280     0.7951     1.7575 </r>
       <r>     4.8191     0.8624     1.8360 </r>
       <r>     4.9101     0.1096     1.8459 </r>
       <r>     5.0011     1.3081     1.9650 </r>
       <r>     5.0922     0.0665     1.9711 </r>
       <r>     5.1832     0.3958     2.0071 </r>
       <r>     5.2742     0.8118     2.0810 </r>
       <r>     5.3652     1.0074     2.1727 </r>
       <r>     5.4563     0.1908     2.1901 </r>
       <r>     5.5473     0.8979     2.2718 </r>
       <r>     5.6383     1.3748     2.3970 </r>
       <r>     5.7294     0.6902     2.4598 </r>
       <r>     5.8204     0.8786     2.5398 </r>
       <r>     5.9114    -0.0404     2.5361 </r>
       <r>     6.0025     0.2840     2.5619 </r>
       <r>     6.0935     0.5584     2.6128 </r>
       <r>     6.1845     0.5854     2.6661 </r>
       <r>     6.2755     0.7584     2.7351 </r>
       <r>     6.3666     0.6751     2.7966 </r>
       <r>     6.4576     0.4647     2.8389 </r>
       <r>     6.5486     0.3350     2.8693 </r>
       <r>     6.6397    -0.0292     2.8667 </r>
       <r>     6.7307     1.2155     2.9773 </r>
       <r>     6.8217     1.6453     3.1271 </r>
       <r>     6.9128     0.7088     3.1916 </r>
       <r>     7.0038     0.3478     3.2233 </r>
       <r>     7.0948    -0.0116     3.2222 </r>
       <r>     7.1858    -0.0072     3.2216 </r>
       <r>     7.2769     0.2805     3.2471 </r>
       <r>     7.3679     0.3809     3.2818 </r>
       <r>     7.4589     0.5680     3.3335 </r>
       <r>     7.5500     0.5960     3.3877 </r>
       <r>     7.6410     0.3640     3.4209 </r>
       <r>     7.7320     0.8786     3.5008 </r>
       <r>     7.8231    -0.0088     3.5000 </r>
       <r>     7.9141    -0.0035     3.4997 </r>
       <r>     8.0051     0.1265     3.5112 </r>
       <r>     8.0961     0.3288     3.5412 </r>
       <r>     8.1872     1.1433     3.6452 </r>
       <r>     8.2782     0.8507     3.7227 </r>
       <r>     8.3692     0.9064     3.8052 </r>
       <r>     8.4603     1.0681     3.9024 </r>
       <r>     8.5513     0.1485     3.9159 </r>
       <r>     8.6423     0.3768     3.9502 </r>
       <r>     8.7334     0.2477     3.9728 </r>
       <r>     8.8244    -0.0062     3.9722 </r>
       <r>     8.9154     0.0000     3.9722 </r>
       <r>     9.0064    -0.0108     3.9712 </r>
       <r>     9.0975     0.3002     3.9986 </r>
       <r>     9.1885     0.7386     4.0658 </r>
       <r>     9.2795     0.1673     4.0810 </r>
       <r>     9.3706     0.3526     4.1131 </r>
       <r>     9.4616     0.0343     4.1162 </r>
       <r>     9.5526     1.3839     4.2422 </r>
       <r>     9.6437     0.5033     4.2880 </r>
       <r>     9.7347     0.6515     4.3473 </r>
       <r>     9.8257     0.2580     4.3708 </r>
       <r>     9.9167     0.0656     4.3768 </r>
       <r>    10.0078     0.5012     4.4224 </r>
       <r>    10.0988     0.3983     4.4587 </r>
       <r>    10.1898     0.2607     4.4824 </r>
       <r>    10.2809    -0.0103     4.4815 </r>
       <r>    10.3719     0.0000     4.4815 </r>
       <r>    10.4629    -0.0014     4.4813 </r>
       <r>    10.5540     0.0675     4.4875 </r>
       <r>    10.6450     0.4908     4.5322 </r>
       <r>    10.7360     0.3460     4.5637 </r>
       <r>    10.8270     1.0504     4.6593 </r>
       <r>    10.9181     1.1302     4.7622 </r>
       <r>    11.0091     0.9752     4.8509 </r>
       <r>    11.1001     0.7717     4.9212 </r>
       <r>    11.1912     0.0302     4.9239 </r>
       <r>    11.2822     0.7563     4.9928 </r>
       <r>    11.3732     0.0714     4.9993 </r>
       <r>    11.4642     0.2843     5.0251 </r>
       <r>    11.5553     0.3775     5.0595 </r>
       <r>    11.6463     0.4284     5.0985 </r>
       <r>    11.7373     0.4229     5.1370 </r>
       <r>    11.8284     0.6244     5.1938 </r>
       <r>    11.9194     1.5640     5.3362 </r>
       <r>    12.0104     0.5969     5.3905 </r>
       <r>    12.1015    -0.0286     5.3879 </r>
       <r>    12.1925     0.2994     5.4152 </r>
       <r>    12.2835     0.0165     5.4167 </r>
       <r>    12.3745    -0.0033     5.4164 </r>
       <r>    12.4656     0.1487     5.4299 </r>
       <r>    12.5566     0.4815     5.4738 </r>
       <r>    12.6476    -0.0203     5.4719 </r>
       <r>    12.7387     0.3076     5.4999 </r>
       <r>    12.8297     0.2424     5.5220 </r>
       <r>    12.9207     1.0899     5.6212 </r>
       <r>    13.0118     0.4859     5.6654 </r>
       <r>    13.1028     0.3164     5.6942 </r>
       <r>    13.1938     0.0015     5.6944 </r>
       <r>    13.2848     0.0594     5.6998 </r>
       <r>    13.3759     0.5694     5.7516 </r>
       <r>    13.4669     0.2914     5.7781 </r>
       <r>    13.5579    -0.0147     5.7768 </r>
       <r>    13.6490     0.6930     5.8399 </r>
       <r>    13.7400     0.5601     5.8909 </r>
       <r>    13.8310    -0.0216     5.8889 </r>
       <r>    13.9221     0.0000     5.8889 </r>
       <r>    14.0131     0.0000     5.8889 </r>
       <r>    14.1041    -0.0212     5.8870 </r>
       <r>    14.1951     0.5603     5.9380 </r>
       <r>    14.2862     0.0726     5.9446 </r>
       <r>    14.3772    -0.0014     5.9444 </r>
       <r>    14.4682     0.0000     5.9444 </r>
       <r>    14.5593     0.0000     5.9444 </r>
       <r>    14.6503     0.0000     5.9444 </r>
       <r>    14.7413    -0.0002     5.9444 </r>
       <r>    14.8324    -0.0104     5.9435 </r>
       <r>    14.9234     0.7891     6.0153 </r>
       <r>    15.0144     0.4586     6.0571 </r>
       <r>    15.1054    -0.0170     6.0555 </r>
       <r>    15.1965     0.0194     6.0573 </r>
       <r>    15.2875     0.6111     6.1129 </r>
       <r>    15.3785    -0.0239     6.1107 </r>
       <r>    15.4696     0.3134     6.1392 </r>
       <r>    15.5606     0.3779     6.1736 </r>
       <r>    15.6516     0.8612     6.2520 </r>
       <r>    15.7427    -0.0201     6.2502 </r>
       <r>    15.8337     0.3108     6.2785 </r>
       <r>    15.9247    -0.0079     6.2778 </r>
       <r>    16.0157    -0.0001     6.2778 </r>
       <r>    16.1068    -0.0015     6.2776 </r>
       <r>    16.1978     0.0546     6.2826 </r>
       <r>    16.2888     0.8023     6.3556 </r>
       <r>    16.3799     0.1211     6.3667 </r>
       <r>    16.4709     0.2741     6.3916 </r>
       <r>    16.5619     0.4199     6.4298 </r>
       <r>    16.6530     0.5884     6.4834 </r>
       <r>    16.7440    -0.0214     6.4814 </r>
       <r>    16.8350     0.0096     6.4823 </r>
       <r>    16.9260     0.6187     6.5386 </r>
       <r>    17.0171    -0.0175     6.5370 </r>
       <r>    17.1081    -0.0089     6.5362 </r>
       <r>    17.1991     0.4047     6.5731 </r>
       <r>    17.2902     0.2178     6.5929 </r>
       <r>    17.3812     0.1502     6.6066 </r>
       <r>    17.4722     0.1435     6.6196 </r>
       <r>    17.5633     0.3903     6.6552 </r>
       <r>    17.6543     0.2334     6.6764 </r>
       <r>    17.7453    -0.0055     6.6759 </r>
       <r>    17.8363     0.0012     6.6760 </r>
       <r>    17.9274     0.2918     6.7026 </r>
       <r>    18.0184     0.6103     6.7581 </r>
       <r>    18.1094     0.3236     6.7876 </r>
       <r>    18.2005     0.0515     6.7923 </r>
       <r>    18.2915     0.5624     6.8435 </r>
       <r>    18.3825     0.3049     6.8712 </r>
       <r>    18.4736     0.0921     6.8796 </r>
       <r>    18.5646     0.1053     6.8892 </r>
       <r>    18.6556     0.1955     6.9070 </r>
       <r>    18.7466     0.4039     6.9438 </r>
       <r>    18.8377    -0.0160     6.9423 </r>
       <r>    18.9287     0.6526     7.0017 </r>
       <r>    19.0197     0.0846     7.0094 </r>
       <r>    19.1108    -0.0094     7.0086 </r>
       <r>    19.2018     0.2247     7.0290 </r>
       <r>    19.2928     0.0363     7.0323 </r>
       <r>    19.3839     2.1558     7.2286 </r>
       <r>    19.4749     9.1703     8.0633 </r>
       <r>    19.5659     0.2650     8.0875 </r>
       <r>    19.6569     0.4065     8.1245 </r>
       <r>    19.7480     1.1586     8.2299 </r>
       <r>    19.8390     0.2990     8.2572 </r>
       <r>    19.9300     0.9128     8.3403 </r>
       <r>    20.0211     0.3307     8.3704 </r>
       <r>    20.1121     0.2148     8.3899 </r>
       <r>    20.2031     0.4854     8.4341 </r>
       <r>    20.2942     0.3529     8.4662 </r>
       <r>    20.3852     0.1728     8.4820 </r>
       <r>    20.4762    -0.0053     8.4815 </r>
       <r>    20.5672     0.0000     8.4815 </r>
       <r>    20.6583    -0.0035     8.4812 </r>
       <r>    20.7493     0.1312     8.4931 </r>
       <r>    20.8403     0.4329     8.5325 </r>
       <r>    20.9314     0.0451     8.5366 </r>
       <r>    21.0224     0.9186     8.6202 </r>
       <r>    21.1134    -0.0050     8.6198 </r>
       <r>    21.2045     0.3115     8.6481 </r>
       <r>    21.2955     0.0002     8.6482 </r>
       <r>    21.3865    -0.0021     8.6480 </r>
       <r>    21.4775     0.0904     8.6562 </r>
       <r>    21.5686     1.0326     8.7502 </r>
       <r>    21.6596     0.4194     8.7884 </r>
       <r>    21.7506     0.0062     8.7889 </r>
       <r>    21.8417     0.2949     8.8158 </r>
       <r>    21.9327    -0.0092     8.8150 </r>
       <r>    22.0237     0.1000     8.8241 </r>
       <r>    22.1148     0.0809     8.8314 </r>
       <r>    22.2058     0.1185     8.8422 </r>
       <r>    22.2968     0.8223     8.9171 </r>
       <r>    22.3878    -0.0039     8.9167 </r>
       <r>    22.4789    -0.0004     8.9167 </r>
       <r>    22.5699    -0.0015     8.9165 </r>
       <r>    22.6609     0.0766     8.9235 </r>
       <r>    22.7520     0.2715     8.9482 </r>
       <r>    22.8430     0.5901     9.0019 </r>
       <r>    22.9340    -0.0211     9.0000 </r>
       <r>    23.0251    -0.0001     9.0000 </r>
       <r>    23.1161     0.0000     9.0000 </r>
       <r>    23.2071     0.0000     9.0000 </r>
       <r>    23.2981     0.0000     9.0000 </r>
       <r>    23.3892     0.0000     9.0000 </r>
       <r>    23.4802     0.0000     9.0000 </r>
       <r>    23.5712     0.0000     9.0000 </r>
       <r>    23.6623     0.0000     9.0000 </r>
       <r>    23.7533     0.0000     9.0000 </r>
       <r>    23.8443     0.0000     9.0000 </r>
       <r>    23.9354     0.0000     9.0000 </r>
       <r>    24.0264     0.0000     9.0000 </r>
      </set>
      <set comment="spin 2">
       <r>    -3.2826     0.0000     0.0000 </r>
       <r>    -3.1916     0.0000     0.0000 </r>
       <r>    -3.1005     0.0000     0.0000 </r>
       <r>    -3.0095     0.0000     0.0000 </r>
       <r>    -2.9185     0.0000     0.0000 </r>
       <r>    -2.8275     0.0000     0.0000 </r>
       <r>    -2.7364     0.0000     0.0000 </r>
       <r>    -2.6454     0.0000     0.0000 </r>
       <r>    -2.5544     0.0000     0.0000 </r>
       <r>    -2.4633     0.0000     0.0000 </r>
       <r>    -2.3723     0.0000     0.0000 </r>
       <r>    -2.2813     0.0000     0.0000 </r>
       <r>    -2.1902     0.0000     0.0000 </r>
       <r>    -2.0992    -0.0035    -0.0003 </r>
       <r>    -2.0082     0.0997     0.0088 </r>
       <r>    -1.9172     0.0056     0.0093 </r>
       <r>    -1.8261    -0.0001     0.0093 </r>
       <r>    -1.7351     0.0000     0.0093 </r>
       <r>    -1.6441     0.0000     0.0093 </r>
       <r>    -1.5530     0.0000     0.0093 </r>
       <r>    -1.4620    -0.0008     0.0092 </r>
       <r>    -1.3710     0.0435     0.0131 </r>
       <r>    -1.2799     0.2728     0.0380 </r>
       <r>    -1.1889    -0.0103     0.0370 </r>
       <r>    -1.0979     0.0000     0.0370 </r>
       <r>    -1.0069     0.0000     0.0370 </r>
       <r>    -0.9158     0.0000     0.0370 </r>
       <r>    -0.8248    -0.0023     0.0368 </r>
       <r>    -0.7338     0.1037     0.0463 </r>
       <r>    -0.6427     0.2105     0.0654 </r>
       <r>    -0.5517    -0.0068     0.0648 </r>
       <r>    -0.4607     0.0000     0.0648 </r>
       <r>    -0.3696    -0.0001     0.0648 </r>
       <r>    -0.2786     0.0003     0.0648 </r>
       <r>    -0.1876     0.0947     0.0735 </r>
       <r>    -0.0966     0.2499     0.0962 </r>
       <r>    -0.0055     0.0632     0.1020 </r>
       <r>     0.0855    -0.0012     0.1019 </r>
       <r>     0.1765     0.0000     0.1019 </r>
       <r>     0.2676    -0.0005     0.1018 </r>
       <r>     0.3586     0.0139     0.1031 </r>
       <r>     0.4496     0.6155     0.1591 </r>
       <r>     0.5407    -0.0206     0.1572 </r>
       <r>     0.6317     0.0971     0.1661 </r>
       <r>     0.7227     0.2172     0.1858 </r>
       <r>     0.8137    -0.0072     0.1852 </r>
       <r>     0.9048     0.0000     0.1852 </r>
       <r>     0.9958    -0.0007     0.1851 </r>
       <r>     1.0868     0.0256     0.1875 </r>
       <r>     1.1779     0.5454     0.2371 </r>
       <r>     1.2689     0.1686     0.2525 </r>
       <r>     1.3599     0.2809     0.2780 </r>
       <r>     1.4510     0.2238     0.2984 </r>
       <r>     1.5420     0.0692     0.3047 </r>
       <r>     1.6330     0.3890     0.3401 </r>
       <r>     1.7240     1.1451     0.4443 </r>
       <r>     1.8151     0.2727     0.4692 </r>
       <r>     1.9061     0.3487     0.5009 </r>
       <r>     1.9971    -0.0101     0.5000 </r>
       <r>     2.0882    -0.0153     0.4986 </r>
       <r>     2.1792     0.8154     0.5728 </r>
       <r>     2.2702     0.6164     0.6289 </r>
       <r>     2.3613     0.2987     0.6561 </r>
       <r>     2.4523     0.7245     0.7221 </r>
       <r>     2.5433     0.2270     0.7427 </r>
       <r>     2.6343     0.4509     0.7838 </r>
       <r>     2.7254     0.5620     0.8349 </r>
       <r>     2.8164    -0.0174     0.8333 </r>
       <r>     2.9074    -0.0305     0.8305 </r>
       <r>     2.9985     0.9578     0.9177 </r>
       <r>     3.0895     0.2838     0.9436 </r>
       <r>     3.1805     1.1844     1.0514 </r>
       <r>     3.2716     0.6269     1.1084 </r>
       <r>     3.3626     0.0086     1.1092 </r>
       <r>     3.4536     0.5869     1.1627 </r>
       <r>     3.5446     0.3401     1.1936 </r>
       <r>     3.6357     0.1680     1.2089 </r>
       <r>     3.7267     0.1547     1.2230 </r>
       <r>     3.8177     0.8020     1.2960 </r>
       <r>     3.9088     0.0455     1.3001 </r>
       <r>     3.9998     1.6644     1.4516 </r>
       <r>     4.0908     0.2257     1.4722 </r>
       <r>     4.1819     0.6148     1.5282 </r>
       <r>     4.2729     0.3015     1.5556 </r>
       <r>     4.3639    -0.0081     1.5549 </r>
       <r>     4.4549     0.2086     1.5738 </r>
       <r>     4.5460     0.9964     1.6645 </r>
       <r>     4.6370     0.4589     1.7063 </r>
       <r>     4.7280     0.8743     1.7859 </r>
       <r>     4.8191     0.5240     1.8336 </r>
       <r>     4.9101     0.4546     1.8750 </r>
       <r>     5.0011     1.0807     1.9734 </r>
       <r>     5.0922    -0.0040     1.9730 </r>
       <r>     5.1832     0.5053     2.0190 </r>
       <r>     5.2742     0.9490     2.1054 </r>
       <r>     5.3652     0.7883     2.1771 </r>
       <r>     5.4563     0.3540     2.2094 </r>
       <r>     5.5473     1.0149     2.3017 </r>
       <r>     5.6383     1.0713     2.3993 </r>
       <r>     5.7294     1.0992     2.4993 </r>
       <r>     5.8204     0.4252     2.5380 </r>
       <r>     5.9114     0.0049     2.5385 </r>
       <r>     6.0025     0.2820     2.5641 </r>
       <r>     6.0935     0.7377     2.6313 </r>
       <r>     6.1845     0.5152     2.6782 </r>
       <r>     6.2755     0.9339     2.7632 </r>
       <r>     6.3666     0.4137     2.8009 </r>
       <r>     6.4576     0.4815     2.8447 </r>
       <r>     6.5486     0.2917     2.8713 </r>
       <r>     6.6397    -0.0383     2.8678 </r>
       <r>     6.7307     1.6734     3.0201 </r>
       <r>     6.8217     1.4658     3.1535 </r>
       <r>     6.9128     0.5384     3.2025 </r>
       <r>     7.0038     0.2240     3.2229 </r>
       <r>     7.0948    -0.0078     3.2222 </r>
       <r>     7.1858    -0.0174     3.2206 </r>
       <r>     7.2769     0.4845     3.2647 </r>
       <r>     7.3679     0.3267     3.2945 </r>
       <r>     7.4589     0.4094     3.3318 </r>
       <r>     7.5500     0.8510     3.4092 </r>
       <r>     7.6410     0.2998     3.4365 </r>
       <r>     7.7320     0.7207     3.5021 </r>
       <r>     7.8231    -0.0232     3.5000 </r>
       <r>     7.9141    -0.0097     3.4991 </r>
       <r>     8.0051     0.2492     3.5218 </r>
       <r>     8.0961     0.4137     3.5595 </r>
       <r>     8.1872     1.1479     3.6640 </r>
       <r>     8.2782     0.8990     3.7458 </r>
       <r>     8.3692     0.7609     3.8151 </r>
       <r>     8.4603     1.1043     3.9156 </r>
       <r>     8.5513    -0.0066     3.9150 </r>
       <r>     8.6423     0.5497     3.9650 </r>
       <r>     8.7334     0.0809     3.9724 </r>
       <r>     8.8244    -0.0016     3.9722 </r>
       <r>     8.9154    -0.0002     3.9722 </r>
       <r>     9.0064     0.0049     3.9726 </r>
       <r>     9.0975     0.4066     4.0097 </r>
       <r>     9.1885     0.6780     4.0714 </r>
       <r>     9.2795     0.1991     4.0895 </r>
       <r>     9.3706     0.3105     4.1178 </r>
       <r>     9.4616    -0.0182     4.1161 </r>
       <r>     9.5526     1.7602     4.2763 </r>
       <r>     9.6437     0.1674     4.2916 </r>
       <r>     9.7347     0.7851     4.3630 </r>
       <r>     9.8257     0.0771     4.3701 </r>
       <r>     9.9167     0.1600     4.3846 </r>
       <r>    10.0078     0.5764     4.4371 </r>
       <r>    10.0988     0.3090     4.4652 </r>
       <r>    10.1898     0.1841     4.4820 </r>
       <r>    10.2809    -0.0056     4.4815 </r>
       <r>    10.3719     0.0000     4.4815 </r>
       <r>    10.4629    -0.0044     4.4811 </r>
       <r>    10.5540     0.1482     4.4946 </r>
       <r>    10.6450     0.5880     4.5481 </r>
       <r>    10.7360     0.2203     4.5681 </r>
       <r>    10.8270     1.2587     4.6827 </r>
       <r>    10.9181     1.0279     4.7763 </r>
       <r>    11.0091     1.1077     4.8771 </r>
       <r>    11.1001     0.5284     4.9252 </r>
       <r>    11.1912     0.0127     4.9264 </r>
       <r>    11.2822     0.8154     5.0006 </r>
       <r>    11.3732    -0.0191     4.9989 </r>
       <r>    11.4642     0.4108     5.0363 </r>
       <r>    11.5553     0.3136     5.0648 </r>
       <r>    11.6463     0.4591     5.1066 </r>
       <r>    11.7373     0.3977     5.1428 </r>
       <r>    11.8284     0.7591     5.2119 </r>
       <r>    11.9194     1.4814     5.3468 </r>
       <r>    12.0104     0.4826     5.3907 </r>
       <r>    12.1015    -0.0197     5.3889 </r>
       <r>    12.1925     0.3120     5.4173 </r>
       <r>    12.2835    -0.0070     5.4167 </r>
       <r>    12.3745    -0.0086     5.4159 </r>
       <r>    12.4656     0.3189     5.4449 </r>
       <r>    12.5566     0.3075     5.4729 </r>
       <r>    12.6476     0.0247     5.4752 </r>
       <r>    12.7387     0.2678     5.4995 </r>
       <r>    12.8297     0.5101     5.5460 </r>
       <r>    12.9207     0.9690     5.6342 </r>
       <r>    13.0118     0.3887     5.6696 </r>
       <r>    13.1028     0.2842     5.6954 </r>
       <r>    13.1938    -0.0166     5.6939 </r>
       <r>    13.2848     0.2463     5.7163 </r>
       <r>    13.3759     0.4349     5.7559 </r>
       <r>    13.4669     0.2485     5.7785 </r>
       <r>    13.5579     0.0509     5.7832 </r>
       <r>    13.6490     0.7971     5.8557 </r>
       <r>    13.7400     0.3765     5.8900 </r>
       <r>    13.8310    -0.0124     5.8889 </r>
       <r>    13.9221     0.0000     5.8889 </r>
       <r>    14.0131    -0.0002     5.8889 </r>
       <r>    14.1041    -0.0086     5.8881 </r>
       <r>    14.1951     0.6263     5.9451 </r>
       <r>    14.2862    -0.0070     5.9445 </r>
       <r>    14.3772    -0.0002     5.9444 </r>
       <r>    14.4682     0.0000     5.9444 </r>
       <r>    14.5593     0.0000     5.9444 </r>
       <r>    14.6503     0.0000     5.9444 </r>
       <r>    14.7413    -0.0016     5.9443 </r>
       <r>    14.8324     0.0764     5.9513 </r>
       <r>    14.9234     0.9161     6.0346 </r>
       <r>    15.0144     0.2359     6.0561 </r>
       <r>    15.1054    -0.0099     6.0552 </r>
       <r>    15.1965     0.1815     6.0717 </r>
       <r>    15.2875     0.4469     6.1124 </r>
       <r>    15.3785     0.0255     6.1147 </r>
       <r>    15.4696     0.3224     6.1441 </r>
       <r>    15.5606     0.5297     6.1923 </r>
       <r>    15.6516     0.6558     6.2520 </r>
       <r>    15.7427     0.0295     6.2547 </r>
       <r>    15.8337     0.2635     6.2787 </r>
       <r>    15.9247    -0.0098     6.2778 </r>
       <r>    16.0157     0.0000     6.2778 </r>
       <r>    16.1068    -0.0067     6.2772 </r>
       <r>    16.1978     0.1991     6.2953 </r>
       <r>    16.2888     0.7327     6.3620 </r>
       <r>    16.3799     0.0664     6.3680 </r>
       <r>    16.4709     0.4699     6.4108 </r>
       <r>    16.5619     0.3335     6.4412 </r>
       <r>    16.6530     0.4588     6.4829 </r>
       <r>    16.7440    -0.0189     6.4812 </r>
       <r>    16.8350     0.1511     6.4950 </r>
       <r>    16.9260     0.4791     6.5386 </r>
       <r>    17.0171    -0.0175     6.5370 </r>
       <r>    17.1081     0.0224     6.5390 </r>
       <r>    17.1991     0.4865     6.5833 </r>
       <r>    17.2902     0.0951     6.5920 </r>
       <r>    17.3812     0.2551     6.6152 </r>
       <r>    17.4722     0.0364     6.6185 </r>
       <r>    17.5633     0.5788     6.6712 </r>
       <r>    17.6543     0.0531     6.6760 </r>
       <r>    17.7453    -0.0026     6.6758 </r>
       <r>    17.8363     0.0763     6.6827 </r>
       <r>    17.9274     0.2074     6.7016 </r>
       <r>    18.0184     0.8723     6.7810 </r>
       <r>    18.1094     0.0611     6.7866 </r>
       <r>    18.2005     0.2627     6.8105 </r>
       <r>    18.2915     0.3606     6.8433 </r>
       <r>    18.3825     0.3858     6.8784 </r>
       <r>    18.4736     0.0051     6.8789 </r>
       <r>    18.5646     0.2379     6.9006 </r>
       <r>    18.6556     0.1065     6.9103 </r>
       <r>    18.7466     0.3894     6.9457 </r>
       <r>    18.8377    -0.0104     6.9448 </r>
       <r>    18.9287     0.7233     7.0106 </r>
       <r>    19.0197    -0.0146     7.0093 </r>
       <r>    19.1108    -0.0109     7.0083 </r>
       <r>    19.2018     0.2959     7.0352 </r>
       <r>    19.2928    -0.0809     7.0279 </r>
       <r>    19.3839     4.0294     7.3947 </r>
       <r>    19.4749     7.4165     8.0698 </r>
       <r>    19.5659     0.3837     8.1047 </r>
       <r>    19.6569     0.3750     8.1389 </r>
       <r>    19.7480     1.2474     8.2524 </r>
       <r>    19.8390     0.0458     8.2566 </r>
       <r>    19.9300     1.2199     8.3676 </r>
       <r>    20.0211     0.0190     8.3693 </r>
       <r>    20.1121     0.3888     8.4047 </r>
       <r>    20.2031     0.4541     8.4461 </r>
       <r>    20.2942     0.3149     8.4747 </r>
       <r>    20.3852     0.0757     8.4816 </r>
       <r>    20.4762    -0.0015     8.4815 </r>
       <r>    20.5672     0.0000     8.4815 </r>
       <r>    20.6583    -0.0091     8.4807 </r>
       <r>    20.7493     0.2440     8.5029 </r>
       <r>    20.8403     0.3775     8.5372 </r>
       <r>    20.9314     0.1312     8.5492 </r>
       <r>    21.0224     0.8093     8.6228 </r>
       <r>    21.1134     0.0075     8.6235 </r>
       <r>    21.2045     0.2737     8.6484 </r>
       <r>    21.2955     0.3010     8.6758 </r>
       <r>    21.3865    -0.0087     8.6750 </r>
       <r>    21.4775     0.3837     8.7100 </r>
       <r>    21.5686     0.7790     8.7809 </r>
       <r>    21.6596     0.0663     8.7869 </r>
       <r>    21.7506     0.1261     8.7984 </r>
       <r>    21.8417     0.1853     8.8153 </r>
       <r>    21.9327     0.0203     8.8171 </r>
       <r>    22.0237     0.0720     8.8237 </r>
       <r>    22.1148     0.3439     8.8550 </r>
       <r>    22.2058     0.3970     8.8911 </r>
       <r>    22.2968     0.2910     8.9176 </r>
       <r>    22.3878    -0.0103     8.9167 </r>
       <r>    22.4789     0.0000     8.9167 </r>
       <r>    22.5699    -0.0071     8.9160 </r>
       <r>    22.6609     0.2115     8.9353 </r>
       <r>    22.7520     0.3279     8.9651 </r>
       <r>    22.8430     0.3955     9.0011 </r>
       <r>    22.9340    -0.0123     9.0000 </r>
       <r>    23.0251     0.0000     9.0000 </r>
       <r>    23.1161     0.0000     9.0000 </r>
       <r>    23.2071     0.0000     9.0000 </r>
       <r>    23.2981     0.0000     9.0000 </r>
       <r>    23.3892     0.0000     9.0000 </r>
       <r>    23.4802     0.0000     9.0000 </r>
       <r>    23.5712     0.0000     9.0000 </r>
       <r>    23.6623     0.0000     9.0000 </r>
       <r>    23.7533     0.0000     9.0000 </r>
       <r>    23.8443     0.0000     9.0000 </r>
       <r>    23.9354     0.0000     9.0000 </r>
       <r>    24.0264     0.0000     9.0000 </r>
      </set>
     </set>
    </array>
   </total>
   <partial>
    <array>
     <dimension dim="1">gridpoints</dimension>
     <dimension dim="2">spin</dimension>
     <dimension dim="3">ion</dimension>
     <field>energy</field>
     <field>  s</field>
     <field> py</field>
     <field> pz</field>
     <field> px</field>
     <field>dxy</field>
     <field>dyz</field>
     <field>dz2</field>
     <field>dxz</field>
     <field>dx2</field>
     <set>
      <set comment="ion 1">
       <set comment="spin 1">
        <r>    -3.2826     0.0000     0.0000     0.0000     0.0000     0.0000     0.0000     0.0000     0.0000     0.0000 </r>
        <r>    -3.1916     0.0000     0.0000     0.0000     0.0000     0.0000     0.0000     0.0000     0.0000     0.0000 </r>
        <r>    -3.1005     0.0000     0.0000     0.0000     0.0000     0.0000     0.0000     0.0000     0.0000     0.0000 </r>
        <r>    -3.0095     0.0000     0.0000     0.0000     0.0000     0.0000     0.0000     0.0000     0.0000     0.0000 </r>
        <r>    -2.9185     0.0000     0.0000     0.0000     0.0000     0.0000     0.0000     0.0000     0.0000     0.0000 </r>
        <r>    -2.8275     0.0000     0.0000     0.0000     0.0000     0.0000     0.0000     0.0000     0.0000     0.0000 </r>
        <r>    -2.7364     0.0000     0.0000     0.0000     0.0000     0.0000     0.0000     0.0000     0.0000     0.0000 </r>
        <r>    -2.6454     0.0000     0.0000     0.0000     0.0000     0.0000     0.0000     0.0000     0.0000     0.0000 </r>
        <r>    -2.5544     0.0000     0.0000     0.0000     0.0000     0.0000     0.0000     0.0000     0.0000     0.0000 </r>
        <r>    -2.4633     0.0000     0.0000     0.0000     0.0000     0.0000     0.0000     0.0000     0.0000     0.0000 </r>
        <r>    -2.3723     0.0000     0.0000     0.0000     0.0000     0.0000     0.0000     0.0000     0.0000     0.0000 </r>
        <r>    -2.2813     0.0000     0.0000     0.0000     0.0000     0.0000     0.0000     0.0000     0.0000     0.0000 </r>
        <r>    -2.1902     0.0000     0.0000     0.0000     0.0000     0.0000     0.0000     0.0000     0.0000     0.0000 </r>
        <r>    -2.0992    -0.0016     0.0000     0.0000     0.0000     0.0000     0.0000     0.0000     0.0000     0.0000 </r>
        <r>    -2.0082     0.0533     0.0004     0.0004     0.0004     0.0000     0.0000     0.0000     0.0000     0.0000 </r>
        <r>    -1.9172     0.0327     0.0003     0.0003     0.0003     0.0000     0.0000     0.0000     0.0000     0.0000 </r>
        <r>    -1.8261    -0.0008     0.0000     0.0000     0.0000     0.0000     0.0000     0.0000     0.0000     0.0000 </r>
        <r>    -1.7351     0.0000     0.0000     0.0000     0.0000     0.0000     0.0000     0.0000     0.0000     0.0000 </r>
        <r>    -1.6441     0.0000     0.0000     0.0000     0.0000     0.0000     0.0000     0.0000     0.0000     0.0000 </r>
        <r>    -1.5530     0.0000     0.0000     0.0000     0.0000     0.0000     0.0000     0.0000     0.0000     0.0000 </r>
        <r>    -1.4620    -0.0001     0.0000     0.0000     0.0000     0.0000     0.0000     0.0000     0.0000     0.0000 </r>
        <r>    -1.3710    -0.0059     0.0000     0.0000    -0.0004     0.0000     0.0000     0.0000     0.0000     0.0000 </r>
        <r>    -1.2799     0.2416     0.0019     0.0019     0.0183     0.0007     0.0001     0.0002     0.0007     0.0007 </r>
        <r>    -1.1889     0.0013     0.0000     0.0000     0.0001     0.0000     0.0000     0.0000     0.0000     0.0000 </r>
        <r>    -1.0979    -0.0001     0.0000     0.0000     0.0000     0.0000     0.0000     0.0000     0.0000     0.0000 </r>
        <r>    -1.0069     0.0000     0.0000     0.0000     0.0000     0.0000     0.0000     0.0000     0.0000     0.0000 </r>
        <r>    -0.9158     0.0000     0.0000     0.0000     0.0000     0.0000     0.0000     0.0000     0.0000     0.0000 </r>
        <r>    -0.8248    -0.0002     0.0000     0.0000     0.0000     0.0000     0.0000     0.0000     0.0000     0.0000 </r>
        <r>    -0.7338     0.0077     0.0005     0.0005     0.0000     0.0000     0.0002     0.0000     0.0000     0.0000 </r>
        <r>    -0.6427     0.2229     0.0159     0.0159     0.0014     0.0011     0.0059     0.0002     0.0011     0.0005 </r>
        <r>    -0.5517    -0.0073    -0.0005    -0.0005     0.0000     0.0000    -0.0002     0.0000     0.0000     0.0000 </r>
        <r>    -0.4607     0.0000     0.0000     0.0000     0.0000     0.0000     0.0000     0.0000     0.0000     0.0000 </r>
        <r>    -0.3696     0.0000     0.0000     0.0000     0.0000     0.0000     0.0000     0.0000     0.0000     0.0000 </r>
        <r>    -0.2786    -0.0023    -0.0001    -0.0001    -0.0001    -0.0001    -0.0001     0.0000    -0.0001     0.0000 </r>
        <r>    -0.1876     0.0595     0.0035     0.0032     0.0035     0.0027     0.0027    -0.0001     0.0027     0.0000 </r>
        <r>    -0.0966     0.0921     0.0012     0.0180     0.0012     0.0006     0.0011     0.0045     0.0011     0.0000 </r>
        <r>    -0.0055     0.1293     0.0009     0.0276     0.0009     0.0002     0.0010     0.0071     0.0010     0.0000 </r>
        <r>     0.0855    -0.0039     0.0000    -0.0008     0.0000     0.0000     0.0000    -0.0002     0.0000     0.0000 </r>
        <r>     0.1765     0.0000     0.0000     0.0000     0.0000     0.0000     0.0000     0.0000     0.0000     0.0000 </r>
        <r>     0.2676     0.0000     0.0000     0.0000     0.0000     0.0000     0.0000     0.0000     0.0000     0.0000 </r>
        <r>     0.3586    -0.0136    -0.0009    -0.0001    -0.0028    -0.0010    -0.0002    -0.0002    -0.0002    -0.0003 </r>
        <r>     0.4496     0.3600     0.0234     0.0014     0.0732     0.0262     0.0049     0.0048     0.0048     0.0070 </r>
        <r>     0.5407     0.0403     0.0026     0.0002     0.0082     0.0029     0.0005     0.0005     0.0005     0.0008 </r>
        <r>     0.6317     0.0040     0.0001     0.0002     0.0006     0.0005     0.0005     0.0000     0.0006     0.0000 </r>
        <r>     0.7227     0.1758     0.0063     0.0063     0.0287     0.0207     0.0191     0.0007     0.0207     0.0021 </r>
        <r>     0.8137    -0.0055    -0.0002    -0.0002    -0.0009    -0.0006    -0.0006     0.0000    -0.0006    -0.0001 </r>
        <r>     0.9048     0.0000     0.0000     0.0000     0.0000     0.0000     0.0000     0.0000     0.0000     0.0000 </r>
        <r>     0.9958     0.0000     0.0000     0.0000     0.0000     0.0000     0.0000     0.0000     0.0000     0.0000 </r>
        <r>     1.0868    -0.0057    -0.0005    -0.0006     0.0000    -0.0014    -0.0017    -0.0002    -0.0014     0.0000 </r>
[...]
        <r>  0.0005 </r>
       </set>
       <set comment="band 3">
        <r>  0.0016 </r>
       </set>
       <set comment="band 4">
        <r>  0.0000 </r>
       </set>
       <set comment="band 5">
        <r>  0.0000 </r>
       </set>
       <set comment="band 6">
        <r>  0.0949 </r>
       </set>
       <set comment="band 7">
        <r>  0.4128 </r>
       </set>
       <set comment="band 8">
        <r> 43.9747 </r>
       </set>
       <set comment="band 9">
        <r>  0.0002 </r>
       </set>
      </set>
     </set>
     <set comment="spin2">
      <set comment="kpoint 1">
       <set comment="band 1">
        <r>  0.8218 </r>
       </set>
       <set comment="band 2">
        <r>  0.0001 </r>
       </set>
       <set comment="band 3">
        <r>  0.0000 </r>
       </set>
       <set comment="band 4">
        <r>  0.0000 </r>
       </set>
       <set comment="band 5">
        <r>  0.0000 </r>
       </set>
       <set comment="band 6">
        <r>  0.0000 </r>
       </set>
       <set comment="band 7">
        <r>  0.0004 </r>
       </set>
       <set comment="band 8">
        <r> 43.8130 </r>
       </set>
       <set comment="band 9">
        <r>  0.0610 </r>
       </set>
      </set>
      <set comment="kpoint 2">
       <set comment="band 1">
        <r>  0.7316 </r>
       </set>
       <set comment="band 2">
        <r>  0.0014 </r>
       </set>
       <set comment="band 3">
        <r>  0.0000 </r>
       </set>
       <set comment="band 4">
        <r>  0.0000 </r>
       </set>
       <set comment="band 5">
        <r>  0.0000 </r>
       </set>
       <set comment="band 6">
        <r>  0.0041 </r>
       </set>
       <set comment="band 7">
        <r> 42.6783 </r>
       </set>
       <set comment="band 8">
        <r>  1.1966 </r>
       </set>
       <set comment="band 9">
        <r>  0.0405 </r>
       </set>
      </set>
      <set comment="kpoint 3">
       <set comment="band 1">
        <r>  0.4716 </r>
       </set>
       <set comment="band 2">
        <r>  0.0360 </r>
       </set>
       <set comment="band 3">
        <r>  0.0041 </r>
       </set>
       <set comment="band 4">
        <r>  0.0000 </r>
       </set>
       <set comment="band 5">
        <r>  0.0000 </r>
       </set>
       <set comment="band 6">
        <r>  0.0115 </r>
       </set>
       <set comment="band 7">
        <r>  0.1829 </r>
       </set>
       <set comment="band 8">
        <r> 43.4229 </r>
       </set>
       <set comment="band 9">
        <r>  0.6894 </r>
       </set>
      </set>
      <set comment="kpoint 4">
       <set comment="band 1">
        <r>  0.3441 </r>
       </set>
       <set comment="band 2">
        <r>  0.0004 </r>
       </set>
       <set comment="band 3">
        <r>  0.0000 </r>
       </set>
       <set comment="band 4">
        <r>  0.0056 </r>
       </set>
       <set comment="band 5">
        <r>  0.0000 </r>
       </set>
       <set comment="band 6">
        <r>  0.0000 </r>
       </set>
       <set comment="band 7">
        <r>  0.4651 </r>
       </set>
       <set comment="band 8">
        <r>  0.0051 </r>
       </set>
       <set comment="band 9">
        <r> 44.0095 </r>
       </set>
      </set>
      <set comment="kpoint 5">
       <set comment="band 1">
        <r>  0.5737 </r>
       </set>
       <set comment="band 2">
        <r>  0.0217 </r>
       </set>
       <set comment="band 3">
        <r>  0.0035 </r>
       </set>
       <set comment="band 4">
        <r>  0.0000 </r>
       </set>
       <set comment="band 5">
        <r>  0.0080 </r>
       </set>
       <set comment="band 6">
        <r>  0.0000 </r>
       </set>
       <set comment="band 7">
        <r>  0.0936 </r>
       </set>
       <set comment="band 8">
        <r> 43.7817 </r>
       </set>
       <set comment="band 9">
        <r>  0.2821 </r>
       </set>
      </set>
      <set comment="kpoint 6">
       <set comment="band 1">
        <r>  0.7766 </r>
       </set>
       <set comment="band 2">
        <r>  0.0002 </r>
       </set>
       <set comment="band 3">
        <r>  0.0000 </r>
       </set>
       <set comment="band 4">
        <r>  0.0000 </r>
       </set>
       <set comment="band 5">
        <r>  0.0033 </r>
       </set>
       <set comment="band 6">
        <r>  0.0000 </r>
       </set>
       <set comment="band 7">
        <r> 43.7388 </r>
       </set>
       <set comment="band 8">
        <r>  0.0210 </r>
       </set>
       <set comment="band 9">
        <r>  0.1310 </r>
       </set>
      </set>
      <set comment="kpoint 7">
       <set comment="band 1">
        <r>  0.6738 </r>
       </set>
       <set comment="band 2">
        <r>  0.0003 </r>
       </set>
       <set comment="band 3">
        <r>  0.0148 </r>
       </set>
       <set comment="band 4">
        <r>  0.0000 </r>
       </set>
       <set comment="band 5">
        <r>  0.0105 </r>
       </set>
       <set comment="band 6">
        <r>  0.0000 </r>
       </set>
       <set comment="band 7">
        <r> 43.6668 </r>
       </set>
       <set comment="band 8">
        <r>  0.1948 </r>
       </set>
       <set comment="band 9">
        <r>  0.0109 </r>
       </set>
      </set>
      <set comment="kpoint 8">
       <set comment="band 1">
        <r>  0.4503 </r>
       </set>
       <set comment="band 2">
        <r>  0.0030 </r>
       </set>
       <set comment="band 3">
        <r>  0.0493 </r>
       </set>
       <set comment="band 4">
        <r>  0.0039 </r>
       </set>
       <set comment="band 5">
        <r>  0.0075 </r>
       </set>
       <set comment="band 6">
        <r>  0.0226 </r>
       </set>
       <set comment="band 7">
        <r>  0.7126 </r>
       </set>
       <set comment="band 8">
        <r> 43.3788 </r>
       </set>
       <set comment="band 9">
        <r>  0.0664 </r>
       </set>
      </set>
      <set comment="kpoint 9">
       <set comment="band 1">
        <r>  0.2327 </r>
       </set>
       <set comment="band 2">
        <r>  0.0011 </r>
       </set>
       <set comment="band 3">
        <r>  0.0148 </r>
       </set>
       <set comment="band 4">
        <r>  0.0011 </r>
       </set>
       <set comment="band 5">
        <r>  0.0341 </r>
       </set>
       <set comment="band 6">
        <r>  0.0022 </r>
       </set>
       <set comment="band 7">
        <r>  0.4942 </r>
       </set>
       <set comment="band 8">
        <r> 43.9179 </r>
       </set>
       <set comment="band 9">
        <r>  0.0243 </r>
       </set>
      </set>
      <set comment="kpoint 10">
       <set comment="band 1">
        <r>  0.3867 </r>
       </set>
       <set comment="band 2">
        <r>  0.0042 </r>
       </set>
       <set comment="band 3">
        <r>  0.0179 </r>
       </set>
       <set comment="band 4">
        <r>  0.0010 </r>
       </set>
       <set comment="band 5">
        <r>  0.0001 </r>
       </set>
       <set comment="band 6">
        <r>  0.1072 </r>
       </set>
       <set comment="band 7">
        <r>  0.2179 </r>
       </set>
       <set comment="band 8">
        <r> 44.0051 </r>
       </set>
       <set comment="band 9">
        <r>  0.0010 </r>
       </set>
      </set>
      <set comment="kpoint 11">
       <set comment="band 1">
        <r>  0.6330 </r>
       </set>
       <set comment="band 2">
        <r>  0.0029 </r>
       </set>
       <set comment="band 3">
        <r>  0.0042 </r>
       </set>
       <set comment="band 4">
        <r>  0.0012 </r>
       </set>
       <set comment="band 5">
        <r>  0.0058 </r>
       </set>
       <set comment="band 6">
        <r>  0.0096 </r>
       </set>
       <set comment="band 7">
        <r> 37.1735 </r>
       </set>
       <set comment="band 8">
        <r>  6.7490 </r>
       </set>
       <set comment="band 9">
        <r>  0.0804 </r>
       </set>
      </set>
      <set comment="kpoint 12">
       <set comment="band 1">
        <r>  0.2239 </r>
       </set>
       <set comment="band 2">
        <r>  0.0001 </r>
       </set>
       <set comment="band 3">
        <r>  0.1529 </r>
       </set>
       <set comment="band 4">
        <r>  0.0000 </r>
       </set>
       <set comment="band 5">
        <r>  0.0117 </r>
       </set>
       <set comment="band 6">
        <r>  0.0000 </r>
       </set>
       <set comment="band 7">
        <r>  0.1629 </r>
       </set>
       <set comment="band 8">
        <r> 43.5628 </r>
       </set>
       <set comment="band 9">
        <r>  0.0000 </r>
       </set>
      </set>
      <set comment="kpoint 13">
       <set comment="band 1">
        <r>  0.0933 </r>
       </set>
       <set comment="band 2">
        <r>  0.0002 </r>
       </set>
       <set comment="band 3">
        <r>  0.0344 </r>
       </set>
       <set comment="band 4">
        <r>  0.0315 </r>
       </set>
       <set comment="band 5">
        <r>  0.0103 </r>
       </set>
       <set comment="band 6">
        <r>  0.0217 </r>
       </set>
       <set comment="band 7">
        <r>  0.4015 </r>
       </set>
       <set comment="band 8">
        <r>  0.0735 </r>
       </set>
       <set comment="band 9">
        <r> 43.5723 </r>
       </set>
      </set>
      <set comment="kpoint 14">
       <set comment="band 1">
        <r>  0.1059 </r>
       </set>
       <set comment="band 2">
        <r>  0.0405 </r>
       </set>
       <set comment="band 3">
        <r>  0.0015 </r>
       </set>
       <set comment="band 4">
        <r>  0.0246 </r>
       </set>
       <set comment="band 5">
        <r>  0.0218 </r>
       </set>
       <set comment="band 6">
        <r>  0.4235 </r>
       </set>
       <set comment="band 7">
        <r>  0.1033 </r>
       </set>
       <set comment="band 8">
        <r> 23.2659 </r>
       </set>
       <set comment="band 9">
        <r> 20.7917 </r>
       </set>
      </set>
      <set comment="kpoint 15">
       <set comment="band 1">
        <r>  0.3516 </r>
       </set>
       <set comment="band 2">
        <r>  0.0043 </r>
       </set>
       <set comment="band 3">
        <r>  0.0278 </r>
       </set>
       <set comment="band 4">
        <r>  0.0003 </r>
       </set>
       <set comment="band 5">
        <r>  0.0000 </r>
       </set>
       <set comment="band 6">
        <r>  0.0318 </r>
       </set>
       <set comment="band 7">
        <r>  0.3614 </r>
       </set>
       <set comment="band 8">
        <r> 43.8544 </r>
       </set>
       <set comment="band 9">
        <r>  0.1611 </r>
       </set>
      </set>
      <set comment="kpoint 16">
       <set comment="band 1">
        <r>  0.1241 </r>
       </set>
       <set comment="band 2">
        <r>  0.0000 </r>
       </set>
       <set comment="band 3">
        <r>  0.0375 </r>
       </set>
       <set comment="band 4">
        <r>  0.0000 </r>
       </set>
       <set comment="band 5">
        <r>  0.0000 </r>
       </set>
       <set comment="band 6">
        <r>  0.0020 </r>
       </set>
       <set comment="band 7">
        <r>  0.2583 </r>
       </set>
       <set comment="band 8">
        <r>  0.0000 </r>
       </set>
       <set comment="band 9">
        <r>  7.8433 </r>
       </set>
      </set>
      <set comment="kpoint 17">
       <set comment="band 1">
        <r>  0.1978 </r>
       </set>
       <set comment="band 2">
        <r>  0.0001 </r>
       </set>
       <set comment="band 3">
        <r>  0.1234 </r>
       </set>
       <set comment="band 4">
        <r>  0.0003 </r>
       </set>
       <set comment="band 5">
        <r>  0.0000 </r>
       </set>
       <set comment="band 6">
        <r>  0.0542 </r>
       </set>
       <set comment="band 7">
        <r>  0.2772 </r>
       </set>
       <set comment="band 8">
        <r> 43.7052 </r>
       </set>
       <set comment="band 9">
        <r>  0.2071 </r>
       </set>
      </set>
      <set comment="kpoint 18">
       <set comment="band 1">
        <r>  0.4727 </r>
       </set>
       <set comment="band 2">
        <r>  0.0003 </r>
       </set>
       <set comment="band 3">
        <r>  0.0897 </r>
       </set>
       <set comment="band 4">
        <r>  0.0000 </r>
       </set>
       <set comment="band 5">
        <r>  0.0116 </r>
       </set>
       <set comment="band 6">
        <r>  0.0000 </r>
       </set>
       <set comment="band 7">
        <r> 43.4330 </r>
       </set>
       <set comment="band 8">
        <r>  0.4258 </r>
       </set>
       <set comment="band 9">
        <r>  0.0000 </r>
       </set>
      </set>
      <set comment="kpoint 19">
       <set comment="band 1">
        <r>  0.6805 </r>
       </set>
       <set comment="band 2">
        <r>  0.0108 </r>
       </set>
       <set comment="band 3">
        <r>  0.0000 </r>
       </set>
       <set comment="band 4">
        <r>  0.0000 </r>
       </set>
       <set comment="band 5">
        <r>  0.0000 </r>
       </set>
       <set comment="band 6">
        <r>  0.0000 </r>
       </set>
       <set comment="band 7">
        <r>  0.0634 </r>
       </set>
       <set comment="band 8">
        <r> 43.8162 </r>
       </set>
       <set comment="band 9">
        <r>  0.1180 </r>
       </set>
      </set>
      <set comment="kpoint 20">
       <set comment="band 1">
        <r>  0.5401 </r>
       </set>
       <set comment="band 2">
        <r>  0.0081 </r>
       </set>
       <set comment="band 3">
        <r>  0.0013 </r>
       </set>
       <set comment="band 4">
        <r>  0.0000 </r>
       </set>
       <set comment="band 5">
        <r>  0.0000 </r>
       </set>
       <set comment="band 6">
        <r>  0.0353 </r>
       </set>
       <set comment="band 7">
        <r>  0.3072 </r>
       </set>
       <set comment="band 8">
        <r> 43.7468 </r>
       </set>
       <set comment="band 9">
        <r>  0.1427 </r>
       </set>
      </set>
      <set comment="kpoint 21">
       <set comment="band 1">
        <r>  0.2682 </r>
       </set>
       <set comment="band 2">
        <r>  0.0013 </r>
       </set>
       <set comment="band 3">
        <r>  0.0055 </r>
       </set>
       <set comment="band 4">
        <r>  0.0000 </r>
       </set>
       <set comment="band 5">
        <r>  0.0000 </r>
       </set>
       <set comment="band 6">
        <r>  0.3152 </r>
       </set>
       <set comment="band 7">
        <r>  0.1707 </r>
       </set>
       <set comment="band 8">
        <r> 43.9237 </r>
       </set>
       <set comment="band 9">
        <r>  0.0876 </r>
       </set>
      </set>
      <set comment="kpoint 22">
       <set comment="band 1">
        <r>  0.2074 </r>
       </set>
       <set comment="band 2">
        <r>  0.0000 </r>
       </set>
       <set comment="band 3">
        <r>  0.0841 </r>
       </set>
       <set comment="band 4">
        <r>  0.0000 </r>
       </set>
       <set comment="band 5">
        <r>  0.0000 </r>
       </set>
       <set comment="band 6">
        <r>  0.0008 </r>
       </set>
       <set comment="band 7">
        <r>  0.4354 </r>
       </set>
       <set comment="band 8">
        <r> 43.8857 </r>
       </set>
       <set comment="band 9">
        <r>  0.1053 </r>
       </set>
      </set>
      <set comment="kpoint 23">
       <set comment="band 1">
        <r>  0.4079 </r>
       </set>
       <set comment="band 2">
        <r>  0.0132 </r>
       </set>
       <set comment="band 3">
        <r>  0.0416 </r>
       </set>
       <set comment="band 4">
        <r>  0.0000 </r>
       </set>
       <set comment="band 5">
        <r>  0.0173 </r>
       </set>
       <set comment="band 6">
        <r>  0.0000 </r>
       </set>
       <set comment="band 7">
        <r>  0.2313 </r>
       </set>
       <set comment="band 8">
        <r> 43.9258 </r>
       </set>
       <set comment="band 9">
        <r>  0.1245 </r>
       </set>
      </set>
      <set comment="kpoint 24">
       <set comment="band 1">
        <r>  0.1495 </r>
       </set>
       <set comment="band 2">
        <r>  0.0260 </r>
       </set>
       <set comment="band 3">
        <r>  0.0643 </r>
       </set>
       <set comment="band 4">
        <r>  0.0091 </r>
       </set>
       <set comment="band 5">
        <r>  0.0127 </r>
       </set>
       <set comment="band 6">
        <r>  0.2506 </r>
       </set>
       <set comment="band 7">
        <r>  0.2216 </r>
       </set>
       <set comment="band 8">
        <r> 43.0309 </r>
       </set>
       <set comment="band 9">
        <r>  0.9691 </r>
       </set>
      </set>
      <set comment="kpoint 25">
       <set comment="band 1">
        <r>  0.0255 </r>
       </set>
       <set comment="band 2">
        <r>  0.0180 </r>
       </set>
       <set comment="band 3">
        <r>  0.0285 </r>
       </set>
       <set comment="band 4">
        <r>  0.1224 </r>
       </set>
       <set comment="band 5">
        <r>  0.0174 </r>
       </set>
       <set comment="band 6">
        <r>  0.4366 </r>
       </set>
       <set comment="band 7">
        <r>  0.0212 </r>
       </set>
       <set comment="band 8">
        <r>  0.0908 </r>
       </set>
       <set comment="band 9">
        <r> 44.0270 </r>
       </set>
      </set>
      <set comment="kpoint 26">
       <set comment="band 1">
        <r>  0.0951 </r>
       </set>
       <set comment="band 2">
        <r>  0.0051 </r>
       </set>
       <set comment="band 3">
        <r>  0.0219 </r>
       </set>
       <set comment="band 4">
        <r>  0.0000 </r>
       </set>
       <set comment="band 5">
        <r>  0.0000 </r>
       </set>
       <set comment="band 6">
        <r>  0.4557 </r>
       </set>
       <set comment="band 7">
        <r>  0.0783 </r>
       </set>
       <set comment="band 8">
        <r> 40.7612 </r>
       </set>
       <set comment="band 9">
        <r>  3.3669 </r>
       </set>
      </set>
      <set comment="kpoint 27">
       <set comment="band 1">
        <r>  0.4030 </r>
       </set>
       <set comment="band 2">
        <r>  0.0336 </r>
       </set>
       <set comment="band 3">
        <r>  0.0000 </r>
       </set>
       <set comment="band 4">
        <r>  0.0000 </r>
       </set>
       <set comment="band 5">
        <r>  0.0000 </r>
       </set>
       <set comment="band 6">
        <r>  0.0000 </r>
       </set>
       <set comment="band 7">
        <r>  0.2968 </r>
       </set>
       <set comment="band 8">
        <r>  0.1245 </r>
       </set>
       <set comment="band 9">
        <r> 43.9825 </r>
       </set>
      </set>
      <set comment="kpoint 28">
       <set comment="band 1">
        <r>  0.2926 </r>
       </set>
       <set comment="band 2">
        <r>  0.0005 </r>
       </set>
       <set comment="band 3">
        <r>  0.0016 </r>
       </set>
       <set comment="band 4">
        <r>  0.0000 </r>
       </set>
       <set comment="band 5">
        <r>  0.0000 </r>
       </set>
       <set comment="band 6">
        <r>  0.0952 </r>
       </set>
       <set comment="band 7">
        <r>  0.4138 </r>
       </set>
       <set comment="band 8">
        <r> 43.9736 </r>
       </set>
       <set comment="band 9">
        <r>  0.0002 </r>
       </set>
      </set>
     </set>
    </set>
   </array>
  </projected>
 </calculation>
 <structure name="finalpos" >
  <crystal>
   <varray name="basis" >
    <v>       0.00000000       2.10500000       2.10500000 </v>
    <v>       2.10500000       0.00000000       2.10500000 </v>
    <v>       2.10500000       2.10500000       0.00000000 </v>
   </varray>
   <i name="volume">     18.65461525 </i>
   <varray name="rec_basis" >
    <v>      -0.23752969       0.23752969       0.23752969 </v>
    <v>       0.23752969      -0.23752969       0.23752969 </v>
    <v>       0.23752969       0.23752969      -0.23752969 </v>
   </varray>
  </crystal>
  <varray name="positions" >
   <v>       0.00000000       0.00000000       0.00000000 </v>
  </varray>
 </structure>
</modeling>
