   4   4   1   0
  0.8797333E+01  0.2461200E-09  0.2461200E-09  0.6707900E-09  0.5000000E-15
  1.000000000000000E-004
  CAR 
 unknown system                          
     20.41869818    -16.66541063  301      4.70885921      1.00000000
    -16.665  0.0000E+00  0.0000E+00  0.0000E+00  0.0000E+00
    -16.542  0.0000E+00  0.0000E+00  0.0000E+00  0.0000E+00
    -16.418  0.0000E+00  0.0000E+00  0.0000E+00  0.0000E+00
    -16.295  0.0000E+00  0.0000E+00  0.0000E+00  0.0000E+00
    -16.171  0.0000E+00  0.0000E+00  0.0000E+00  0.0000E+00
    -16.047  0.0000E+00  0.0000E+00  0.0000E+00  0.0000E+00
    -15.924  0.0000E+00  0.0000E+00  0.0000E+00  0.0000E+00
    -15.800  0.0000E+00  0.0000E+00  0.0000E+00  0.0000E+00
    -15.677  0.0000E+00  0.0000E+00  0.0000E+00  0.0000E+00
    -15.553  0.0000E+00  0.0000E+00  0.0000E+00  0.0000E+00
    -15.429 -0.7553E-36 -0.1117E-40 -0.9336E-37 -0.1381E-41
    -15.306 -0.2478E-19 -0.7333E-23 -0.3063E-20 -0.9064E-24
    -15.182 -0.3418E-08 -0.2063E-10 -0.4226E-09 -0.2551E-11
    -15.058 -0.1616E-02 -0.2319E-03 -0.1997E-03 -0.2866E-04
    -14.935  0.1135E+00  0.5774E-01  0.1383E-01  0.7109E-02
    -14.811  0.1374E+00  0.1604E+00  0.3082E-01  0.2693E-01
    -14.688  0.1572E+00  0.1379E+00  0.5025E-01  0.4399E-01
    -14.564  0.4308E-01  0.9462E-01  0.5557E-01  0.5568E-01
    -14.440 -0.5200E-03 -0.1045E-02  0.5551E-01  0.5555E-01
    -14.317  0.1928E+00  0.5070E-02  0.7933E-01  0.5618E-01
    -14.193  0.1050E+01  0.1068E+01  0.2091E+00  0.1882E+00
    -14.070  0.8418E+00  0.7542E+00  0.3132E+00  0.2815E+00
    -13.946  0.6203E+00  0.8892E+00  0.3899E+00  0.3914E+00
    -13.822 -0.7790E-02 -0.2021E-01  0.3889E+00  0.3889E+00
    -13.699 -0.1165E-07 -0.8700E-06  0.3889E+00  0.3889E+00
    -13.575  0.0000E+00  0.0000E+00  0.3889E+00  0.3889E+00
    -13.451 -0.2539E-34 -0.6070E-39  0.3889E+00  0.3889E+00
    -13.328 -0.5185E-18 -0.2249E-21  0.3889E+00  0.3889E+00
    -13.204 -0.4516E-07 -0.3612E-09  0.3889E+00  0.3889E+00
    -13.081 -0.1287E-01 -0.2305E-02  0.3873E+00  0.3886E+00
    -12.957  0.7817E+00  0.4371E+00  0.4839E+00  0.4426E+00
    -12.833  0.8657E+00  0.1022E+01  0.5909E+00  0.5689E+00
    -12.710  0.1063E+01  0.1080E+01  0.7224E+00  0.7025E+00
    -12.586 -0.1044E-02  0.1601E+00  0.7222E+00  0.7223E+00
    -12.463 -0.2526E-02 -0.4949E-03  0.7219E+00  0.7222E+00
    -12.339  0.4575E+00  0.1363E+00  0.7785E+00  0.7390E+00
    -12.215  0.1045E+01  0.1165E+01  0.9076E+00  0.8831E+00
    -12.092  0.1126E+01  0.1061E+01  0.1047E+01  0.1014E+01
    -11.968  0.7072E-01  0.3355E+00  0.1056E+01  0.1056E+01
    -11.844 -0.8696E-04 -0.1240E-02  0.1056E+01  0.1056E+01
    -11.721 -0.3335E-12 -0.8993E-10  0.1056E+01  0.1056E+01
    -11.597  0.0000E+00  0.0000E+00  0.1056E+01  0.1056E+01
    -11.474  0.0000E+00  0.0000E+00  0.1056E+01  0.1056E+01
    -11.350  0.0000E+00  0.0000E+00  0.1056E+01  0.1056E+01
    -11.226  0.0000E+00  0.0000E+00  0.1056E+01  0.1056E+01
    -11.103  0.0000E+00  0.0000E+00  0.1056E+01  0.1056E+01
    -10.979 -0.9534E-42 -0.1145E-46  0.1056E+01  0.1056E+01
    -10.856 -0.2276E-23 -0.4469E-27  0.1056E+01  0.1056E+01
    -10.732 -0.2426E-10 -0.7808E-13  0.1056E+01  0.1056E+01
    -10.608 -0.1095E-02 -0.6065E-04  0.1055E+01  0.1056E+01
    -10.485  0.4868E+00  0.3988E-01  0.1116E+01  0.1060E+01
    -10.361  0.2525E+01  0.2525E+01  0.1428E+01  0.1373E+01
    -10.237  0.2390E+01  0.2493E+01  0.1723E+01  0.1681E+01
    -10.114 -0.6990E-02  0.3353E+00  0.1722E+01  0.1722E+01
     -9.990 -0.2623E-04 -0.5789E-03  0.1722E+01  0.1722E+01
     -9.867 -0.5865E-11 -0.6873E-11  0.1722E+01  0.1722E+01
     -9.743 -0.3206E-03 -0.2367E-04  0.1722E+01  0.1722E+01
     -9.619  0.1462E+00  0.1605E-01  0.1740E+01  0.1724E+01
     -9.496  0.1164E+01  0.9934E+00  0.1884E+01  0.1847E+01
     -9.372  0.3842E-01  0.3406E+00  0.1889E+01  0.1889E+01
     -9.249 -0.4720E-04 -0.1747E-02  0.1889E+01  0.1889E+01
     -9.125 -0.1016E-12 -0.2330E-09  0.1889E+01  0.1889E+01
     -9.001 -0.2568E-34 -0.2474E-36  0.1889E+01  0.1889E+01
     -8.878 -0.5824E-18 -0.1947E-19  0.1889E+01  0.1889E+01
     -8.754 -0.5581E-07 -0.6590E-08  0.1889E+01  0.1889E+01
     -8.631 -0.1524E-01 -0.7286E-02  0.1887E+01  0.1888E+01
     -8.507  0.9290E+00  0.6625E+00  0.2002E+01  0.1970E+01
     -8.383  0.4374E+00  0.7042E+00  0.2056E+01  0.2057E+01
     -8.260 -0.2917E-02 -0.1118E-01  0.2056E+01  0.2056E+01
     -8.136 -0.2721E-07 -0.1458E-05  0.2056E+01  0.2056E+01
     -8.012 -0.8890E-02 -0.7446E-02  0.2054E+01  0.2055E+01
     -7.889  0.9540E+00  0.3940E+00  0.2172E+01  0.2103E+01
     -7.765  0.7224E+00  0.1403E+01  0.2262E+01  0.2277E+01
     -7.642  0.1307E+00  0.8315E-02  0.2278E+01  0.2278E+01
     -7.518 -0.4882E-03 -0.4338E-04  0.2278E+01  0.2278E+01
     -7.394 -0.3355E-10 -0.1633E-12  0.2278E+01  0.2278E+01
     -7.271 -0.7661E-46  0.0000E+00  0.2278E+01  0.2278E+01
     -7.147 -0.2033E-26 -0.1128E-29  0.2278E+01  0.2278E+01
     -7.024 -0.2400E-12 -0.1367E-14  0.2278E+01  0.2278E+01
     -6.900 -0.1240E-03 -0.7344E-05  0.2278E+01  0.2278E+01
     -6.776  0.9949E-01 -0.5572E-01  0.2290E+01  0.2271E+01
     -6.653  0.3395E+01  0.2914E+01  0.2710E+01  0.2631E+01
     -6.529  0.1925E+01  0.2592E+01  0.2948E+01  0.2952E+01
     -6.405 -0.2683E-01 -0.5746E-01  0.2944E+01  0.2944E+01
     -6.282 -0.5183E-07 -0.1751E-05  0.2944E+01  0.2944E+01
     -6.158 -0.1001E-16 -0.8585E-18  0.2944E+01  0.2944E+01
     -6.035 -0.4027E-06 -0.9264E-07  0.2944E+01  0.2944E+01
     -5.911 -0.2980E-01 -0.2276E-01  0.2941E+01  0.2942E+01
     -5.787  0.9584E+00  0.9346E+00  0.3059E+01  0.3057E+01
     -5.664 -0.2974E-01 -0.1300E-01  0.3056E+01  0.3056E+01
     -5.540 -0.2211E-05 -0.8045E-05  0.3056E+01  0.3056E+01
     -5.417 -0.9045E-35 -0.3201E-38  0.3056E+01  0.3056E+01
     -5.293 -0.2748E-18 -0.8398E-21  0.3056E+01  0.3056E+01
     -5.169 -0.3706E-07 -0.9956E-09  0.3056E+01  0.3056E+01
     -5.046 -0.1581E-01 -0.4408E-02  0.3054E+01  0.3055E+01
     -4.922  0.1072E+01  0.6926E+00  0.3186E+01  0.3141E+01
     -4.798  0.1657E+01  0.1909E+01  0.3391E+01  0.3377E+01
     -4.675 -0.1639E-01  0.9920E-01  0.3389E+01  0.3389E+01
     -4.551 -0.1068E-04 -0.1263E-03  0.3389E+01  0.3389E+01
     -4.428  0.0000E+00 -0.4648E-12  0.3389E+01  0.3389E+01
     -4.304 -0.3973E-35 -0.3629E-46  0.3389E+01  0.3389E+01
     -4.180 -0.8084E-19 -0.5738E-27  0.3389E+01  0.3389E+01
     -4.057 -0.6453E-08 -0.3862E-13  0.3389E+01  0.3389E+01
     -3.933 -0.1069E-02 -0.9435E-05  0.3389E+01  0.3389E+01
     -3.810  0.3678E-01  0.8463E-02  0.3393E+01  0.3390E+01
     -3.686  0.7930E-01  0.6026E-01  0.3403E+01  0.3397E+01
     -3.562 -0.2715E-02  0.4379E-01  0.3403E+01  0.3403E+01
     -3.439 -0.7247E-02 -0.1985E-01  0.3402E+01  0.3400E+01
     -3.315  0.2846E+01  0.2167E+01  0.3754E+01  0.3668E+01
     -3.192  0.2664E+01  0.3382E+01  0.4083E+01  0.4086E+01
     -3.068  0.1988E+00 -0.9793E-01  0.4107E+01  0.4074E+01
     -2.944  0.3066E+01  0.2969E+01  0.4487E+01  0.4441E+01
     -2.821  0.1469E+00  0.5303E+00  0.4505E+01  0.4507E+01
     -2.697 -0.1531E-01 -0.1793E-01  0.4503E+01  0.4505E+01
     -2.573  0.4788E+00  0.2193E+00  0.4562E+01  0.4532E+01
     -2.450  0.4461E-01  0.2290E+00  0.4567E+01  0.4560E+01
     -2.326  0.1561E-01  0.7903E-01  0.4569E+01  0.4570E+01
     -2.203  0.1595E+00 -0.1295E-01  0.4589E+01  0.4568E+01
     -2.079  0.3051E+00  0.4628E+00  0.4627E+01  0.4625E+01
     -1.955  0.5920E-01  0.6506E-01  0.4634E+01  0.4633E+01
     -1.832  0.3852E-01  0.1960E-01  0.4639E+01  0.4636E+01
     -1.708  0.6517E+00  0.1543E+00  0.4719E+01  0.4655E+01
     -1.585  0.3902E+01  0.4458E+01  0.5202E+01  0.5206E+01
     -1.461  0.1300E+00 -0.9139E-01  0.5218E+01  0.5195E+01
     -1.337  0.5236E+00  0.3141E+00  0.5283E+01  0.5233E+01
     -1.214  0.4071E+00  0.7001E+00  0.5333E+01  0.5320E+01
     -1.090  0.5571E+00  0.1026E+00  0.5402E+01  0.5333E+01
     -0.966  0.2876E+01  0.3425E+01  0.5757E+01  0.5756E+01
     -0.843 -0.6086E-01 -0.4910E-01  0.5750E+01  0.5750E+01
     -0.719  0.1805E+00 -0.5186E-02  0.5772E+01  0.5749E+01
     -0.596  0.1826E+01  0.1037E+01  0.5998E+01  0.5878E+01
     -0.472  0.1837E+01  0.2837E+01  0.6225E+01  0.6228E+01
     -0.348  0.3467E+00 -0.5943E-01  0.6268E+01  0.6221E+01
     -0.225  0.2807E+00  0.4632E+00  0.6302E+01  0.6278E+01
     -0.101  0.2504E+00  0.4512E+00  0.6333E+01  0.6334E+01
      0.022  0.1670E+00 -0.1383E-01  0.6354E+01  0.6332E+01
      0.146  0.5138E+00  0.4481E+00  0.6418E+01  0.6388E+01
      0.270  0.2660E+00  0.4644E+00  0.6450E+01  0.6445E+01
      0.393  0.1629E+00  0.1920E+00  0.6471E+01  0.6469E+01
      0.517  0.4100E+00  0.3131E-01  0.6521E+01  0.6473E+01
      0.641  0.2801E+01  0.3115E+01  0.6867E+01  0.6858E+01
      0.764 -0.5030E-01  0.2778E-01  0.6861E+01  0.6861E+01
      0.888  0.4519E+00  0.2297E+00  0.6917E+01  0.6889E+01
      1.011  0.2277E+00  0.2959E+00  0.6945E+01  0.6926E+01
      1.135 -0.6599E-02  0.1498E+00  0.6944E+01  0.6945E+01
      1.259 -0.1043E-02 -0.6793E-03  0.6944E+01  0.6944E+01
      1.382  0.2519E+00 -0.1590E-01  0.6975E+01  0.6942E+01
      1.506  0.1117E+01  0.6729E+00  0.7114E+01  0.7026E+01
      1.629 -0.6319E-01  0.6888E+00  0.7106E+01  0.7111E+01
      1.753  0.1818E+01  0.1133E+01  0.7330E+01  0.7251E+01
      1.877  0.1997E-01  0.6665E+00  0.7333E+01  0.7333E+01
      2.000  0.6222E+00  0.1304E+00  0.7410E+01  0.7349E+01
      2.124  0.7232E+00  0.1077E+01  0.7499E+01  0.7483E+01
      2.247  0.1029E+00  0.2617E+00  0.7512E+01  0.7515E+01
      2.371  0.1031E+01  0.1174E-01  0.7639E+01  0.7516E+01
      2.495  0.3174E+00  0.1129E+01  0.7679E+01  0.7656E+01
      2.618  0.1055E+01  0.1763E+00  0.7809E+01  0.7678E+01
      2.742  0.6537E+00  0.1271E+01  0.7890E+01  0.7835E+01
      2.866 -0.8145E-02  0.4509E+00  0.7889E+01  0.7891E+01
      2.989 -0.3492E-05 -0.1337E-01  0.7889E+01  0.7889E+01
      3.113  0.0000E+00 -0.9581E-07  0.7889E+01  0.7889E+01
      3.236  0.0000E+00  0.0000E+00  0.7889E+01  0.7889E+01
      3.360  0.0000E+00  0.0000E+00  0.7889E+01  0.7889E+01
      3.484  0.0000E+00  0.0000E+00  0.7889E+01  0.7889E+01
      3.607  0.0000E+00 -0.3307E-31  0.7889E+01  0.7889E+01
      3.731 -0.4586E-29 -0.5990E-16  0.7889E+01  0.7889E+01
      3.854 -0.1791E-14 -0.4050E-06  0.7889E+01  0.7889E+01
      3.978 -0.2674E-05 -0.1957E-02  0.7889E+01  0.7889E+01
      4.102  0.2750E-02  0.1390E+00  0.7889E+01  0.7906E+01
      4.225  0.1700E+00  0.8720E-01  0.7910E+01  0.7917E+01
      4.349  0.5025E-01  0.1161E+00  0.7916E+01  0.7931E+01
      4.473  0.1325E+00  0.3419E-01  0.7933E+01  0.7935E+01
      4.596  0.7500E+00 -0.5244E-02  0.8026E+01  0.7935E+01
      4.720  0.1657E+00  0.1592E+00  0.8046E+01  0.7954E+01
      4.843  0.1558E+00  0.3438E+00  0.8065E+01  0.7997E+01
      4.967 -0.3859E-02  0.5630E+00  0.8065E+01  0.8066E+01
      5.091  0.2287E-01  0.1397E+00  0.8068E+01  0.8084E+01
      5.214  0.1281E+00 -0.6961E-02  0.8083E+01  0.8083E+01
      5.338 -0.4258E-02  0.1627E+00  0.8083E+01  0.8103E+01
      5.461  0.1639E+00  0.6817E-01  0.8103E+01  0.8111E+01
      5.585  0.6472E-01 -0.1167E-02  0.8111E+01  0.8111E+01
      5.709 -0.8178E-03 -0.1288E-08  0.8111E+01  0.8111E+01
      5.832 -0.4397E-09 -0.1228E-27  0.8111E+01  0.8111E+01
      5.956 -0.3637E-12 -0.2701E-13  0.8111E+01  0.8111E+01
      6.080 -0.9722E-04 -0.2279E-04  0.8111E+01  0.8111E+01
      6.203  0.9416E-01  0.2133E-01  0.8123E+01  0.8114E+01
      6.327  0.5447E+00  0.5484E+00  0.8190E+01  0.8182E+01
      6.450  0.1457E+00  0.2091E+00  0.8208E+01  0.8207E+01
      6.574  0.2100E+00  0.2246E-02  0.8234E+01  0.8208E+01
      6.698  0.9994E-02  0.2324E+00  0.8235E+01  0.8236E+01
      6.821  0.2392E+00 -0.1072E-01  0.8265E+01  0.8235E+01
      6.945  0.1367E+01  0.4603E+00  0.8434E+01  0.8292E+01
      7.068  0.9920E+00  0.1310E+01  0.8556E+01  0.8454E+01
      7.192  0.3412E+00  0.8218E+00  0.8599E+01  0.8556E+01
      7.316  0.5327E+00  0.8466E+00  0.8664E+01  0.8660E+01
      7.439  0.9164E+00  0.3439E-01  0.8778E+01  0.8664E+01
      7.563  0.5729E+00  0.9245E+00  0.8849E+01  0.8779E+01
      7.686  0.7894E+00  0.9525E+00  0.8946E+01  0.8896E+01
      7.810 -0.1377E-01  0.3916E+00  0.8944E+01  0.8945E+01
      7.934 -0.9180E-07 -0.3194E-02  0.8944E+01  0.8944E+01
      8.057  0.0000E+00 -0.7981E-09  0.8944E+01  0.8944E+01
      8.181  0.0000E+00  0.0000E+00  0.8944E+01  0.8944E+01
      8.305  0.0000E+00  0.0000E+00  0.8944E+01  0.8944E+01
      8.428  0.0000E+00  0.0000E+00  0.8944E+01  0.8944E+01
      8.552 -0.1448E-31 -0.7765E-37  0.8944E+01  0.8944E+01
      8.675 -0.2728E-16 -0.4728E-20  0.8944E+01  0.8944E+01
      8.799 -0.1922E-06 -0.1150E-08  0.8944E+01  0.8944E+01
      8.923 -0.9523E-03 -0.6954E-03  0.8944E+01  0.8944E+01
      9.046  0.3949E-01  0.3750E-01  0.8949E+01  0.8949E+01
      9.170 -0.1009E-01 -0.1814E-03  0.8948E+01  0.8949E+01
      9.293  0.6950E+00  0.1855E+00  0.9034E+01  0.8972E+01
      9.417  0.4912E+00  0.5668E+00  0.9095E+01  0.9042E+01
      9.541  0.7863E-02  0.4580E+00  0.9096E+01  0.9099E+01
      9.664  0.4762E+00  0.9584E-01  0.9154E+01  0.9110E+01
      9.788  0.1373E+00  0.3780E+00  0.9171E+01  0.9157E+01
      9.912  0.5327E+00  0.3054E+00  0.9237E+01  0.9195E+01
     10.035  0.2819E+00  0.3260E+00  0.9272E+01  0.9235E+01
     10.159  0.8545E+00  0.7952E+00  0.9378E+01  0.9334E+01
     10.282  0.4892E-01  0.3692E+00  0.9384E+01  0.9379E+01
     10.406  0.4069E-02  0.4157E-01  0.9384E+01  0.9384E+01
     10.530 -0.3248E-05 -0.1783E-03  0.9384E+01  0.9384E+01
     10.653 -0.9448E-07 -0.9277E-11  0.9384E+01  0.9384E+01
     10.777 -0.1137E-01 -0.1429E-04  0.9383E+01  0.9384E+01
     10.900  0.6164E+00  0.1788E-02  0.9459E+01  0.9384E+01
     11.024  0.8849E+00  0.8250E+00  0.9568E+01  0.9486E+01
     11.148  0.5420E+00  0.8245E+00  0.9635E+01  0.9588E+01
     11.271  0.6063E+00  0.4544E+00  0.9710E+01  0.9645E+01
     11.395  0.6339E+00  0.7255E+00  0.9789E+01  0.9734E+01
     11.519  0.9784E-01  0.5448E+00  0.9801E+01  0.9802E+01
     11.642  0.5702E-01  0.1321E-01  0.9808E+01  0.9803E+01
     11.766  0.4839E+00  0.4853E+00  0.9868E+01  0.9863E+01
     11.889 -0.2141E-01  0.1992E-01  0.9865E+01  0.9866E+01
     12.013  0.3139E+00  0.1495E+00  0.9904E+01  0.9884E+01
     12.137  0.5417E+00  0.6236E+00  0.9971E+01  0.9961E+01
     12.260  0.7028E+00  0.3655E+00  0.1006E+02  0.1001E+02
     12.384  0.1308E+01  0.1270E+01  0.1022E+02  0.1016E+02
     12.507  0.1498E+01  0.1434E+01  0.1040E+02  0.1034E+02
     12.631  0.5870E+00  0.1125E+01  0.1048E+02  0.1048E+02
     12.755  0.6981E-01 -0.1529E-01  0.1049E+02  0.1048E+02
     12.878  0.5972E+00  0.5285E+00  0.1056E+02  0.1054E+02
     13.002  0.2269E+00  0.1277E+00  0.1059E+02  0.1056E+02
     13.125  0.1582E+01  0.1709E+01  0.1078E+02  0.1077E+02
     13.249  0.1895E+01  0.1925E+01  0.1102E+02  0.1101E+02
     13.373 -0.3669E-01  0.4625E-01  0.1101E+02  0.1101E+02
     13.496  0.4466E+00  0.2155E+00  0.1107E+02  0.1104E+02
     13.620  0.1105E-01  0.2265E+00  0.1107E+02  0.1107E+02
     13.744  0.4571E+00  0.4509E+00  0.1113E+02  0.1112E+02
     13.867  0.3207E+00  0.1739E+00  0.1117E+02  0.1115E+02
     13.991  0.8821E+00  0.5463E+00  0.1127E+02  0.1121E+02
     14.114  0.5861E+00  0.4158E+00  0.1135E+02  0.1126E+02
     14.238  0.5483E+00  0.8182E+00  0.1141E+02  0.1137E+02
     14.362  0.7925E+00  0.7299E+00  0.1151E+02  0.1146E+02
     14.485  0.4472E+00  0.8885E+00  0.1157E+02  0.1157E+02
     14.609  0.2019E+01  0.1113E+01  0.1182E+02  0.1170E+02
     14.732  0.3426E+01  0.3397E+01  0.1224E+02  0.1212E+02
     14.856  0.1167E+01  0.1937E+01  0.1239E+02  0.1236E+02
     14.980  0.1758E+01  0.1935E+01  0.1260E+02  0.1260E+02
     15.103  0.5361E+00  0.1557E+00  0.1267E+02  0.1262E+02
     15.227  0.1175E+01  0.1465E+01  0.1281E+02  0.1280E+02
     15.351  0.1348E+01  0.9799E+00  0.1298E+02  0.1292E+02
     15.474  0.4944E+00  0.8419E+00  0.1304E+02  0.1303E+02
     15.598  0.1780E+00  0.3097E+00  0.1306E+02  0.1307E+02
     15.721  0.2390E+00  0.2224E+00  0.1309E+02  0.1309E+02
     15.845  0.4140E+00 -0.3910E-01  0.1314E+02  0.1309E+02
     15.969  0.1087E+01  0.1525E+01  0.1328E+02  0.1328E+02
     16.092  0.1478E+00  0.1193E+00  0.1330E+02  0.1329E+02
     16.216  0.2924E-01  0.9999E-01  0.1330E+02  0.1330E+02
     16.339  0.1230E+01  0.8096E+00  0.1345E+02  0.1340E+02
     16.463  0.8449E+00  0.1156E+01  0.1356E+02  0.1355E+02
     16.587 -0.1463E-01  0.6896E-01  0.1356E+02  0.1356E+02
     16.710 -0.6228E-02 -0.1031E-03  0.1355E+02  0.1356E+02
     16.834  0.4375E+00  0.2500E-01  0.1361E+02  0.1356E+02
     16.958  0.9872E+00  0.1347E+01  0.1373E+02  0.1373E+02
     17.081  0.4418E+00  0.4881E+00  0.1379E+02  0.1379E+02
     17.205  0.5852E+00  0.3341E+00  0.1386E+02  0.1383E+02
     17.328  0.3317E+00  0.3671E+00  0.1390E+02  0.1387E+02
     17.452  0.1692E+00  0.2044E+00  0.1392E+02  0.1390E+02
     17.576  0.4983E-01  0.2376E+00  0.1393E+02  0.1393E+02
     17.699  0.1417E-02  0.9636E-01  0.1393E+02  0.1394E+02
     17.823  0.3053E+00  0.9504E-01  0.1396E+02  0.1395E+02
     17.946 -0.7176E-02  0.1018E+00  0.1396E+02  0.1396E+02
     18.070 -0.5880E-07 -0.4767E-03  0.1396E+02  0.1396E+02
     18.194 -0.2246E-11 -0.3082E-08  0.1396E+02  0.1396E+02
     18.317 -0.1378E-03 -0.2459E-02  0.1396E+02  0.1396E+02
     18.441  0.6511E-01  0.1474E+00  0.1397E+02  0.1398E+02
     18.564  0.8319E-01  0.4899E-02  0.1398E+02  0.1398E+02
     18.688  0.1414E+00 -0.1685E-02  0.1400E+02  0.1398E+02
     18.812  0.1007E-01  0.1551E+00  0.1400E+02  0.1400E+02
     18.935 -0.7827E-05 -0.3641E-02  0.1400E+02  0.1400E+02
     19.059  0.0000E+00 -0.1255E-07  0.1400E+02  0.1400E+02
     19.183  0.0000E+00  0.0000E+00  0.1400E+02  0.1400E+02
     19.306  0.0000E+00  0.0000E+00  0.1400E+02  0.1400E+02
     19.430  0.0000E+00  0.0000E+00  0.1400E+02  0.1400E+02
     19.553  0.0000E+00  0.0000E+00  0.1400E+02  0.1400E+02
     19.677  0.0000E+00  0.0000E+00  0.1400E+02  0.1400E+02
     19.801  0.0000E+00  0.0000E+00  0.1400E+02  0.1400E+02
     19.924  0.0000E+00  0.0000E+00  0.1400E+02  0.1400E+02
     20.048  0.0000E+00  0.0000E+00  0.1400E+02  0.1400E+02
     20.171  0.0000E+00  0.0000E+00  0.1400E+02  0.1400E+02
     20.295  0.0000E+00  0.0000E+00  0.1400E+02  0.1400E+02
     20.419  0.0000E+00  0.0000E+00  0.1400E+02  0.1400E+02
     20.41869818    -16.66541063  301      4.70885921      1.00000000
    -16.665  0.0000E+00  0.0000E+00  0.0000E+00  0.0000E+00  0.0000E+00  0.0000E+00  0.0000E+00  0.0000E+00  0.0000E+00  0.0000E+00  0.0000E+00  0.0000E+00  0.0000E+00  0.0000E+00  0.0000E+00  0.0000E+00  0.0000E+00  0.0000E+00
    -16.542  0.0000E+00  0.0000E+00  0.0000E+00  0.0000E+00  0.0000E+00  0.0000E+00  0.0000E+00  0.0000E+00  0.0000E+00  0.0000E+00  0.0000E+00  0.0000E+00  0.0000E+00  0.0000E+00  0.0000E+00  0.0000E+00  0.0000E+00  0.0000E+00
    -16.418  0.0000E+00  0.0000E+00  0.0000E+00  0.0000E+00  0.0000E+00  0.0000E+00  0.0000E+00  0.0000E+00  0.0000E+00  0.0000E+00  0.0000E+00  0.0000E+00  0.0000E+00  0.0000E+00  0.0000E+00  0.0000E+00  0.0000E+00  0.0000E+00
    -16.295  0.0000E+00  0.0000E+00  0.0000E+00  0.0000E+00  0.0000E+00  0.0000E+00  0.0000E+00  0.0000E+00  0.0000E+00  0.0000E+00  0.0000E+00  0.0000E+00  0.0000E+00  0.0000E+00  0.0000E+00  0.0000E+00  0.0000E+00  0.0000E+00
    -16.171  0.0000E+00  0.0000E+00  0.0000E+00  0.0000E+00  0.0000E+00  0.0000E+00  0.0000E+00  0.0000E+00  0.0000E+00  0.0000E+00  0.0000E+00  0.0000E+00  0.0000E+00  0.0000E+00  0.0000E+00  0.0000E+00  0.0000E+00  0.0000E+00
    -16.047  0.0000E+00  0.0000E+00  0.0000E+00  0.0000E+00  0.0000E+00  0.0000E+00  0.0000E+00  0.0000E+00  0.0000E+00  0.0000E+00  0.0000E+00  0.0000E+00  0.0000E+00  0.0000E+00  0.0000E+00  0.0000E+00  0.0000E+00  0.0000E+00
    -15.924  0.0000E+00  0.0000E+00  0.0000E+00  0.0000E+00  0.0000E+00  0.0000E+00  0.0000E+00  0.0000E+00  0.0000E+00  0.0000E+00  0.0000E+00  0.0000E+00  0.0000E+00  0.0000E+00  0.0000E+00  0.0000E+00  0.0000E+00  0.0000E+00
    -15.800  0.0000E+00  0.0000E+00  0.0000E+00  0.0000E+00  0.0000E+00  0.0000E+00  0.0000E+00  0.0000E+00  0.0000E+00  0.0000E+00  0.0000E+00  0.0000E+00  0.0000E+00  0.0000E+00  0.0000E+00  0.0000E+00  0.0000E+00  0.0000E+00
    -15.677  0.0000E+00  0.0000E+00  0.0000E+00  0.0000E+00  0.0000E+00  0.0000E+00  0.0000E+00  0.0000E+00  0.0000E+00  0.0000E+00  0.0000E+00  0.0000E+00  0.0000E+00  0.0000E+00  0.0000E+00  0.0000E+00  0.0000E+00  0.0000E+00
    -15.553  0.0000E+00  0.0000E+00  0.0000E+00  0.0000E+00  0.0000E+00  0.0000E+00  0.0000E+00  0.0000E+00  0.0000E+00  0.0000E+00  0.0000E+00  0.0000E+00  0.0000E+00  0.0000E+00  0.0000E+00  0.0000E+00  0.0000E+00  0.0000E+00
    -15.429 -0.1203E-36 -0.1765E-41 -0.4389E-51 -0.9039E-58 -0.9726E-44 -0.9002E-49 -0.1207E-50 -0.3579E-57  0.0000E+00  0.0000E+00  0.0000E+00  0.0000E+00  0.0000E+00  0.0000E+00  0.0000E+00  0.0000E+00  0.0000E+00  0.0000E+00
    -15.306 -0.3947E-20 -0.1158E-23 -0.1469E-34 -0.5951E-40 -0.2077E-26 -0.3834E-30 -0.3917E-34 -0.2351E-39  0.0000E+00  0.0000E+00  0.0000E+00  0.0000E+00  0.0000E+00  0.0000E+00  0.0000E+00  0.0000E+00  0.0000E+00  0.0000E+00
    -15.182 -0.5446E-09 -0.3259E-11 -0.2274E-23 -0.1711E-27 -0.1803E-14 -0.6869E-17 -0.5050E-23 -0.6651E-27  0.0000E+00  0.0000E+00  0.0000E+00  0.0000E+00  0.0000E+00  0.0000E+00  0.0000E+00  0.0000E+00  0.0000E+00  0.0000E+00
    -15.058 -0.2576E-03 -0.3664E-04 -0.1668E-17 -0.2187E-20 -0.4608E-08 -0.4276E-09 -0.1548E-17 -0.7745E-20  0.0000E+00  0.0000E+00  0.0000E+00  0.0000E+00  0.0000E+00  0.0000E+00  0.0000E+00  0.0000E+00  0.0000E+00  0.0000E+00
    -14.935  0.1811E-01  0.9124E-02  0.1382E-15 -0.1121E-18  0.5815E-06  0.1508E-06  0.8766E-16  0.1105E-17  0.0000E+00  0.0000E+00  0.0000E+00  0.0000E+00  0.0000E+00  0.0000E+00  0.0000E+00  0.0000E+00  0.0000E+00  0.0000E+00
    -14.811  0.2212E-01  0.2550E-01  0.1652E-15  0.2888E-16  0.3151E-05  0.2584E-05  0.2339E-15  0.4994E-16  0.0000E+00  0.0000E+00  0.0000E+00  0.0000E+00  0.0000E+00  0.0000E+00  0.0000E+00  0.0000E+00  0.0000E+00  0.0000E+00
    -14.688  0.2574E-01  0.2229E-01  0.1247E-15  0.2426E-16  0.2467E-05  0.2956E-05  0.2825E-15  0.7156E-16  0.0000E+00  0.0000E+00  0.0000E+00  0.0000E+00  0.0000E+00  0.0000E+00  0.0000E+00  0.0000E+00  0.0000E+00  0.0000E+00
    -14.564  0.7100E-02  0.1545E-01 -0.1274E-13 -0.2659E-16  0.1119E-06  0.4256E-06 -0.3817E-13 -0.7969E-16  0.0000E+00  0.0000E+00  0.0000E+00  0.0000E+00  0.0000E+00  0.0000E+00  0.0000E+00  0.0000E+00  0.0000E+00  0.0000E+00
    -14.440 -0.8155E-04 -0.1705E-03 -0.6674E-06 -0.2954E-07 -0.7993E-09 -0.2714E-08 -0.2002E-05 -0.8861E-07  0.0000E+00  0.0000E+00  0.0000E+00  0.0000E+00  0.0000E+00  0.0000E+00  0.0000E+00  0.0000E+00  0.0000E+00  0.0000E+00
    -14.317  0.2972E-01  0.7657E-03  0.3276E-03  0.8601E-05  0.2840E-06 -0.1202E-06  0.9827E-03  0.2580E-04  0.0000E+00  0.0000E+00  0.0000E+00  0.0000E+00  0.0000E+00  0.0000E+00  0.0000E+00  0.0000E+00  0.0000E+00  0.0000E+00
    -14.193  0.1628E+00  0.1637E+00  0.1795E-02  0.1841E-02  0.1322E-04  0.9308E-05  0.5385E-02  0.5522E-02  0.0000E+00  0.0000E+00  0.0000E+00  0.0000E+00  0.0000E+00  0.0000E+00  0.0000E+00  0.0000E+00  0.0000E+00  0.0000E+00
    -14.070  0.1328E+00  0.1173E+00  0.1466E-02  0.1321E-02  0.1757E-04  0.1729E-04  0.4399E-02  0.3962E-02  0.0000E+00  0.0000E+00  0.0000E+00  0.0000E+00  0.0000E+00  0.0000E+00  0.0000E+00  0.0000E+00  0.0000E+00  0.0000E+00
    -13.946  0.9885E-01  0.1401E+00  0.1093E-02  0.1580E-02  0.2907E-05  0.6471E-05  0.3280E-02  0.4741E-02  0.0000E+00  0.0000E+00  0.0000E+00  0.0000E+00  0.0000E+00  0.0000E+00  0.0000E+00  0.0000E+00  0.0000E+00  0.0000E+00
    -13.822 -0.1242E-02 -0.3190E-02 -0.1374E-04 -0.3598E-04 -0.2101E-07 -0.9344E-07 -0.4122E-04 -0.1079E-03  0.0000E+00  0.0000E+00  0.0000E+00  0.0000E+00  0.0000E+00  0.0000E+00  0.0000E+00  0.0000E+00  0.0000E+00  0.0000E+00
    -13.699 -0.1859E-08 -0.1375E-06 -0.2057E-10 -0.1551E-08 -0.4801E-14 -0.5534E-12 -0.6170E-10 -0.4654E-08  0.0000E+00  0.0000E+00  0.0000E+00  0.0000E+00  0.0000E+00  0.0000E+00  0.0000E+00  0.0000E+00  0.0000E+00  0.0000E+00
    -13.575  0.0000E+00  0.0000E+00  0.0000E+00  0.0000E+00  0.0000E+00  0.0000E+00  0.0000E+00  0.0000E+00  0.0000E+00  0.0000E+00  0.0000E+00  0.0000E+00  0.0000E+00  0.0000E+00  0.0000E+00  0.0000E+00  0.0000E+00  0.0000E+00
    -13.451 -0.3673E-35 -0.8671E-40 -0.3787E-36 -0.9165E-41 -0.5461E-42 -0.8603E-47 -0.1269E-36 -0.3072E-41  0.0000E+00  0.0000E+00  0.0000E+00  0.0000E+00  0.0000E+00  0.0000E+00  0.0000E+00  0.0000E+00  0.0000E+00  0.0000E+00
    -13.328 -0.7501E-19 -0.3212E-22 -0.7735E-20 -0.3395E-23 -0.5848E-25 -0.1673E-28 -0.2592E-20 -0.1138E-23  0.0000E+00  0.0000E+00  0.0000E+00  0.0000E+00  0.0000E+00  0.0000E+00  0.0000E+00  0.0000E+00  0.0000E+00  0.0000E+00
    -13.204 -0.6535E-08 -0.5161E-10 -0.6739E-09 -0.5455E-11 -0.2523E-13 -0.1358E-15 -0.2258E-09 -0.1829E-11  0.0000E+00  0.0000E+00  0.0000E+00  0.0000E+00  0.0000E+00  0.0000E+00  0.0000E+00  0.0000E+00  0.0000E+00  0.0000E+00
    -13.081 -0.1865E-02 -0.3295E-03 -0.1923E-03 -0.3483E-04 -0.3130E-07 -0.3746E-08 -0.6443E-04 -0.1167E-04  0.0000E+00  0.0000E+00  0.0000E+00  0.0000E+00  0.0000E+00  0.0000E+00  0.0000E+00  0.0000E+00  0.0000E+00  0.0000E+00
    -12.957  0.1133E+00  0.6249E-01  0.1169E-01  0.6606E-02  0.3576E-05  0.1079E-05  0.3916E-02  0.2215E-02  0.0000E+00  0.0000E+00  0.0000E+00  0.0000E+00  0.0000E+00  0.0000E+00  0.0000E+00  0.0000E+00  0.0000E+00  0.0000E+00
    -12.833  0.1268E+00  0.1472E+00  0.1308E-01  0.1556E-01  0.1522E-04  0.1369E-04  0.4385E-02  0.5217E-02  0.0000E+00  0.0000E+00  0.0000E+00  0.0000E+00  0.0000E+00  0.0000E+00  0.0000E+00  0.0000E+00  0.0000E+00  0.0000E+00
    -12.710  0.1583E+00  0.1585E+00  0.1634E-01  0.1677E-01  0.8514E-05  0.1127E-04  0.5476E-02  0.5621E-02  0.0000E+00  0.0000E+00  0.0000E+00  0.0000E+00  0.0000E+00  0.0000E+00  0.0000E+00  0.0000E+00  0.0000E+00  0.0000E+00
    -12.586 -0.1476E-03  0.2363E-01 -0.1514E-04  0.2501E-02 -0.1180E-06  0.1806E-06 -0.5072E-05  0.8385E-03  0.0000E+00  0.0000E+00  0.0000E+00  0.0000E+00  0.0000E+00  0.0000E+00  0.0000E+00  0.0000E+00  0.0000E+00  0.0000E+00
    -12.463 -0.3553E-03 -0.7112E-04 -0.1652E-04 -0.5839E-05 -0.3963E-08 -0.5907E-09 -0.4902E-04 -0.5635E-05  0.0000E+00  0.0000E+00  0.0000E+00  0.0000E+00  0.0000E+00  0.0000E+00  0.0000E+00  0.0000E+00  0.0000E+00  0.0000E+00
    -12.339  0.6436E-01  0.1887E-01  0.2972E-02  0.8981E-03  0.1115E-05  0.7412E-07  0.8916E-02  0.2694E-02  0.0000E+00  0.0000E+00  0.0000E+00  0.0000E+00  0.0000E+00  0.0000E+00  0.0000E+00  0.0000E+00  0.0000E+00  0.0000E+00
    -12.215  0.1482E+00  0.1622E+00  0.6836E-02  0.7717E-02  0.1322E-04  0.1023E-04  0.2051E-01  0.2315E-01  0.0000E+00  0.0000E+00  0.0000E+00  0.0000E+00  0.0000E+00  0.0000E+00  0.0000E+00  0.0000E+00  0.0000E+00  0.0000E+00
    -12.092  0.1625E+00  0.1504E+00  0.7489E-02  0.7145E-02  0.9676E-05  0.1216E-04  0.2247E-01  0.2144E-01  0.0000E+00  0.0000E+00  0.0000E+00  0.0000E+00  0.0000E+00  0.0000E+00  0.0000E+00  0.0000E+00  0.0000E+00  0.0000E+00
    -11.968  0.1026E-01  0.4790E-01  0.4729E-03  0.2275E-02 -0.2473E-07  0.6647E-06  0.1419E-02  0.6825E-02  0.0000E+00  0.0000E+00  0.0000E+00  0.0000E+00  0.0000E+00  0.0000E+00  0.0000E+00  0.0000E+00  0.0000E+00  0.0000E+00
    -11.844 -0.1261E-04 -0.1771E-03 -0.5810E-06 -0.8411E-05 -0.9094E-10 -0.1772E-08 -0.1743E-05 -0.2523E-04  0.0000E+00  0.0000E+00  0.0000E+00  0.0000E+00  0.0000E+00  0.0000E+00  0.0000E+00  0.0000E+00  0.0000E+00  0.0000E+00
    -11.721 -0.4839E-13 -0.1285E-10 -0.2229E-14 -0.6103E-12 -0.1452E-28 -0.2615E-16 -0.6688E-14 -0.1831E-11  0.0000E+00  0.0000E+00  0.0000E+00  0.0000E+00  0.0000E+00  0.0000E+00  0.0000E+00  0.0000E+00  0.0000E+00  0.0000E+00
    -11.597  0.0000E+00  0.0000E+00  0.0000E+00  0.0000E+00  0.0000E+00  0.0000E+00  0.0000E+00  0.0000E+00  0.0000E+00  0.0000E+00  0.0000E+00  0.0000E+00  0.0000E+00  0.0000E+00  0.0000E+00  0.0000E+00  0.0000E+00  0.0000E+00
    -11.474  0.0000E+00  0.0000E+00  0.0000E+00  0.0000E+00  0.0000E+00  0.0000E+00  0.0000E+00  0.0000E+00  0.0000E+00  0.0000E+00  0.0000E+00  0.0000E+00  0.0000E+00  0.0000E+00  0.0000E+00  0.0000E+00  0.0000E+00  0.0000E+00
    -11.350  0.0000E+00  0.0000E+00  0.0000E+00  0.0000E+00  0.0000E+00  0.0000E+00  0.0000E+00  0.0000E+00  0.0000E+00  0.0000E+00  0.0000E+00  0.0000E+00  0.0000E+00  0.0000E+00  0.0000E+00  0.0000E+00  0.0000E+00  0.0000E+00
    -11.226  0.0000E+00  0.0000E+00  0.0000E+00  0.0000E+00  0.0000E+00  0.0000E+00  0.0000E+00  0.0000E+00  0.0000E+00  0.0000E+00  0.0000E+00  0.0000E+00  0.0000E+00  0.0000E+00  0.0000E+00  0.0000E+00  0.0000E+00  0.0000E+00
    -11.103  0.0000E+00  0.0000E+00  0.0000E+00  0.0000E+00  0.0000E+00  0.0000E+00  0.0000E+00  0.0000E+00  0.0000E+00  0.0000E+00  0.0000E+00  0.0000E+00  0.0000E+00  0.0000E+00  0.0000E+00  0.0000E+00  0.0000E+00  0.0000E+00
    -10.979 -0.1242E-42 -0.1450E-47 -0.2320E-43 -0.2848E-48 -0.1939E-49 -0.1675E-60 -0.1725E-43 -0.2140E-48  0.0000E+00  0.0000E+00  0.0000E+00  0.0000E+00  0.0000E+00  0.0000E+00  0.0000E+00  0.0000E+00  0.0000E+00  0.0000E+00
    -10.856 -0.2964E-24 -0.5659E-28 -0.5539E-25 -0.1112E-28 -0.1810E-30 -0.2497E-34 -0.4117E-25 -0.8354E-29  0.0000E+00  0.0000E+00  0.0000E+00  0.0000E+00  0.0000E+00  0.0000E+00  0.0000E+00  0.0000E+00  0.0000E+00  0.0000E+00
    -10.732 -0.3161E-11 -0.9890E-14 -0.5906E-12 -0.1942E-14 -0.7163E-17 -0.1656E-19 -0.4389E-12 -0.1460E-14  0.0000E+00  0.0000E+00  0.0000E+00  0.0000E+00  0.0000E+00  0.0000E+00  0.0000E+00  0.0000E+00  0.0000E+00  0.0000E+00
    -10.608 -0.1427E-03 -0.7686E-05 -0.2666E-04 -0.1509E-05 -0.1044E-08 -0.4303E-10 -0.1981E-04 -0.1134E-05  0.0000E+00  0.0000E+00  0.0000E+00  0.0000E+00  0.0000E+00  0.0000E+00  0.0000E+00  0.0000E+00  0.0000E+00  0.0000E+00
    -10.485  0.6344E-01  0.5026E-02  0.1185E-01  0.9900E-03  0.4686E-06 -0.1515E-06  0.8805E-02  0.7452E-03  0.0000E+00  0.0000E+00  0.0000E+00  0.0000E+00  0.0000E+00  0.0000E+00  0.0000E+00  0.0000E+00  0.0000E+00  0.0000E+00