    4    4    1    2
  0.8797333E+01  0.2461200E-09  0.2461200E-09  0.6707900E-09  0.5000000E-15
  1.000000000000000E-004
  CAR 
 unknown system                          
   16   28   14
 
  0.0000000E+00  0.0000000E+00  0.0000000E+00  0.4629630E-02
   1      -14.979769    -14.949672
   2      -14.679237    -14.649883
   3       -3.859212     -3.792406
   4       -1.897703     -1.822145
   5        1.710524      1.722477
   6        1.710547      1.722502
   7        1.728741      1.741050
   8        1.728764      1.741075
   9        8.972773      9.007603
  10       13.076911     13.088150
  11       13.076933     13.088175
  12       13.130187     13.140951
  13       13.130209     13.140976
  14       15.301516     15.294474
 
  0.1666667E+00 -0.1387779E-16  0.0000000E+00  0.2777778E-01
   1      -14.316669    -14.286903
   2      -14.028009    -13.998924
   3       -3.056383     -2.988984
   4       -1.149905     -1.073042
   5       -0.612510     -0.595838
   6       -0.548308     -0.531612
   7        0.561814      0.573764
   8        0.602113      0.614006
   9        9.776665      9.811271
  10       13.028285     13.050685
  11       13.213011     13.230374
  12       13.893636     13.979944
  13       14.266915     14.379971
  14       15.660151     15.642991
 
  0.3333333E+00  0.0000000E+00  0.0000000E+00  0.2777778E-01
   1      -12.360489    -12.331636
   2      -12.107123    -12.078665
   3       -4.968771     -4.947015
   4       -4.835028     -4.813546
   5       -1.064984     -1.053181
   6       -1.012756     -1.001127
   7       -0.742460     -0.673932
   8        0.938319      1.021376
   9        9.211695      9.281220
  10       10.096163     10.200499
  11       12.075455     12.100954
  12       12.363725     12.412864
  13       12.762962     12.789409
  14       17.434367     17.507586
 
  0.5000000E+00 -0.2775558E-16  0.0000000E+00  0.1388889E-01
   1       -9.620179     -9.595374
   2       -9.515971     -9.475968
   3       -8.556968     -8.544508
   4       -8.479389     -8.453551
   5       -1.704250     -1.692493
   6       -1.649110     -1.637552
   7        1.921515      1.962081
   8        2.560299      2.694977
   9        6.232127      6.234366
  10        6.837669      6.977408
  11       11.960378     11.997795
  12       12.356796     12.393726
  13       16.013742     16.002618
  14       16.099518     16.182195
 
  0.1666667E+00  0.1666667E+00  0.0000000E+00  0.2777778E-01
   1      -13.006791    -12.977657
   2      -12.741738    -12.713135
   3       -3.053663     -3.033220
   4       -3.000003     -2.977667
   5       -1.695775     -1.683962
   6       -1.656653     -1.643726
   7       -1.488912     -1.420513
   8        0.287872      0.368091
   9       10.844969     10.930517
  10       11.322146     11.420464
  11       11.393380     11.427637
  12       14.674343     14.700216
  13       14.915209     14.925084
  14       16.279414     16.321434
 
  0.3333333E+00  0.1666667E+00  0.0000000E+00  0.5555556E-01
   1      -10.486773    -10.458691
   2      -10.270327    -10.241803
   3       -6.754887     -6.731559
   4       -6.607826     -6.584213
   5       -3.361284     -3.347177
   6       -3.270570     -3.256537
   7        1.375450      1.440579
   8        2.694960      2.792968
   9        6.881443      6.947504
  10        7.613619      7.708212
  11       14.429077     14.442886
  12       14.603006     14.663364
  13       15.117960     15.142486
  14       17.136937     17.212497
 
  0.3333333E+00  0.3333333E+00  0.0000000E+00  0.9259259E-02
   1       -7.941371     -7.969721
   2       -7.902153     -7.816048
   3       -7.902153     -7.816048
   4       -7.752053     -7.779332
   5       -5.840770     -5.831032
   6       -5.840770     -5.831032
   7        4.136407      4.027828
   8        4.557714      4.833689
   9        4.557714      4.833689
  10        5.490091      5.372905
  11       15.837869     15.887303
  12       15.837869     15.887303
  13       16.988430     16.939686
  14       17.233863     17.319834
 
  0.0000000E+00  0.0000000E+00  0.1666667E+00  0.9259259E-02
   1      -14.960867    -14.930818
   2      -14.700784    -14.671375
   3       -3.748048     -3.680911
   4       -2.058435     -1.983896
   5        1.711721      1.723692
   6        1.711744      1.723718
   7        1.727458      1.739740
   8        1.727481      1.739766
   9        9.311560      9.347901
  10       13.080082     13.091292
  11       13.080105     13.091317
  12       13.126423     13.137207
  13       13.126446     13.137231
  14       14.591996     14.644534
 
  0.1666667E+00 -0.1387779E-16  0.1666667E+00  0.5555556E-01
   1      -14.298409    -14.268680
   2      -14.048527    -14.019392
   3       -2.947990     -2.880226
   4       -1.305347     -1.229580
   5       -0.608193     -0.591503
   6       -0.552638     -0.535942
   7        0.564499      0.576444
   8        0.599402      0.611301
   9       10.103366     10.139737
  10       13.030048     13.053317
  11       13.199611     13.217254
  12       13.923867     14.006629
  13       14.236334     14.350817
  14       15.262835     15.327620
 
  0.3333333E+00  0.0000000E+00  0.1666667E+00  0.5555556E-01
   1      -12.344333    -12.315503
   2      -12.124955    -12.096470
   3       -4.960035     -4.938292
   4       -4.844240     -4.822738
   5       -1.061505     -1.049713
   6       -1.016266     -1.004623
   7       -0.644661     -0.575539
   8        0.805650      0.887133
   9        9.252591      9.325071
  10       10.023057     10.124479
  11       12.251957     12.274288
  12       12.423686     12.475693
  13       12.838409     12.866974
  14       16.974810     17.042251
 
  0.5000000E+00 -0.2775558E-16  0.1666667E+00  0.2777778E-01
   1       -9.611916     -9.586269
   2       -9.521399     -9.482569
   3       -8.554437     -8.540913
   4       -8.486951     -8.461829
   5       -1.700590     -1.688848
   6       -1.652828     -1.641255
   7        1.977996      2.022756
   8        2.537941      2.664783
   9        6.218860      6.231573
  10        6.750264      6.882063
  11       11.985676     12.023319
  12       12.329224     12.366466
  13       16.272241     16.260032
  14       16.282968     16.368811
 
  0.1666667E+00  0.1666667E+00  0.1666667E+00  0.5555556E-01
   1      -12.989973    -12.960871
   2      -12.760447    -12.731802
   3       -3.049930     -3.029370
   4       -3.003465     -2.981266
   5       -1.693557     -1.681655
   6       -1.659655     -1.646792
   7       -1.386767     -1.317892
   8        0.145246      0.224170
   9       10.875366     10.962076
  10       11.279657     11.382515
  11       11.701206     11.731582
  12       14.676007     14.701535
  13       14.915731     14.927168
  14       16.271937     16.316127
 
  0.3333333E+00  0.1666667E+00  0.1666667E+00  0.1111111E+00
   1      -10.472842    -10.444733
   2      -10.285447    -10.256955
   3       -6.745362     -6.722005
   4       -6.618003     -6.594401
   5       -3.355414     -3.341305
   6       -3.276854     -3.262808
   7        1.457520      1.523985
   8        2.600255      2.694791
   9        6.915918      6.984898
  10        7.553829      7.647635
  11       14.533396     14.550651
  12       14.665130     14.727639
  13       15.124968     15.147878
  14       16.851311     16.916924
 
  0.3333333E+00  0.3333333E+00  0.1666667E+00  0.1851852E-01
   1       -7.929153     -7.957441
   2       -7.901625     -7.815500
   3       -7.901624     -7.815500
   4       -7.765273     -7.792629
   5       -5.841993     -5.832254
   6       -5.841993     -5.832254
   7        4.216575      4.107608
   8        4.565799      4.842190
   9        4.565799      4.842190
  10        5.385922      5.269579
  11       15.481373     15.535004
  12       15.481373     15.535005
  13       17.190890     17.142502
  14       17.754024     17.833510
 
  0.0000000E+00  0.0000000E+00  0.3333333E+00  0.9259259E-02
   1      -14.908381    -14.878452
   2      -14.758366    -14.728810
   3       -3.433667     -3.365514
   4       -2.468169     -2.395926
   5        1.715028      1.727063
   6        1.715050      1.727088
   7        1.724133      1.736347
   8        1.724155      1.736373
   9       10.249301     10.289425
  10       13.089380     13.100498
  11       13.089403     13.100523
  12       13.116250     13.127122
  13       13.116273     13.127147
  14       13.165134     13.215049
 
  0.1666667E+00 -0.1387779E-16  0.3333333E+00  0.5555556E-01
   1      -14.247842    -14.218224
   2      -14.103687    -14.074414
   3       -2.641547     -2.572664
   4       -1.702424     -1.629117
   5       -0.596480     -0.579778
   6       -0.564436     -0.547737
   7        0.571848      0.583784
   8        0.591997      0.603905
   9       11.004276     11.045251
  10       13.010121     13.038576
  11       13.168790     13.186609
  12       13.854408     13.874687
  13       14.013469     14.153456
  14       14.261830     14.349713
 
  0.3333333E+00  0.0000000E+00  0.3333333E+00  0.5555556E-01
   1      -12.299645    -12.270881
   2      -12.173113    -12.144546
   3       -4.936080     -4.914382
   4       -4.869235     -4.847676
   5       -1.052000     -1.040241
   6       -1.025879     -1.014204
   7       -0.369192     -0.298260
   8        0.462252      0.540076
   9        9.383233      9.462550
  10        9.831903      9.926808
  11       12.385096     12.415942
  12       12.513982     12.551950
  13       13.458839     13.497608
  14       15.884369     15.940621
 
  0.5000000E+00 -0.2775558E-16  0.3333333E+00  0.2777778E-01
   1       -9.590115     -9.562040
   2       -9.537519     -9.501809
   3       -8.545324     -8.528999
   4       -8.506006     -8.482966
   5       -1.690550     -1.678844
   6       -1.662975     -1.651366
   7        2.126179      2.183942
   8        2.457485      2.563214
   9        6.228408      6.269325
  10        6.543332      6.652941
  11       12.055609     12.093639
  12       12.254144     12.291964
  13       16.761101     16.852750
  14       16.937067     16.929266
 
  0.1666667E+00  0.1666667E+00  0.3333333E+00  0.5555556E-01
   1      -12.943301    -12.914285
   2      -12.810893    -12.782144
   3       -3.039799     -3.018909
   4       -3.012976     -2.991140
   5       -1.687175     -1.675047
   6       -1.667575     -1.654893
   7       -1.098514     -1.028177
   8       -0.221458     -0.145525
   9       10.959594     11.049619
  10       11.191873     11.291921
  11       12.520260     12.555302
  12       14.581604     14.611938
  13       14.912028     14.927619
  14       15.246789     15.296801
 
  0.3333333E+00  0.1666667E+00  0.3333333E+00  0.1111111E+00
   1      -10.434420    -10.406239
   2      -10.326273    -10.297869
   3       -6.719103     -6.695681
   4       -6.645602     -6.622039
   5       -3.339224     -3.325113
   6       -3.293866     -3.279792
   7        1.686078      1.756630
   8        2.345642      2.431938
   9        7.024201      7.100404
  10        7.396597      7.487221
  11       14.632073     14.666874
  12       14.783235     14.832950
  13       15.346666     15.376389
  14       16.375372     16.433020
 
  0.3333333E+00  0.3333333E+00  0.3333333E+00  0.1851852E-01
   1       -7.900494     -7.923551
   2       -7.900494     -7.828404
   3       -7.895443     -7.814322
   4       -7.800828     -7.814322
   5       -5.844423     -5.834685
   6       -5.844422     -5.834684
   7        4.441908      4.331783
   8        4.582163      4.859384
   9        4.582163      4.859384
  10        5.113611      4.999326
  11       15.039601     15.093839
  12       15.039601     15.093840
  13       17.733896     17.687637
  14       18.656627     18.733057
 
  0.0000000E+00  0.0000000E+00  0.5000000E+00  0.4629630E-02
   1      -14.834660    -14.804908
   2      -14.834660    -14.804908
   3       -2.973886     -2.903987
   4       -2.973886     -2.903987
   5        1.719558      1.731684
   6        1.719558      1.731684
   7        1.719581      1.731709
   8        1.719581      1.731709
   9       11.607098     11.652039
  10       11.607098     11.652039
  11       13.102304     13.113300
  12       13.102304     13.113300
  13       13.102327     13.113325
  14       13.102327     13.113325
 
  0.1666667E+00 -0.1387779E-16  0.5000000E+00  0.2777778E-01
   1      -14.176884    -14.147431
   2      -14.176884    -14.147431
   3       -2.193853     -2.123069
   4       -2.193853     -2.123069
   5       -0.580480     -0.563777
   6       -0.580480     -0.563777
   7        0.581897      0.593819
   8        0.581897      0.593819
   9       12.273260     12.320470
  10       12.273260     12.320470
  11       13.176028     13.193529
  12       13.176028     13.193529
  13       14.114857     14.217125
  14       14.114861     14.217126
 
  0.3333333E+00  0.0000000E+00  0.5000000E+00  0.2777778E-01
   1      -12.237229    -12.208558
   2      -12.237229    -12.208558
   3       -4.902915     -4.881284
   4       -4.902915     -4.881284
   5       -1.038967     -1.027250
   6       -1.038967     -1.027250
   7        0.029972      0.103914
   8        0.029972      0.103914
   9        9.593528      9.680740
  10        9.593528      9.680740
  11       12.465791     12.499992
  12       12.465791     12.499992
  13       14.601846     14.648174
  14       14.601846     14.648174
 
  0.5000000E+00 -0.2775558E-16  0.5000000E+00  0.1388889E-01
   1       -9.562422     -9.530705
   2       -9.562422     -9.530705
   3       -8.528166     -8.508298
   4       -8.528166     -8.508298
   5       -1.676788     -1.665130
   6       -1.676788     -1.665130
   7        2.308647      2.388158
   8        2.308647      2.388158
   9        6.337437      6.414448
  10        6.337437      6.414448
  11       12.153416     12.191558
  12       12.153416     12.191558
  13       17.277497     17.349253
  14       17.277497     17.349254
 
  0.1666667E+00  0.1666667E+00  0.5000000E+00  0.2777778E-01
   1      -12.878056    -12.849168
   2      -12.878056    -12.849168
   3       -3.026219     -3.004865
   4       -3.026219     -3.004865
   5       -1.677756     -1.665340
   6       -1.677756     -1.665340
   7       -0.679012     -0.606235
   8       -0.679012     -0.606235
   9       11.075292     11.170185
  10       11.075292     11.170185
  11       13.661896     13.704295
  12       13.661896     13.704295
  13       14.914819     14.936900
  14       14.914820     14.936900
 
  0.3333333E+00  0.1666667E+00  0.5000000E+00  0.5555556E-01
   1      -10.380971    -10.352683
   2      -10.380971    -10.352683
   3       -6.682697     -6.659198
   4       -6.682697     -6.659198
   5       -3.316748     -3.302648
   6       -3.316748     -3.302648
   7        2.009213      2.086630
   8        2.009213      2.086630
   9        7.198744      7.283116
  10        7.198744      7.283116
  11       14.722158     14.763948
  12       14.722158     14.763948
  13       15.853476     15.899338
  14       15.853476     15.899338
 
  0.3333333E+00  0.3333333E+00  0.5000000E+00  0.9259259E-02
   1       -7.899952     -7.876474
   2       -7.899952     -7.876474
   3       -7.848625     -7.813763
   4       -7.848625     -7.813763
   5       -5.845642     -5.835904
   6       -5.845642     -5.835904
   7        4.590302      4.654146
   8        4.590302      4.654146
   9        4.766136      4.867944
  10        4.766136      4.867944
  11       14.872312     14.926155
  12       14.872312     14.926155
  13       18.444811     18.404779
  14       18.444812     18.404780
