       N       E                     dE             d eps       ncg     rms          rms(c)
DAV:   1     0.364609903276E+02    0.36461E+02   -0.79836E+03  1568   0.998E+02
DAV:   2    -0.345895079395E+02   -0.71050E+02   -0.64093E+02  2238   0.199E+02
DAV:   3    -0.376057605565E+02   -0.30163E+01   -0.29957E+01  2126   0.389E+01
DAV:   4    -0.376340802452E+02   -0.28320E-01   -0.28312E-01  1924   0.449E+00
DAV:   5    -0.376346170995E+02   -0.53685E-03   -0.53678E-03  2080   0.593E-01    0.120E+01
DAV:   6    -0.368874149057E+02    0.74720E+00   -0.21274E+00  1748   0.959E+00    0.475E+00
DAV:   7    -0.367880111144E+02    0.99404E-01   -0.11981E+00  1814   0.760E+00    0.186E+00
DAV:   8    -0.367387870428E+02    0.49224E-01   -0.23553E-01  1844   0.372E+00    0.649E-01
DAV:   9    -0.367507053642E+02   -0.11918E-01   -0.19030E-02  1754   0.133E+00    0.324E-01
DAV:  10    -0.367512123129E+02   -0.50695E-03   -0.17398E-03  1964   0.475E-01    0.124E-01
DAV:  11    -0.367514534730E+02   -0.24116E-03   -0.43816E-04  1778   0.194E-01    0.479E-02
DAV:  12    -0.367515510240E+02   -0.97551E-04   -0.12010E-04  1516   0.957E-02
   1 F= -.36751551E+02 E0= -.36751594E+02  d E =0.129736E-03  mag=     0.0908
