 vasp.5.2.12 11Nov11 complex                                                    
  
 executed on             LinuxIFC date 2012.10.17  09:53:37
 running on    1 nodes
 distr:  one band on    1 nodes,    1 groups


--------------------------------------------------------------------------------------------------------


 INCAR:
 POTCAR:   PAW_PBE C 08Apr2002                    
 POTCAR:   PAW_PBE C 08Apr2002                    
   VRHFIN =C: s2p2                                                              
   LEXCH  = PE                                                                  
   EATOM  =   147.1560 eV,   10.8157 Ry                                         
                                                                                
   TITEL  = PAW_PBE C 08Apr2002                                                 
   LULTRA =        F    use ultrasoft PP ?                                      
   IUNSCR =        0    unscreen: 0-lin 1-nonlin 2-no                           
   RPACOR =     .000    partial core radius                                     
   POMASS =   12.011; ZVAL   =    4.000    mass and valenz                      
   RCORE  =    1.500    outmost cutoff radius                                   
   RWIGS  =    1.630; RWIGS  =     .863    wigner-seitz radius (au A)           
   ENMAX  =  400.000; ENMIN  =  300.000 eV                                      
   ICORE  =        2    local potential                                         
   LCOR   =        T    correct aug charges                                     
   LPAW   =        T    paw PP                                                  
   EAUG   =  644.873                                                            
   DEXC   =     .000                                                            
   RMAX   =    2.266    core radius for proj-oper                               
   RAUG   =    1.300    factor for augmentation sphere                          
   RDEP   =    1.501    radius for radial grids                                 
   RDEPT  =    1.300    core radius for aug-charge                              
   QCUT   =   -5.516; QGAM   =   11.032    optimization parameters              
                                                                                
   Description                                                                  
     l     E      TYP  RCUT    TYP  RCUT                                        
     0   .000     23  1.200                                                     
     0   .000     23  1.200                                                     
     1   .000     23  1.500                                                     
     1  2.500     23  1.500                                                     
     2   .000      7  1.500                                                     
  local pseudopotential read in
  atomic valenz-charges read in
  non local Contribution for L=           0  read in
    real space projection operators read in
  non local Contribution for L=           0  read in
    real space projection operators read in
  non local Contribution for L=           1  read in
    real space projection operators read in
  non local Contribution for L=           1  read in
    real space projection operators read in
    PAW grid and wavefunctions read in
 
   number of l-projection  operators is LMAX  =           4
   number of lm-projection operators is LMMAX =           8
 
 PAW_PBE C 08Apr2002                    :
 energy of atom  1       EATOM= -147.1560
 kinetic energy error for atom=    0.0076 (will be added to EATOM!!)
 
 
 POSCAR:  C                                      
  positions in cartesian coordinates
  No initial velocities read in
 exchange correlation table for  LEXCH =        8
   RHO(1)=    0.500       N(1)  =     2000
   RHO(2)=  100.500       N(2)  =     4000
 


--------------------------------------------------------------------------------------------------------


 ion  position               nearest neighbor table
   1  0.000  0.000  0.000-   2 1.42   2 1.42   2 1.42
   2  0.333  0.667  0.000-   1 1.42   1 1.42   1 1.42
   3  0.333  0.667  0.500-   4 1.42   4 1.42   4 1.42
   4  0.667  0.333  0.500-   3 1.42   3 1.42   3 1.42
 
  LATTYP: Found a hexagonal cell.
 ALAT       =     2.4612000000
 C/A-ratio  =     2.7254591256
  
  Lattice vectors:
  
 A1 = (   2.4612000000,   0.0000000000,   0.0000000000)
 A2 = (  -1.2306000000,   2.1314617238,   0.0000000000)
 A3 = (   0.0000000000,   0.0000000000,   6.7079000000)
 Subroutine PRICEL returns:
 Original cell was already a primitive cell.
 

Analysis of symmetry for initial positions (statically):

 Routine SETGRP: Setting up the symmetry group for a 
 hexagonal supercell.


 Subroutine GETGRP returns: Found 24 space group operations
 (whereof 12 operations were pure point group operations)
 out of a pool of 24 trial point group operations.


The static configuration has the point symmetry D_3h.
 The point group associated with its full space group is D_6h.

Analysis of symmetry for dynamics (positions and initial velocities):

 Subroutine DYNSYM returns: Found 24 space group operations
 (whereof 12 operations were pure point group operations)
 out of a pool of 24 trial space group operations
 (whereof 12 operations were pure point group operations)
 and found also     1 'primitive' translations


The dynamic configuration has the point symmetry D_3h.
 The point group associated with its full space group is D_6h.

Analysis of magnetic symmetry:

 Subroutine MAGSYM returns: Found 24 space group operations
 (whereof 12 operations were pure point group operations)
 out of a pool of 24 trial space group operations
 (whereof 12 operations were pure point group operations)
 and found also     1 'primitive' translations


The magnetic configuration has the point symmetry D_3h.
 The point group associated with its full space group is D_6h.
 
 
 KPOINTS: KPOINTS created by Atomic Simulation Env

Automatic generation of k-mesh.
 
 Subroutine IBZKPT returns following result:
 ===========================================
 
 Found     28 irreducible k-points:
 
 Following reciprocal coordinates:
            Coordinates               Weight
  0.000000  0.000000  0.000000      1.000000
  0.166667  0.000000  0.000000      6.000000
  0.333333  0.000000  0.000000      6.000000
  0.500000  0.000000  0.000000      3.000000
  0.166667  0.166667  0.000000      6.000000
  0.333333  0.166667  0.000000     12.000000
  0.333333  0.333333  0.000000      2.000000
  0.000000  0.000000  0.166667      2.000000
  0.166667  0.000000  0.166667     12.000000
  0.333333  0.000000  0.166667     12.000000
  0.500000  0.000000  0.166667      6.000000
  0.166667  0.166667  0.166667     12.000000
  0.333333  0.166667  0.166667     24.000000
  0.333333  0.333333  0.166667      4.000000
  0.000000  0.000000  0.333333      2.000000
  0.166667  0.000000  0.333333     12.000000
  0.333333  0.000000  0.333333     12.000000
  0.500000  0.000000  0.333333      6.000000
  0.166667  0.166667  0.333333     12.000000
  0.333333  0.166667  0.333333     24.000000
  0.333333  0.333333  0.333333      4.000000
  0.000000  0.000000  0.500000      1.000000
  0.166667  0.000000  0.500000      6.000000
  0.333333  0.000000  0.500000      6.000000
  0.500000  0.000000  0.500000      3.000000
  0.166667  0.166667  0.500000      6.000000
  0.333333  0.166667  0.500000     12.000000
  0.333333  0.333333  0.500000      2.000000
 
 Following cartesian coordinates:
            Coordinates               Weight
  0.000000  0.000000  0.000000      1.000000
  0.067718  0.039097  0.000000      6.000000
  0.135435  0.078194  0.000000      6.000000
  0.203153  0.117290  0.000000      3.000000
  0.067718  0.117290  0.000000      6.000000
  0.135435  0.156387  0.000000     12.000000
  0.135435  0.234581  0.000000      2.000000
  0.000000  0.000000  0.024846      2.000000
  0.067718  0.039097  0.024846     12.000000
  0.135435  0.078194  0.024846     12.000000
  0.203153  0.117290  0.024846      6.000000
  0.067718  0.117290  0.024846     12.000000
  0.135435  0.156387  0.024846     24.000000
  0.135435  0.234581  0.024846      4.000000
  0.000000  0.000000  0.049693      2.000000
  0.067718  0.039097  0.049693     12.000000
  0.135435  0.078194  0.049693     12.000000
  0.203153  0.117290  0.049693      6.000000
  0.067718  0.117290  0.049693     12.000000
  0.135435  0.156387  0.049693     24.000000
  0.135435  0.234581  0.049693      4.000000
  0.000000  0.000000  0.074539      1.000000
  0.067718  0.039097  0.074539      6.000000
  0.135435  0.078194  0.074539      6.000000
  0.203153  0.117290  0.074539      3.000000
  0.067718  0.117290  0.074539      6.000000
  0.135435  0.156387  0.074539     12.000000
  0.135435  0.234581  0.074539      2.000000
 


--------------------------------------------------------------------------------------------------------




 Dimension of arrays:
   k-points           NKPTS =     28   k-points in BZ     NKDIM =     28   number of bands    NBANDS=     14
   number of dos      NEDOS =    301   number of ions     NIONS =      4
   non local maximal  LDIM  =      4   non local SUM 2l+1 LMDIM =      8
   total plane-waves  NPLWV =  16200
   max r-space proj   IRMAX =      1   max aug-charges    IRDMAX=   5632
   dimension x,y,z NGX =    18 NGY =   18 NGZ =   50
   dimension x,y,z NGXF=    36 NGYF=   36 NGZF=  100
   support grid    NGXF=    36 NGYF=   36 NGZF=  100
   ions per type =               4
 NGX,Y,Z   is equivalent  to a cutoff of  12.16, 12.16, 12.39 a.u.
 NGXF,Y,Z  is equivalent  to a cutoff of  24.32, 24.32, 24.78 a.u.


 I would recommend the setting:
   dimension x,y,z NGX =    18 NGY =   18 NGZ =   49
 SYSTEM =  unknown system                          
 POSCAR =   C                                      

 Startparameter for this run:
   NWRITE =      2    write-flag & timer
   PREC   = accura    normal or accurate (medium, high low for compatibility)
   ISTART =      0    job   : 0-new  1-cont  2-samecut
   ICHARG =      2    charge: 1-file 2-atom 10-const
   ISPIN  =      2    spin polarized calculation?
   LNONCOLLINEAR =      F non collinear calculations
   LSORBIT =      F    spin-orbit coupling
   INIWAV =      1    electr: 0-lowe 1-rand  2-diag
   LASPH  =      F    aspherical Exc in radial PAW
   METAGGA=      F    non-selfconsistent MetaGGA calc.

 Electronic Relaxation 1
   ENCUT  =  500.0 eV  36.75 Ry    6.06 a.u.   4.49  4.49 12.23*2*pi/ulx,y,z
   ENINI  =  500.0     initial cutoff
   ENAUG  =  644.9 eV  augmentation charge cutoff
   NELM   =     60;   NELMIN=  2; NELMDL= -5     # of ELM steps 
   EDIFF  = 0.1E-03   stopping-criterion for ELM
   LREAL  =      F    real-space projection
   NLSPLINE    = F    spline interpolate recip. space projectors
   LCOMPAT=      F    compatible to vasp.4.4
   GGA_COMPAT  = T    GGA compatible to vasp.4.4-vasp.4.6
   LMAXPAW     = -100 max onsite density
   LMAXMIX     =    2 max onsite mixed and CHGCAR
   VOSKOWN=      0    Vosko Wilk Nusair interpolation
   ROPT   =    0.00000
 Ionic relaxation
   EDIFFG = 0.1E-02   stopping-criterion for IOM
   NSW    =      0    number of steps for IOM
   NBLOCK =      1;   KBLOCK =      1    inner block; outer block 
   IBRION =     -1    ionic relax: 0-MD 1-quasi-New 2-CG
   NFREE  =      0    steps in history (QN), initial steepest desc. (CG)
   ISIF   =      2    stress and relaxation
   IWAVPR =     10    prediction:  0-non 1-charg 2-wave 3-comb
   ISYM   =      2    0-nonsym 1-usesym 2-fastsym
   LCORR  =      T    Harris-Foulkes like correction to forces

   POTIM  = 0.5000    time-step for ionic-motion
   TEIN   =    0.0    initial temperature
   TEBEG  =    0.0;   TEEND  =   0.0 temperature during run
   SMASS  =  -3.00    Nose mass-parameter (am)
   estimated Nose-frequenzy (Omega)   =  0.10E-29 period in steps =****** mass=  -0.138E-27a.u.
   SCALEE = 1.0000    scale energy and forces
   NPACO  =    256;   APACO  = 16.0  distance and # of slots for P.C.
   PSTRESS=    0.0 pullay stress

  Mass of Ions in am
   POMASS =  12.01
  Ionic Valenz
   ZVAL   =   4.00
  Atomic Wigner-Seitz radii
   RWIGS  =  -1.00
  virtual crystal weights 
   VCA    =   1.00
   NELECT =      16.0000    total number of electrons
   NUPDOWN=      -1.0000    fix difference up-down

 DOS related values:
   EMIN   =  10.00;   EMAX   =-10.00  energy-range for DOS
   EFERMI =   0.00
   ISMEAR =     1;   SIGMA  =   0.05  broadening in eV -4-tet -1-fermi 0-gaus

 Electronic relaxation 2 (details)
   IALGO  =     38    algorithm
   LDIAG  =      T    sub-space diagonalisation (order eigenvalues)
   LSUBROT=      T    optimize rotation matrix (better conditioning)
   TURBO    =      0    0=normal 1=particle mesh
   IRESTART =      0    0=no restart 2=restart with 2 vectors
   NREBOOT  =      0    no. of reboots
   NMIN     =      0    reboot dimension
   EREF     =   0.00    reference energy to select bands
   IMIX   =      4    mixing-type and parameters
     AMIX     =   0.40;   BMIX     =  1.00
     AMIX_MAG =   1.60;   BMIX_MAG =  1.00
     AMIN     =   0.10
     WC   =   100.;   INIMIX=   1;  MIXPRE=   1

 Intra band minimization:
   WEIMIN = 0.0000     energy-eigenvalue tresh-hold
   EBREAK =  0.18E-05  absolut break condition
   DEPER  =   0.30     relativ break condition  

   TIME   =   0.40     timestep for ELM

  volume/ion in A,a.u.               =       8.80        59.37
  Fermi-wavevector in a.u.,A,eV,Ry     =   1.258861  2.378903 21.561578  1.584731
  Thomas-Fermi vector in A             =   2.392450
 
 Write flags
   LWAVE  =      T    write WAVECAR
   LCHARG =      T    write CHGCAR
   LVTOT  =      F    write LOCPOT, total local potential
   LVHAR  =      F    write LOCPOT, Hartree potential only
   LELF   =      F    write electronic localiz. function (ELF)
   LORBIT =     11    0 simple, 1 ext, 2 COOP (PROOUT)


 Dipole corrections
   LMONO  =      F    monopole corrections only (constant potential shift)
   LDIPOL =      F    correct potential (dipole corrections)
   IDIPOL =      0    1-x, 2-y, 3-z, 4-all directions 
   EPSILON=  1.0000000 bulk dielectric constant

 Exchange correlation treatment:
   GGA     =    --    GGA type
   LEXCH   =     8    internal setting for exchange type
   VOSKOWN=      0    Vosko Wilk Nusair interpolation
   LHFCALC =     F    Hartree Fock is set to
   LHFONE  =     F    Hartree Fock one center treatment
   AEXX    =    0.0000 exact exchange contribution

 Linear response parameters
   LEPSILON=     F    determine dielectric tensor
   LRPA    =     F    only Hartree local field effects (RPA)
   LNABLA  =     F    use nabla operator in PAW spheres
   LVEL    =     F    velocity operator in full k-point grid
   LINTERFAST=   F  fast interpolation
   KINTER  =     0    interpolate to denser k-point grid
   CSHIFT  =0.1000    complex shift for real part using Kramers Kronig
   OMEGAMAX=  -1.0    maximum frequency
   RTIME   =    0.100 relaxation time in fs

 Orbital magnetization related:
   ORBITALMAG=     F  switch on orbital magnetization
   LCHIMAG   =     F  perturbation theory with respect to B field
   DQ        =  0.001000  dq finite difference perturbation B field



--------------------------------------------------------------------------------------------------------


 Static calculation
 charge density and potential will be updated during run
 spin polarized calculation
 Variant of blocked Davidson
 Davidson routine will perform the subspace rotation
 perform sub-space diagonalisation
    after iterative eigenvector-optimisation
 modified Broyden-mixing scheme, WC =      100.0
 initial mixing is a Kerker type mixing with AMIX =  0.4000 and BMIX =      1.0000
 Hartree-type preconditioning will be used
 using additional bands            6
 reciprocal scheme for non local part
 calculate Harris-corrections to forces 
   (improved forces if not selfconsistent)
 use gradient corrections 
 use of overlap-Matrix (Vanderbilt PP)
 Methfessel and Paxton  Order N= 1 SIGMA  =   0.05


--------------------------------------------------------------------------------------------------------


  energy-cutoff  :      500.00
  volume of cell :       35.19
      direct lattice vectors                 reciprocal lattice vectors
     2.461200000  0.000000000  0.000000000     0.406305867  0.234580802  0.000000000
    -1.230600000  2.131461724  0.000000000     0.000000000  0.469161603  0.000000000
     0.000000000  0.000000000  6.707900000     0.000000000  0.000000000  0.149077953

  length of vectors
     2.461200000  2.461200000  6.707900000     0.469161603  0.469161603  0.149077953


 
 k-points in units of 2pi/SCALE and weight: KPOINTS created by Atomic Simulation Env
   0.00000000  0.00000000  0.00000000       0.005
   0.06771764  0.03909680  0.00000000       0.028
   0.13543529  0.07819360  0.00000000       0.028
   0.20315293  0.11729040  0.00000000       0.014
   0.06771764  0.11729040  0.00000000       0.028
   0.13543529  0.15638720  0.00000000       0.056
   0.13543529  0.23458080  0.00000000       0.009
   0.00000000  0.00000000  0.02484633       0.009
   0.06771764  0.03909680  0.02484633       0.056
   0.13543529  0.07819360  0.02484633       0.056
   0.20315293  0.11729040  0.02484633       0.028
   0.06771764  0.11729040  0.02484633       0.056
   0.13543529  0.15638720  0.02484633       0.111
   0.13543529  0.23458080  0.02484633       0.019
   0.00000000  0.00000000  0.04969265       0.009
   0.06771764  0.03909680  0.04969265       0.056
   0.13543529  0.07819360  0.04969265       0.056
   0.20315293  0.11729040  0.04969265       0.028
   0.06771764  0.11729040  0.04969265       0.056
   0.13543529  0.15638720  0.04969265       0.111
   0.13543529  0.23458080  0.04969265       0.019
   0.00000000  0.00000000  0.07453898       0.005
   0.06771764  0.03909680  0.07453898       0.028
   0.13543529  0.07819360  0.07453898       0.028
   0.20315293  0.11729040  0.07453898       0.014
   0.06771764  0.11729040  0.07453898       0.028
   0.13543529  0.15638720  0.07453898       0.056
   0.13543529  0.23458080  0.07453898       0.009
 
 k-points in reciprocal lattice and weights: KPOINTS created by Atomic Simulation Env
   0.00000000  0.00000000  0.00000000       0.005
   0.16666667  0.00000000  0.00000000       0.028
   0.33333333  0.00000000  0.00000000       0.028
   0.50000000  0.00000000  0.00000000       0.014
   0.16666667  0.16666667  0.00000000       0.028
   0.33333333  0.16666667  0.00000000       0.056
   0.33333333  0.33333333  0.00000000       0.009
   0.00000000  0.00000000  0.16666667       0.009
   0.16666667  0.00000000  0.16666667       0.056
   0.33333333  0.00000000  0.16666667       0.056
   0.50000000  0.00000000  0.16666667       0.028
   0.16666667  0.16666667  0.16666667       0.056
   0.33333333  0.16666667  0.16666667       0.111
   0.33333333  0.33333333  0.16666667       0.019
   0.00000000  0.00000000  0.33333333       0.009
   0.16666667  0.00000000  0.33333333       0.056
   0.33333333  0.00000000  0.33333333       0.056
   0.50000000  0.00000000  0.33333333       0.028
   0.16666667  0.16666667  0.33333333       0.056
   0.33333333  0.16666667  0.33333333       0.111
   0.33333333  0.33333333  0.33333333       0.019
   0.00000000  0.00000000  0.50000000       0.005
   0.16666667  0.00000000  0.50000000       0.028
   0.33333333  0.00000000  0.50000000       0.028
   0.50000000  0.00000000  0.50000000       0.014
   0.16666667  0.16666667  0.50000000       0.028
   0.33333333  0.16666667  0.50000000       0.056
   0.33333333  0.33333333  0.50000000       0.009
 
 position of ions in fractional coordinates (direct lattice) 
   0.00000000  0.00000000  0.00000000
   0.33333333  0.66666667  0.00000000
   0.33333333  0.66666667  0.50000000
   0.66666667  0.33333333  0.50000000
 
 position of ions in cartesian coordinates  (Angst):
   0.00000000  0.00000000  0.00000000
   0.00000000  1.42097448  0.00000000
   0.00000000  1.42097448  3.35395000
   1.23060000  0.71048724  3.35395000
 


--------------------------------------------------------------------------------------------------------


 k-point  1 :  0.00000.00000.0000  plane waves:     883
 k-point  2 :  0.16670.00000.0000  plane waves:     906
 k-point  3 :  0.33330.00000.0000  plane waves:     902
 k-point  4 :  0.50000.00000.0000  plane waves:     880
 k-point  5 :  0.16670.16670.0000  plane waves:     895
 k-point  6 :  0.33330.16670.0000  plane waves:     887
 k-point  7 :  0.33330.33330.0000  plane waves:     894
 k-point  8 :  0.00000.00000.1667  plane waves:     901
 k-point  9 :  0.16670.00000.1667  plane waves:     906
 k-point 10 :  0.33330.00000.1667  plane waves:     890
 k-point 11 :  0.50000.00000.1667  plane waves:     886
 k-point 12 :  0.16670.16670.1667  plane waves:     902
 k-point 13 :  0.33330.16670.1667  plane waves:     882
 k-point 14 :  0.33330.33330.1667  plane waves:     900
 k-point 15 :  0.00000.00000.3333  plane waves:     912
 k-point 16 :  0.16670.00000.3333  plane waves:     906
 k-point 17 :  0.33330.00000.3333  plane waves:     897
 k-point 18 :  0.50000.00000.3333  plane waves:     874
 k-point 19 :  0.16670.16670.3333  plane waves:     900
 k-point 20 :  0.33330.16670.3333  plane waves:     882
 k-point 21 :  0.33330.33330.3333  plane waves:     882
 k-point 22 :  0.00000.00000.5000  plane waves:     924
 k-point 23 :  0.16670.00000.5000  plane waves:     908
 k-point 24 :  0.33330.00000.5000  plane waves:     898
 k-point 25 :  0.50000.00000.5000  plane waves:     880
 k-point 26 :  0.16670.16670.5000  plane waves:     894
 k-point 27 :  0.33330.16670.5000  plane waves:     884
 k-point 28 :  0.33330.33330.5000  plane waves:     888

 maximum and minimum number of plane-waves per node :       924      874

 maximum number of plane-waves:       924
 maximum index in each direction: 
   IXMAX=    4   IYMAX=    4   IZMAX=   12
   IXMIN=   -4   IYMIN=   -4   IZMIN=  -12

 NGX is ok and might be reduce to  18
 NGY is ok and might be reduce to  18
 NGZ is ok and might be reduce to  50

 serial   3D FFT for wavefunctions
 parallel 3D FFT for charge:
    minimum data exchange during FFTs selected (reduces bandwidth)


 total amount of memory used by VASP on root node    59004. kBytes
========================================================================

   base      :      30000. kBytes
   nonl-proj :       1714. kBytes
   fftplans  :       4492. kBytes
   grid      :      10782. kBytes
   one-center:         24. kBytes
   wavefun   :      11992. kBytes
 
 Broyden mixing: mesh for mixing (old mesh)
   NGX =  9   NGY =  9   NGZ = 25
  (NGX  = 36   NGY  = 36   NGZ  =100)
  gives a total of   2025 points

 initial charge density was supplied:
 charge density of overlapping atoms calculated
 number of electron      16.0000000 magnetization       4.0000000
 keeping initial charge density in first step


--------------------------------------------------------------------------------------------------------


 Maximum index for augmentation-charges         5259 (set IRDMAX)


--------------------------------------------------------------------------------------------------------


 First call to EWALD:  gamma=   0.541
 Maximum number of real-space cells 4x 4x 2
 Maximum number of reciprocal cells 2x 2x 5

    FEWALD:  cpu time    0.00: real time    0.00


----------------------------------------- Iteration    1(   1)  ---------------------------------------


    POTLOK:  cpu time    0.42: real time    0.42
    SETDIJ:  cpu time    0.05: real time    0.05
     EDDAV:  cpu time    5.10: real time    5.10
       DOS:  cpu time    0.01: real time    0.01
    --------------------------------------------
      LOOP:  cpu time    5.57: real time    5.57

 eigenvalue-minimisations  :  1568
 total energy-change (2. order) : 0.3646099E+02  (-0.7983611E+03)
 number of electron      16.0000000 magnetization       4.0000000
 augmentation part       16.0000000 magnetization       4.0000000

 Free energy of the ion-electron system (eV)
  ---------------------------------------------------
  alpha Z        PSCENC =        37.04766603
  Ewald energy   TEWEN  =      -460.60042082
  -1/2 Hartree   DENC   =      -148.78490797
  -exchange  EXHF       =         0.00000000
  -V(xc)+E(xc)   XCENC  =        56.10990959
  PAW double counting   =       150.95130483     -155.51722924
  entropy T*S    EENTRO =        -0.00058860
  eigenvalues    EBANDS =       -31.33843019
  atomic energy  EATOM  =       588.59368669
  ---------------------------------------------------
  free energy    TOTEN  =        36.46099033 eV

  energy without entropy =       36.46157893  energy(sigma->0) =       36.46118653


--------------------------------------------------------------------------------------------------------




----------------------------------------- Iteration    1(   2)  ---------------------------------------


     EDDAV:  cpu time    6.62: real time    6.63
       DOS:  cpu time    0.00: real time    0.01
    --------------------------------------------
      LOOP:  cpu time    6.63: real time    6.64

 eigenvalue-minimisations  :  2238
 total energy-change (2. order) :-0.7105050E+02  (-0.6409303E+02)
 number of electron      16.0000000 magnetization       4.0000000
 augmentation part       16.0000000 magnetization       4.0000000

 Free energy of the ion-electron system (eV)
  ---------------------------------------------------
  alpha Z        PSCENC =        37.04766603
  Ewald energy   TEWEN  =      -460.60042082
  -1/2 Hartree   DENC   =      -148.78490797
  -exchange  EXHF       =         0.00000000
  -V(xc)+E(xc)   XCENC  =        56.10990959
  PAW double counting   =       150.95130483     -155.51722924
  entropy T*S    EENTRO =         0.00001342
  eigenvalues    EBANDS =      -102.38953047
  atomic energy  EATOM  =       588.59368669
  ---------------------------------------------------
  free energy    TOTEN  =       -34.58950794 eV

  energy without entropy =      -34.58952136  energy(sigma->0) =      -34.58951241


--------------------------------------------------------------------------------------------------------




----------------------------------------- Iteration    1(   3)  ---------------------------------------


     EDDAV:  cpu time    6.39: real time    6.39
       DOS:  cpu time    0.00: real time    0.01
    --------------------------------------------
      LOOP:  cpu time    6.39: real time    6.41

 eigenvalue-minimisations  :  2126
 total energy-change (2. order) :-0.3016253E+01  (-0.2995660E+01)
 number of electron      16.0000000 magnetization       4.0000000
 augmentation part       16.0000000 magnetization       4.0000000

 Free energy of the ion-electron system (eV)
  ---------------------------------------------------
  alpha Z        PSCENC =        37.04766603
  Ewald energy   TEWEN  =      -460.60042082
  -1/2 Hartree   DENC   =      -148.78490797
  -exchange  EXHF       =         0.00000000
  -V(xc)+E(xc)   XCENC  =        56.10990959
  PAW double counting   =       150.95130483     -155.51722924
  entropy T*S    EENTRO =         0.00001804
  eigenvalues    EBANDS =      -105.40578771
  atomic energy  EATOM  =       588.59368669
  ---------------------------------------------------
  free energy    TOTEN  =       -37.60576056 eV

  energy without entropy =      -37.60577860  energy(sigma->0) =      -37.60576657


--------------------------------------------------------------------------------------------------------




----------------------------------------- Iteration    1(   4)  ---------------------------------------


     EDDAV:  cpu time    5.91: real time    5.92
       DOS:  cpu time    0.00: real time    0.00
    --------------------------------------------
      LOOP:  cpu time    5.92: real time    6.48

 eigenvalue-minimisations  :  1924
 total energy-change (2. order) :-0.2831969E-01  (-0.2831160E-01)
 number of electron      16.0000000 magnetization       4.0000000
 augmentation part       16.0000000 magnetization       4.0000000

 Free energy of the ion-electron system (eV)
  ---------------------------------------------------
  alpha Z        PSCENC =        37.04766603
  Ewald energy   TEWEN  =      -460.60042082
  -1/2 Hartree   DENC   =      -148.78490797
  -exchange  EXHF       =         0.00000000
  -V(xc)+E(xc)   XCENC  =        56.10990959
  PAW double counting   =       150.95130483     -155.51722924
  entropy T*S    EENTRO =         0.00001805
  eigenvalues    EBANDS =      -105.43410741
  atomic energy  EATOM  =       588.59368669
  ---------------------------------------------------
  free energy    TOTEN  =       -37.63408025 eV

  energy without entropy =      -37.63409830  energy(sigma->0) =      -37.63408626


--------------------------------------------------------------------------------------------------------




----------------------------------------- Iteration    1(   5)  ---------------------------------------


     EDDAV:  cpu time    6.28: real time    6.28
       DOS:  cpu time    0.00: real time    0.00
    CHARGE:  cpu time    0.46: real time    0.46
    MIXING:  cpu time    0.01: real time    0.01
    --------------------------------------------
      LOOP:  cpu time    6.75: real time    6.77

 eigenvalue-minimisations  :  2080
 total energy-change (2. order) :-0.5368542E-03  (-0.5367787E-03)
 number of electron      15.9999994 magnetization       1.1751765
 augmentation part        0.4287338 magnetization       0.9688918

 Broyden mixing:
  rms(total) = 0.11970E+01    rms(broyden)= 0.11969E+01
  rms(prec ) = 0.15553E+01
  weight for this iteration     100.00

 Free energy of the ion-electron system (eV)
  ---------------------------------------------------
  alpha Z        PSCENC =        37.04766603
  Ewald energy   TEWEN  =      -460.60042082
  -1/2 Hartree   DENC   =      -148.78490797
  -exchange  EXHF       =         0.00000000
  -V(xc)+E(xc)   XCENC  =        56.10990959
  PAW double counting   =       150.95130483     -155.51722924
  entropy T*S    EENTRO =         0.00001805
  eigenvalues    EBANDS =      -105.43464427
  atomic energy  EATOM  =       588.59368669
  ---------------------------------------------------
  free energy    TOTEN  =       -37.63461710 eV

  energy without entropy =      -37.63463515  energy(sigma->0) =      -37.63462312


--------------------------------------------------------------------------------------------------------




----------------------------------------- Iteration    1(   6)  ---------------------------------------


    POTLOK:  cpu time    0.46: real time    0.46
    SETDIJ:  cpu time    0.05: real time    0.05
     EDDAV:  cpu time    5.74: real time    5.76
       DOS:  cpu time    0.00: real time    0.01
    CHARGE:  cpu time    0.47: real time    0.47
    MIXING:  cpu time    0.01: real time    0.01
    --------------------------------------------
      LOOP:  cpu time    6.74: real time    6.77

 eigenvalue-minimisations  :  1748
 total energy-change (2. order) : 0.7472022E+00  (-0.2127401E+00)
 number of electron      15.9999994 magnetization       0.1533065
 augmentation part        0.4088823 magnetization       0.0268710

 Broyden mixing:
  rms(total) = 0.47510E+00    rms(broyden)= 0.47509E+00
  rms(prec ) = 0.69416E+00
  weight for this iteration     100.00

 eigenvalues of (default mixing * dielectric matrix)
  average eigenvalue GAMMA=   0.9668
  0.9668

 Free energy of the ion-electron system (eV)
  ---------------------------------------------------
  alpha Z        PSCENC =        37.04766603
  Ewald energy   TEWEN  =      -460.60042082
  -1/2 Hartree   DENC   =      -165.36207560
  -exchange  EXHF       =         0.00000000
  -V(xc)+E(xc)   XCENC  =        56.79290042
  PAW double counting   =       205.86680097     -210.83841129
  entropy T*S    EENTRO =         0.00010438
  eigenvalues    EBANDS =       -88.38766569
  atomic energy  EATOM  =       588.59368669
  ---------------------------------------------------
  free energy    TOTEN  =       -36.88741491 eV

  energy without entropy =      -36.88751929  energy(sigma->0) =      -36.88744970


--------------------------------------------------------------------------------------------------------




----------------------------------------- Iteration    1(   7)  ---------------------------------------


    POTLOK:  cpu time    0.45: real time    0.46
    SETDIJ:  cpu time    0.05: real time    0.05
     EDDAV:  cpu time    5.88: real time    5.88
       DOS:  cpu time    0.00: real time    0.01
    CHARGE:  cpu time    0.47: real time    0.47
    MIXING:  cpu time    0.01: real time    0.01
    --------------------------------------------
      LOOP:  cpu time    6.87: real time    6.88

 eigenvalue-minimisations  :  1814
 total energy-change (2. order) : 0.9940379E-01  (-0.1198076E+00)
 number of electron      15.9999994 magnetization      -0.0540957
 augmentation part        0.3949777 magnetization      -0.1464033

 Broyden mixing:
  rms(total) = 0.18566E+00    rms(broyden)= 0.18565E+00
  rms(prec ) = 0.26309E+00
  weight for this iteration     100.00

 eigenvalues of (default mixing * dielectric matrix)
  average eigenvalue GAMMA=   1.2022
  0.8306  1.5738

 Free energy of the ion-electron system (eV)
  ---------------------------------------------------
  alpha Z        PSCENC =        37.04766603
  Ewald energy   TEWEN  =      -460.60042082
  -1/2 Hartree   DENC   =      -176.94787836
  -exchange  EXHF       =         0.00000000
  -V(xc)+E(xc)   XCENC  =        57.26151672
  PAW double counting   =       248.89505878     -254.06551750
  entropy T*S    EENTRO =         0.00029724
  eigenvalues    EBANDS =       -76.97241989
  atomic energy  EATOM  =       588.59368669
  ---------------------------------------------------
  free energy    TOTEN  =       -36.78801111 eV

  energy without entropy =      -36.78830835  energy(sigma->0) =      -36.78811019


--------------------------------------------------------------------------------------------------------




----------------------------------------- Iteration    1(   8)  ---------------------------------------


    POTLOK:  cpu time    0.46: real time    0.47
    SETDIJ:  cpu time    0.05: real time    0.05
     EDDAV:  cpu time    5.97: real time    5.98
       DOS:  cpu time    0.00: real time    0.01
    CHARGE:  cpu time    0.47: real time    0.47
    MIXING:  cpu time    0.01: real time    0.01
    --------------------------------------------
      LOOP:  cpu time    6.97: real time    7.00

 eigenvalue-minimisations  :  1844
 total energy-change (2. order) : 0.4922407E-01  (-0.2355268E-01)
 number of electron      15.9999994 magnetization       0.0636412
 augmentation part        0.3877201 magnetization      -0.0228948

 Broyden mixing:
  rms(total) = 0.64924E-01    rms(broyden)= 0.64908E-01
  rms(prec ) = 0.77393E-01
  weight for this iteration     100.00

 eigenvalues of (default mixing * dielectric matrix)
  average eigenvalue GAMMA=   1.1890
  1.8141  0.9849  0.7680

 Free energy of the ion-electron system (eV)
  ---------------------------------------------------
  alpha Z        PSCENC =        37.04766603
  Ewald energy   TEWEN  =      -460.60042082
  -1/2 Hartree   DENC   =      -182.77977145
  -exchange  EXHF       =         0.00000000
  -V(xc)+E(xc)   XCENC  =        57.64829102
  PAW double counting   =       272.89282759     -278.13164815
  entropy T*S    EENTRO =         0.00010638
  eigenvalues    EBANDS =       -71.40952433
  atomic energy  EATOM  =       588.59368669
  ---------------------------------------------------
  free energy    TOTEN  =       -36.73878704 eV

  energy without entropy =      -36.73889342  energy(sigma->0) =      -36.73882250


--------------------------------------------------------------------------------------------------------




----------------------------------------- Iteration    1(   9)  ---------------------------------------


    POTLOK:  cpu time    0.45: real time    0.45
    SETDIJ:  cpu time    0.05: real time    0.05
     EDDAV:  cpu time    5.74: real time    5.74
       DOS:  cpu time    0.00: real time    0.01
    CHARGE:  cpu time    0.47: real time    0.47
    MIXING:  cpu time    0.01: real time    0.01
    --------------------------------------------
      LOOP:  cpu time    6.72: real time    6.74

 eigenvalue-minimisations  :  1754
 total energy-change (2. order) :-0.1191832E-01  (-0.1902966E-02)
 number of electron      15.9999994 magnetization       0.1179596
 augmentation part        0.3863954 magnetization       0.0249190

 Broyden mixing:
  rms(total) = 0.32438E-01    rms(broyden)= 0.32435E-01
  rms(prec ) = 0.38807E-01
  weight for this iteration     100.00

 eigenvalues of (default mixing * dielectric matrix)
  average eigenvalue GAMMA=   1.2742
  2.1303  1.4042  0.8812  0.6810

 Free energy of the ion-electron system (eV)
  ---------------------------------------------------
  alpha Z        PSCENC =        37.04766603
  Ewald energy   TEWEN  =      -460.60042082
  -1/2 Hartree   DENC   =      -183.48104838
  -exchange  EXHF       =         0.00000000
  -V(xc)+E(xc)   XCENC  =        57.68904275
  PAW double counting   =       277.26730103     -282.48528597
  entropy T*S    EENTRO =         0.00022573
  eigenvalues    EBANDS =       -70.78187242
  atomic energy  EATOM  =       588.59368669
  ---------------------------------------------------
  free energy    TOTEN  =       -36.75070536 eV

  energy without entropy =      -36.75093109  energy(sigma->0) =      -36.75078061


--------------------------------------------------------------------------------------------------------




----------------------------------------- Iteration    1(  10)  ---------------------------------------


    POTLOK:  cpu time    0.45: real time    0.45
    SETDIJ:  cpu time    0.05: real time    0.05
     EDDAV:  cpu time    6.25: real time    6.26
       DOS:  cpu time    0.01: real time    0.01
    CHARGE:  cpu time    0.48: real time    0.48
    MIXING:  cpu time    0.01: real time    0.01
    --------------------------------------------
      LOOP:  cpu time    7.25: real time    7.28

 eigenvalue-minimisations  :  1964
 total energy-change (2. order) :-0.5069487E-03  (-0.1739788E-03)
 number of electron      15.9999994 magnetization       0.1015379
 augmentation part        0.3863393 magnetization       0.0143506

 Broyden mixing:
  rms(total) = 0.12419E-01    rms(broyden)= 0.12419E-01
  rms(prec ) = 0.15226E-01
  weight for this iteration     100.00

 eigenvalues of (default mixing * dielectric matrix)
  average eigenvalue GAMMA=   1.2539
  2.3162  1.5107  0.9859  0.8077  0.6489

 Free energy of the ion-electron system (eV)
  ---------------------------------------------------
  alpha Z        PSCENC =        37.04766603
  Ewald energy   TEWEN  =      -460.60042082
  -1/2 Hartree   DENC   =      -183.71202346
  -exchange  EXHF       =         0.00000000
  -V(xc)+E(xc)   XCENC  =        57.70630968
  PAW double counting   =       279.26242494     -284.46018937
  entropy T*S    EENTRO =         0.00006816
  eigenvalues    EBANDS =       -70.58873417
  atomic energy  EATOM  =       588.59368669
  ---------------------------------------------------
  free energy    TOTEN  =       -36.75121231 eV

  energy without entropy =      -36.75128048  energy(sigma->0) =      -36.75123503


--------------------------------------------------------------------------------------------------------




----------------------------------------- Iteration    1(  11)  ---------------------------------------


    POTLOK:  cpu time    0.45: real time    0.45
    SETDIJ:  cpu time    0.05: real time    0.05
     EDDAV:  cpu time    5.78: real time    5.78
       DOS:  cpu time    0.00: real time    0.01
    CHARGE:  cpu time    0.46: real time    0.47
    MIXING:  cpu time    0.01: real time    0.01
    --------------------------------------------
      LOOP:  cpu time    6.76: real time    6.78

 eigenvalue-minimisations  :  1778
 total energy-change (2. order) :-0.2411601E-03  (-0.4381631E-04)
 number of electron      15.9999994 magnetization       0.0890669
 augmentation part        0.3863793 magnetization       0.0025678

 Broyden mixing:
  rms(total) = 0.47891E-02    rms(broyden)= 0.47889E-02
  rms(prec ) = 0.59912E-02
  weight for this iteration     100.00

 eigenvalues of (default mixing * dielectric matrix)
  average eigenvalue GAMMA=   1.3428
  2.4976  1.8643  1.4067  0.9046  0.7555  0.6281

 Free energy of the ion-electron system (eV)
  ---------------------------------------------------
  alpha Z        PSCENC =        37.04766603
  Ewald energy   TEWEN  =      -460.60042082
  -1/2 Hartree   DENC   =      -183.76495911
  -exchange  EXHF       =         0.00000000
  -V(xc)+E(xc)   XCENC  =        57.71053237
  PAW double counting   =       279.70293537     -284.89193517
  entropy T*S    EENTRO =         0.00012024
  eigenvalues    EBANDS =       -70.54907907
  atomic energy  EATOM  =       588.59368669
  ---------------------------------------------------
  free energy    TOTEN  =       -36.75145347 eV

  energy without entropy =      -36.75157371  energy(sigma->0) =      -36.75149355


--------------------------------------------------------------------------------------------------------




----------------------------------------- Iteration    1(  12)  ---------------------------------------


    POTLOK:  cpu time    0.46: real time    0.46
    SETDIJ:  cpu time    0.05: real time    0.05
     EDDAV:  cpu time    5.19: real time    5.20
       DOS:  cpu time    0.00: real time    0.00
    --------------------------------------------
      LOOP:  cpu time    5.70: real time    5.72

 eigenvalue-minimisations  :  1516
 total energy-change (2. order) :-0.9755095E-04  (-0.1201039E-04)
 number of electron      15.9999994 magnetization       0.0890669
 augmentation part        0.3863793 magnetization       0.0025678

 Free energy of the ion-electron system (eV)
  ---------------------------------------------------
  alpha Z        PSCENC =        37.04766603
  Ewald energy   TEWEN  =      -460.60042082
  -1/2 Hartree   DENC   =      -183.77936411
  -exchange  EXHF       =         0.00000000
  -V(xc)+E(xc)   XCENC  =        57.71195655
  PAW double counting   =       279.74435235     -284.92890535
  entropy T*S    EENTRO =         0.00012974
  eigenvalues    EBANDS =       -70.54065209
  atomic energy  EATOM  =       588.59368669
  ---------------------------------------------------
  free energy    TOTEN  =       -36.75155102 eV

  energy without entropy =      -36.75168076  energy(sigma->0) =      -36.75159427


--------------------------------------------------------------------------------------------------------




 average (electrostatic) potential at core
  the test charge radii are     0.6991
  (the norm of the test charge is              1.0000)
       1 -50.6488       2 -50.6733       3 -50.6733       4 -50.6488
 
 
 
 E-fermi :   4.7089     XC(G=0): -10.3217     alpha+bet :-11.4114


 spin component 1

 k-point   1 :       0.0000    0.0000    0.0000
  band No.  band energies     occupation 
      1     -14.9798      1.00000
      2     -14.6792      1.00000
      3      -3.8592      1.00000
      4      -1.8977      1.00000
      5       1.7105      1.00000
      6       1.7105      1.00000
      7       1.7287      1.00000
      8       1.7288      1.00000
      9       8.9728      0.00000
     10      13.0769      0.00000
     11      13.0769      0.00000
     12      13.1302      0.00000
     13      13.1302      0.00000
     14      15.3015      0.00000

 k-point   2 :       0.1667    0.0000    0.0000
  band No.  band energies     occupation 
      1     -14.3167      1.00000
      2     -14.0280      1.00000
      3      -3.0564      1.00000
      4      -1.1499      1.00000
      5      -0.6125      1.00000
      6      -0.5483      1.00000
      7       0.5618      1.00000
      8       0.6021      1.00000
      9       9.7767      0.00000
     10      13.0283      0.00000
     11      13.2130      0.00000
     12      13.8936      0.00000
     13      14.2669      0.00000
     14      15.6602      0.00000

 k-point   3 :       0.3333    0.0000    0.0000
  band No.  band energies     occupation 
      1     -12.3605      1.00000
      2     -12.1071      1.00000
      3      -4.9688      1.00000
      4      -4.8350      1.00000
      5      -1.0650      1.00000
      6      -1.0128      1.00000
      7      -0.7425      1.00000
      8       0.9383      1.00000
      9       9.2117      0.00000
     10      10.0962      0.00000
     11      12.0755      0.00000
     12      12.3637      0.00000
     13      12.7630      0.00000
     14      17.4344      0.00000

 k-point   4 :       0.5000    0.0000    0.0000
  band No.  band energies     occupation 
      1      -9.6202      1.00000
      2      -9.5160      1.00000
      3      -8.5570      1.00000
      4      -8.4794      1.00000
      5      -1.7042      1.00000
      6      -1.6491      1.00000
      7       1.9215      1.00000
      8       2.5603      1.00000
      9       6.2321      0.00000
     10       6.8377      0.00000
     11      11.9604      0.00000
     12      12.3568      0.00000
     13      16.0137      0.00000
     14      16.0995      0.00000

 k-point   5 :       0.1667    0.1667    0.0000
  band No.  band energies     occupation 
      1     -13.0068      1.00000
      2     -12.7417      1.00000
      3      -3.0537      1.00000
      4      -3.0000      1.00000
      5      -1.6958      1.00000
      6      -1.6567      1.00000
      7      -1.4889      1.00000
      8       0.2879      1.00000
      9      10.8450      0.00000
     10      11.3221      0.00000
     11      11.3934      0.00000
     12      14.6743      0.00000
     13      14.9152      0.00000
     14      16.2794      0.00000

 k-point   6 :       0.3333    0.1667    0.0000
  band No.  band energies     occupation 
      1     -10.4868      1.00000
      2     -10.2703      1.00000
      3      -6.7549      1.00000
      4      -6.6078      1.00000
      5      -3.3613      1.00000
      6      -3.2706      1.00000
      7       1.3755      1.00000
      8       2.6950      1.00000
      9       6.8814      0.00000
     10       7.6136      0.00000
     11      14.4291      0.00000
     12      14.6030      0.00000
     13      15.1180      0.00000
     14      17.1369      0.00000

 k-point   7 :       0.3333    0.3333    0.0000
  band No.  band energies     occupation 
      1      -7.9414      1.00000
      2      -7.9022      1.00000
      3      -7.9022      1.00000
      4      -7.7521      1.00000
      5      -5.8408      1.00000
      6      -5.8408      1.00000
      7       4.1364      1.00000
      8       4.5577      1.00008
      9       4.5577      1.00008
     10       5.4901      0.00000
     11      15.8379      0.00000
     12      15.8379      0.00000
     13      16.9884      0.00000
     14      17.2339      0.00000

 k-point   8 :       0.0000    0.0000    0.1667
  band No.  band energies     occupation 
      1     -14.9609      1.00000
      2     -14.7008      1.00000
      3      -3.7480      1.00000
      4      -2.0584      1.00000
      5       1.7117      1.00000
      6       1.7117      1.00000
      7       1.7275      1.00000
      8       1.7275      1.00000
      9       9.3116      0.00000
     10      13.0801      0.00000
     11      13.0801      0.00000
     12      13.1264      0.00000
     13      13.1264      0.00000
     14      14.5920      0.00000

 k-point   9 :       0.1667    0.0000    0.1667
  band No.  band energies     occupation 
      1     -14.2984      1.00000
      2     -14.0485      1.00000
      3      -2.9480      1.00000
      4      -1.3053      1.00000
      5      -0.6082      1.00000
      6      -0.5526      1.00000
      7       0.5645      1.00000
      8       0.5994      1.00000
      9      10.1034      0.00000
     10      13.0300      0.00000
     11      13.1996      0.00000
     12      13.9239      0.00000
     13      14.2363      0.00000
     14      15.2628      0.00000

 k-point  10 :       0.3333    0.0000    0.1667
  band No.  band energies     occupation 
      1     -12.3443      1.00000
      2     -12.1250      1.00000
      3      -4.9600      1.00000
      4      -4.8442      1.00000
      5      -1.0615      1.00000
      6      -1.0163      1.00000
      7      -0.6447      1.00000
      8       0.8057      1.00000
      9       9.2526      0.00000
     10      10.0231      0.00000
     11      12.2520      0.00000
     12      12.4237      0.00000
     13      12.8384      0.00000
     14      16.9748      0.00000

 k-point  11 :       0.5000    0.0000    0.1667
  band No.  band energies     occupation 
      1      -9.6119      1.00000
      2      -9.5214      1.00000
      3      -8.5544      1.00000
      4      -8.4870      1.00000
      5      -1.7006      1.00000
      6      -1.6528      1.00000
      7       1.9780      1.00000
      8       2.5379      1.00000
      9       6.2189      0.00000
     10       6.7503      0.00000
     11      11.9857      0.00000
     12      12.3292      0.00000
     13      16.2722      0.00000
     14      16.2830      0.00000

 k-point  12 :       0.1667    0.1667    0.1667
  band No.  band energies     occupation 
      1     -12.9900      1.00000
      2     -12.7604      1.00000
      3      -3.0499      1.00000
      4      -3.0035      1.00000
      5      -1.6936      1.00000
      6      -1.6597      1.00000
      7      -1.3868      1.00000
      8       0.1452      1.00000
      9      10.8754      0.00000
     10      11.2797      0.00000
     11      11.7012      0.00000
     12      14.6760      0.00000
     13      14.9157      0.00000
     14      16.2719      0.00000

 k-point  13 :       0.3333    0.1667    0.1667
  band No.  band energies     occupation 
      1     -10.4728      1.00000
      2     -10.2854      1.00000
      3      -6.7454      1.00000
      4      -6.6180      1.00000
      5      -3.3554      1.00000
      6      -3.2769      1.00000
      7       1.4575      1.00000
      8       2.6003      1.00000
      9       6.9159      0.00000
     10       7.5538      0.00000
     11      14.5334      0.00000
     12      14.6651      0.00000
     13      15.1250      0.00000
     14      16.8513      0.00000

 k-point  14 :       0.3333    0.3333    0.1667
  band No.  band energies     occupation 
      1      -7.9292      1.00000
      2      -7.9016      1.00000
      3      -7.9016      1.00000
      4      -7.7653      1.00000
      5      -5.8420      1.00000
      6      -5.8420      1.00000
      7       4.2166      1.00000
      8       4.5658      1.00020
      9       4.5658      1.00020
     10       5.3859      0.00000
     11      15.4814      0.00000
     12      15.4814      0.00000
     13      17.1909      0.00000
     14      17.7540      0.00000

 k-point  15 :       0.0000    0.0000    0.3333
  band No.  band energies     occupation 
      1     -14.9084      1.00000
      2     -14.7584      1.00000
      3      -3.4337      1.00000
      4      -2.4682      1.00000
      5       1.7150      1.00000
      6       1.7151      1.00000
      7       1.7241      1.00000
      8       1.7242      1.00000
      9      10.2493      0.00000
     10      13.0894      0.00000
     11      13.0894      0.00000
     12      13.1162      0.00000
     13      13.1163      0.00000
     14      13.1651      0.00000

 k-point  16 :       0.1667    0.0000    0.3333
  band No.  band energies     occupation 
      1     -14.2478      1.00000
      2     -14.1037      1.00000
      3      -2.6415      1.00000
      4      -1.7024      1.00000
      5      -0.5965      1.00000
      6      -0.5644      1.00000
      7       0.5718      1.00000
      8       0.5920      1.00000
      9      11.0043      0.00000
     10      13.0101      0.00000
     11      13.1688      0.00000
     12      13.8544      0.00000
     13      14.0135      0.00000
     14      14.2618      0.00000

 k-point  17 :       0.3333    0.0000    0.3333
  band No.  band energies     occupation 
      1     -12.2996      1.00000
      2     -12.1731      1.00000
      3      -4.9361      1.00000
      4      -4.8692      1.00000
      5      -1.0520      1.00000
      6      -1.0259      1.00000
      7      -0.3692      1.00000
      8       0.4623      1.00000
      9       9.3832      0.00000
     10       9.8319      0.00000
     11      12.3851      0.00000
     12      12.5140      0.00000
     13      13.4588      0.00000
     14      15.8844      0.00000

 k-point  18 :       0.5000    0.0000    0.3333
  band No.  band energies     occupation 
      1      -9.5901      1.00000
      2      -9.5375      1.00000
      3      -8.5453      1.00000
      4      -8.5060      1.00000
      5      -1.6905      1.00000
      6      -1.6630      1.00000
      7       2.1262      1.00000
      8       2.4575      1.00000
      9       6.2284      0.00000
     10       6.5433      0.00000
     11      12.0556      0.00000
     12      12.2541      0.00000
     13      16.7611      0.00000
     14      16.9371      0.00000

 k-point  19 :       0.1667    0.1667    0.3333
  band No.  band energies     occupation 
      1     -12.9433      1.00000
      2     -12.8109      1.00000
      3      -3.0398      1.00000
      4      -3.0130      1.00000
      5      -1.6872      1.00000
      6      -1.6676      1.00000
      7      -1.0985      1.00000
      8      -0.2215      1.00000
      9      10.9596      0.00000
     10      11.1919      0.00000
     11      12.5203      0.00000
     12      14.5816      0.00000
     13      14.9120      0.00000
     14      15.2468      0.00000

 k-point  20 :       0.3333    0.1667    0.3333
  band No.  band energies     occupation 
      1     -10.4344      1.00000
      2     -10.3263      1.00000
      3      -6.7191      1.00000
      4      -6.6456      1.00000
      5      -3.3392      1.00000
      6      -3.2939      1.00000
      7       1.6861      1.00000
      8       2.3456      1.00000
      9       7.0242      0.00000
     10       7.3966      0.00000
     11      14.6321      0.00000
     12      14.7832      0.00000
     13      15.3467      0.00000
     14      16.3754      0.00000

 k-point  21 :       0.3333    0.3333    0.3333
  band No.  band energies     occupation 
      1      -7.9005      1.00000
      2      -7.9005      1.00000
      3      -7.8954      1.00000
      4      -7.8008      1.00000
      5      -5.8444      1.00000
      6      -5.8444      1.00000
      7       4.4419      1.00000
      8       4.5822      1.00099
      9       4.5822      1.00099
     10       5.1136      0.00000
     11      15.0396      0.00000
     12      15.0396      0.00000
     13      17.7339      0.00000
     14      18.6566      0.00000

 k-point  22 :       0.0000    0.0000    0.5000
  band No.  band energies     occupation 
      1     -14.8347      1.00000
      2     -14.8347      1.00000
      3      -2.9739      1.00000
      4      -2.9739      1.00000
      5       1.7196      1.00000
      6       1.7196      1.00000
      7       1.7196      1.00000
      8       1.7196      1.00000
      9      11.6071      0.00000
     10      11.6071      0.00000
     11      13.1023      0.00000
     12      13.1023      0.00000
     13      13.1023      0.00000
     14      13.1023      0.00000

 k-point  23 :       0.1667    0.0000    0.5000
  band No.  band energies     occupation 
      1     -14.1769      1.00000
      2     -14.1769      1.00000
      3      -2.1939      1.00000
      4      -2.1939      1.00000
      5      -0.5805      1.00000
      6      -0.5805      1.00000
      7       0.5819      1.00000
      8       0.5819      1.00000
      9      12.2733      0.00000
     10      12.2733      0.00000
     11      13.1760      0.00000
     12      13.1760      0.00000
     13      14.1149      0.00000
     14      14.1149      0.00000

 k-point  24 :       0.3333    0.0000    0.5000
  band No.  band energies     occupation 
      1     -12.2372      1.00000
      2     -12.2372      1.00000
      3      -4.9029      1.00000
      4      -4.9029      1.00000
      5      -1.0390      1.00000
      6      -1.0390      1.00000
      7       0.0300      1.00000
      8       0.0300      1.00000
      9       9.5935      0.00000
     10       9.5935      0.00000
     11      12.4658      0.00000
     12      12.4658      0.00000
     13      14.6018      0.00000
     14      14.6018      0.00000

 k-point  25 :       0.5000    0.0000    0.5000
  band No.  band energies     occupation 
      1      -9.5624      1.00000
      2      -9.5624      1.00000
      3      -8.5282      1.00000
      4      -8.5282      1.00000
      5      -1.6768      1.00000
      6      -1.6768      1.00000
      7       2.3086      1.00000
      8       2.3086      1.00000
      9       6.3374      0.00000
     10       6.3374      0.00000
     11      12.1534      0.00000
     12      12.1534      0.00000
     13      17.2775      0.00000
     14      17.2775      0.00000

 k-point  26 :       0.1667    0.1667    0.5000
  band No.  band energies     occupation 
      1     -12.8781      1.00000
      2     -12.8781      1.00000
      3      -3.0262      1.00000
      4      -3.0262      1.00000
      5      -1.6778      1.00000
      6      -1.6778      1.00000
      7      -0.6790      1.00000
      8      -0.6790      1.00000
      9      11.0753      0.00000
     10      11.0753      0.00000
     11      13.6619      0.00000
     12      13.6619      0.00000
     13      14.9148      0.00000
     14      14.9148      0.00000

 k-point  27 :       0.3333    0.1667    0.5000
  band No.  band energies     occupation 
      1     -10.3810      1.00000
      2     -10.3810      1.00000
      3      -6.6827      1.00000
      4      -6.6827      1.00000
      5      -3.3167      1.00000
      6      -3.3167      1.00000
      7       2.0092      1.00000
      8       2.0092      1.00000
      9       7.1987      0.00000
     10       7.1987      0.00000
     11      14.7222      0.00000
     12      14.7222      0.00000
     13      15.8535      0.00000
     14      15.8535      0.00000

 k-point  28 :       0.3333    0.3333    0.5000
  band No.  band energies     occupation 
      1      -7.9000      1.00000
      2      -7.9000      1.00000
      3      -7.8486      1.00000
      4      -7.8486      1.00000
      5      -5.8456      1.00000
      6      -5.8456      1.00000
      7       4.5903      1.00202
      8       4.5903      1.00202
      9       4.7661     -0.03438
     10       4.7661     -0.03438
     11      14.8723      0.00000
     12      14.8723      0.00000
     13      18.4448      0.00000
     14      18.4448      0.00000

 spin component 2

 k-point   1 :       0.0000    0.0000    0.0000
  band No.  band energies     occupation 
      1     -14.9497      1.00000
      2     -14.6499      1.00000
      3      -3.7924      1.00000
      4      -1.8221      1.00000
      5       1.7225      1.00000
      6       1.7225      1.00000
      7       1.7410      1.00000
      8       1.7411      1.00000
      9       9.0076      0.00000
     10      13.0882      0.00000
     11      13.0882      0.00000
     12      13.1410      0.00000
     13      13.1410      0.00000
     14      15.2945      0.00000

 k-point   2 :       0.1667    0.0000    0.0000
  band No.  band energies     occupation 
      1     -14.2869      1.00000
      2     -13.9989      1.00000
      3      -2.9890      1.00000
      4      -1.0730      1.00000
      5      -0.5958      1.00000
      6      -0.5316      1.00000
      7       0.5738      1.00000
      8       0.6140      1.00000
      9       9.8113      0.00000
     10      13.0507      0.00000
     11      13.2304      0.00000
     12      13.9799      0.00000
     13      14.3800      0.00000
     14      15.6430      0.00000

 k-point   3 :       0.3333    0.0000    0.0000
  band No.  band energies     occupation 
      1     -12.3316      1.00000
      2     -12.0787      1.00000
      3      -4.9470      1.00000
      4      -4.8135      1.00000
      5      -1.0532      1.00000
      6      -1.0011      1.00000
      7      -0.6739      1.00000
      8       1.0214      1.00000
      9       9.2812      0.00000
     10      10.2005      0.00000
     11      12.1010      0.00000
     12      12.4129      0.00000
     13      12.7894      0.00000
     14      17.5076      0.00000

 k-point   4 :       0.5000    0.0000    0.0000
  band No.  band energies     occupation 
      1      -9.5954      1.00000
      2      -9.4760      1.00000
      3      -8.5445      1.00000
      4      -8.4536      1.00000
      5      -1.6925      1.00000
      6      -1.6376      1.00000
      7       1.9621      1.00000
      8       2.6950      1.00000
      9       6.2344      0.00000
     10       6.9774      0.00000
     11      11.9978      0.00000
     12      12.3937      0.00000
     13      16.0026      0.00000
     14      16.1822      0.00000

 k-point   5 :       0.1667    0.1667    0.0000
  band No.  band energies     occupation 
      1     -12.9777      1.00000
      2     -12.7131      1.00000
      3      -3.0332      1.00000
      4      -2.9777      1.00000
      5      -1.6840      1.00000
      6      -1.6437      1.00000
      7      -1.4205      1.00000
      8       0.3681      1.00000
      9      10.9305      0.00000
     10      11.4205      0.00000
     11      11.4276      0.00000
     12      14.7002      0.00000
     13      14.9251      0.00000
     14      16.3214      0.00000

 k-point   6 :       0.3333    0.1667    0.0000
  band No.  band energies     occupation 
      1     -10.4587      1.00000
      2     -10.2418      1.00000
      3      -6.7316      1.00000
      4      -6.5842      1.00000
      5      -3.3472      1.00000
      6      -3.2565      1.00000
      7       1.4406      1.00000
      8       2.7930      1.00000
      9       6.9475      0.00000
     10       7.7082      0.00000
     11      14.4429      0.00000
     12      14.6634      0.00000
     13      15.1425      0.00000
     14      17.2125      0.00000

 k-point   7 :       0.3333    0.3333    0.0000
  band No.  band energies     occupation 
      1      -7.9697      1.00000
      2      -7.8160      1.00000
      3      -7.8160      1.00000
      4      -7.7793      1.00000
      5      -5.8310      1.00000
      6      -5.8310      1.00000
      7       4.0278      1.00000
      8       4.8337     -0.00118
      9       4.8337     -0.00118
     10       5.3729      0.00000
     11      15.8873      0.00000
     12      15.8873      0.00000
     13      16.9397      0.00000
     14      17.3198      0.00000

 k-point   8 :       0.0000    0.0000    0.1667
  band No.  band energies     occupation 
      1     -14.9308      1.00000
      2     -14.6714      1.00000
      3      -3.6809      1.00000
      4      -1.9839      1.00000
      5       1.7237      1.00000
      6       1.7237      1.00000
      7       1.7397      1.00000
      8       1.7398      1.00000
      9       9.3479      0.00000
     10      13.0913      0.00000
     11      13.0913      0.00000
     12      13.1372      0.00000
     13      13.1372      0.00000
     14      14.6445      0.00000

 k-point   9 :       0.1667    0.0000    0.1667
  band No.  band energies     occupation 
      1     -14.2687      1.00000
      2     -14.0194      1.00000
      3      -2.8802      1.00000
      4      -1.2296      1.00000
      5      -0.5915      1.00000
      6      -0.5359      1.00000
      7       0.5764      1.00000
      8       0.6113      1.00000
      9      10.1397      0.00000
     10      13.0533      0.00000
     11      13.2173      0.00000
     12      14.0066      0.00000
     13      14.3508      0.00000
     14      15.3276      0.00000

 k-point  10 :       0.3333    0.0000    0.1667
  band No.  band energies     occupation 
      1     -12.3155      1.00000
      2     -12.0965      1.00000
      3      -4.9383      1.00000
      4      -4.8227      1.00000
      5      -1.0497      1.00000
      6      -1.0046      1.00000
      7      -0.5755      1.00000
      8       0.8871      1.00000
      9       9.3251      0.00000
     10      10.1245      0.00000
     11      12.2743      0.00000
     12      12.4757      0.00000
     13      12.8670      0.00000
     14      17.0423      0.00000

 k-point  11 :       0.5000    0.0000    0.1667
  band No.  band energies     occupation 
      1      -9.5863      1.00000
      2      -9.4826      1.00000
      3      -8.5409      1.00000
      4      -8.4618      1.00000
      5      -1.6888      1.00000
      6      -1.6413      1.00000
      7       2.0228      1.00000
      8       2.6648      1.00000
      9       6.2316      0.00000
     10       6.8821      0.00000
     11      12.0233      0.00000
     12      12.3665      0.00000
     13      16.2600      0.00000
     14      16.3688      0.00000

 k-point  12 :       0.1667    0.1667    0.1667
  band No.  band energies     occupation 
      1     -12.9609      1.00000
      2     -12.7318      1.00000
      3      -3.0294      1.00000
      4      -2.9813      1.00000
      5      -1.6817      1.00000
      6      -1.6468      1.00000
      7      -1.3179      1.00000
      8       0.2242      1.00000
      9      10.9621      0.00000
     10      11.3825      0.00000
     11      11.7316      0.00000
     12      14.7015      0.00000
     13      14.9272      0.00000
     14      16.3161      0.00000

 k-point  13 :       0.3333    0.1667    0.1667
  band No.  band energies     occupation 
      1     -10.4447      1.00000
      2     -10.2570      1.00000
      3      -6.7220      1.00000
      4      -6.5944      1.00000
      5      -3.3413      1.00000
      6      -3.2628      1.00000
      7       1.5240      1.00000
      8       2.6948      1.00000
      9       6.9849      0.00000
     10       7.6476      0.00000
     11      14.5507      0.00000
     12      14.7276      0.00000
     13      15.1479      0.00000
     14      16.9169      0.00000

 k-point  14 :       0.3333    0.3333    0.1667
  band No.  band energies     occupation 
      1      -7.9574      1.00000
      2      -7.8155      1.00000
      3      -7.8155      1.00000
      4      -7.7926      1.00000
      5      -5.8323      1.00000
      6      -5.8323      1.00000
      7       4.1076      1.00000
      8       4.8422     -0.00053
      9       4.8422     -0.00053
     10       5.2696      0.00000
     11      15.5350      0.00000
     12      15.5350      0.00000
     13      17.1425      0.00000
     14      17.8335      0.00000

 k-point  15 :       0.0000    0.0000    0.3333
  band No.  band energies     occupation 
      1     -14.8785      1.00000
      2     -14.7288      1.00000
      3      -3.3655      1.00000
      4      -2.3959      1.00000
      5       1.7271      1.00000
      6       1.7271      1.00000
      7       1.7363      1.00000
      8       1.7364      1.00000
      9      10.2894      0.00000
     10      13.1005      0.00000
     11      13.1005      0.00000
     12      13.1271      0.00000
     13      13.1271      0.00000
     14      13.2150      0.00000

 k-point  16 :       0.1667    0.0000    0.3333
  band No.  band energies     occupation 
      1     -14.2182      1.00000
      2     -14.0744      1.00000
      3      -2.5727      1.00000
      4      -1.6291      1.00000
      5      -0.5798      1.00000
      6      -0.5477      1.00000
      7       0.5838      1.00000
      8       0.6039      1.00000
      9      11.0453      0.00000
     10      13.0386      0.00000
     11      13.1866      0.00000
     12      13.8747      0.00000
     13      14.1535      0.00000
     14      14.3497      0.00000

 k-point  17 :       0.3333    0.0000    0.3333
  band No.  band energies     occupation 
      1     -12.2709      1.00000
      2     -12.1445      1.00000
      3      -4.9144      1.00000
      4      -4.8477      1.00000
      5      -1.0402      1.00000
      6      -1.0142      1.00000
      7      -0.2983      1.00000
      8       0.5401      1.00000
      9       9.4626      0.00000
     10       9.9268      0.00000
     11      12.4159      0.00000
     12      12.5520      0.00000
     13      13.4976      0.00000
     14      15.9406      0.00000

 k-point  18 :       0.5000    0.0000    0.3333
  band No.  band energies     occupation 
      1      -9.5620      1.00000
      2      -9.5018      1.00000
      3      -8.5290      1.00000
      4      -8.4830      1.00000
      5      -1.6788      1.00000
      6      -1.6514      1.00000
      7       2.1839      1.00000
      8       2.5632      1.00000
      9       6.2693      0.00000
     10       6.6529      0.00000
     11      12.0936      0.00000
     12      12.2920      0.00000
     13      16.8527      0.00000
     14      16.9293      0.00000

 k-point  19 :       0.1667    0.1667    0.3333
  band No.  band energies     occupation 
      1     -12.9143      1.00000
      2     -12.7821      1.00000
      3      -3.0189      1.00000
      4      -2.9911      1.00000
      5      -1.6750      1.00000
      6      -1.6549      1.00000
      7      -1.0282      1.00000
      8      -0.1455      1.00000
      9      11.0496      0.00000
     10      11.2919      0.00000
     11      12.5553      0.00000
     12      14.6119      0.00000
     13      14.9276      0.00000
     14      15.2968      0.00000

 k-point  20 :       0.3333    0.1667    0.3333
  band No.  band energies     occupation 
      1     -10.4062      1.00000
      2     -10.2979      1.00000
      3      -6.6957      1.00000
      4      -6.6220      1.00000
      5      -3.3251      1.00000
      6      -3.2798      1.00000
      7       1.7566      1.00000
      8       2.4319      1.00000
      9       7.1004      0.00000
     10       7.4872      0.00000
     11      14.6669      0.00000
     12      14.8329      0.00000
     13      15.3764      0.00000
     14      16.4330      0.00000

 k-point  21 :       0.3333    0.3333    0.3333
  band No.  band energies     occupation 
      1      -7.9236      1.00000
      2      -7.8284      1.00000
      3      -7.8143      1.00000
      4      -7.8143      1.00000
      5      -5.8347      1.00000
      6      -5.8347      1.00000
      7       4.3318      1.00000
      8       4.8594     -0.00009
      9       4.8594     -0.00009
     10       4.9993      0.00000
     11      15.0938      0.00000
     12      15.0938      0.00000
     13      17.6876      0.00000
     14      18.7331      0.00000

 k-point  22 :       0.0000    0.0000    0.5000
  band No.  band energies     occupation 
      1     -14.8049      1.00000
      2     -14.8049      1.00000
      3      -2.9040      1.00000
      4      -2.9040      1.00000
      5       1.7317      1.00000
      6       1.7317      1.00000
      7       1.7317      1.00000
      8       1.7317      1.00000
      9      11.6520      0.00000
     10      11.6520      0.00000
     11      13.1133      0.00000
     12      13.1133      0.00000
     13      13.1133      0.00000
     14      13.1133      0.00000

 k-point  23 :       0.1667    0.0000    0.5000
  band No.  band energies     occupation 
      1     -14.1474      1.00000
      2     -14.1474      1.00000
      3      -2.1231      1.00000
      4      -2.1231      1.00000
      5      -0.5638      1.00000
      6      -0.5638      1.00000
      7       0.5938      1.00000
      8       0.5938      1.00000
      9      12.3205      0.00000
     10      12.3205      0.00000
     11      13.1935      0.00000
     12      13.1935      0.00000
     13      14.2171      0.00000
     14      14.2171      0.00000

 k-point  24 :       0.3333    0.0000    0.5000
  band No.  band energies     occupation 
      1     -12.2086      1.00000
      2     -12.2086      1.00000
      3      -4.8813      1.00000
      4      -4.8813      1.00000
      5      -1.0273      1.00000
      6      -1.0273      1.00000
      7       0.1039      1.00000
      8       0.1039      1.00000
      9       9.6807      0.00000
     10       9.6807      0.00000
     11      12.5000      0.00000
     12      12.5000      0.00000
     13      14.6482      0.00000
     14      14.6482      0.00000

 k-point  25 :       0.5000    0.0000    0.5000
  band No.  band energies     occupation 
      1      -9.5307      1.00000
      2      -9.5307      1.00000
      3      -8.5083      1.00000
      4      -8.5083      1.00000
      5      -1.6651      1.00000
      6      -1.6651      1.00000
      7       2.3882      1.00000
      8       2.3882      1.00000
      9       6.4144      0.00000
     10       6.4144      0.00000
     11      12.1916      0.00000
     12      12.1916      0.00000
     13      17.3493      0.00000
     14      17.3493      0.00000

 k-point  26 :       0.1667    0.1667    0.5000
  band No.  band energies     occupation 
      1     -12.8492      1.00000
      2     -12.8492      1.00000
      3      -3.0049      1.00000
      4      -3.0049      1.00000
      5      -1.6653      1.00000
      6      -1.6653      1.00000
      7      -0.6062      1.00000
      8      -0.6062      1.00000
      9      11.1702      0.00000
     10      11.1702      0.00000
     11      13.7043      0.00000
     12      13.7043      0.00000
     13      14.9369      0.00000
     14      14.9369      0.00000

 k-point  27 :       0.3333    0.1667    0.5000
  band No.  band energies     occupation 
      1     -10.3527      1.00000
      2     -10.3527      1.00000
      3      -6.6592      1.00000
      4      -6.6592      1.00000
      5      -3.3026      1.00000
      6      -3.3026      1.00000
      7       2.0866      1.00000
      8       2.0866      1.00000
      9       7.2831      0.00000
     10       7.2831      0.00000
     11      14.7639      0.00000
     12      14.7639      0.00000
     13      15.8993      0.00000
     14      15.8993      0.00000

 k-point  28 :       0.3333    0.3333    0.5000
  band No.  band energies     occupation 
      1      -7.8765      1.00000
      2      -7.8765      1.00000
      3      -7.8138      1.00000
      4      -7.8138      1.00000
      5      -5.8359      1.00000
      6      -5.8359      1.00000
      7       4.6541      1.03235
      8       4.6541      1.03235
      9       4.8679     -0.00003
     10       4.8679     -0.00003
     11      14.9262      0.00000
     12      14.9262      0.00000
     13      18.4048      0.00000
     14      18.4048      0.00000


--------------------------------------------------------------------------------------------------------


 soft charge-density along one line, spin component           1
         0         1         2         3         4         5         6         7         8         9
 total charge-density along one line
 
 soft charge-density along one line, spin component           2
         0         1         2         3         4         5         6         7         8         9
 total charge-density along one line
 
 pseudopotential strength for first ion, spin component:           1
  9.779   0.005   0.000   0.000   0.000   0.000   0.000   0.000
  0.005  -0.002   0.000   0.000   0.000   0.000   0.000   0.000
  0.000   0.000  -3.940   0.000   0.000  -0.017   0.000   0.000
  0.000   0.000   0.000  -3.940   0.000   0.000  -0.014   0.000
  0.000   0.000   0.000   0.000  -3.940   0.000   0.000  -0.017
  0.000   0.000  -0.017   0.000   0.000  -0.763   0.000   0.000
  0.000   0.000   0.000  -0.014   0.000   0.000  -0.763   0.000
  0.000   0.000   0.000   0.000  -0.017   0.000   0.000  -0.763
 pseudopotential strength for first ion, spin component:           2
  9.761   0.005   0.000   0.000   0.000   0.000   0.000   0.000
  0.005  -0.002   0.000   0.000   0.000   0.000   0.000   0.000
  0.000   0.000  -3.940   0.000   0.000  -0.014   0.000   0.000
  0.000   0.000   0.000  -3.925   0.000   0.000  -0.010   0.000
  0.000   0.000   0.000   0.000  -3.940   0.000   0.000  -0.014
  0.000   0.000  -0.014   0.000   0.000  -0.763   0.000   0.000
  0.000   0.000   0.000  -0.010   0.000   0.000  -0.763   0.000
  0.000   0.000   0.000   0.000  -0.014   0.000   0.000  -0.763
 total augmentation occupancy for first ion, spin component:           1
  1.470  -1.138   0.000   0.000   0.000   0.000   0.000   0.000
 -1.138   1.084   0.000   0.000   0.000   0.000   0.000   0.000
  0.000   0.000   1.229   0.000   0.000   0.224   0.000   0.000
  0.000   0.000   0.000   0.939   0.000   0.000   0.102   0.000
  0.000   0.000   0.000   0.000   1.229   0.000   0.000   0.224
  0.000   0.000   0.224   0.000   0.000   0.047   0.000   0.000
  0.000   0.000   0.000   0.102   0.000   0.000   0.013   0.000
  0.000   0.000   0.000   0.000   0.224   0.000   0.000   0.047
 total augmentation occupancy for first ion, spin component:           2
  0.005  -0.002   0.000   0.000   0.000   0.000   0.000   0.000
 -0.002   0.000   0.000   0.000   0.000   0.000   0.000   0.000
  0.000   0.000   0.003   0.000   0.000   0.000   0.000   0.000
  0.000   0.000   0.000   0.091   0.000   0.000   0.001   0.000
  0.000   0.000   0.000   0.000   0.003   0.000   0.000   0.000
  0.000   0.000   0.000   0.000   0.000   0.000   0.000   0.000
  0.000   0.000   0.000   0.001   0.000   0.000   0.000   0.000
  0.000   0.000   0.000   0.000   0.000   0.000   0.000   0.000


------------------------ aborting loop because EDIFF is reached ----------------------------------------


 


 total charge     
 
# of ion     s       p       d       tot
----------------------------------------
  1        0.866   1.794   0.000   2.660
  2        0.866   1.791   0.000   2.657
  3        0.866   1.791   0.000   2.657
  4        0.866   1.794   0.000   2.660
------------------------------------------------
tot        3.464   7.171   0.000  10.635
 


 magnetization (x)
 
# of ion     s       p       d       tot
----------------------------------------
  1        0.003   0.046   0.000   0.049
  2       -0.002  -0.022   0.000  -0.024
  3       -0.002  -0.022   0.000  -0.024
  4        0.003   0.046   0.000   0.049
------------------------------------------------
tot        0.002   0.047   0.000   0.049
 
    CHARGE:  cpu time    0.47: real time    0.47
    FORLOC:  cpu time    0.01: real time    0.01
    FORNL :  cpu time    0.57: real time    0.57
    STRESS:  cpu time    0.73: real time    0.73
    FORHAR:  cpu time    0.06: real time    0.06
    MIXING:  cpu time    0.01: real time    0.01

  FORCE on cell =-STRESS in cart. coord.  units (eV):
  Direction    XX          YY          ZZ          XY          YZ          ZX
  --------------------------------------------------------------------------------------
  Alpha Z    37.04767    37.04767    37.04767
  Ewald      78.34827    78.34827  -617.29730     0.00000     0.00000     0.00000
  Hartree   161.33916   161.33916  -138.86757     0.00000     0.00000     0.00000
  E(xc)     -58.52455   -58.52455   -60.66188     0.00000     0.00000     0.00000
  Local    -442.50618  -442.50621   519.27068    -0.00002     0.00000     0.00000
  n-local   -13.84280   -14.58133   -12.97835    -0.64054     0.02351     0.02486
  augment    -1.56267    -1.56266    -1.43115     0.00002     0.00000     0.00000
  Kinetic   237.61483   244.23827   275.54988     5.22150    -0.30884    -0.34549
  Fock        0.00000     0.00000     0.00000     0.00000     0.00000     0.00000
  -------------------------------------------------------------------------------------
  Total       0.85618     0.85618     0.63198     0.00000     0.00000     0.00000
  in kB      38.98192    38.98192    28.77438     0.00000     0.00000     0.00000
  external pressure =       35.58 kB  Pullay stress =        0.00 kB


 VOLUME and BASIS-vectors are now :
 -----------------------------------------------------------------------------
  energy-cutoff  :      500.00
  volume of cell :       35.19
      direct lattice vectors                 reciprocal lattice vectors
     2.461200000  0.000000000  0.000000000     0.406305867  0.234580802  0.000000000
    -1.230600000  2.131461724  0.000000000     0.000000000  0.469161603  0.000000000
     0.000000000  0.000000000  6.707900000     0.000000000  0.000000000  0.149077953

  length of vectors
     2.461200000  2.461200000  6.707900000     0.469161603  0.469161603  0.149077953


 FORCES acting on ions
    electron-ion (+dipol)            ewald-force                    non-local-force                 convergence-correction
 -----------------------------------------------------------------------------------------------
   -.714E-06 0.412E-06 0.104E-13   0.624E-11 -.358E-11 -.182E-13   -.833E-16 0.000E+00 0.000E+00   -.201E-07 0.116E-07 -.113E-12
   0.712E-06 -.411E-06 -.884E-12   -.624E-11 0.358E-11 -.182E-13   -.139E-16 0.000E+00 0.000E+00   -.165E-07 0.955E-08 -.114E-12
   -.712E-06 0.411E-06 -.166E-13   -.126E-10 0.731E-11 0.182E-13   0.000E+00 0.000E+00 0.000E+00   0.165E-07 -.955E-08 0.108E-12
   0.714E-06 -.412E-06 -.293E-11   0.126E-10 -.731E-11 0.182E-13   0.694E-16 0.000E+00 0.000E+00   0.201E-07 -.116E-07 0.110E-12
 -----------------------------------------------------------------------------------------------
   0.115E-10 -.661E-11 -.382E-11   0.658E-14 -.737E-15 0.316E-29   -.278E-16 0.000E+00 0.000E+00   -.175E-14 0.847E-15 -.888E-14
 
 
 POSITION                                       TOTAL-FORCE (eV/Angst)
 -----------------------------------------------------------------------------------
      0.00000      0.00000      0.00000         0.000000      0.000000      0.000000
      0.00000      1.42097      0.00000         0.000000      0.000000      0.000000
      0.00000      1.42097      3.35395         0.000000      0.000000      0.000000
      1.23060      0.71049      3.35395         0.000000      0.000000      0.000000
 -----------------------------------------------------------------------------------
    total drift:                                0.000000      0.000000      0.000000


--------------------------------------------------------------------------------------------------------



  FREE ENERGIE OF THE ION-ELECTRON SYSTEM (eV)
  ---------------------------------------------------
  free  energy   TOTEN  =       -36.751551 eV

  energy  without entropy=      -36.751681  energy(sigma->0) =      -36.751594
 


--------------------------------------------------------------------------------------------------------


    POTLOK:  cpu time    0.50: real time    0.50


--------------------------------------------------------------------------------------------------------


 writing wavefunctions
     LOOP+:  cpu time   81.25: real time   82.12
    4ORBIT:  cpu time    0.00: real time    0.00
 


 total charge     
 
# of ion     s       p       d       tot
----------------------------------------
  1        0.866   1.794   0.000   2.660
  2        0.866   1.791   0.000   2.657
  3        0.866   1.791   0.000   2.657
  4        0.866   1.794   0.000   2.660
------------------------------------------------
tot        3.464   7.171   0.000  10.635
 


 magnetization (x)
 
# of ion     s       p       d       tot
----------------------------------------
  1        0.003   0.046   0.000   0.049
  2       -0.002  -0.022   0.000  -0.024
  3       -0.002  -0.022   0.000  -0.024
  4        0.003   0.046   0.000   0.049
------------------------------------------------
tot        0.002   0.047   0.000   0.049
 

 total amount of memory used by VASP on root node    59004. kBytes
========================================================================

   base      :      30000. kBytes
   nonl-proj :       1714. kBytes
   fftplans  :       4492. kBytes
   grid      :      10782. kBytes
   one-center:         24. kBytes
   wavefun   :      11992. kBytes
 
  
  
 General timing and accounting informations for this job:
 ========================================================
  
                  Total CPU time used (sec):       82.437
                            User time (sec):       82.109
                          System time (sec):        0.329
                         Elapsed time (sec):       83.509
  
                   Maximum memory used (kb):           0.
                   Average memory used (kb):           0.
  
                          Minor page faults:        41068
                          Major page faults:            0
                 Voluntary context switches:         1195
