<?xml version="1.0" encoding="ISO-8859-1"?>
<modeling>
 <generator>
  <i name="program" type="string">vasp </i>
  <i name="version" type="string">5.2.12  </i>
  <i name="subversion" type="string">11Nov11 complex                                                      parallel </i>
  <i name="platform" type="string">LinuxIFC </i>
  <i name="date" type="string">2012 10 17 </i>
  <i name="time" type="string">09:53:37 </i>
 </generator>
 <incar>
  <i type="int" name="ISTART">     0</i>
  <i type="string" name="PREC">accurate</i>
  <i type="int" name="ISPIN">     2</i>
  <i name="ENCUT">    500.00000000</i>
  <i type="int" name="NBANDS">    14</i>
  <i type="logical" name="LREAL"> F  </i>
  <i type="int" name="ISMEAR">     1</i>
  <i name="SIGMA">      0.05000000</i>
  <i type="logical" name="LORBIT"> F  </i>
 </incar>
 <kpoints>
  <generation param="Gamma">
   <v type="int" name="divisions">       6        6        6 </v>
   <v name="usershift">      0.00000000       0.00000000       0.00000000 </v>
   <v name="genvec1">      0.16666667       0.00000000       0.00000000 </v>
   <v name="genvec2">      0.00000000       0.16666667       0.00000000 </v>
   <v name="genvec3">      0.00000000       0.00000000       0.16666667 </v>
   <v name="shift">      0.00000000       0.00000000       0.00000000 </v>
  </generation>
  <varray name="kpointlist" >
   <v>       0.00000000       0.00000000       0.00000000 </v>
   <v>       0.16666667       0.00000000       0.00000000 </v>
   <v>       0.33333333       0.00000000       0.00000000 </v>
   <v>       0.50000000       0.00000000       0.00000000 </v>
   <v>       0.16666667       0.16666667       0.00000000 </v>
   <v>       0.33333333       0.16666667       0.00000000 </v>
   <v>       0.33333333       0.33333333       0.00000000 </v>
   <v>       0.00000000       0.00000000       0.16666667 </v>
   <v>       0.16666667       0.00000000       0.16666667 </v>
   <v>       0.33333333       0.00000000       0.16666667 </v>
   <v>       0.50000000       0.00000000       0.16666667 </v>
   <v>       0.16666667       0.16666667       0.16666667 </v>
   <v>       0.33333333       0.16666667       0.16666667 </v>
   <v>       0.33333333       0.33333333       0.16666667 </v>
   <v>       0.00000000       0.00000000       0.33333333 </v>
   <v>       0.16666667       0.00000000       0.33333333 </v>
   <v>       0.33333333       0.00000000       0.33333333 </v>
   <v>       0.50000000       0.00000000       0.33333333 </v>
   <v>       0.16666667       0.16666667       0.33333333 </v>
   <v>       0.33333333       0.16666667       0.33333333 </v>
   <v>       0.33333333       0.33333333       0.33333333 </v>
   <v>       0.00000000       0.00000000       0.50000000 </v>
   <v>       0.16666667       0.00000000       0.50000000 </v>
   <v>       0.33333333       0.00000000       0.50000000 </v>
   <v>       0.50000000       0.00000000       0.50000000 </v>
   <v>       0.16666667       0.16666667       0.50000000 </v>
   <v>       0.33333333       0.16666667       0.50000000 </v>
   <v>       0.33333333       0.33333333       0.50000000 </v>
  </varray>
  <varray name="weights" >
   <v>       0.00462963 </v>
   <v>       0.02777778 </v>
   <v>       0.02777778 </v>
   <v>       0.01388889 </v>
   <v>       0.02777778 </v>
   <v>       0.05555556 </v>
   <v>       0.00925926 </v>
   <v>       0.00925926 </v>
   <v>       0.05555556 </v>
   <v>       0.05555556 </v>
   <v>       0.02777778 </v>
   <v>       0.05555556 </v>
   <v>       0.11111111 </v>
   <v>       0.01851852 </v>
   <v>       0.00925926 </v>
   <v>       0.05555556 </v>
   <v>       0.05555556 </v>
   <v>       0.02777778 </v>
   <v>       0.05555556 </v>
   <v>       0.11111111 </v>
   <v>       0.01851852 </v>
   <v>       0.00462963 </v>
   <v>       0.02777778 </v>
   <v>       0.02777778 </v>
   <v>       0.01388889 </v>
   <v>       0.02777778 </v>
   <v>       0.05555556 </v>
   <v>       0.00925926 </v>
  </varray>
 </kpoints>
 <parameters>
  <separator name="general" >
   <i type="string" name="SYSTEM">unknown system</i>
   <i type="logical" name="LCOMPAT"> F  </i>
  </separator>
  <separator name="electronic" >
   <i type="string" name="PREC">accura</i>
   <i name="ENMAX">    500.00000000</i>
   <i name="ENAUG">    644.87300000</i>
   <i name="EDIFF">      0.00010000</i>
   <i type="int" name="IALGO">    38</i>
   <i type="int" name="IWAVPR">    10</i>
   <i type="int" name="NBANDS">    14</i>
   <i name="NELECT">     16.00000000</i>
   <i type="int" name="TURBO">     0</i>
   <i type="int" name="IRESTART">     0</i>
   <i type="int" name="NREBOOT">     0</i>
   <i type="int" name="NMIN">     0</i>
   <i name="EREF">      0.00000000</i>
   <separator name="electronic smearing" >
    <i type="int" name="ISMEAR">     1</i>
    <i name="SIGMA">      0.05000000</i>
    <i name="KSPACING">      0.50000000</i>
    <i type="logical" name="KGAMMA"> T  </i>
   </separator>
   <separator name="electronic projectors" >
    <i type="logical" name="LREAL"> F  </i>
    <v name="ROPT">      0.00000000</v>
    <i type="int" name="LMAXPAW">  -100</i>
    <i type="int" name="LMAXMIX">     2</i>
    <i type="logical" name="NLSPLINE"> F  </i>
   </separator>
   <separator name="electronic startup" >
    <i type="int" name="ISTART">     0</i>
    <i type="int" name="ICHARG">     2</i>
    <i type="int" name="INIWAV">     1</i>
   </separator>
   <separator name="electronic spin" >
    <i type="int" name="ISPIN">     2</i>
    <i type="logical" name="LNONCOLLINEAR"> F  </i>
    <v name="MAGMOM">      1.00000000      1.00000000      1.00000000      1.00000000</v>
    <i name="NUPDOWN">     -1.00000000</i>
    <i type="logical" name="LSORBIT"> F  </i>
    <v name="SAXIS">      0.00000000      0.00000000      1.00000000</v>
    <i type="logical" name="LSPIRAL"> F  </i>
    <v name="QSPIRAL">      0.00000000      0.00000000      0.00000000</v>
    <i type="logical" name="LZEROZ"> F  </i>
   </separator>
   <separator name="electronic exchange-correlation" >
    <i type="logical" name="LASPH"> F  </i>
    <i type="logical" name="LMETAGGA"> F  </i>
   </separator>
   <separator name="electronic convergence" >
    <i type="int" name="NELM">    60</i>
    <i type="int" name="NELMDL">    -5</i>
    <i type="int" name="NELMIN">     2</i>
    <i name="ENINI">    500.00000000</i>
    <separator name="electronic convergence detail" >
     <i type="logical" name="LDIAG"> T  </i>
     <i type="logical" name="LSUBROT"> T  </i>
     <i name="WEIMIN">      0.00000000</i>
     <i name="EBREAK">      0.00000179</i>
     <i name="DEPER">      0.30000000</i>
     <i type="int" name="NRMM">     4</i>
     <i name="TIME">      0.40000000</i>
    </separator>
   </separator>
   <separator name="electronic mixer" >
    <i name="AMIX">      0.40000000</i>
    <i name="BMIX">      1.00000000</i>
    <i name="AMIN">      0.10000000</i>
    <i name="AMIX_MAG">      1.60000000</i>
    <i name="BMIX_MAG">      1.00000000</i>
    <separator name="electronic mixer details" >
     <i type="int" name="IMIX">     4</i>
     <i type="int" name="MAXMIX">   -45</i>
     <i name="WC">    100.00000000</i>
     <i type="int" name="INIMIX">     1</i>
     <i type="int" name="MIXPRE">     1</i>
     <i type="int" name="MREMOVE">     5</i>
    </separator>
   </separator>
   <separator name="electronic dipolcorrection" >
    <i type="logical" name="LDIPOL"> F  </i>
    <i type="logical" name="LMONO"> F  </i>
    <i type="int" name="IDIPOL">     0</i>
    <i name="EPSILON">      1.00000000</i>
    <v name="DIPOL">   -100.00000000   -100.00000000   -100.00000000</v>
    <i name="EFIELD">      0.00000000</i>
   </separator>
  </separator>
  <separator name="grids" >
   <i type="int" name="NGX">    18</i>
   <i type="int" name="NGY">    18</i>
   <i type="int" name="NGZ">    50</i>
   <i type="int" name="NGXF">    36</i>
   <i type="int" name="NGYF">    36</i>
   <i type="int" name="NGZF">   100</i>
   <i type="logical" name="ADDGRID"> F  </i>
  </separator>
  <separator name="ionic" >
   <i type="int" name="NSW">     0</i>
   <i type="int" name="IBRION">    -1</i>
   <i type="int" name="ISIF">     2</i>
   <i name="PSTRESS">      0.00000000</i>
   <i name="EDIFFG">      0.00100000</i>
   <i type="int" name="NFREE">     0</i>
   <i name="POTIM">      0.50000000</i>
   <i name="SMASS">     -3.00000000</i>
   <i name="SCALEE">      1.00000000</i>
  </separator>
  <separator name="ionic md" >
   <i name="TEBEG">      0.00010000</i>
   <i name="TEEND">      0.00010000</i>
   <i type="int" name="NBLOCK">     1</i>
   <i type="int" name="KBLOCK">     1</i>
   <i type="int" name="NPACO">   256</i>
   <i name="APACO">     16.00000000</i>
  </separator>
  <separator name="symmetry" >
   <i type="int" name="ISYM">     2</i>
   <i name="SYMPREC">      0.00001000</i>
  </separator>
  <separator name="dos" >
   <i type="logical" name="LORBIT"> F  </i>
   <v name="RWIGS">     -1.00000000</v>
   <i type="int" name="NEDOS">   301</i>
   <i name="EMIN">     10.00000000</i>
   <i name="EMAX">    -10.00000000</i>
   <i name="EFERMI">      0.00000000</i>
  </separator>
  <separator name="writing" >
   <i type="int" name="NWRITE">     2</i>
   <i type="logical" name="LWAVE"> T  </i>
   <i type="logical" name="LCHARG"> T  </i>
   <i type="logical" name="LPARD"> F  </i>
   <i type="logical" name="LVTOT"> F  </i>
   <i type="logical" name="LVHAR"> F  </i>
   <i type="logical" name="LELF"> F  </i>
   <i type="logical" name="LOPTICS"> F  </i>
   <v name="STM">      0.00000000      0.00000000      0.00000000      0.00000000      0.00000000      0.00000000      0.00000000</v>
  </separator>
  <separator name="performance" >
   <i type="int" name="NPAR">     1</i>
   <i type="int" name="NSIM">     4</i>
   <i type="int" name="NBLK">    -1</i>
   <i type="logical" name="LPLANE"> T  </i>
   <i type="logical" name="LSCALAPACK"> F  </i>
   <i type="logical" name="LSCAAWARE"> F  </i>
   <i type="logical" name="LSCALU"> F  </i>
   <i type="logical" name="LASYNC"> F  </i>
   <i type="logical" name="LORBITALREAL"> F  </i>
  </separator>
  <separator name="miscellaneous" >
   <i type="int" name="IDIOT">     3</i>
   <i type="logical" name="LMUSIC"> F  </i>
   <v name="POMASS">     12.01100000</v>
   <v name="DARWINR">      0.00000000</v>
   <v name="DARWINV">      1.00000000</v>
   <i type="logical" name="LCORR"> T  </i>
  </separator>
  <i type="logical" name="GGA_COMPAT"> T  </i>
  <i type="logical" name="LBERRY"> F  </i>
  <i type="int" name="ICORELEVEL">     0</i>
  <i type="logical" name="LDAU"> F  </i>
  <i type="int" name="I_CONSTRAINED_M">     0</i>
  <separator name="electronic exchange-correlation" >
   <i type="string" name="GGA">--</i>
   <i type="int" name="VOSKOWN">     0</i>
   <i type="logical" name="LHFCALC"> F  </i>
   <i type="string" name="PRECFOCK"></i>
   <i type="logical" name="LHFONE"> F  </i>
   <i type="logical" name="LRHFCALC"> F  </i>
   <i type="logical" name="LTHOMAS"> F  </i>
   <i type="logical" name="LMODELHF"> F  </i>
   <i name="ENCUT4O">     -1.00000000</i>
   <i type="int" name="EXXOEP">     0</i>
   <i type="int" name="FOURORBIT">     0</i>
   <i name="AEXX">      0.00000000</i>
   <i name="HFALPHA">      0.00000000</i>
   <i name="ALDAX">      1.00000000</i>
   <i name="AGGAX">      1.00000000</i>
   <i name="ALDAC">      1.00000000</i>
   <i name="AGGAC">      1.00000000</i>
   <i type="int" name="NKREDX">     1</i>
   <i type="int" name="NKREDY">     1</i>
   <i type="int" name="NKREDZ">     1</i>
   <i type="logical" name="SHIFTRED"> F  </i>
   <i type="logical" name="ODDONLY"> F  </i>
   <i type="logical" name="EVENONLY"> F  </i>
   <i type="int" name="LMAXFOCK">     0</i>
   <i type="int" name="NMAXFOCKAE">     0</i>
   <i type="logical" name="LFOCKAEDFT"> F  </i>
   <i name="HFSCREEN">      0.00000000</i>
   <i name="HFSCREENC">      0.00000000</i>
  </separator>
  <separator name="vdW DFT" >
   <i type="logical" name="LUSE_VDW"> F  </i>
   <i name="Zab_VDW">     -0.84910000</i>
   <i name="PARAM1">      0.12340000</i>
   <i name="PARAM2">      1.00000000</i>
   <i name="PARAM3">      0.00000000</i>
  </separator>
  <separator name="model GW" >
   <i type="int" name="MODEL_GW">     0</i>
   <i name="MODEL_EPS0">      5.27839982</i>
   <i name="MODEL_ALPHA">      1.00000000</i>
  </separator>
  <separator name="linear response parameters" >
   <i type="logical" name="LEPSILON"> F  </i>
   <i type="logical" name="LRPA"> F  </i>
   <i type="logical" name="LNABLA"> F  </i>
   <i type="logical" name="LVEL"> F  </i>
   <i type="int" name="KINTER">     0</i>
   <i name="CSHIFT">      0.10000000</i>
   <i name="OMEGAMAX">     -1.00000000</i>
  </separator>
  <separator name="orbital magnetization" >
   <i type="logical" name="NUCIND"> F  </i>
   <v name="MAGPOS">      0.00000000      0.00000000      0.00000000</v>
   <i type="logical" name="LNICSALL"> T  </i>
   <i type="logical" name="ORBITALMAG"> F  </i>
   <i type="logical" name="LMAGBLOCH"> F  </i>
   <i type="logical" name="LCHIMAG"> F  </i>
   <i type="logical" name="LGAUGE"> T  </i>
   <i type="int" name="MAGATOM">     0</i>
   <v name="MAGDIPOL">      0.00000000      0.00000000      0.00000000</v>
   <v name="AVECCONST">      0.00000000      0.00000000      0.00000000</v>
  </separator>
  <separator name="response functions" >
   <i type="logical" name="LADDER"> F  </i>
   <i type="logical" name="LHARTREE"> T  </i>
   <i type="int" name="IBSE">     0</i>
   <i type="logical" name="LTCTE"> F  </i>
   <i type="logical" name="LTETE"> F  </i>
   <i type="logical" name="LFXCEPS"> F  </i>
   <i type="logical" name="L2ORDER"> F  </i>
   <i type="logical" name="LUSEW"> F  </i>
   <i name="ENCUTGW">     -2.00000000</i>
   <i name="ENCUTGWSOFT">     -2.00000000</i>
   <i name="ENCUTLF">     -1.00000000</i>
   <i type="int" name="LMAXMP2">    -1</i>
   <i name="SCISSOR">      0.00000000</i>
   <i type="int" name="NOMEGA">     0</i>
   <i type="int" name="NOMEGAR">     0</i>
   <i type="int" name="NBANDSGW">    -1</i>
   <i type="int" name="NBANDSO">    -1</i>
   <i type="int" name="NBANDSV">    -1</i>
   <i name="OPTEMAX">      0.00000000</i>
   <i type="int" name="NELM">     1</i>
   <i type="int" name="DIM">     3</i>
   <i type="int" name="ANTIRES">     0</i>
   <i name="OMEGAMAX">    -30.00000000</i>
   <i name="OMEGATL">   -200.00000000</i>
   <i type="int" name="OMEGAGRID">     0</i>
   <i name="CSHIFT">     -0.10000000</i>
   <i type="logical" name="SELFENERGY"> F  </i>
   <i type="logical" name="LSPECTRAL"> F  </i>
   <i type="logical" name="ODDONLYGW"> F  </i>
   <i type="logical" name="EVENONLYGW"> F  </i>
   <i type="int" name="NKREDLFX">     1</i>
   <i type="int" name="NKREDLFY">     1</i>
   <i type="int" name="NKREDLFZ">     1</i>
   <i type="int" name="MAXMEM">  1800</i>
   <i type="int" name="TELESCOPE">     0</i>
  </separator>
 </parameters>
 <atominfo>
  <atoms>       4 </atoms>
  <types>       1 </types>
  <array name="atoms" >
   <dimension dim="1">ion</dimension>
   <field type="string">element</field>
   <field type="int">atomtype</field>
   <set>
    <rc><c>C </c><c>   1</c></rc>
    <rc><c>C </c><c>   1</c></rc>
    <rc><c>C </c><c>   1</c></rc>
    <rc><c>C </c><c>   1</c></rc>
   </set>
  </array>
  <array name="atomtypes" >
   <dimension dim="1">type</dimension>
   <field type="int">atomspertype</field>
   <field type="string">element</field>
   <field>mass</field>
   <field>valence</field>
   <field type="string">pseudopotential</field>
   <set>
    <rc><c>   4</c><c>C </c><c>     12.01100000</c><c>      4.00000000</c><c> PAW_PBE C 08Apr2002                    </c></rc>
   </set>
  </array>
 </atominfo>
 <structure name="initialpos" >
  <crystal>
   <varray name="basis" >
    <v>       2.46120000       0.00000000       0.00000000 </v>
    <v>      -1.23060000       2.13146172       0.00000000 </v>
    <v>       0.00000000       0.00000000       6.70790000 </v>
   </varray>
   <i name="volume">     35.18933212 </i>
   <varray name="rec_basis" >
    <v>       0.40630587       0.23458080       0.00000000 </v>
    <v>       0.00000000       0.46916160       0.00000000 </v>
    <v>       0.00000000       0.00000000       0.14907795 </v>
   </varray>
  </crystal>
  <varray name="positions" >
   <v>       0.00000000       0.00000000       0.00000000 </v>
   <v>       0.33333333       0.66666667       0.00000000 </v>
   <v>       0.33333333       0.66666667       0.50000000 </v>
   <v>       0.66666667       0.33333333       0.50000000 </v>
  </varray>
 </structure>
 <calculation>
  <scstep>
   <time name="dav">    5.10    5.10</time>
   <time name="total">    5.57    5.57</time>
   <energy>
    <i name="alphaZ">     37.04766603 </i>
    <i name="ewald">   -460.60042082 </i>
    <i name="hartreedc">   -148.78490797 </i>
    <i name="XCdc">     56.10990959 </i>
    <i name="pawpsdc">    150.95130483 </i>
    <i name="pawaedc">   -155.51722924 </i>
    <i name="eentropy">     -0.00058860 </i>
    <i name="bandstr">    -31.33843019 </i>
    <i name="atom">    588.59368669 </i>
    <i name="e_fr_energy">     36.46099033 </i>
    <i name="e_wo_entrp">     36.46157893 </i>
    <i name="e_0_energy">     36.46118653 </i>
   </energy>
  </scstep>
  <scstep>
   <time name="dav">    6.62    6.63</time>
   <time name="total">    6.63    6.64</time>
   <energy>
    <i name="e_fr_energy">    -34.58950794 </i>
    <i name="e_wo_entrp">    -34.58952136 </i>
    <i name="e_0_energy">    -34.58951241 </i>
   </energy>
  </scstep>
  <scstep>
   <time name="dav">    6.39    6.39</time>
   <time name="total">    6.39    6.41</time>
   <energy>
    <i name="e_fr_energy">    -37.60576056 </i>
    <i name="e_wo_entrp">    -37.60577860 </i>
    <i name="e_0_energy">    -37.60576657 </i>
   </energy>
  </scstep>
  <scstep>
   <time name="dav">    5.91    5.92</time>
   <time name="total">    5.92    6.48</time>
   <energy>
    <i name="e_fr_energy">    -37.63408025 </i>
    <i name="e_wo_entrp">    -37.63409830 </i>
    <i name="e_0_energy">    -37.63408626 </i>
   </energy>
  </scstep>
  <scstep>
   <time name="dav">    6.28    6.28</time>
   <time name="total">    6.75    6.77</time>
   <energy>
    <i name="e_fr_energy">    -37.63461710 </i>
    <i name="e_wo_entrp">    -37.63463515 </i>
    <i name="e_0_energy">    -37.63462312 </i>
   </energy>
  </scstep>
  <scstep>
   <time name="dav">    5.74    5.76</time>
   <time name="total">    6.74    6.77</time>
   <energy>
    <i name="e_fr_energy">    -36.88741491 </i>
    <i name="e_wo_entrp">    -36.88751929 </i>
    <i name="e_0_energy">    -36.88744970 </i>
   </energy>
  </scstep>
  <scstep>
   <time name="dav">    5.88    5.88</time>
   <time name="total">    6.87    6.88</time>
   <energy>
    <i name="e_fr_energy">    -36.78801111 </i>
    <i name="e_wo_entrp">    -36.78830835 </i>
    <i name="e_0_energy">    -36.78811019 </i>
   </energy>
  </scstep>
  <scstep>
   <time name="dav">    5.97    5.98</time>
   <time name="total">    6.97    7.00</time>
   <energy>
    <i name="e_fr_energy">    -36.73878704 </i>
    <i name="e_wo_entrp">    -36.73889342 </i>
    <i name="e_0_energy">    -36.73882250 </i>
   </energy>
  </scstep>
  <scstep>
   <time name="dav">    5.74    5.74</time>
   <time name="total">    6.72    6.74</time>
   <energy>
    <i name="e_fr_energy">    -36.75070536 </i>
    <i name="e_wo_entrp">    -36.75093109 </i>
    <i name="e_0_energy">    -36.75078061 </i>
   </energy>
  </scstep>
  <scstep>
   <time name="dav">    6.25    6.26</time>
   <time name="total">    7.25    7.28</time>
   <energy>
    <i name="e_fr_energy">    -36.75121231 </i>
    <i name="e_wo_entrp">    -36.75128048 </i>
    <i name="e_0_energy">    -36.75123503 </i>
   </energy>
  </scstep>
  <scstep>
   <time name="dav">    5.78    5.78</time>
   <time name="total">    6.76    6.78</time>
   <energy>
    <i name="e_fr_energy">    -36.75145347 </i>
    <i name="e_wo_entrp">    -36.75157371 </i>
    <i name="e_0_energy">    -36.75149355 </i>
   </energy>
  </scstep>
  <scstep>
   <time name="dav">    5.19    5.20</time>
   <time name="total">    5.70    5.72</time>
   <energy>
    <i name="alphaZ">     37.04766603 </i>
    <i name="ewald">   -460.60042082 </i>
    <i name="hartreedc">   -183.77936411 </i>
    <i name="XCdc">     57.71195655 </i>
    <i name="pawpsdc">    279.74435235 </i>
    <i name="pawaedc">   -284.92890535 </i>
    <i name="eentropy">      0.00012974 </i>
    <i name="bandstr">    -70.54065209 </i>
    <i name="atom">    588.59368669 </i>
    <i name="e_fr_energy">    -36.75155102 </i>
    <i name="e_wo_entrp">    -36.75168076 </i>
    <i name="e_0_energy">    -36.75159427 </i>
   </energy>
  </scstep>
  <parameters_embedded>
   <separator name="dft+d2" >
    <i type="logical" name="LVDW"> F  </i>
   </separator>
  </parameters_embedded>
  <structure>
   <crystal>
    <varray name="basis" >
     <v>       2.46120000       0.00000000       0.00000000 </v>
     <v>      -1.23060000       2.13146172       0.00000000 </v>
     <v>       0.00000000       0.00000000       6.70790000 </v>
    </varray>
    <i name="volume">     35.18933212 </i>
    <varray name="rec_basis" >
     <v>       0.40630587       0.23458080       0.00000000 </v>
     <v>       0.00000000       0.46916160       0.00000000 </v>
     <v>       0.00000000       0.00000000       0.14907795 </v>
    </varray>
   </crystal>
   <varray name="positions" >
    <v>       0.00000000       0.00000000       0.00000000 </v>
    <v>       0.33333333       0.66666667       0.00000000 </v>
    <v>       0.33333333       0.66666667       0.50000000 </v>
    <v>       0.66666667       0.33333333       0.50000000 </v>
   </varray>
  </structure>
  <varray name="forces" >
   <v>       0.00000000       0.00000000       0.00000000 </v>
   <v>       0.00000000       0.00000000       0.00000000 </v>
   <v>       0.00000000       0.00000000       0.00000000 </v>
   <v>       0.00000000       0.00000000       0.00000000 </v>
  </varray>
  <varray name="stress" >
   <v>      38.98191922       0.00000000       0.00000000 </v>
   <v>       0.00000000      38.98191922       0.00000000 </v>
   <v>       0.00000000       0.00000000      28.77437662 </v>
  </varray>
  <energy>
   <i name="e_fr_energy">    -36.75155102 </i>
   <i name="e_wo_entrp">    -36.75159427 </i>
   <i name="e_0_energy">      0.00012974 </i>
  </energy>
  <time name="totalsc">   81.25   82.12</time>
  <eigenvalues>
   <array>
    <dimension dim="1">band</dimension>
    <dimension dim="2">kpoint</dimension>
    <dimension dim="3">spin</dimension>
    <field>eigene</field>
    <field>occ</field>
    <set>
     <set comment="spin 1">
      <set comment="kpoint 1">
       <r>  -14.9798    1.0000 </r>
       <r>  -14.6792    1.0000 </r>
       <r>   -3.8592    1.0000 </r>
       <r>   -1.8977    1.0000 </r>
       <r>    1.7105    1.0000 </r>
       <r>    1.7105    1.0000 </r>
       <r>    1.7287    1.0000 </r>
       <r>    1.7288    1.0000 </r>
       <r>    8.9728    0.0000 </r>
       <r>   13.0769    0.0000 </r>
       <r>   13.0769    0.0000 </r>
       <r>   13.1302    0.0000 </r>
       <r>   13.1302    0.0000 </r>
       <r>   15.3015    0.0000 </r>
      </set>
      <set comment="kpoint 2">
       <r>  -14.3167    1.0000 </r>
       <r>  -14.0280    1.0000 </r>
       <r>   -3.0564    1.0000 </r>
       <r>   -1.1499    1.0000 </r>
       <r>   -0.6125    1.0000 </r>
       <r>   -0.5483    1.0000 </r>
       <r>    0.5618    1.0000 </r>
       <r>    0.6021    1.0000 </r>
       <r>    9.7767    0.0000 </r>
       <r>   13.0283    0.0000 </r>
       <r>   13.2130    0.0000 </r>
       <r>   13.8936    0.0000 </r>
       <r>   14.2669    0.0000 </r>
       <r>   15.6602    0.0000 </r>
      </set>
      <set comment="kpoint 3">
       <r>  -12.3605    1.0000 </r>
       <r>  -12.1071    1.0000 </r>
       <r>   -4.9688    1.0000 </r>
       <r>   -4.8350    1.0000 </r>
       <r>   -1.0650    1.0000 </r>
       <r>   -1.0128    1.0000 </r>
       <r>   -0.7425    1.0000 </r>
       <r>    0.9383    1.0000 </r>
       <r>    9.2117    0.0000 </r>
       <r>   10.0962    0.0000 </r>
       <r>   12.0755    0.0000 </r>
       <r>   12.3637    0.0000 </r>
       <r>   12.7630    0.0000 </r>
       <r>   17.4344    0.0000 </r>
      </set>
      <set comment="kpoint 4">
       <r>   -9.6202    1.0000 </r>
       <r>   -9.5160    1.0000 </r>
       <r>   -8.5570    1.0000 </r>
       <r>   -8.4794    1.0000 </r>
       <r>   -1.7042    1.0000 </r>
       <r>   -1.6491    1.0000 </r>
       <r>    1.9215    1.0000 </r>
       <r>    2.5603    1.0000 </r>
       <r>    6.2321    0.0000 </r>
       <r>    6.8377    0.0000 </r>
       <r>   11.9604    0.0000 </r>
       <r>   12.3568    0.0000 </r>
       <r>   16.0137    0.0000 </r>
       <r>   16.0995    0.0000 </r>
      </set>
      <set comment="kpoint 5">
       <r>  -13.0068    1.0000 </r>
       <r>  -12.7417    1.0000 </r>
       <r>   -3.0537    1.0000 </r>
       <r>   -3.0000    1.0000 </r>
       <r>   -1.6958    1.0000 </r>
       <r>   -1.6567    1.0000 </r>
       <r>   -1.4889    1.0000 </r>
       <r>    0.2879    1.0000 </r>
       <r>   10.8450    0.0000 </r>
       <r>   11.3221    0.0000 </r>
       <r>   11.3934    0.0000 </r>
       <r>   14.6743    0.0000 </r>
       <r>   14.9152    0.0000 </r>
       <r>   16.2794    0.0000 </r>
      </set>
      <set comment="kpoint 6">
       <r>  -10.4868    1.0000 </r>
       <r>  -10.2703    1.0000 </r>
       <r>   -6.7549    1.0000 </r>
       <r>   -6.6078    1.0000 </r>
       <r>   -3.3613    1.0000 </r>
       <r>   -3.2706    1.0000 </r>
       <r>    1.3755    1.0000 </r>
       <r>    2.6950    1.0000 </r>
       <r>    6.8814    0.0000 </r>
       <r>    7.6136    0.0000 </r>
       <r>   14.4291    0.0000 </r>
       <r>   14.6030    0.0000 </r>
       <r>   15.1180    0.0000 </r>
       <r>   17.1369    0.0000 </r>
      </set>
      <set comment="kpoint 7">
       <r>   -7.9414    1.0000 </r>
       <r>   -7.9022    1.0000 </r>
       <r>   -7.9022    1.0000 </r>
       <r>   -7.7521    1.0000 </r>
       <r>   -5.8408    1.0000 </r>
       <r>   -5.8408    1.0000 </r>
       <r>    4.1364    1.0000 </r>
       <r>    4.5577    1.0001 </r>
       <r>    4.5577    1.0001 </r>
       <r>    5.4901    0.0000 </r>
       <r>   15.8379    0.0000 </r>
       <r>   15.8379    0.0000 </r>
       <r>   16.9884    0.0000 </r>
       <r>   17.2339    0.0000 </r>
      </set>
      <set comment="kpoint 8">
       <r>  -14.9609    1.0000 </r>
       <r>  -14.7008    1.0000 </r>
       <r>   -3.7480    1.0000 </r>
       <r>   -2.0584    1.0000 </r>
       <r>    1.7117    1.0000 </r>
       <r>    1.7117    1.0000 </r>
       <r>    1.7275    1.0000 </r>
       <r>    1.7275    1.0000 </r>
       <r>    9.3116    0.0000 </r>
       <r>   13.0801    0.0000 </r>
       <r>   13.0801    0.0000 </r>
       <r>   13.1264    0.0000 </r>
       <r>   13.1264    0.0000 </r>
       <r>   14.5920    0.0000 </r>
      </set>
      <set comment="kpoint 9">
       <r>  -14.2984    1.0000 </r>
       <r>  -14.0485    1.0000 </r>
       <r>   -2.9480    1.0000 </r>
       <r>   -1.3053    1.0000 </r>
       <r>   -0.6082    1.0000 </r>
       <r>   -0.5526    1.0000 </r>
       <r>    0.5645    1.0000 </r>
       <r>    0.5994    1.0000 </r>
       <r>   10.1034    0.0000 </r>
       <r>   13.0300    0.0000 </r>
       <r>   13.1996    0.0000 </r>
       <r>   13.9239    0.0000 </r>
       <r>   14.2363    0.0000 </r>
       <r>   15.2628    0.0000 </r>
      </set>
      <set comment="kpoint 10">
       <r>  -12.3443    1.0000 </r>
       <r>  -12.1250    1.0000 </r>
       <r>   -4.9600    1.0000 </r>
       <r>   -4.8442    1.0000 </r>
       <r>   -1.0615    1.0000 </r>
       <r>   -1.0163    1.0000 </r>
       <r>   -0.6447    1.0000 </r>
       <r>    0.8057    1.0000 </r>
       <r>    9.2526    0.0000 </r>
       <r>   10.0231    0.0000 </r>
       <r>   12.2520    0.0000 </r>
       <r>   12.4237    0.0000 </r>
       <r>   12.8384    0.0000 </r>
       <r>   16.9748    0.0000 </r>
      </set>
      <set comment="kpoint 11">
       <r>   -9.6119    1.0000 </r>
       <r>   -9.5214    1.0000 </r>
       <r>   -8.5544    1.0000 </r>
       <r>   -8.4870    1.0000 </r>
       <r>   -1.7006    1.0000 </r>
       <r>   -1.6528    1.0000 </r>
       <r>    1.9780    1.0000 </r>
       <r>    2.5379    1.0000 </r>
       <r>    6.2189    0.0000 </r>
       <r>    6.7503    0.0000 </r>
       <r>   11.9857    0.0000 </r>
       <r>   12.3292    0.0000 </r>
       <r>   16.2722    0.0000 </r>
       <r>   16.2830    0.0000 </r>
      </set>
      <set comment="kpoint 12">
       <r>  -12.9900    1.0000 </r>
       <r>  -12.7604    1.0000 </r>
       <r>   -3.0499    1.0000 </r>
       <r>   -3.0035    1.0000 </r>
       <r>   -1.6936    1.0000 </r>
       <r>   -1.6597    1.0000 </r>
       <r>   -1.3868    1.0000 </r>
       <r>    0.1452    1.0000 </r>
       <r>   10.8754    0.0000 </r>
       <r>   11.2797    0.0000 </r>
       <r>   11.7012    0.0000 </r>
       <r>   14.6760    0.0000 </r>
       <r>   14.9157    0.0000 </r>
       <r>   16.2719    0.0000 </r>
      </set>
      <set comment="kpoint 13">
       <r>  -10.4728    1.0000 </r>
       <r>  -10.2854    1.0000 </r>
       <r>   -6.7454    1.0000 </r>
       <r>   -6.6180    1.0000 </r>
       <r>   -3.3554    1.0000 </r>
       <r>   -3.2769    1.0000 </r>
       <r>    1.4575    1.0000 </r>
       <r>    2.6003    1.0000 </r>
       <r>    6.9159    0.0000 </r>
       <r>    7.5538    0.0000 </r>
       <r>   14.5334    0.0000 </r>
       <r>   14.6651    0.0000 </r>
       <r>   15.1250    0.0000 </r>
       <r>   16.8513    0.0000 </r>
      </set>
      <set comment="kpoint 14">
       <r>   -7.9292    1.0000 </r>
       <r>   -7.9016    1.0000 </r>
       <r>   -7.9016    1.0000 </r>
       <r>   -7.7653    1.0000 </r>
       <r>   -5.8420    1.0000 </r>
       <r>   -5.8420    1.0000 </r>
       <r>    4.2166    1.0000 </r>
       <r>    4.5658    1.0002 </r>
       <r>    4.5658    1.0002 </r>
       <r>    5.3859    0.0000 </r>
       <r>   15.4814    0.0000 </r>
       <r>   15.4814    0.0000 </r>
       <r>   17.1909    0.0000 </r>
       <r>   17.7540    0.0000 </r>
      </set>
      <set comment="kpoint 15">
       <r>  -14.9084    1.0000 </r>
       <r>  -14.7584    1.0000 </r>
       <r>   -3.4337    1.0000 </r>
       <r>   -2.4682    1.0000 </r>
       <r>    1.7150    1.0000 </r>
       <r>    1.7151    1.0000 </r>
       <r>    1.7241    1.0000 </r>
       <r>    1.7242    1.0000 </r>
       <r>   10.2493    0.0000 </r>
       <r>   13.0894    0.0000 </r>
       <r>   13.0894    0.0000 </r>
       <r>   13.1162    0.0000 </r>
       <r>   13.1163    0.0000 </r>
       <r>   13.1651    0.0000 </r>
      </set>
      <set comment="kpoint 16">
       <r>  -14.2478    1.0000 </r>
       <r>  -14.1037    1.0000 </r>
       <r>   -2.6415    1.0000 </r>
       <r>   -1.7024    1.0000 </r>
       <r>   -0.5965    1.0000 </r>
       <r>   -0.5644    1.0000 </r>
       <r>    0.5718    1.0000 </r>
       <r>    0.5920    1.0000 </r>
       <r>   11.0043    0.0000 </r>
       <r>   13.0101    0.0000 </r>
       <r>   13.1688    0.0000 </r>
       <r>   13.8544    0.0000 </r>
       <r>   14.0135    0.0000 </r>
       <r>   14.2618    0.0000 </r>
      </set>
      <set comment="kpoint 17">
       <r>  -12.2996    1.0000 </r>
       <r>  -12.1731    1.0000 </r>
       <r>   -4.9361    1.0000 </r>
       <r>   -4.8692    1.0000 </r>
       <r>   -1.0520    1.0000 </r>
       <r>   -1.0259    1.0000 </r>
       <r>   -0.3692    1.0000 </r>
       <r>    0.4623    1.0000 </r>
       <r>    9.3832    0.0000 </r>
       <r>    9.8319    0.0000 </r>
       <r>   12.3851    0.0000 </r>
       <r>   12.5140    0.0000 </r>
       <r>   13.4588    0.0000 </r>
       <r>   15.8844    0.0000 </r>
      </set>
      <set comment="kpoint 18">
       <r>   -9.5901    1.0000 </r>
       <r>   -9.5375    1.0000 </r>
       <r>   -8.5453    1.0000 </r>
       <r>   -8.5060    1.0000 </r>
       <r>   -1.6905    1.0000 </r>
       <r>   -1.6630    1.0000 </r>
       <r>    2.1262    1.0000 </r>
       <r>    2.4575    1.0000 </r>
       <r>    6.2284    0.0000 </r>
       <r>    6.5433    0.0000 </r>
       <r>   12.0556    0.0000 </r>
       <r>   12.2541    0.0000 </r>
       <r>   16.7611    0.0000 </r>
       <r>   16.9371    0.0000 </r>
      </set>
      <set comment="kpoint 19">
       <r>  -12.9433    1.0000 </r>
       <r>  -12.8109    1.0000 </r>
       <r>   -3.0398    1.0000 </r>
       <r>   -3.0130    1.0000 </r>
       <r>   -1.6872    1.0000 </r>
       <r>   -1.6676    1.0000 </r>
       <r>   -1.0985    1.0000 </r>
       <r>   -0.2215    1.0000 </r>
       <r>   10.9596    0.0000 </r>
       <r>   11.1919    0.0000 </r>
       <r>   12.5203    0.0000 </r>
       <r>   14.5816    0.0000 </r>
       <r>   14.9120    0.0000 </r>
       <r>   15.2468    0.0000 </r>
      </set>
      <set comment="kpoint 20">
       <r>  -10.4344    1.0000 </r>
       <r>  -10.3263    1.0000 </r>
       <r>   -6.7191    1.0000 </r>
       <r>   -6.6456    1.0000 </r>
       <r>   -3.3392    1.0000 </r>
       <r>   -3.2939    1.0000 </r>
       <r>    1.6861    1.0000 </r>
       <r>    2.3456    1.0000 </r>
       <r>    7.0242    0.0000 </r>
       <r>    7.3966    0.0000 </r>
       <r>   14.6321    0.0000 </r>
       <r>   14.7832    0.0000 </r>
       <r>   15.3467    0.0000 </r>
       <r>   16.3754    0.0000 </r>
      </set>
      <set comment="kpoint 21">
       <r>   -7.9005    1.0000 </r>
       <r>   -7.9005    1.0000 </r>
       <r>   -7.8954    1.0000 </r>
       <r>   -7.8008    1.0000 </r>
       <r>   -5.8444    1.0000 </r>
       <r>   -5.8444    1.0000 </r>
       <r>    4.4419    1.0000 </r>
       <r>    4.5822    1.0010 </r>
       <r>    4.5822    1.0010 </r>
       <r>    5.1136    0.0000 </r>
       <r>   15.0396    0.0000 </r>
       <r>   15.0396    0.0000 </r>
       <r>   17.7339    0.0000 </r>
       <r>   18.6566    0.0000 </r>
      </set>
      <set comment="kpoint 22">
       <r>  -14.8347    1.0000 </r>
       <r>  -14.8347    1.0000 </r>
       <r>   -2.9739    1.0000 </r>
       <r>   -2.9739    1.0000 </r>
       <r>    1.7196    1.0000 </r>
       <r>    1.7196    1.0000 </r>
       <r>    1.7196    1.0000 </r>
       <r>    1.7196    1.0000 </r>
       <r>   11.6071    0.0000 </r>
       <r>   11.6071    0.0000 </r>
       <r>   13.1023    0.0000 </r>
       <r>   13.1023    0.0000 </r>
       <r>   13.1023    0.0000 </r>
       <r>   13.1023    0.0000 </r>
      </set>
      <set comment="kpoint 23">
       <r>  -14.1769    1.0000 </r>
       <r>  -14.1769    1.0000 </r>
       <r>   -2.1939    1.0000 </r>
       <r>   -2.1939    1.0000 </r>
       <r>   -0.5805    1.0000 </r>
       <r>   -0.5805    1.0000 </r>
       <r>    0.5819    1.0000 </r>
       <r>    0.5819    1.0000 </r>
       <r>   12.2733    0.0000 </r>
       <r>   12.2733    0.0000 </r>
       <r>   13.1760    0.0000 </r>
       <r>   13.1760    0.0000 </r>
       <r>   14.1149    0.0000 </r>
       <r>   14.1149    0.0000 </r>
      </set>
      <set comment="kpoint 24">
       <r>  -12.2372    1.0000 </r>
       <r>  -12.2372    1.0000 </r>
       <r>   -4.9029    1.0000 </r>
       <r>   -4.9029    1.0000 </r>
       <r>   -1.0390    1.0000 </r>
       <r>   -1.0390    1.0000 </r>
       <r>    0.0300    1.0000 </r>
       <r>    0.0300    1.0000 </r>
       <r>    9.5935    0.0000 </r>
       <r>    9.5935    0.0000 </r>
       <r>   12.4658    0.0000 </r>
       <r>   12.4658    0.0000 </r>
       <r>   14.6018    0.0000 </r>
       <r>   14.6018    0.0000 </r>
      </set>
      <set comment="kpoint 25">
       <r>   -9.5624    1.0000 </r>
       <r>   -9.5624    1.0000 </r>
       <r>   -8.5282    1.0000 </r>
       <r>   -8.5282    1.0000 </r>
       <r>   -1.6768    1.0000 </r>
       <r>   -1.6768    1.0000 </r>
       <r>    2.3086    1.0000 </r>
       <r>    2.3086    1.0000 </r>
       <r>    6.3374    0.0000 </r>
       <r>    6.3374    0.0000 </r>
       <r>   12.1534    0.0000 </r>
       <r>   12.1534    0.0000 </r>
       <r>   17.2775    0.0000 </r>
       <r>   17.2775    0.0000 </r>
      </set>
      <set comment="kpoint 26">
       <r>  -12.8781    1.0000 </r>
       <r>  -12.8781    1.0000 </r>
       <r>   -3.0262    1.0000 </r>
       <r>   -3.0262    1.0000 </r>
       <r>   -1.6778    1.0000 </r>
       <r>   -1.6778    1.0000 </r>
       <r>   -0.6790    1.0000 </r>
       <r>   -0.6790    1.0000 </r>
       <r>   11.0753    0.0000 </r>
       <r>   11.0753    0.0000 </r>
       <r>   13.6619    0.0000 </r>
       <r>   13.6619    0.0000 </r>
       <r>   14.9148    0.0000 </r>
       <r>   14.9148    0.0000 </r>
      </set>
      <set comment="kpoint 27">
       <r>  -10.3810    1.0000 </r>
       <r>  -10.3810    1.0000 </r>
       <r>   -6.6827    1.0000 </r>
       <r>   -6.6827    1.0000 </r>
       <r>   -3.3167    1.0000 </r>
       <r>   -3.3167    1.0000 </r>
       <r>    2.0092    1.0000 </r>
       <r>    2.0092    1.0000 </r>
       <r>    7.1987    0.0000 </r>
       <r>    7.1987    0.0000 </r>
       <r>   14.7222    0.0000 </r>
       <r>   14.7222    0.0000 </r>
       <r>   15.8535    0.0000 </r>
       <r>   15.8535    0.0000 </r>
      </set>
      <set comment="kpoint 28">
       <r>   -7.9000    1.0000 </r>
       <r>   -7.9000    1.0000 </r>
       <r>   -7.8486    1.0000 </r>
       <r>   -7.8486    1.0000 </r>
       <r>   -5.8456    1.0000 </r>
       <r>   -5.8456    1.0000 </r>
       <r>    4.5903    1.0020 </r>
       <r>    4.5903    1.0020 </r>
       <r>    4.7661   -0.0344 </r>
       <r>    4.7661   -0.0344 </r>
       <r>   14.8723    0.0000 </r>
       <r>   14.8723    0.0000 </r>
       <r>   18.4448    0.0000 </r>
       <r>   18.4448    0.0000 </r>
      </set>
     </set>
     <set comment="spin 2">
      <set comment="kpoint 1">
       <r>  -14.9497    1.0000 </r>
       <r>  -14.6499    1.0000 </r>
       <r>   -3.7924    1.0000 </r>
       <r>   -1.8221    1.0000 </r>
       <r>    1.7225    1.0000 </r>
       <r>    1.7225    1.0000 </r>
       <r>    1.7410    1.0000 </r>
       <r>    1.7411    1.0000 </r>
       <r>    9.0076    0.0000 </r>
       <r>   13.0882    0.0000 </r>
       <r>   13.0882    0.0000 </r>
       <r>   13.1410    0.0000 </r>
       <r>   13.1410    0.0000 </r>
       <r>   15.2945    0.0000 </r>
      </set>
      <set comment="kpoint 2">
       <r>  -14.2869    1.0000 </r>
       <r>  -13.9989    1.0000 </r>
       <r>   -2.9890    1.0000 </r>
       <r>   -1.0730    1.0000 </r>
       <r>   -0.5958    1.0000 </r>
       <r>   -0.5316    1.0000 </r>
       <r>    0.5738    1.0000 </r>
       <r>    0.6140    1.0000 </r>
       <r>    9.8113    0.0000 </r>
       <r>   13.0507    0.0000 </r>
       <r>   13.2304    0.0000 </r>
       <r>   13.9799    0.0000 </r>
       <r>   14.3800    0.0000 </r>
       <r>   15.6430    0.0000 </r>
      </set>
      <set comment="kpoint 3">
       <r>  -12.3316    1.0000 </r>
       <r>  -12.0787    1.0000 </r>
       <r>   -4.9470    1.0000 </r>
       <r>   -4.8135    1.0000 </r>
       <r>   -1.0532    1.0000 </r>
       <r>   -1.0011    1.0000 </r>
       <r>   -0.6739    1.0000 </r>
       <r>    1.0214    1.0000 </r>
       <r>    9.2812    0.0000 </r>
       <r>   10.2005    0.0000 </r>
       <r>   12.1010    0.0000 </r>
       <r>   12.4129    0.0000 </r>
       <r>   12.7894    0.0000 </r>
       <r>   17.5076    0.0000 </r>
      </set>
      <set comment="kpoint 4">
       <r>   -9.5954    1.0000 </r>
       <r>   -9.4760    1.0000 </r>
       <r>   -8.5445    1.0000 </r>
       <r>   -8.4536    1.0000 </r>
       <r>   -1.6925    1.0000 </r>
       <r>   -1.6376    1.0000 </r>
       <r>    1.9621    1.0000 </r>
       <r>    2.6950    1.0000 </r>
       <r>    6.2344    0.0000 </r>
       <r>    6.9774    0.0000 </r>
       <r>   11.9978    0.0000 </r>
       <r>   12.3937    0.0000 </r>
       <r>   16.0026    0.0000 </r>
       <r>   16.1822    0.0000 </r>
      </set>
      <set comment="kpoint 5">
       <r>  -12.9777    1.0000 </r>
       <r>  -12.7131    1.0000 </r>
       <r>   -3.0332    1.0000 </r>
       <r>   -2.9777    1.0000 </r>
       <r>   -1.6840    1.0000 </r>
       <r>   -1.6437    1.0000 </r>
       <r>   -1.4205    1.0000 </r>
       <r>    0.3681    1.0000 </r>
       <r>   10.9305    0.0000 </r>
       <r>   11.4205    0.0000 </r>
       <r>   11.4276    0.0000 </r>
       <r>   14.7002    0.0000 </r>
       <r>   14.9251    0.0000 </r>
       <r>   16.3214    0.0000 </r>
      </set>
      <set comment="kpoint 6">
       <r>  -10.4587    1.0000 </r>
       <r>  -10.2418    1.0000 </r>
       <r>   -6.7316    1.0000 </r>
       <r>   -6.5842    1.0000 </r>
       <r>   -3.3472    1.0000 </r>
       <r>   -3.2565    1.0000 </r>
       <r>    1.4406    1.0000 </r>
       <r>    2.7930    1.0000 </r>
       <r>    6.9475    0.0000 </r>
       <r>    7.7082    0.0000 </r>
       <r>   14.4429    0.0000 </r>
       <r>   14.6634    0.0000 </r>
       <r>   15.1425    0.0000 </r>
       <r>   17.2125    0.0000 </r>
      </set>
      <set comment="kpoint 7">
       <r>   -7.9697    1.0000 </r>
       <r>   -7.8160    1.0000 </r>
       <r>   -7.8160    1.0000 </r>
       <r>   -7.7793    1.0000 </r>
       <r>   -5.8310    1.0000 </r>
       <r>   -5.8310    1.0000 </r>
       <r>    4.0278    1.0000 </r>
       <r>    4.8337   -0.0012 </r>
       <r>    4.8337   -0.0012 </r>
       <r>    5.3729    0.0000 </r>
       <r>   15.8873    0.0000 </r>
       <r>   15.8873    0.0000 </r>
       <r>   16.9397    0.0000 </r>
       <r>   17.3198    0.0000 </r>
      </set>
      <set comment="kpoint 8">
       <r>  -14.9308    1.0000 </r>
       <r>  -14.6714    1.0000 </r>
       <r>   -3.6809    1.0000 </r>
       <r>   -1.9839    1.0000 </r>
       <r>    1.7237    1.0000 </r>
       <r>    1.7237    1.0000 </r>
       <r>    1.7397    1.0000 </r>
       <r>    1.7398    1.0000 </r>
       <r>    9.3479    0.0000 </r>
       <r>   13.0913    0.0000 </r>
       <r>   13.0913    0.0000 </r>
       <r>   13.1372    0.0000 </r>
       <r>   13.1372    0.0000 </r>
       <r>   14.6445    0.0000 </r>
      </set>
      <set comment="kpoint 9">
       <r>  -14.2687    1.0000 </r>
       <r>  -14.0194    1.0000 </r>
       <r>   -2.8802    1.0000 </r>
       <r>   -1.2296    1.0000 </r>
       <r>   -0.5915    1.0000 </r>
       <r>   -0.5359    1.0000 </r>
       <r>    0.5764    1.0000 </r>
       <r>    0.6113    1.0000 </r>
       <r>   10.1397    0.0000 </r>
       <r>   13.0533    0.0000 </r>
       <r>   13.2173    0.0000 </r>
       <r>   14.0066    0.0000 </r>
       <r>   14.3508    0.0000 </r>
       <r>   15.3276    0.0000 </r>
      </set>
      <set comment="kpoint 10">
       <r>  -12.3155    1.0000 </r>
       <r>  -12.0965    1.0000 </r>
       <r>   -4.9383    1.0000 </r>
       <r>   -4.8227    1.0000 </r>
       <r>   -1.0497    1.0000 </r>
       <r>   -1.0046    1.0000 </r>
       <r>   -0.5755    1.0000 </r>
       <r>    0.8871    1.0000 </r>
       <r>    9.3251    0.0000 </r>
       <r>   10.1245    0.0000 </r>
       <r>   12.2743    0.0000 </r>
       <r>   12.4757    0.0000 </r>
       <r>   12.8670    0.0000 </r>
       <r>   17.0423    0.0000 </r>
      </set>
      <set comment="kpoint 11">
       <r>   -9.5863    1.0000 </r>
       <r>   -9.4826    1.0000 </r>
       <r>   -8.5409    1.0000 </r>
       <r>   -8.4618    1.0000 </r>
       <r>   -1.6888    1.0000 </r>
       <r>   -1.6413    1.0000 </r>
       <r>    2.0228    1.0000 </r>
       <r>    2.6648    1.0000 </r>
       <r>    6.2316    0.0000 </r>
       <r>    6.8821    0.0000 </r>
       <r>   12.0233    0.0000 </r>
       <r>   12.3665    0.0000 </r>
       <r>   16.2600    0.0000 </r>
       <r>   16.3688    0.0000 </r>
      </set>
      <set comment="kpoint 12">
       <r>  -12.9609    1.0000 </r>
       <r>  -12.7318    1.0000 </r>
       <r>   -3.0294    1.0000 </r>
       <r>   -2.9813    1.0000 </r>
       <r>   -1.6817    1.0000 </r>
       <r>   -1.6468    1.0000 </r>
       <r>   -1.3179    1.0000 </r>
       <r>    0.2242    1.0000 </r>
       <r>   10.9621    0.0000 </r>
       <r>   11.3825    0.0000 </r>
       <r>   11.7316    0.0000 </r>
       <r>   14.7015    0.0000 </r>
       <r>   14.9272    0.0000 </r>
       <r>   16.3161    0.0000 </r>
      </set>
      <set comment="kpoint 13">
       <r>  -10.4447    1.0000 </r>
       <r>  -10.2570    1.0000 </r>
       <r>   -6.7220    1.0000 </r>
       <r>   -6.5944    1.0000 </r>
       <r>   -3.3413    1.0000 </r>
       <r>   -3.2628    1.0000 </r>
       <r>    1.5240    1.0000 </r>
       <r>    2.6948    1.0000 </r>
       <r>    6.9849    0.0000 </r>
       <r>    7.6476    0.0000 </r>
       <r>   14.5507    0.0000 </r>
       <r>   14.7276    0.0000 </r>
       <r>   15.1479    0.0000 </r>
       <r>   16.9169    0.0000 </r>
      </set>
      <set comment="kpoint 14">
       <r>   -7.9574    1.0000 </r>
       <r>   -7.8155    1.0000 </r>
       <r>   -7.8155    1.0000 </r>
       <r>   -7.7926    1.0000 </r>
       <r>   -5.8323    1.0000 </r>
       <r>   -5.8323    1.0000 </r>
       <r>    4.1076    1.0000 </r>
       <r>    4.8422   -0.0005 </r>
       <r>    4.8422   -0.0005 </r>
       <r>    5.2696    0.0000 </r>
       <r>   15.5350    0.0000 </r>
       <r>   15.5350    0.0000 </r>
       <r>   17.1425    0.0000 </r>
       <r>   17.8335    0.0000 </r>
      </set>
      <set comment="kpoint 15">
       <r>  -14.8785    1.0000 </r>
       <r>  -14.7288    1.0000 </r>
       <r>   -3.3655    1.0000 </r>
       <r>   -2.3959    1.0000 </r>
       <r>    1.7271    1.0000 </r>
       <r>    1.7271    1.0000 </r>
       <r>    1.7363    1.0000 </r>
       <r>    1.7364    1.0000 </r>
       <r>   10.2894    0.0000 </r>
       <r>   13.1005    0.0000 </r>
       <r>   13.1005    0.0000 </r>
       <r>   13.1271    0.0000 </r>
       <r>   13.1271    0.0000 </r>
       <r>   13.2150    0.0000 </r>
      </set>
      <set comment="kpoint 16">
       <r>  -14.2182    1.0000 </r>
       <r>  -14.0744    1.0000 </r>
       <r>   -2.5727    1.0000 </r>
       <r>   -1.6291    1.0000 </r>
       <r>   -0.5798    1.0000 </r>
       <r>   -0.5477    1.0000 </r>
       <r>    0.5838    1.0000 </r>
       <r>    0.6039    1.0000 </r>
       <r>   11.0453    0.0000 </r>
       <r>   13.0386    0.0000 </r>
       <r>   13.1866    0.0000 </r>
       <r>   13.8747    0.0000 </r>
       <r>   14.1535    0.0000 </r>
       <r>   14.3497    0.0000 </r>
      </set>
      <set comment="kpoint 17">
       <r>  -12.2709    1.0000 </r>
       <r>  -12.1445    1.0000 </r>
       <r>   -4.9144    1.0000 </r>
       <r>   -4.8477    1.0000 </r>
       <r>   -1.0402    1.0000 </r>
       <r>   -1.0142    1.0000 </r>
       <r>   -0.2983    1.0000 </r>
       <r>    0.5401    1.0000 </r>
       <r>    9.4626    0.0000 </r>
       <r>    9.9268    0.0000 </r>
       <r>   12.4159    0.0000 </r>
       <r>   12.5520    0.0000 </r>
       <r>   13.4976    0.0000 </r>
       <r>   15.9406    0.0000 </r>
      </set>
      <set comment="kpoint 18">
       <r>   -9.5620    1.0000 </r>
       <r>   -9.5018    1.0000 </r>
       <r>   -8.5290    1.0000 </r>
       <r>   -8.4830    1.0000 </r>
       <r>   -1.6788    1.0000 </r>
       <r>   -1.6514    1.0000 </r>
       <r>    2.1839    1.0000 </r>
       <r>    2.5632    1.0000 </r>
       <r>    6.2693    0.0000 </r>
       <r>    6.6529    0.0000 </r>
       <r>   12.0936    0.0000 </r>
       <r>   12.2920    0.0000 </r>
       <r>   16.8527    0.0000 </r>
       <r>   16.9293    0.0000 </r>
      </set>
      <set comment="kpoint 19">
       <r>  -12.9143    1.0000 </r>
       <r>  -12.7821    1.0000 </r>
       <r>   -3.0189    1.0000 </r>
       <r>   -2.9911    1.0000 </r>
       <r>   -1.6750    1.0000 </r>
       <r>   -1.6549    1.0000 </r>
       <r>   -1.0282    1.0000 </r>
       <r>   -0.1455    1.0000 </r>
       <r>   11.0496    0.0000 </r>
       <r>   11.2919    0.0000 </r>
       <r>   12.5553    0.0000 </r>
       <r>   14.6119    0.0000 </r>
       <r>   14.9276    0.0000 </r>
       <r>   15.2968    0.0000 </r>
      </set>
      <set comment="kpoint 20">
       <r>  -10.4062    1.0000 </r>
       <r>  -10.2979    1.0000 </r>
       <r>   -6.6957    1.0000 </r>
       <r>   -6.6220    1.0000 </r>
       <r>   -3.3251    1.0000 </r>
       <r>   -3.2798    1.0000 </r>
       <r>    1.7566    1.0000 </r>
       <r>    2.4319    1.0000 </r>
       <r>    7.1004    0.0000 </r>
       <r>    7.4872    0.0000 </r>
       <r>   14.6669    0.0000 </r>
       <r>   14.8329    0.0000 </r>
       <r>   15.3764    0.0000 </r>
       <r>   16.4330    0.0000 </r>
      </set>
      <set comment="kpoint 21">
       <r>   -7.9236    1.0000 </r>
       <r>   -7.8284    1.0000 </r>
       <r>   -7.8143    1.0000 </r>
       <r>   -7.8143    1.0000 </r>
       <r>   -5.8347    1.0000 </r>
       <r>   -5.8347    1.0000 </r>
       <r>    4.3318    1.0000 </r>
       <r>    4.8594   -0.0001 </r>
       <r>    4.8594   -0.0001 </r>
       <r>    4.9993    0.0000 </r>
       <r>   15.0938    0.0000 </r>
       <r>   15.0938    0.0000 </r>
       <r>   17.6876    0.0000 </r>
       <r>   18.7331    0.0000 </r>
      </set>
      <set comment="kpoint 22">
       <r>  -14.8049    1.0000 </r>
       <r>  -14.8049    1.0000 </r>
       <r>   -2.9040    1.0000 </r>
       <r>   -2.9040    1.0000 </r>
       <r>    1.7317    1.0000 </r>
       <r>    1.7317    1.0000 </r>
       <r>    1.7317    1.0000 </r>
       <r>    1.7317    1.0000 </r>
       <r>   11.6520    0.0000 </r>
       <r>   11.6520    0.0000 </r>
       <r>   13.1133    0.0000 </r>
       <r>   13.1133    0.0000 </r>
       <r>   13.1133    0.0000 </r>
       <r>   13.1133    0.0000 </r>
      </set>
      <set comment="kpoint 23">
       <r>  -14.1474    1.0000 </r>
       <r>  -14.1474    1.0000 </r>
       <r>   -2.1231    1.0000 </r>
       <r>   -2.1231    1.0000 </r>
       <r>   -0.5638    1.0000 </r>
       <r>   -0.5638    1.0000 </r>
       <r>    0.5938    1.0000 </r>
       <r>    0.5938    1.0000 </r>
       <r>   12.3205    0.0000 </r>
       <r>   12.3205    0.0000 </r>
       <r>   13.1935    0.0000 </r>
       <r>   13.1935    0.0000 </r>
       <r>   14.2171    0.0000 </r>
       <r>   14.2171    0.0000 </r>
      </set>
      <set comment="kpoint 24">
       <r>  -12.2086    1.0000 </r>
       <r>  -12.2086    1.0000 </r>
       <r>   -4.8813    1.0000 </r>
       <r>   -4.8813    1.0000 </r>
       <r>   -1.0273    1.0000 </r>
       <r>   -1.0273    1.0000 </r>
       <r>    0.1039    1.0000 </r>
       <r>    0.1039    1.0000 </r>
       <r>    9.6807    0.0000 </r>
       <r>    9.6807    0.0000 </r>
       <r>   12.5000    0.0000 </r>
       <r>   12.5000    0.0000 </r>
       <r>   14.6482    0.0000 </r>
       <r>   14.6482    0.0000 </r>
      </set>
      <set comment="kpoint 25">
       <r>   -9.5307    1.0000 </r>
       <r>   -9.5307    1.0000 </r>
       <r>   -8.5083    1.0000 </r>
       <r>   -8.5083    1.0000 </r>
       <r>   -1.6651    1.0000 </r>
       <r>   -1.6651    1.0000 </r>
       <r>    2.3882    1.0000 </r>
       <r>    2.3882    1.0000 </r>
       <r>    6.4144    0.0000 </r>
       <r>    6.4144    0.0000 </r>
       <r>   12.1916    0.0000 </r>
       <r>   12.1916    0.0000 </r>
       <r>   17.3493    0.0000 </r>
       <r>   17.3493    0.0000 </r>
      </set>
      <set comment="kpoint 26">
       <r>  -12.8492    1.0000 </r>
       <r>  -12.8492    1.0000 </r>
       <r>   -3.0049    1.0000 </r>
       <r>   -3.0049    1.0000 </r>
       <r>   -1.6653    1.0000 </r>
       <r>   -1.6653    1.0000 </r>
       <r>   -0.6062    1.0000 </r>
       <r>   -0.6062    1.0000 </r>
       <r>   11.1702    0.0000 </r>
       <r>   11.1702    0.0000 </r>
       <r>   13.7043    0.0000 </r>
       <r>   13.7043    0.0000 </r>
       <r>   14.9369    0.0000 </r>
       <r>   14.9369    0.0000 </r>
      </set>
      <set comment="kpoint 27">
       <r>  -10.3527    1.0000 </r>
       <r>  -10.3527    1.0000 </r>
       <r>   -6.6592    1.0000 </r>
       <r>   -6.6592    1.0000 </r>
       <r>   -3.3026    1.0000 </r>
       <r>   -3.3026    1.0000 </r>
       <r>    2.0866    1.0000 </r>
       <r>    2.0866    1.0000 </r>
       <r>    7.2831    0.0000 </r>
       <r>    7.2831    0.0000 </r>
       <r>   14.7639    0.0000 </r>
       <r>   14.7639    0.0000 </r>
       <r>   15.8993    0.0000 </r>
       <r>   15.8993    0.0000 </r>
      </set>
      <set comment="kpoint 28">
       <r>   -7.8765    1.0000 </r>
       <r>   -7.8765    1.0000 </r>
       <r>   -7.8138    1.0000 </r>
       <r>   -7.8138    1.0000 </r>
       <r>   -5.8359    1.0000 </r>
       <r>   -5.8359    1.0000 </r>
       <r>    4.6541    1.0323 </r>
       <r>    4.6541    1.0323 </r>
       <r>    4.8679    0.0000 </r>
       <r>    4.8679    0.0000 </r>
       <r>   14.9262    0.0000 </r>
       <r>   14.9262    0.0000 </r>
       <r>   18.4048    0.0000 </r>
       <r>   18.4048    0.0000 </r>
      </set>
     </set>
    </set>
   </array>
  </eigenvalues>
  <separator name="orbital magnetization" >
   <v name="MAGDIPOLOUT">      0.00000000      0.00000000      0.00000000</v>
  </separator>
  <dos>
   <i name="efermi">      4.70885921 </i>
   <total>
    <array>
     <dimension dim="1">gridpoints</dimension>
     <dimension dim="2">spin</dimension>
     <field>energy</field>
     <field>total</field>
     <field>integrated</field>
     <set>
      <set comment="spin 1">
       <r>   -16.6654     0.0000     0.0000 </r>
       <r>   -16.5418     0.0000     0.0000 </r>
       <r>   -16.4182     0.0000     0.0000 </r>
       <r>   -16.2946     0.0000     0.0000 </r>
       <r>   -16.1710     0.0000     0.0000 </r>
       <r>   -16.0473     0.0000     0.0000 </r>
       <r>   -15.9237     0.0000     0.0000 </r>
       <r>   -15.8001     0.0000     0.0000 </r>
       <r>   -15.6765     0.0000     0.0000 </r>
       <r>   -15.5529     0.0000     0.0000 </r>
       <r>   -15.4293     0.0000     0.0000 </r>
       <r>   -15.3057     0.0000     0.0000 </r>
       <r>   -15.1820     0.0000     0.0000 </r>
       <r>   -15.0584    -0.0016    -0.0002 </r>
       <r>   -14.9348     0.1135     0.0138 </r>
       <r>   -14.8112     0.1374     0.0308 </r>
       <r>   -14.6876     0.1572     0.0502 </r>
       <r>   -14.5640     0.0431     0.0556 </r>
       <r>   -14.4404    -0.0005     0.0555 </r>
       <r>   -14.3168     0.1928     0.0793 </r>
       <r>   -14.1931     1.0498     0.2091 </r>
       <r>   -14.0695     0.8418     0.3132 </r>
       <r>   -13.9459     0.6203     0.3899 </r>
       <r>   -13.8223    -0.0078     0.3889 </r>
       <r>   -13.6987     0.0000     0.3889 </r>
       <r>   -13.5751     0.0000     0.3889 </r>
       <r>   -13.4515     0.0000     0.3889 </r>
       <r>   -13.3278     0.0000     0.3889 </r>
       <r>   -13.2042     0.0000     0.3889 </r>
       <r>   -13.0806    -0.0129     0.3873 </r>
       <r>   -12.9570     0.7817     0.4839 </r>
       <r>   -12.8334     0.8657     0.5909 </r>
       <r>   -12.7098     1.0631     0.7224 </r>
       <r>   -12.5862    -0.0010     0.7222 </r>
       <r>   -12.4625    -0.0025     0.7219 </r>
       <r>   -12.3389     0.4575     0.7785 </r>
       <r>   -12.2153     1.0450     0.9076 </r>
       <r>   -12.0917     1.1260     1.0468 </r>
       <r>   -11.9681     0.0707     1.0556 </r>
       <r>   -11.8445    -0.0001     1.0556 </r>
       <r>   -11.7209     0.0000     1.0556 </r>
       <r>   -11.5972     0.0000     1.0556 </r>
       <r>   -11.4736     0.0000     1.0556 </r>
       <r>   -11.3500     0.0000     1.0556 </r>
       <r>   -11.2264     0.0000     1.0556 </r>
       <r>   -11.1028     0.0000     1.0556 </r>
       <r>   -10.9792     0.0000     1.0556 </r>
       <r>   -10.8556     0.0000     1.0556 </r>
       <r>   -10.7320     0.0000     1.0556 </r>
       <r>   -10.6083    -0.0011     1.0554 </r>
       <r>   -10.4847     0.4868     1.1156 </r>
       <r>   -10.3611     2.5246     1.4277 </r>
       <r>   -10.2375     2.3899     1.7231 </r>
       <r>   -10.1139    -0.0070     1.7222 </r>
       <r>    -9.9903     0.0000     1.7222 </r>
       <r>    -9.8667     0.0000     1.7222 </r>
       <r>    -9.7430    -0.0003     1.7222 </r>
       <r>    -9.6194     0.1462     1.7403 </r>
       <r>    -9.4958     1.1640     1.8841 </r>
       <r>    -9.3722     0.0384     1.8889 </r>
       <r>    -9.2486     0.0000     1.8889 </r>
       <r>    -9.1250     0.0000     1.8889 </r>
       <r>    -9.0014     0.0000     1.8889 </r>
       <r>    -8.8777     0.0000     1.8889 </r>
       <r>    -8.7541     0.0000     1.8889 </r>
       <r>    -8.6305    -0.0152     1.8870 </r>
       <r>    -8.5069     0.9290     2.0018 </r>
       <r>    -8.3833     0.4374     2.0559 </r>
       <r>    -8.2597    -0.0029     2.0556 </r>
       <r>    -8.1361     0.0000     2.0556 </r>
       <r>    -8.0125    -0.0089     2.0545 </r>
       <r>    -7.8888     0.9540     2.1724 </r>
       <r>    -7.7652     0.7224     2.2617 </r>
       <r>    -7.6416     0.1307     2.2778 </r>
       <r>    -7.5180    -0.0005     2.2778 </r>
       <r>    -7.3944     0.0000     2.2778 </r>
       <r>    -7.2708     0.0000     2.2778 </r>
       <r>    -7.1472     0.0000     2.2778 </r>
       <r>    -7.0235     0.0000     2.2778 </r>
       <r>    -6.8999    -0.0001     2.2778 </r>
       <r>    -6.7763     0.0995     2.2901 </r>
       <r>    -6.6527     3.3953     2.7098 </r>
       <r>    -6.5291     1.9253     2.9478 </r>
       <r>    -6.4055    -0.0268     2.9444 </r>
       <r>    -6.2819     0.0000     2.9444 </r>
       <r>    -6.1582     0.0000     2.9444 </r>
       <r>    -6.0346     0.0000     2.9444 </r>
       <r>    -5.9110    -0.0298     2.9408 </r>
       <r>    -5.7874     0.9584     3.0592 </r>
       <r>    -5.6638    -0.0297     3.0556 </r>
       <r>    -5.5402     0.0000     3.0556 </r>
       <r>    -5.4166     0.0000     3.0556 </r>
       <r>    -5.2930     0.0000     3.0556 </r>
       <r>    -5.1693     0.0000     3.0556 </r>
       <r>    -5.0457    -0.0158     3.0536 </r>
       <r>    -4.9221     1.0720     3.1861 </r>
       <r>    -4.7985     1.6567     3.3909 </r>
       <r>    -4.6749    -0.0164     3.3889 </r>
       <r>    -4.5513     0.0000     3.3889 </r>
       <r>    -4.4277     0.0000     3.3889 </r>
       <r>    -4.3040     0.0000     3.3889 </r>
       <r>    -4.1804     0.0000     3.3889 </r>
       <r>    -4.0568     0.0000     3.3889 </r>
       <r>    -3.9332    -0.0011     3.3888 </r>
       <r>    -3.8096     0.0368     3.3933 </r>
       <r>    -3.6860     0.0793     3.4031 </r>
       <r>    -3.5624    -0.0027     3.4028 </r>
       <r>    -3.4387    -0.0072     3.4019 </r>
       <r>    -3.3151     2.8458     3.7537 </r>
       <r>    -3.1915     2.6637     4.0829 </r>
       <r>    -3.0679     0.1988     4.1075 </r>
       <r>    -2.9443     3.0662     4.4865 </r>
       <r>    -2.8207     0.1469     4.5047 </r>
       <r>    -2.6971    -0.0153     4.5028 </r>
       <r>    -2.5734     0.4788     4.5620 </r>
       <r>    -2.4498     0.0446     4.5675 </r>
       <r>    -2.3262     0.0156     4.5694 </r>
       <r>    -2.2026     0.1595     4.5891 </r>
       <r>    -2.0790     0.3051     4.6268 </r>
       <r>    -1.9554     0.0592     4.6342 </r>
       <r>    -1.8318     0.0385     4.6389 </r>
       <r>    -1.7082     0.6517     4.7195 </r>
       <r>    -1.5845     3.9021     5.2018 </r>
       <r>    -1.4609     0.1300     5.2179 </r>
       <r>    -1.3373     0.5236     5.2826 </r>
       <r>    -1.2137     0.4071     5.3329 </r>
       <r>    -1.0901     0.5571     5.4018 </r>
       <r>    -0.9665     2.8760     5.7573 </r>
       <r>    -0.8429    -0.0609     5.7498 </r>
       <r>    -0.7192     0.1805     5.7721 </r>
       <r>    -0.5956     1.8255     5.9978 </r>
       <r>    -0.4720     1.8374     6.2249 </r>
       <r>    -0.3484     0.3467     6.2677 </r>
       <r>    -0.2248     0.2807     6.3024 </r>
       <r>    -0.1012     0.2504     6.3334 </r>
       <r>     0.0224     0.1670     6.3540 </r>
       <r>     0.1461     0.5138     6.4176 </r>
       <r>     0.2697     0.2660     6.4504 </r>
       <r>     0.3933     0.1629     6.4706 </r>
       <r>     0.5169     0.4100     6.5213 </r>
       <r>     0.6405     2.8008     6.8675 </r>
       <r>     0.7641    -0.0503     6.8613 </r>
       <r>     0.8877     0.4519     6.9171 </r>
       <r>     1.0113     0.2277     6.9453 </r>
       <r>     1.1350    -0.0066     6.9444 </r>
       <r>     1.2586    -0.0010     6.9443 </r>
       <r>     1.3822     0.2519     6.9755 </r>
       <r>     1.5058     1.1168     7.1135 </r>
       <r>     1.6294    -0.0632     7.1057 </r>
       <r>     1.7530     1.8182     7.3305 </r>
       <r>     1.8766     0.0200     7.3329 </r>
       <r>     2.0003     0.6222     7.4098 </r>
       <r>     2.1239     0.7232     7.4992 </r>
       <r>     2.2475     0.1029     7.5119 </r>
       <r>     2.3711     1.0310     7.6394 </r>
       <r>     2.4947     0.3174     7.6786 </r>
       <r>     2.6183     1.0553     7.8091 </r>
       <r>     2.7419     0.6537     7.8899 </r>
       <r>     2.8656    -0.0081     7.8889 </r>
       <r>     2.9892     0.0000     7.8889 </r>
       <r>     3.1128     0.0000     7.8889 </r>
       <r>     3.2364     0.0000     7.8889 </r>
       <r>     3.3600     0.0000     7.8889 </r>
       <r>     3.4836     0.0000     7.8889 </r>
       <r>     3.6072     0.0000     7.8889 </r>
       <r>     3.7308     0.0000     7.8889 </r>
       <r>     3.8545     0.0000     7.8889 </r>
       <r>     3.9781     0.0000     7.8889 </r>
       <r>     4.1017     0.0027     7.8892 </r>
       <r>     4.2253     0.1700     7.9102 </r>
       <r>     4.3489     0.0502     7.9165 </r>
       <r>     4.4725     0.1325     7.9328 </r>
       <r>     4.5961     0.7500     8.0255 </r>
       <r>     4.7198     0.1657     8.0460 </r>
       <r>     4.8434     0.1558     8.0653 </r>
       <r>     4.9670    -0.0039     8.0648 </r>
       <r>     5.0906     0.0229     8.0676 </r>
       <r>     5.2142     0.1281     8.0835 </r>
       <r>     5.3378    -0.0043     8.0829 </r>
       <r>     5.4614     0.1639     8.1032 </r>
       <r>     5.5851     0.0647     8.1112 </r>
       <r>     5.7087    -0.0008     8.1111 </r>
       <r>     5.8323     0.0000     8.1111 </r>
       <r>     5.9559     0.0000     8.1111 </r>
       <r>     6.0795    -0.0001     8.1111 </r>
       <r>     6.2031     0.0942     8.1227 </r>
       <r>     6.3267     0.5447     8.1901 </r>
       <r>     6.4504     0.1457     8.2081 </r>
       <r>     6.5740     0.2100     8.2340 </r>
       <r>     6.6976     0.0100     8.2353 </r>
       <r>     6.8212     0.2392     8.2648 </r>
       <r>     6.9448     1.3669     8.4338 </r>
       <r>     7.0684     0.9920     8.5564 </r>
       <r>     7.1920     0.3412     8.5986 </r>
       <r>     7.3156     0.5327     8.6645 </r>
       <r>     7.4393     0.9164     8.7777 </r>
       <r>     7.5629     0.5729     8.8486 </r>
       <r>     7.6865     0.7894     8.9461 </r>
       <r>     7.8101    -0.0138     8.9444 </r>
       <r>     7.9337     0.0000     8.9444 </r>
       <r>     8.0573     0.0000     8.9444 </r>
       <r>     8.1809     0.0000     8.9444 </r>
       <r>     8.3046     0.0000     8.9444 </r>
       <r>     8.4282     0.0000     8.9444 </r>
       <r>     8.5518     0.0000     8.9444 </r>
       <r>     8.6754     0.0000     8.9444 </r>
       <r>     8.7990     0.0000     8.9444 </r>
       <r>     8.9226    -0.0010     8.9443 </r>
       <r>     9.0462     0.0395     8.9492 </r>
       <r>     9.1699    -0.0101     8.9480 </r>
       <r>     9.2935     0.6950     9.0339 </r>
       <r>     9.4171     0.4912     9.0946 </r>
       <r>     9.5407     0.0079     9.0956 </r>
       <r>     9.6643     0.4762     9.1544 </r>
       <r>     9.7879     0.1373     9.1714 </r>
       <r>     9.9115     0.5327     9.2372 </r>
       <r>    10.0351     0.2819     9.2721 </r>
       <r>    10.1588     0.8545     9.3777 </r>
       <r>    10.2824     0.0489     9.3838 </r>
       <r>    10.4060     0.0041     9.3843 </r>
       <r>    10.5296     0.0000     9.3843 </r>
       <r>    10.6532     0.0000     9.3843 </r>
       <r>    10.7768    -0.0114     9.3829 </r>
       <r>    10.9004     0.6164     9.4590 </r>
       <r>    11.0241     0.8849     9.5684 </r>
       <r>    11.1477     0.5420     9.6354 </r>
       <r>    11.2713     0.6063     9.7104 </r>
       <r>    11.3949     0.6339     9.7887 </r>
       <r>    11.5185     0.0978     9.8008 </r>
       <r>    11.6421     0.0570     9.8079 </r>
       <r>    11.7657     0.4839     9.8677 </r>
       <r>    11.8894    -0.0214     9.8650 </r>
       <r>    12.0130     0.3139     9.9038 </r>
       <r>    12.1366     0.5417     9.9708 </r>
       <r>    12.2602     0.7028    10.0577 </r>
       <r>    12.3838     1.3084    10.2194 </r>
       <r>    12.5074     1.4983    10.4046 </r>
       <r>    12.6310     0.5870    10.4772 </r>
       <r>    12.7546     0.0698    10.4858 </r>
       <r>    12.8783     0.5972    10.5596 </r>
       <r>    13.0019     0.2269    10.5877 </r>
       <r>    13.1255     1.5820    10.7832 </r>
       <r>    13.2491     1.8948    11.0174 </r>
       <r>    13.3727    -0.0367    11.0129 </r>
       <r>    13.4963     0.4466    11.0681 </r>
       <r>    13.6199     0.0111    11.0695 </r>
       <r>    13.7436     0.4571    11.1260 </r>
       <r>    13.8672     0.3207    11.1656 </r>
       <r>    13.9908     0.8821    11.2747 </r>
       <r>    14.1144     0.5861    11.3471 </r>
       <r>    14.2380     0.5483    11.4149 </r>
       <r>    14.3616     0.7925    11.5128 </r>
       <r>    14.4852     0.4472    11.5681 </r>
       <r>    14.6089     2.0185    11.8176 </r>
       <r>    14.7325     3.4256    12.2411 </r>
       <r>    14.8561     1.1667    12.3853 </r>
       <r>    14.9797     1.7583    12.6027 </r>
       <r>    15.1033     0.5361    12.6689 </r>
       <r>    15.2269     1.1746    12.8141 </r>
       <r>    15.3505     1.3484    12.9808 </r>
       <r>    15.4742     0.4944    13.0419 </r>
       <r>    15.5978     0.1780    13.0639 </r>
       <r>    15.7214     0.2390    13.0935 </r>
       <r>    15.8450     0.4140    13.1446 </r>
       <r>    15.9686     1.0867    13.2790 </r>
       <r>    16.0922     0.1478    13.2973 </r>
       <r>    16.2158     0.0292    13.3009 </r>
       <r>    16.3394     1.2300    13.4529 </r>
       <r>    16.4631     0.8449    13.5574 </r>
       <r>    16.5867    -0.0146    13.5556 </r>
       <r>    16.7103    -0.0062    13.5548 </r>
       <r>    16.8339     0.4375    13.6089 </r>
       <r>    16.9575     0.9872    13.7309 </r>
       <r>    17.0811     0.4418    13.7855 </r>
       <r>    17.2047     0.5852    13.8579 </r>
       <r>    17.3284     0.3317    13.8989 </r>
       <r>    17.4520     0.1692    13.9198 </r>
       <r>    17.5756     0.0498    13.9259 </r>
       <r>    17.6992     0.0014    13.9261 </r>
       <r>    17.8228     0.3053    13.9639 </r>
       <r>    17.9464    -0.0072    13.9630 </r>
       <r>    18.0700     0.0000    13.9630 </r>
       <r>    18.1937     0.0000    13.9630 </r>
       <r>    18.3173    -0.0001    13.9629 </r>
       <r>    18.4409     0.0651    13.9710 </r>
       <r>    18.5645     0.0832    13.9813 </r>
       <r>    18.6881     0.1414    13.9988 </r>
       <r>    18.8117     0.0101    14.0000 </r>
       <r>    18.9353     0.0000    14.0000 </r>
       <r>    19.0589     0.0000    14.0000 </r>
       <r>    19.1826     0.0000    14.0000 </r>
       <r>    19.3062     0.0000    14.0000 </r>
       <r>    19.4298     0.0000    14.0000 </r>
       <r>    19.5534     0.0000    14.0000 </r>
       <r>    19.6770     0.0000    14.0000 </r>
       <r>    19.8006     0.0000    14.0000 </r>
       <r>    19.9242     0.0000    14.0000 </r>
       <r>    20.0479     0.0000    14.0000 </r>
       <r>    20.1715     0.0000    14.0000 </r>
       <r>    20.2951     0.0000    14.0000 </r>
       <r>    20.4187     0.0000    14.0000 </r>
      </set>
      <set comment="spin 2">
       <r>   -16.6654     0.0000     0.0000 </r>
       <r>   -16.5418     0.0000     0.0000 </r>
       <r>   -16.4182     0.0000     0.0000 </r>
       <r>   -16.2946     0.0000     0.0000 </r>
       <r>   -16.1710     0.0000     0.0000 </r>
       <r>   -16.0473     0.0000     0.0000 </r>
       <r>   -15.9237     0.0000     0.0000 </r>
       <r>   -15.8001     0.0000     0.0000 </r>
       <r>   -15.6765     0.0000     0.0000 </r>
       <r>   -15.5529     0.0000     0.0000 </r>
       <r>   -15.4293     0.0000     0.0000 </r>
       <r>   -15.3057     0.0000     0.0000 </r>
       <r>   -15.1820     0.0000     0.0000 </r>
       <r>   -15.0584    -0.0002     0.0000 </r>
       <r>   -14.9348     0.0577     0.0071 </r>
       <r>   -14.8112     0.1604     0.0269 </r>
       <r>   -14.6876     0.1379     0.0440 </r>
       <r>   -14.5640     0.0946     0.0557 </r>
       <r>   -14.4404    -0.0010     0.0556 </r>
       <r>   -14.3168     0.0051     0.0562 </r>
       <r>   -14.1931     1.0683     0.1882 </r>
       <r>   -14.0695     0.7542     0.2815 </r>
       <r>   -13.9459     0.8892     0.3914 </r>
       <r>   -13.8223    -0.0202     0.3889 </r>
       <r>   -13.6987     0.0000     0.3889 </r>
       <r>   -13.5751     0.0000     0.3889 </r>
       <r>   -13.4515     0.0000     0.3889 </r>
       <r>   -13.3278     0.0000     0.3889 </r>
       <r>   -13.2042     0.0000     0.3889 </r>
       <r>   -13.0806    -0.0023     0.3886 </r>
       <r>   -12.9570     0.4371     0.4426 </r>
       <r>   -12.8334     1.0217     0.5689 </r>
       <r>   -12.7098     1.0803     0.7025 </r>
       <r>   -12.5862     0.1601     0.7223 </r>
       <r>   -12.4625    -0.0005     0.7222 </r>
       <r>   -12.3389     0.1363     0.7390 </r>
       <r>   -12.2153     1.1653     0.8831 </r>
       <r>   -12.0917     1.0610     1.0142 </r>
       <r>   -11.9681     0.3355     1.0557 </r>
       <r>   -11.8445    -0.0012     1.0556 </r>
       <r>   -11.7209     0.0000     1.0556 </r>
       <r>   -11.5972     0.0000     1.0556 </r>
       <r>   -11.4736     0.0000     1.0556 </r>
       <r>   -11.3500     0.0000     1.0556 </r>
       <r>   -11.2264     0.0000     1.0556 </r>
       <r>   -11.1028     0.0000     1.0556 </r>
       <r>   -10.9792     0.0000     1.0556 </r>
       <r>   -10.8556     0.0000     1.0556 </r>
       <r>   -10.7320     0.0000     1.0556 </r>
       <r>   -10.6083    -0.0001     1.0555 </r>
       <r>   -10.4847     0.0399     1.0605 </r>
       <r>   -10.3611     2.5252     1.3726 </r>
       <r>   -10.2375     2.4935     1.6809 </r>
       <r>   -10.1139     0.3353     1.7223 </r>
       <r>    -9.9903    -0.0006     1.7222 </r>
       <r>    -9.8667     0.0000     1.7222 </r>
       <r>    -9.7430     0.0000     1.7222 </r>
       <r>    -9.6194     0.0161     1.7242 </r>
       <r>    -9.4958     0.9934     1.8470 </r>
       <r>    -9.3722     0.3406     1.8891 </r>
       <r>    -9.2486    -0.0017     1.8889 </r>
       <r>    -9.1250     0.0000     1.8889 </r>
       <r>    -9.0014     0.0000     1.8889 </r>
       <r>    -8.8777     0.0000     1.8889 </r>
       <r>    -8.7541     0.0000     1.8889 </r>
       <r>    -8.6305    -0.0073     1.8880 </r>
       <r>    -8.5069     0.6625     1.9699 </r>
       <r>    -8.3833     0.7042     2.0569 </r>
       <r>    -8.2597    -0.0112     2.0556 </r>
       <r>    -8.1361     0.0000     2.0556 </r>
       <r>    -8.0125    -0.0074     2.0546 </r>
       <r>    -7.8888     0.3940     2.1033 </r>
       <r>    -7.7652     1.4029     2.2768 </r>
       <r>    -7.6416     0.0083     2.2778 </r>
       <r>    -7.5180     0.0000     2.2778 </r>
       <r>    -7.3944     0.0000     2.2778 </r>
       <r>    -7.2708     0.0000     2.2778 </r>
       <r>    -7.1472     0.0000     2.2778 </r>
       <r>    -7.0235     0.0000     2.2778 </r>
       <r>    -6.8999     0.0000     2.2778 </r>
       <r>    -6.7763    -0.0557     2.2709 </r>
       <r>    -6.6527     2.9140     2.6311 </r>
       <r>    -6.5291     2.5924     2.9515 </r>
       <r>    -6.4055    -0.0575     2.9444 </r>
       <r>    -6.2819     0.0000     2.9444 </r>
       <r>    -6.1582     0.0000     2.9444 </r>
       <r>    -6.0346     0.0000     2.9444 </r>
       <r>    -5.9110    -0.0228     2.9416 </r>
       <r>    -5.7874     0.9346     3.0572 </r>
       <r>    -5.6638    -0.0130     3.0556 </r>
       <r>    -5.5402     0.0000     3.0556 </r>
       <r>    -5.4166     0.0000     3.0556 </r>
       <r>    -5.2930     0.0000     3.0556 </r>
       <r>    -5.1693     0.0000     3.0556 </r>
       <r>    -5.0457    -0.0044     3.0550 </r>
       <r>    -4.9221     0.6926     3.1406 </r>
       <r>    -4.7985     1.9093     3.3766 </r>
       <r>    -4.6749     0.0992     3.3889 </r>
       <r>    -4.5513    -0.0001     3.3889 </r>
       <r>    -4.4277     0.0000     3.3889 </r>
       <r>    -4.3040     0.0000     3.3889 </r>
       <r>    -4.1804     0.0000     3.3889 </r>
       <r>    -4.0568     0.0000     3.3889 </r>
       <r>    -3.9332     0.0000     3.3889 </r>
       <r>    -3.8096     0.0085     3.3899 </r>
       <r>    -3.6860     0.0603     3.3974 </r>
       <r>    -3.5624     0.0438     3.4028 </r>
       <r>    -3.4387    -0.0198     3.4003 </r>
       <r>    -3.3151     2.1671     3.6682 </r>
       <r>    -3.1915     3.3819     4.0863 </r>
       <r>    -3.0679    -0.0979     4.0742 </r>
       <r>    -2.9443     2.9693     4.4412 </r>
       <r>    -2.8207     0.5303     4.5068 </r>
       <r>    -2.6971    -0.0179     4.5046 </r>
       <r>    -2.5734     0.2193     4.5317 </r>
       <r>    -2.4498     0.2290     4.5600 </r>
       <r>    -2.3262     0.0790     4.5697 </r>
       <r>    -2.2026    -0.0130     4.5681 </r>
       <r>    -2.0790     0.4628     4.6253 </r>
       <r>    -1.9554     0.0651     4.6334 </r>
       <r>    -1.8318     0.0196     4.6358 </r>
       <r>    -1.7082     0.1543     4.6549 </r>
       <r>    -1.5845     4.4579     5.2059 </r>
       <r>    -1.4609    -0.0914     5.1947 </r>
       <r>    -1.3373     0.3141     5.2335 </r>
       <r>    -1.2137     0.7001     5.3200 </r>
       <r>    -1.0901     0.1026     5.3327 </r>
       <r>    -0.9665     3.4250     5.7561 </r>
       <r>    -0.8429    -0.0491     5.7500 </r>
       <r>    -0.7192    -0.0052     5.7494 </r>
       <r>    -0.5956     1.0367     5.8775 </r>
       <r>    -0.4720     2.8366     6.2282 </r>
       <r>    -0.3484    -0.0594     6.2208 </r>
       <r>    -0.2248     0.4632     6.2781 </r>
       <r>    -0.1012     0.4512     6.3338 </r>
       <r>     0.0224    -0.0138     6.3321 </r>
       <r>     0.1461     0.4481     6.3875 </r>
       <r>     0.2697     0.4644     6.4449 </r>
       <r>     0.3933     0.1920     6.4687 </r>
       <r>     0.5169     0.0313     6.4725 </r>
       <r>     0.6405     3.1151     6.8576 </r>
       <r>     0.7641     0.0278     6.8610 </r>
       <r>     0.8877     0.2297     6.8894 </r>
       <r>     1.0113     0.2959     6.9260 </r>
       <r>     1.1350     0.1498     6.9445 </r>
       <r>     1.2586    -0.0007     6.9444 </r>
       <r>     1.3822    -0.0159     6.9425 </r>
       <r>     1.5058     0.6729     7.0257 </r>
       <r>     1.6294     0.6888     7.1108 </r>
       <r>     1.7530     1.1334     7.2509 </r>
       <r>     1.8766     0.6665     7.3333 </r>
       <r>     2.0003     0.1304     7.3494 </r>
       <r>     2.1239     1.0766     7.4825 </r>
       <r>     2.2475     0.2617     7.5149 </r>
       <r>     2.3711     0.0117     7.5163 </r>
       <r>     2.4947     1.1295     7.6559 </r>
       <r>     2.6183     0.1763     7.6777 </r>
       <r>     2.7419     1.2707     7.8348 </r>
       <r>     2.8656     0.4509     7.8905 </r>
       <r>     2.9892    -0.0134     7.8889 </r>
       <r>     3.1128     0.0000     7.8889 </r>
       <r>     3.2364     0.0000     7.8889 </r>
       <r>     3.3600     0.0000     7.8889 </r>
       <r>     3.4836     0.0000     7.8889 </r>
       <r>     3.6072     0.0000     7.8889 </r>
       <r>     3.7308     0.0000     7.8889 </r>
       <r>     3.8545     0.0000     7.8889 </r>
       <r>     3.9781    -0.0020     7.8886 </r>
       <r>     4.1017     0.1390     7.9058 </r>
       <r>     4.2253     0.0872     7.9166 </r>
       <r>     4.3489     0.1161     7.9310 </r>
       <r>     4.4725     0.0342     7.9352 </r>
       <r>     4.5961    -0.0052     7.9345 </r>
       <r>     4.7198     0.1592     7.9542 </r>
       <r>     4.8434     0.3438     7.9967 </r>
       <r>     4.9670     0.5630     8.0663 </r>
       <r>     5.0906     0.1397     8.0836 </r>
       <r>     5.2142    -0.0070     8.0827 </r>
       <r>     5.3378     0.1627     8.1028 </r>
       <r>     5.4614     0.0682     8.1113 </r>
       <r>     5.5851    -0.0012     8.1111 </r>
       <r>     5.7087     0.0000     8.1111 </r>
       <r>     5.8323     0.0000     8.1111 </r>
       <r>     5.9559     0.0000     8.1111 </r>
       <r>     6.0795     0.0000     8.1111 </r>
       <r>     6.2031     0.0213     8.1137 </r>
       <r>     6.3267     0.5484     8.1815 </r>
       <r>     6.4504     0.2091     8.2074 </r>
       <r>     6.5740     0.0022     8.2077 </r>
       <r>     6.6976     0.2324     8.2364 </r>
       <r>     6.8212    -0.0107     8.2351 </r>
       <r>     6.9448     0.4603     8.2920 </r>
       <r>     7.0684     1.3102     8.4539 </r>
       <r>     7.1920     0.8218     8.5555 </r>
       <r>     7.3156     0.8466     8.6602 </r>
       <r>     7.4393     0.0344     8.6644 </r>
       <r>     7.5629     0.9245     8.7787 </r>
       <r>     7.6865     0.9525     8.8964 </r>
       <r>     7.8101     0.3916     8.9448 </r>
       <r>     7.9337    -0.0032     8.9444 </r>
       <r>     8.0573     0.0000     8.9444 </r>
       <r>     8.1809     0.0000     8.9444 </r>
       <r>     8.3046     0.0000     8.9444 </r>
       <r>     8.4282     0.0000     8.9444 </r>
       <r>     8.5518     0.0000     8.9444 </r>
       <r>     8.6754     0.0000     8.9444 </r>
       <r>     8.7990     0.0000     8.9444 </r>
       <r>     8.9226    -0.0007     8.9444 </r>
       <r>     9.0462     0.0375     8.9490 </r>
       <r>     9.1699    -0.0002     8.9490 </r>
       <r>     9.2935     0.1855     8.9719 </r>
       <r>     9.4171     0.5668     9.0420 </r>
       <r>     9.5407     0.4580     9.0986 </r>
       <r>     9.6643     0.0958     9.1104 </r>
       <r>     9.7879     0.3780     9.1572 </r>
       <r>     9.9115     0.3054     9.1949 </r>
       <r>    10.0351     0.3260     9.2352 </r>
       <r>    10.1588     0.7952     9.3335 </r>
       <r>    10.2824     0.3692     9.3791 </r>
       <r>    10.4060     0.0416     9.3843 </r>
       <r>    10.5296    -0.0002     9.3843 </r>
       <r>    10.6532     0.0000     9.3843 </r>
       <r>    10.7768     0.0000     9.3843 </r>
       <r>    10.9004     0.0018     9.3845 </r>
       <r>    11.0241     0.8250     9.4865 </r>
       <r>    11.1477     0.8245     9.5884 </r>
       <r>    11.2713     0.4544     9.6446 </r>
       <r>    11.3949     0.7255     9.7342 </r>
       <r>    11.5185     0.5448     9.8016 </r>
[...]
       </set>
       <set comment="band 10">
        <r>  0.0011  0.0000  0.0629  0.0000  0.0000  0.0000  0.0000  0.0000  0.0000 </r>
        <r>  0.0001  0.0002  0.0570  0.0006  0.0000  0.0000  0.0000  0.0000  0.0000 </r>
        <r>  0.0000  0.0001  0.1521  0.0002  0.0000  0.0000  0.0000  0.0000  0.0000 </r>
        <r>  0.0004  0.0000  0.1679  0.0000  0.0000  0.0000  0.0000  0.0000  0.0000 </r>
       </set>
       <set comment="band 11">
        <r>  0.1750  0.0095  0.0000  0.0284  0.0000  0.0000  0.0000  0.0000  0.0000 </r>
        <r>  0.1758  0.0095  0.0000  0.0284  0.0000  0.0000  0.0000  0.0000  0.0000 </r>
        <r>  0.0099  0.0005  0.0000  0.0016  0.0000  0.0000  0.0000  0.0000  0.0000 </r>
        <r>  0.0098  0.0005  0.0000  0.0016  0.0000  0.0000  0.0000  0.0000  0.0000 </r>
       </set>
       <set comment="band 12">
        <r>  0.0098  0.0005  0.0000  0.0016  0.0000  0.0000  0.0000  0.0000  0.0000 </r>
        <r>  0.0099  0.0005  0.0000  0.0016  0.0000  0.0000  0.0000  0.0000  0.0000 </r>
        <r>  0.1758  0.0095  0.0000  0.0284  0.0000  0.0000  0.0000  0.0000  0.0000 </r>
        <r>  0.1750  0.0095  0.0000  0.0284  0.0000  0.0000  0.0000  0.0000  0.0000 </r>
       </set>
       <set comment="band 13">
        <r>  0.0000  0.0000  0.0799  0.0000  0.0000  0.0000  0.0000  0.0000  0.0000 </r>
        <r>  0.0000  0.0000  0.0962  0.0001  0.0000  0.0000  0.0000  0.0000  0.0000 </r>
        <r>  0.0008  0.0110  0.0002  0.0329  0.0000  0.0000  0.0000  0.0000  0.0000 </r>
        <r>  0.0101  0.0017  0.0001  0.0052  0.0000  0.0000  0.0000  0.0000  0.0000 </r>
       </set>
       <set comment="band 14">
        <r>  0.0101  0.0017  0.0001  0.0052  0.0000  0.0000  0.0000  0.0000  0.0000 </r>
        <r>  0.0008  0.0110  0.0002  0.0329  0.0000  0.0000  0.0000  0.0000  0.0000 </r>
        <r>  0.0000  0.0000  0.0962  0.0001  0.0000  0.0000  0.0000  0.0000  0.0000 </r>
        <r>  0.0000  0.0000  0.0799  0.0000  0.0000  0.0000  0.0000  0.0000  0.0000 </r>
       </set>
      </set>
      <set comment="kpoint 26">
       <set comment="band 1">
        <r>  0.2095  0.0222  0.0000  0.0074  0.0000  0.0000  0.0000  0.0000  0.0000 </r>
        <r>  0.2123  0.0219  0.0000  0.0074  0.0000  0.0000  0.0000  0.0000  0.0000 </r>
        <r>  0.0817  0.0084  0.0000  0.0028  0.0000  0.0000  0.0000  0.0000  0.0000 </r>
        <r>  0.0806  0.0085  0.0000  0.0029  0.0000  0.0000  0.0000  0.0000  0.0000 </r>
       </set>
       <set comment="band 2">
        <r>  0.0806  0.0085  0.0000  0.0029  0.0000  0.0000  0.0000  0.0000  0.0000 </r>
        <r>  0.0817  0.0084  0.0000  0.0028  0.0000  0.0000  0.0000  0.0000  0.0000 </r>
        <r>  0.2123  0.0219  0.0000  0.0074  0.0000  0.0000  0.0000  0.0000  0.0000 </r>
        <r>  0.2095  0.0222  0.0000  0.0074  0.0000  0.0000  0.0000  0.0000  0.0000 </r>
       </set>
       <set comment="band 3">
        <r>  0.0859  0.1244  0.0000  0.0636  0.0000  0.0000  0.0000  0.0000  0.0000 </r>
        <r>  0.0854  0.1267  0.0000  0.0634  0.0000  0.0000  0.0000  0.0000  0.0000 </r>
        <r>  0.0351  0.0521  0.0000  0.0261  0.0000  0.0000  0.0000  0.0000  0.0000 </r>
        <r>  0.0353  0.0512  0.0000  0.0262  0.0000  0.0000  0.0000  0.0000  0.0000 </r>
       </set>
       <set comment="band 4">
        <r>  0.0353  0.0512  0.0000  0.0262  0.0000  0.0000  0.0000  0.0000  0.0000 </r>
        <r>  0.0351  0.0521  0.0000  0.0261  0.0000  0.0000  0.0000  0.0000  0.0000 </r>
        <r>  0.0854  0.1267  0.0000  0.0634  0.0000  0.0000  0.0000  0.0000  0.0000 </r>
        <r>  0.0859  0.1244  0.0000  0.0636  0.0000  0.0000  0.0000  0.0000  0.0000 </r>
       </set>
       <set comment="band 5">
        <r>  0.0030  0.0274  0.0000  0.0539  0.0000  0.0000  0.0000  0.0000  0.0000 </r>
        <r>  0.0029  0.0273  0.0000  0.0544  0.0000  0.0000  0.0000  0.0000  0.0000 </r>
        <r>  0.0099  0.0930  0.0000  0.1857  0.0000  0.0000  0.0000  0.0000  0.0000 </r>
        <r>  0.0104  0.0936  0.0000  0.1837  0.0000  0.0000  0.0000  0.0000  0.0000 </r>
       </set>
       <set comment="band 6">
        <r>  0.0104  0.0936  0.0000  0.1837  0.0000  0.0000  0.0000  0.0000  0.0000 </r>
        <r>  0.0099  0.0930  0.0000  0.1857  0.0000  0.0000  0.0000  0.0000  0.0000 </r>
        <r>  0.0029  0.0273  0.0000  0.0544  0.0000  0.0000  0.0000  0.0000  0.0000 </r>
        <r>  0.0030  0.0274  0.0000  0.0539  0.0000  0.0000  0.0000  0.0000  0.0000 </r>
       </set>
       <set comment="band 7">
        <r>  0.0006  0.0002  0.0853  0.0001  0.0000  0.0000  0.0000  0.0000  0.0000 </r>
        <r>  0.0009  0.0001  0.0891  0.0000  0.0000  0.0000  0.0000  0.0000  0.0000 </r>
        <r>  0.0006  0.0000  0.1392  0.0000  0.0000  0.0000  0.0000  0.0000  0.0000 </r>
        <r>  0.0004  0.0001  0.1331  0.0001  0.0000  0.0000  0.0000  0.0000  0.0000 </r>
       </set>
       <set comment="band 8">
        <r>  0.0004  0.0001  0.1331  0.0001  0.0000  0.0000  0.0000  0.0000  0.0000 </r>
        <r>  0.0006  0.0000  0.1392  0.0000  0.0000  0.0000  0.0000  0.0000  0.0000 </r>
        <r>  0.0009  0.0001  0.0891  0.0000  0.0000  0.0000  0.0000  0.0000  0.0000 </r>
        <r>  0.0006  0.0002  0.0853  0.0001  0.0000  0.0000  0.0000  0.0000  0.0000 </r>
       </set>
       <set comment="band 9">
        <r>  0.0000  0.0001  0.2295  0.0002  0.0000  0.0000  0.0000  0.0000  0.0000 </r>
        <r>  0.0000  0.0000  0.2254  0.0001  0.0000  0.0000  0.0000  0.0000  0.0000 </r>
        <r>  0.0001  0.0001  0.0728  0.0002  0.0000  0.0000  0.0000  0.0000  0.0000 </r>
        <r>  0.0000  0.0004  0.0741  0.0008  0.0000  0.0000  0.0000  0.0000  0.0000 </r>
       </set>
       <set comment="band 10">
        <r>  0.0000  0.0004  0.0741  0.0008  0.0000  0.0000  0.0000  0.0000  0.0000 </r>
        <r>  0.0001  0.0001  0.0728  0.0002  0.0000  0.0000  0.0000  0.0000  0.0000 </r>
        <r>  0.0000  0.0000  0.2254  0.0001  0.0000  0.0000  0.0000  0.0000  0.0000 </r>
        <r>  0.0000  0.0001  0.2295  0.0002  0.0000  0.0000  0.0000  0.0000  0.0000 </r>
       </set>
       <set comment="band 11">
        <r>  0.0022  0.0074  0.0318  0.0046  0.0000  0.0000  0.0000  0.0000  0.0000 </r>
        <r>  0.0025  0.0084  0.0399  0.0053  0.0000  0.0000  0.0000  0.0000  0.0000 </r>
        <r>  0.0047  0.0155  0.0215  0.0098  0.0000  0.0000  0.0000  0.0000  0.0000 </r>
        <r>  0.0040  0.0137  0.0171  0.0085  0.0000  0.0000  0.0000  0.0000  0.0000 </r>
       </set>
       <set comment="band 12">
        <r>  0.0040  0.0137  0.0171  0.0085  0.0000  0.0000  0.0000  0.0000  0.0000 </r>
        <r>  0.0047  0.0155  0.0215  0.0098  0.0000  0.0000  0.0000  0.0000  0.0000 </r>
        <r>  0.0025  0.0084  0.0399  0.0053  0.0000  0.0000  0.0000  0.0000  0.0000 </r>
        <r>  0.0022  0.0074  0.0318  0.0046  0.0000  0.0000  0.0000  0.0000  0.0000 </r>
       </set>
       <set comment="band 13">
        <r>  0.0224  0.0299  0.0085  0.0378  0.0000  0.0000  0.0000  0.0000  0.0000 </r>
        <r>  0.0237  0.0286  0.0004  0.0363  0.0000  0.0000  0.0000  0.0000  0.0000 </r>
        <r>  0.0333  0.0402  0.0003  0.0510  0.0000  0.0000  0.0000  0.0000  0.0000 </r>
        <r>  0.0315  0.0421  0.0060  0.0532  0.0000  0.0000  0.0000  0.0000  0.0000 </r>
       </set>
       <set comment="band 14">
        <r>  0.0314  0.0421  0.0060  0.0533  0.0000  0.0000  0.0000  0.0000  0.0000 </r>
        <r>  0.0334  0.0402  0.0003  0.0510  0.0000  0.0000  0.0000  0.0000  0.0000 </r>
        <r>  0.0237  0.0286  0.0004  0.0363  0.0000  0.0000  0.0000  0.0000  0.0000 </r>
        <r>  0.0224  0.0299  0.0085  0.0378  0.0000  0.0000  0.0000  0.0000  0.0000 </r>
       </set>
      </set>
      <set comment="kpoint 27">
       <set comment="band 1">
        <r>  0.0007  0.0001  0.0000  0.0001  0.0000  0.0000  0.0000  0.0000  0.0000 </r>
        <r>  0.0008  0.0001  0.0000  0.0001  0.0000  0.0000  0.0000  0.0000  0.0000 </r>
        <r>  0.2648  0.0489  0.0000  0.0361  0.0000  0.0000  0.0000  0.0000  0.0000 </r>
        <r>  0.2572  0.0500  0.0000  0.0373  0.0000  0.0000  0.0000  0.0000  0.0000 </r>
       </set>
       <set comment="band 2">
        <r>  0.2572  0.0500  0.0000  0.0373  0.0000  0.0000  0.0000  0.0000  0.0000 </r>
        <r>  0.2648  0.0489  0.0000  0.0361  0.0000  0.0000  0.0000  0.0000  0.0000 </r>
        <r>  0.0008  0.0001  0.0000  0.0001  0.0000  0.0000  0.0000  0.0000  0.0000 </r>
        <r>  0.0007  0.0001  0.0000  0.0001  0.0000  0.0000  0.0000  0.0000  0.0000 </r>
       </set>
       <set comment="band 3">
        <r>  0.0175  0.0029  0.0000  0.0162  0.0000  0.0000  0.0000  0.0000  0.0000 </r>
        <r>  0.0170  0.0031  0.0000  0.0164  0.0000  0.0000  0.0000  0.0000  0.0000 </r>
        <r>  0.1513  0.0276  0.0000  0.1455  0.0000  0.0000  0.0000  0.0000  0.0000 </r>
        <r>  0.1549  0.0259  0.0000  0.1435  0.0000  0.0000  0.0000  0.0000  0.0000 </r>
       </set>
       <set comment="band 4">
        <r>  0.1549  0.0259  0.0000  0.1435  0.0000  0.0000  0.0000  0.0000  0.0000 </r>
        <r>  0.1513  0.0276  0.0000  0.1455  0.0000  0.0000  0.0000  0.0000  0.0000 </r>
        <r>  0.0170  0.0031  0.0000  0.0164  0.0000  0.0000  0.0000  0.0000  0.0000 </r>
        <r>  0.0175  0.0029  0.0000  0.0162  0.0000  0.0000  0.0000  0.0000  0.0000 </r>
       </set>
       <set comment="band 5">
        <r>  0.0365  0.2275  0.0000  0.0871  0.0000  0.0000  0.0000  0.0000  0.0000 </r>
        <r>  0.0356  0.2285  0.0000  0.0880  0.0000  0.0000  0.0000  0.0000  0.0000 </r>
        <r>  0.0016  0.0100  0.0000  0.0039  0.0000  0.0000  0.0000  0.0000  0.0000 </r>
        <r>  0.0016  0.0100  0.0000  0.0038  0.0000  0.0000  0.0000  0.0000  0.0000 </r>
       </set>
       <set comment="band 6">
        <r>  0.0016  0.0100  0.0000  0.0038  0.0000  0.0000  0.0000  0.0000  0.0000 </r>
        <r>  0.0016  0.0100  0.0000  0.0039  0.0000  0.0000  0.0000  0.0000  0.0000 </r>
        <r>  0.0356  0.2285  0.0000  0.0880  0.0000  0.0000  0.0000  0.0000  0.0000 </r>
        <r>  0.0365  0.2275  0.0000  0.0871  0.0000  0.0000  0.0000  0.0000  0.0000 </r>
       </set>
       <set comment="band 7">
        <r>  0.0003  0.0004  0.0016  0.0004  0.0000  0.0000  0.0000  0.0000  0.0000 </r>
        <r>  0.0008  0.0002  0.0017  0.0001  0.0000  0.0000  0.0000  0.0000  0.0000 </r>
        <r>  0.0000  0.0000  0.2515  0.0000  0.0000  0.0000  0.0000  0.0000  0.0000 </r>
        <r>  0.0000  0.0000  0.2304  0.0000  0.0000  0.0000  0.0000  0.0000  0.0000 </r>
       </set>
       <set comment="band 8">
        <r>  0.0000  0.0000  0.2304  0.0000  0.0000  0.0000  0.0000  0.0000  0.0000 </r>
        <r>  0.0000  0.0000  0.2515  0.0000  0.0000  0.0000  0.0000  0.0000  0.0000 </r>
        <r>  0.0008  0.0002  0.0017  0.0001  0.0000  0.0000  0.0000  0.0000  0.0000 </r>
        <r>  0.0003  0.0004  0.0016  0.0004  0.0000  0.0000  0.0000  0.0000  0.0000 </r>
       </set>
       <set comment="band 9">
        <r>  0.0004  0.0002  0.0207  0.0005  0.0000  0.0000  0.0000  0.0000  0.0000 </r>
        <r>  0.0001  0.0001  0.0194  0.0005  0.0000  0.0000  0.0000  0.0000  0.0000 </r>
        <r>  0.0000  0.0000  0.2295  0.0000  0.0000  0.0000  0.0000  0.0000  0.0000 </r>
        <r>  0.0000  0.0000  0.2458  0.0000  0.0000  0.0000  0.0000  0.0000  0.0000 </r>
       </set>
       <set comment="band 10">
        <r>  0.0000  0.0000  0.2457  0.0000  0.0000  0.0000  0.0000  0.0000  0.0000 </r>
        <r>  0.0000  0.0000  0.2295  0.0000  0.0000  0.0000  0.0000  0.0000  0.0000 </r>
        <r>  0.0001  0.0001  0.0194  0.0005  0.0000  0.0000  0.0000  0.0000  0.0000 </r>
        <r>  0.0004  0.0002  0.0207  0.0005  0.0000  0.0000  0.0000  0.0000  0.0000 </r>
       </set>
       <set comment="band 11">
        <r>  0.0105  0.0051  0.0015  0.0071  0.0000  0.0000  0.0000  0.0000  0.0000 </r>
        <r>  0.0116  0.0064  0.0031  0.0080  0.0000  0.0000  0.0000  0.0000  0.0000 </r>
        <r>  0.0985  0.0544  0.0004  0.0676  0.0000  0.0000  0.0000  0.0000  0.0000 </r>
        <r>  0.0892  0.0435  0.0002  0.0599  0.0000  0.0000  0.0000  0.0000  0.0000 </r>
       </set>
       <set comment="band 12">
        <r>  0.0892  0.0435  0.0002  0.0599  0.0000  0.0000  0.0000  0.0000  0.0000 </r>
        <r>  0.0985  0.0544  0.0004  0.0676  0.0000  0.0000  0.0000  0.0000  0.0000 </r>
        <r>  0.0116  0.0064  0.0031  0.0080  0.0000  0.0000  0.0000  0.0000  0.0000 </r>
        <r>  0.0105  0.0051  0.0015  0.0071  0.0000  0.0000  0.0000  0.0000  0.0000 </r>
       </set>
       <set comment="band 13">
        <r>  0.0031  0.0021  0.0481  0.0005  0.0000  0.0000  0.0000  0.0000  0.0000 </r>
        <r>  0.0017  0.0008  0.0494  0.0003  0.0000  0.0000  0.0000  0.0000  0.0000 </r>
        <r>  0.0152  0.0078  0.0054  0.0026  0.0000  0.0000  0.0000  0.0000  0.0000 </r>
        <r>  0.0284  0.0196  0.0052  0.0045  0.0000  0.0000  0.0000  0.0000  0.0000 </r>
       </set>
       <set comment="band 14">
        <r>  0.0284  0.0196  0.0052  0.0045  0.0000  0.0000  0.0000  0.0000  0.0000 </r>
        <r>  0.0152  0.0078  0.0054  0.0026  0.0000  0.0000  0.0000  0.0000  0.0000 </r>
        <r>  0.0017  0.0008  0.0494  0.0003  0.0000  0.0000  0.0000  0.0000  0.0000 </r>
        <r>  0.0031  0.0021  0.0481  0.0005  0.0000  0.0000  0.0000  0.0000  0.0000 </r>
       </set>
      </set>
      <set comment="kpoint 28">
       <set comment="band 1">
        <r>  0.0000  0.0062  0.0000  0.0062  0.0000  0.0000  0.0000  0.0000  0.0000 </r>
        <r>  0.0256  0.0000  0.0001  0.0000  0.0000  0.0000  0.0000  0.0000  0.0000 </r>
        <r>  0.4746  0.0000  0.0000  0.0000  0.0000  0.0000  0.0000  0.0000  0.0000 </r>
        <r>  0.0000  0.1152  0.0000  0.1152  0.0000  0.0000  0.0000  0.0000  0.0000 </r>
       </set>
       <set comment="band 2">
        <r>  0.0000  0.1152  0.0000  0.1152  0.0000  0.0000  0.0000  0.0000  0.0000 </r>
        <r>  0.4746  0.0000  0.0000  0.0000  0.0000  0.0000  0.0000  0.0000  0.0000 </r>
        <r>  0.0256  0.0000  0.0001  0.0000  0.0000  0.0000  0.0000  0.0000  0.0000 </r>
        <r>  0.0000  0.0062  0.0000  0.0062  0.0000  0.0000  0.0000  0.0000  0.0000 </r>
       </set>
       <set comment="band 3">
        <r>  0.0214  0.0000  0.0000  0.0000  0.0000  0.0000  0.0000  0.0000  0.0000 </r>
        <r>  0.0000  0.0053  0.0000  0.0053  0.0000  0.0000  0.0000  0.0000  0.0000 </r>
        <r>  0.0000  0.1174  0.0000  0.1174  0.0000  0.0000  0.0000  0.0000  0.0000 </r>
        <r>  0.4765  0.0000  0.0000  0.0000  0.0000  0.0000  0.0000  0.0000  0.0000 </r>
       </set>
       <set comment="band 4">
        <r>  0.4765  0.0000  0.0000  0.0000  0.0000  0.0000  0.0000  0.0000  0.0000 </r>
        <r>  0.0000  0.1174  0.0000  0.1174  0.0000  0.0000  0.0000  0.0000  0.0000 </r>
        <r>  0.0000  0.0053  0.0000  0.0053  0.0000  0.0000  0.0000  0.0000  0.0000 </r>
        <r>  0.0214  0.0000  0.0000  0.0000  0.0000  0.0000  0.0000  0.0000  0.0000 </r>
       </set>
       <set comment="band 5">
        <r>  0.0000  0.1015  0.0000  0.1015  0.0000  0.0000  0.0000  0.0000  0.0000 </r>
        <r>  0.0000  0.1019  0.0000  0.1019  0.0000  0.0000  0.0000  0.0000  0.0000 </r>
        <r>  0.0000  0.0592  0.0000  0.0592  0.0000  0.0000  0.0000  0.0000  0.0000 </r>
        <r>  0.0000  0.0589  0.0000  0.0589  0.0000  0.0000  0.0000  0.0000  0.0000 </r>
       </set>
       <set comment="band 6">
        <r>  0.0000  0.0589  0.0000  0.0589  0.0000  0.0000  0.0000  0.0000  0.0000 </r>
        <r>  0.0000  0.0592  0.0000  0.0592  0.0000  0.0000  0.0000  0.0000  0.0000 </r>
        <r>  0.0000  0.1019  0.0000  0.1019  0.0000  0.0000  0.0000  0.0000  0.0000 </r>
        <r>  0.0000  0.1015  0.0000  0.1015  0.0000  0.0000  0.0000  0.0000  0.0000 </r>
       </set>
       <set comment="band 7">
        <r>  0.0000  0.0001  0.0000  0.0001  0.0000  0.0000  0.0000  0.0000  0.0000 </r>
        <r>  0.0002  0.0000  0.4042  0.0000  0.0000  0.0000  0.0000  0.0000  0.0000 </r>
        <r>  0.0005  0.0000  0.1176  0.0000  0.0000  0.0000  0.0000  0.0000  0.0000 </r>
        <r>  0.0000  0.0004  0.0000  0.0004  0.0000  0.0000  0.0000  0.0000  0.0000 </r>
       </set>
       <set comment="band 8">
        <r>  0.0000  0.0004  0.0000  0.0004  0.0000  0.0000  0.0000  0.0000  0.0000 </r>
        <r>  0.0005  0.0000  0.1176  0.0000  0.0000  0.0000  0.0000  0.0000  0.0000 </r>
        <r>  0.0002  0.0000  0.4042  0.0000  0.0000  0.0000  0.0000  0.0000  0.0000 </r>
        <r>  0.0000  0.0001  0.0000  0.0001  0.0000  0.0000  0.0000  0.0000  0.0000 </r>
       </set>
       <set comment="band 9">
        <r>  0.0000  0.0002  0.2958  0.0002  0.0000  0.0000  0.0000  0.0000  0.0000 </r>
        <r>  0.0000  0.0002  0.0000  0.0002  0.0000  0.0000  0.0000  0.0000  0.0000 </r>
        <r>  0.0000  0.0002  0.0000  0.0002  0.0000  0.0000  0.0000  0.0000  0.0000 </r>
        <r>  0.0000  0.0002  0.2234  0.0002  0.0000  0.0000  0.0000  0.0000  0.0000 </r>
       </set>
       <set comment="band 10">
        <r>  0.0000  0.0002  0.2234  0.0002  0.0000  0.0000  0.0000  0.0000  0.0000 </r>
        <r>  0.0000  0.0002  0.0000  0.0002  0.0000  0.0000  0.0000  0.0000  0.0000 </r>
        <r>  0.0000  0.0002  0.0000  0.0002  0.0000  0.0000  0.0000  0.0000  0.0000 </r>
        <r>  0.0000  0.0002  0.2958  0.0002  0.0000  0.0000  0.0000  0.0000  0.0000 </r>
       </set>
       <set comment="band 11">
        <r>  0.0000  0.0000  0.0000  0.0000  0.0000  0.0000  0.0000  0.0000  0.0000 </r>
        <r>  0.0000  0.0140  0.0000  0.0140  0.0000  0.0000  0.0000  0.0000  0.0000 </r>
        <r>  0.0000  0.0074  0.0000  0.0074  0.0000  0.0000  0.0000  0.0000  0.0000 </r>
        <r>  0.0000  0.0000  0.0000  0.0000  0.0000  0.0000  0.0000  0.0000  0.0000 </r>
       </set>
       <set comment="band 12">
        <r>  0.0000  0.0000  0.0000  0.0000  0.0000  0.0000  0.0000  0.0000  0.0000 </r>
        <r>  0.0000  0.0074  0.0000  0.0074  0.0000  0.0000  0.0000  0.0000  0.0000 </r>
        <r>  0.0000  0.0140  0.0000  0.0140  0.0000  0.0000  0.0000  0.0000  0.0000 </r>
        <r>  0.0000  0.0000  0.0000  0.0000  0.0000  0.0000  0.0000  0.0000  0.0000 </r>
       </set>
       <set comment="band 13">
        <r>  0.0000  0.1576  0.0000  0.1575  0.0000  0.0000  0.0000  0.0000  0.0000 </r>
        <r>  0.0486  0.0000  0.0058  0.0000  0.0000  0.0000  0.0000  0.0000  0.0000 </r>
        <r>  0.0112  0.0000  0.0250  0.0000  0.0000  0.0000  0.0000  0.0000  0.0000 </r>
        <r>  0.0000  0.0364  0.0000  0.0363  0.0000  0.0000  0.0000  0.0000  0.0000 </r>
       </set>
       <set comment="band 14">
        <r>  0.0000  0.0363  0.0000  0.0364  0.0000  0.0000  0.0000  0.0000  0.0000 </r>
        <r>  0.0112  0.0000  0.0250  0.0000  0.0000  0.0000  0.0000  0.0000  0.0000 </r>
        <r>  0.0486  0.0000  0.0058  0.0000  0.0000  0.0000  0.0000  0.0000  0.0000 </r>
        <r>  0.0000  0.1577  0.0000  0.1574  0.0000  0.0000  0.0000  0.0000  0.0000 </r>
       </set>
      </set>
     </set>
    </set>
   </array>
  </projected>
 </calculation>
 <structure name="finalpos" >
  <crystal>
   <varray name="basis" >
    <v>       2.46120000       0.00000000       0.00000000 </v>
    <v>      -1.23060000       2.13146172       0.00000000 </v>
    <v>       0.00000000       0.00000000       6.70790000 </v>
   </varray>
   <i name="volume">     35.18933212 </i>
   <varray name="rec_basis" >
    <v>       0.40630587       0.23458080       0.00000000 </v>
    <v>       0.00000000       0.46916160       0.00000000 </v>
    <v>       0.00000000       0.00000000       0.14907795 </v>
   </varray>
  </crystal>
  <varray name="positions" >
   <v>       0.00000000       0.00000000       0.00000000 </v>
   <v>       0.33333333       0.66666667       0.00000000 </v>
   <v>       0.33333333       0.66666667       0.50000000 </v>
   <v>       0.66666667       0.33333333       0.50000000 </v>
  </varray>
 </structure>
</modeling>
