   1   1   0   0
  0.1813235E+02  0.2866544E-09  0.2866544E-09  0.2866544E-09  0.5000000E-15
  1.000000000000000E-004
  CAR 
 unknown system                          
     16.45519821     -2.83993827  301      5.67289223      1.00000000
     -2.840  0.0000E+00  0.0000E+00  0.0000E+00  0.0000E+00
     -2.776  0.0000E+00  0.0000E+00  0.0000E+00  0.0000E+00
     -2.711  0.0000E+00  0.0000E+00  0.0000E+00  0.0000E+00
     -2.647  0.0000E+00  0.0000E+00  0.0000E+00  0.0000E+00
     -2.583  0.0000E+00  0.0000E+00  0.0000E+00  0.0000E+00
     -2.518  0.0000E+00  0.0000E+00  0.0000E+00  0.0000E+00
     -2.454  0.0000E+00  0.0000E+00  0.0000E+00  0.0000E+00
     -2.390 -0.5043E-32 -0.5043E-32 -0.3243E-33 -0.3243E-33
     -2.325 -0.2826E-23 -0.2826E-23 -0.1817E-24 -0.1817E-24
     -2.261 -0.5603E-16 -0.5603E-16 -0.3604E-17 -0.3604E-17
     -2.197 -0.3698E-10 -0.3698E-10 -0.2379E-11 -0.2379E-11
     -2.132 -0.8279E-06 -0.8279E-06 -0.5325E-07 -0.5325E-07
     -2.068 -0.5228E-03 -0.5228E-03 -0.3368E-04 -0.3368E-04
     -2.004  0.1023E-02  0.1023E-02  0.3210E-04  0.3210E-04
     -1.939  0.7897E-01  0.7897E-01  0.5111E-02  0.5111E-02
     -1.875  0.1533E-01  0.1533E-01  0.6098E-02  0.6098E-02
     -1.811 -0.1510E-02 -0.1510E-02  0.6000E-02  0.6000E-02
     -1.747 -0.6952E-05 -0.6952E-05  0.6000E-02  0.6000E-02
     -1.682 -0.5550E-04 -0.5550E-04  0.5996E-02  0.5996E-02
     -1.618 -0.3820E-02 -0.3820E-02  0.5751E-02  0.5751E-02
     -1.554  0.5250E-01  0.5250E-01  0.9127E-02  0.9127E-02
     -1.489  0.8007E-01  0.8007E-01  0.1428E-01  0.1428E-01
     -1.425 -0.4126E-02 -0.4126E-02  0.1401E-01  0.1401E-01
     -1.361 -0.1853E-03 -0.1853E-03  0.1400E-01  0.1400E-01
     -1.296 -0.3584E-04 -0.3584E-04  0.1400E-01  0.1400E-01
     -1.232 -0.6737E-02 -0.6737E-02  0.1356E-01  0.1356E-01
     -1.168  0.7214E-01  0.7214E-01  0.1820E-01  0.1820E-01
     -1.103  0.3095E+00  0.3095E+00  0.3811E-01  0.3811E-01
     -1.039  0.8447E-04  0.8447E-04  0.3811E-01  0.3811E-01
     -0.975 -0.1782E-02 -0.1782E-02  0.3800E-01  0.3800E-01
     -0.910 -0.2475E-05 -0.2475E-05  0.3800E-01  0.3800E-01
     -0.846 -0.9800E-10 -0.9800E-10  0.3800E-01  0.3800E-01
     -0.782 -0.1657E-15 -0.1657E-15  0.3800E-01  0.3800E-01
     -0.717 -0.7413E-15 -0.7413E-15  0.3800E-01  0.3800E-01
     -0.653 -0.3812E-09 -0.3812E-09  0.3800E-01  0.3800E-01
     -0.589 -0.6433E-05 -0.6433E-05  0.3800E-01  0.3800E-01
     -0.525 -0.2982E-02 -0.2982E-02  0.3781E-01  0.3781E-01
     -0.460  0.1494E-01  0.1494E-01  0.3877E-01  0.3877E-01
     -0.396  0.3373E+00  0.3373E+00  0.6046E-01  0.6046E-01
     -0.332  0.1197E+00  0.1197E+00  0.6816E-01  0.6816E-01
     -0.267 -0.1888E-02 -0.1888E-02  0.6804E-01  0.6804E-01
     -0.203 -0.7788E-03 -0.7788E-03  0.6799E-01  0.6799E-01
     -0.139 -0.1046E-01 -0.1046E-01  0.6732E-01  0.6732E-01
     -0.074  0.1360E+00  0.1360E+00  0.7607E-01  0.7607E-01
     -0.010  0.2597E+00  0.2597E+00  0.9277E-01  0.9277E-01
      0.054 -0.1186E-01 -0.1186E-01  0.9201E-01  0.9201E-01
      0.119 -0.1264E-01 -0.1264E-01  0.9119E-01  0.9119E-01
      0.183  0.2502E+00  0.2502E+00  0.1073E+00  0.1073E+00
      0.247  0.1466E+00  0.1466E+00  0.1167E+00  0.1167E+00
      0.312 -0.1098E-01 -0.1098E-01  0.1160E+00  0.1160E+00
      0.376 -0.1406E-03 -0.1406E-03  0.1160E+00  0.1160E+00
      0.440 -0.3719E-07 -0.3719E-07  0.1160E+00  0.1160E+00
      0.505 -0.3081E-12 -0.3081E-12  0.1160E+00  0.1160E+00
      0.569 -0.2748E-13 -0.2748E-13  0.1160E+00  0.1160E+00
      0.633 -0.6048E-08 -0.6048E-08  0.1160E+00  0.1160E+00
      0.698 -0.4271E-04 -0.4271E-04  0.1160E+00  0.1160E+00
      0.762 -0.7604E-02 -0.7604E-02  0.1155E+00  0.1155E+00
      0.826  0.5760E-01  0.5760E-01  0.1192E+00  0.1192E+00
      0.890  0.6191E+00  0.6191E+00  0.1590E+00  0.1590E+00
      0.955  0.4768E+00  0.4768E+00  0.1897E+00  0.1897E+00
      1.019 -0.2528E-01 -0.2528E-01  0.1881E+00  0.1881E+00
      1.083 -0.1526E-02 -0.1526E-02  0.1880E+00  0.1880E+00
      1.148 -0.2286E-01 -0.2286E-01  0.1865E+00  0.1865E+00
      1.212  0.2927E+00  0.2927E+00  0.2053E+00  0.2053E+00
      1.276  0.8456E+00  0.8456E+00  0.2597E+00  0.2597E+00
      1.341  0.8879E-02  0.8879E-02  0.2603E+00  0.2603E+00
      1.405 -0.1420E-01 -0.1420E-01  0.2594E+00  0.2594E+00
      1.469  0.2699E+00  0.2699E+00  0.2767E+00  0.2767E+00
      1.534  0.3278E+00  0.3278E+00  0.2978E+00  0.2978E+00
      1.598  0.2974E+00  0.2974E+00  0.3169E+00  0.3169E+00
      1.662  0.5280E-01  0.5280E-01  0.3203E+00  0.3203E+00
      1.727 -0.5294E-02 -0.5294E-02  0.3200E+00  0.3200E+00
      1.791 -0.4715E-02 -0.4715E-02  0.3197E+00  0.3197E+00
      1.855  0.1581E-02  0.1581E-02  0.3198E+00  0.3198E+00
      1.920  0.7471E+00  0.7471E+00  0.3679E+00  0.3679E+00
      1.984  0.8771E+00  0.8771E+00  0.4243E+00  0.4243E+00
      2.048  0.8216E+00  0.8216E+00  0.4771E+00  0.4771E+00
      2.112  0.4227E+00  0.4227E+00  0.5043E+00  0.5043E+00
      2.177  0.3108E+00  0.3108E+00  0.5243E+00  0.5243E+00
      2.241  0.1607E+00  0.1607E+00  0.5346E+00  0.5346E+00
      2.305  0.5979E+00  0.5979E+00  0.5731E+00  0.5731E+00
      2.370  0.6132E+00  0.6132E+00  0.6125E+00  0.6125E+00
      2.434  0.2203E+00  0.2203E+00  0.6267E+00  0.6267E+00
      2.498  0.7462E-01  0.7462E-01  0.6315E+00  0.6315E+00
      2.563  0.2937E+00  0.2937E+00  0.6504E+00  0.6504E+00
      2.627 -0.1485E-01 -0.1485E-01  0.6494E+00  0.6494E+00
      2.691  0.2466E+00  0.2466E+00  0.6653E+00  0.6653E+00
      2.756  0.4174E+00  0.4174E+00  0.6921E+00  0.6921E+00
      2.820  0.1563E+01  0.1563E+01  0.7926E+00  0.7926E+00
      2.884  0.8849E+00  0.8849E+00  0.8495E+00  0.8495E+00
      2.949  0.6414E+00  0.6414E+00  0.8908E+00  0.8908E+00
      3.013  0.1586E+00  0.1586E+00  0.9010E+00  0.9010E+00
      3.077  0.1497E-01  0.1497E-01  0.9020E+00  0.9020E+00
      3.142  0.9420E+00  0.9420E+00  0.9625E+00  0.9625E+00
      3.206  0.7612E+00  0.7612E+00  0.1012E+01  0.1012E+01
      3.270  0.3462E+00  0.3462E+00  0.1034E+01  0.1034E+01
      3.335  0.6249E-02  0.6249E-02  0.1034E+01  0.1034E+01
      3.399 -0.4296E-02 -0.4296E-02  0.1034E+01  0.1034E+01
      3.463  0.1399E-01  0.1399E-01  0.1035E+01  0.1035E+01
      3.527  0.1075E+00  0.1075E+00  0.1042E+01  0.1042E+01
      3.592 -0.7770E-02 -0.7770E-02  0.1041E+01  0.1041E+01
      3.656  0.2352E+00  0.2352E+00  0.1056E+01  0.1056E+01
      3.720  0.4850E+00  0.4850E+00  0.1088E+01  0.1088E+01
      3.785  0.6974E+00  0.6974E+00  0.1132E+01  0.1132E+01
      3.849  0.2502E+00  0.2502E+00  0.1148E+01  0.1148E+01
      3.913  0.2233E+00  0.2233E+00  0.1163E+01  0.1163E+01
      3.978 -0.1569E-01 -0.1569E-01  0.1162E+01  0.1162E+01
      4.042  0.2476E-01  0.2476E-01  0.1163E+01  0.1163E+01
      4.106  0.1492E+00  0.1492E+00  0.1173E+01  0.1173E+01
      4.171  0.9846E+00  0.9846E+00  0.1236E+01  0.1236E+01
      4.235  0.1101E+01  0.1101E+01  0.1307E+01  0.1307E+01
      4.299  0.3954E+00  0.3954E+00  0.1333E+01  0.1333E+01
      4.364  0.1469E+01  0.1469E+01  0.1427E+01  0.1427E+01
      4.428  0.2035E+01  0.2035E+01  0.1558E+01  0.1558E+01
      4.492  0.3883E+00  0.3883E+00  0.1583E+01  0.1583E+01
      4.557  0.6454E+00  0.6454E+00  0.1624E+01  0.1624E+01
      4.621  0.9661E+00  0.9661E+00  0.1687E+01  0.1687E+01
      4.685  0.5659E+00  0.5659E+00  0.1723E+01  0.1723E+01
      4.749  0.2474E+00  0.2474E+00  0.1739E+01  0.1739E+01
      4.814  0.7158E+00  0.7158E+00  0.1785E+01  0.1785E+01
      4.878  0.7165E+00  0.7165E+00  0.1831E+01  0.1831E+01
      4.942  0.1322E+01  0.1322E+01  0.1916E+01  0.1916E+01
      5.007  0.1421E+01  0.1421E+01  0.2007E+01  0.2007E+01
      5.071  0.2505E+00  0.2505E+00  0.2023E+01  0.2023E+01
      5.135 -0.5213E-01 -0.5213E-01  0.2020E+01  0.2020E+01
      5.200  0.3236E+00  0.3236E+00  0.2041E+01  0.2041E+01
      5.264  0.1573E+01  0.1573E+01  0.2142E+01  0.2142E+01
      5.328  0.1297E+01  0.1297E+01  0.2226E+01  0.2226E+01
      5.393  0.1012E+01  0.1012E+01  0.2291E+01  0.2291E+01
      5.457  0.2996E+00  0.2996E+00  0.2310E+01  0.2310E+01
      5.521  0.5269E+00  0.5269E+00  0.2344E+01  0.2344E+01
      5.586  0.7020E+00  0.7020E+00  0.2389E+01  0.2389E+01
      5.650  0.1537E+01  0.1537E+01  0.2488E+01  0.2488E+01
      5.714  0.7260E+00  0.7260E+00  0.2535E+01  0.2535E+01
      5.779  0.7967E+00  0.7967E+00  0.2586E+01  0.2586E+01
      5.843 -0.2718E-03 -0.2718E-03  0.2586E+01  0.2586E+01
      5.907  0.5026E-01  0.5026E-01  0.2589E+01  0.2589E+01
      5.972  0.9812E+00  0.9812E+00  0.2652E+01  0.2652E+01
      6.036  0.4198E+00  0.4198E+00  0.2679E+01  0.2679E+01
      6.100  0.6198E+00  0.6198E+00  0.2719E+01  0.2719E+01
      6.164  0.8699E+00  0.8699E+00  0.2775E+01  0.2775E+01
      6.229  0.3119E+00  0.3119E+00  0.2795E+01  0.2795E+01
      6.293 -0.2032E-01 -0.2032E-01  0.2794E+01  0.2794E+01
      6.357  0.7825E-01  0.7825E-01  0.2799E+01  0.2799E+01
      6.422  0.2631E+00  0.2631E+00  0.2816E+01  0.2816E+01
      6.486  0.3355E-01  0.3355E-01  0.2818E+01  0.2818E+01
      6.550  0.1021E+00  0.1021E+00  0.2824E+01  0.2824E+01
      6.615  0.3521E+00  0.3521E+00  0.2847E+01  0.2847E+01
      6.679  0.1090E+00  0.1090E+00  0.2854E+01  0.2854E+01
      6.743  0.2834E+00  0.2834E+00  0.2872E+01  0.2872E+01
      6.808  0.5792E-02  0.5792E-02  0.2873E+01  0.2873E+01
      6.872  0.6138E+00  0.6138E+00  0.2912E+01  0.2912E+01
      6.936  0.1666E+00  0.1666E+00  0.2923E+01  0.2923E+01
      7.001  0.4033E+00  0.4033E+00  0.2949E+01  0.2949E+01
      7.065  0.3144E+00  0.3144E+00  0.2969E+01  0.2969E+01
      7.129 -0.1799E-01 -0.1799E-01  0.2968E+01  0.2968E+01
      7.194  0.1357E+00  0.1357E+00  0.2977E+01  0.2977E+01
      7.258  0.4091E+00  0.4091E+00  0.3003E+01  0.3003E+01
      7.322  0.7682E-01  0.7682E-01  0.3008E+01  0.3008E+01
      7.386  0.3979E+00  0.3979E+00  0.3033E+01  0.3033E+01
      7.451  0.4310E-01  0.4310E-01  0.3036E+01  0.3036E+01
      7.515  0.5105E+00  0.5105E+00  0.3069E+01  0.3069E+01
      7.579  0.3017E+00  0.3017E+00  0.3088E+01  0.3088E+01
      7.644  0.3011E+00  0.3011E+00  0.3108E+01  0.3108E+01
      7.708  0.6251E-02  0.6251E-02  0.3108E+01  0.3108E+01
      7.772 -0.2279E-02 -0.2279E-02  0.3108E+01  0.3108E+01
      7.837 -0.5335E-05 -0.5335E-05  0.3108E+01  0.3108E+01
      7.901 -0.1454E-02 -0.1454E-02  0.3108E+01  0.3108E+01
      7.965 -0.1949E-01 -0.1949E-01  0.3107E+01  0.3107E+01
      8.030  0.4529E+00  0.4529E+00  0.3136E+01  0.3136E+01
      8.094  0.6328E+00  0.6328E+00  0.3176E+01  0.3176E+01
      8.158  0.8079E+00  0.8079E+00  0.3228E+01  0.3228E+01
      8.223  0.3976E+00  0.3976E+00  0.3254E+01  0.3254E+01
      8.287 -0.4681E-01 -0.4681E-01  0.3251E+01  0.3251E+01
      8.351  0.1796E+00  0.1796E+00  0.3263E+01  0.3263E+01
      8.416  0.5814E+00  0.5814E+00  0.3300E+01  0.3300E+01
      8.480  0.2108E+00  0.2108E+00  0.3314E+01  0.3314E+01
      8.544  0.3048E+00  0.3048E+00  0.3333E+01  0.3333E+01
      8.609  0.4121E+00  0.4121E+00  0.3360E+01  0.3360E+01
      8.673  0.8721E+00  0.8721E+00  0.3416E+01  0.3416E+01
      8.737  0.5462E+00  0.5462E+00  0.3451E+01  0.3451E+01
      8.801  0.1010E+00  0.1010E+00  0.3457E+01  0.3457E+01
      8.866  0.5672E+00  0.5672E+00  0.3494E+01  0.3494E+01
      8.930  0.8965E+00  0.8965E+00  0.3551E+01  0.3551E+01
      8.994  0.4646E+00  0.4646E+00  0.3581E+01  0.3581E+01
      9.059  0.2615E+00  0.2615E+00  0.3598E+01  0.3598E+01
      9.123  0.8946E+00  0.8946E+00  0.3656E+01  0.3656E+01
      9.187  0.1180E+01  0.1180E+01  0.3732E+01  0.3732E+01
      9.252  0.4189E+00  0.4189E+00  0.3759E+01  0.3759E+01
      9.316  0.1562E+00  0.1562E+00  0.3769E+01  0.3769E+01
      9.380  0.1023E+01  0.1023E+01  0.3834E+01  0.3834E+01
      9.445  0.4911E+00  0.4911E+00  0.3866E+01  0.3866E+01
      9.509  0.6206E+00  0.6206E+00  0.3906E+01  0.3906E+01
      9.573  0.2955E+00  0.2955E+00  0.3925E+01  0.3925E+01
      9.638  0.6248E-01  0.6248E-01  0.3929E+01  0.3929E+01
      9.702  0.5812E+00  0.5812E+00  0.3966E+01  0.3966E+01
      9.766  0.7966E+00  0.7966E+00  0.4018E+01  0.4018E+01
      9.831  0.5978E+00  0.5978E+00  0.4056E+01  0.4056E+01
      9.895  0.9207E-01  0.9207E-01  0.4062E+01  0.4062E+01
      9.959  0.9522E-01  0.9522E-01  0.4068E+01  0.4068E+01
     10.023  0.7731E+00  0.7731E+00  0.4118E+01  0.4118E+01
     10.088  0.1111E+01  0.1111E+01  0.4189E+01  0.4189E+01
     10.152  0.4244E+00  0.4244E+00  0.4217E+01  0.4217E+01
     10.216  0.4794E+00  0.4794E+00  0.4247E+01  0.4247E+01
     10.281  0.4654E+00  0.4654E+00  0.4277E+01  0.4277E+01
     10.345  0.6538E+00  0.6538E+00  0.4319E+01  0.4319E+01
     10.409  0.1036E+01  0.1036E+01  0.4386E+01  0.4386E+01
     10.474  0.1560E+01  0.1560E+01  0.4486E+01  0.4486E+01
     10.538  0.1246E+01  0.1246E+01  0.4567E+01  0.4567E+01
     10.602  0.1650E+01  0.1650E+01  0.4673E+01  0.4673E+01
     10.667  0.1753E+01  0.1753E+01  0.4785E+01  0.4785E+01
     10.731  0.2217E+01  0.2217E+01  0.4928E+01  0.4928E+01
     10.795  0.1260E+01  0.1260E+01  0.5009E+01  0.5009E+01
     10.860  0.1106E+01  0.1106E+01  0.5080E+01  0.5080E+01
     10.924  0.5557E+00  0.5557E+00  0.5116E+01  0.5116E+01
     10.988  0.4010E+00  0.4010E+00  0.5142E+01  0.5142E+01
     11.053 -0.1896E-02 -0.1896E-02  0.5142E+01  0.5142E+01
     11.117  0.2703E+00  0.2703E+00  0.5159E+01  0.5159E+01
     11.181  0.1105E+00  0.1105E+00  0.5166E+01  0.5166E+01
     11.246  0.2707E+00  0.2707E+00  0.5183E+01  0.5183E+01
     11.310  0.1268E+00  0.1268E+00  0.5192E+01  0.5192E+01
     11.374  0.1455E+00  0.1455E+00  0.5201E+01  0.5201E+01
     11.438  0.1543E+00  0.1543E+00  0.5211E+01  0.5211E+01
     11.503  0.1193E+00  0.1193E+00  0.5219E+01  0.5219E+01
     11.567 -0.1334E-01 -0.1334E-01  0.5218E+01  0.5218E+01
     11.631  0.4696E-01  0.4696E-01  0.5221E+01  0.5221E+01
     11.696  0.3098E+00  0.3098E+00  0.5241E+01  0.5241E+01
     11.760  0.2416E+00  0.2416E+00  0.5256E+01  0.5256E+01
     11.824  0.1650E+00  0.1650E+00  0.5267E+01  0.5267E+01
     11.889 -0.1505E-01 -0.1505E-01  0.5266E+01  0.5266E+01
     11.953  0.1896E-01  0.1896E-01  0.5267E+01  0.5267E+01
     12.017  0.3263E+00  0.3263E+00  0.5288E+01  0.5288E+01
     12.082  0.3519E-01  0.3519E-01  0.5290E+01  0.5290E+01
     12.146 -0.6260E-02 -0.6260E-02  0.5290E+01  0.5290E+01
     12.210 -0.2740E-02 -0.2740E-02  0.5290E+01  0.5290E+01
     12.275  0.3738E+00  0.3738E+00  0.5314E+01  0.5314E+01
     12.339  0.1069E+00  0.1069E+00  0.5321E+01  0.5321E+01
     12.403 -0.9598E-02 -0.9598E-02  0.5320E+01  0.5320E+01
     12.468 -0.1142E-01 -0.1142E-01  0.5319E+01  0.5319E+01
     12.532  0.1545E+00  0.1545E+00  0.5329E+01  0.5329E+01
     12.596  0.2027E+00  0.2027E+00  0.5342E+01  0.5342E+01
     12.660  0.4953E+00  0.4953E+00  0.5374E+01  0.5374E+01
     12.725  0.1395E+01  0.1395E+01  0.5464E+01  0.5464E+01
     12.789  0.4538E+00  0.4538E+00  0.5493E+01  0.5493E+01
     12.853  0.6147E+00  0.6147E+00  0.5533E+01  0.5533E+01
     12.918  0.8580E+00  0.8580E+00  0.5588E+01  0.5588E+01
     12.982  0.4870E+00  0.4870E+00  0.5619E+01  0.5619E+01
     13.046  0.1940E+00  0.1940E+00  0.5631E+01  0.5631E+01
     13.111  0.5466E+00  0.5466E+00  0.5667E+01  0.5667E+01
     13.175 -0.7416E-02 -0.7416E-02  0.5666E+01  0.5666E+01
     13.239 -0.2660E-02 -0.2660E-02  0.5666E+01  0.5666E+01
     13.304 -0.3836E-05 -0.3836E-05  0.5666E+01  0.5666E+01
     13.368 -0.1187E-06 -0.1187E-06  0.5666E+01  0.5666E+01
     13.432 -0.1717E-03 -0.1717E-03  0.5666E+01  0.5666E+01
     13.497 -0.2909E-02 -0.2909E-02  0.5666E+01  0.5666E+01
     13.561  0.6058E-01  0.6058E-01  0.5670E+01  0.5670E+01
     13.625  0.5284E-01  0.5284E-01  0.5673E+01  0.5673E+01
     13.690  0.3226E+00  0.3226E+00  0.5694E+01  0.5694E+01
     13.754  0.3332E-01  0.3332E-01  0.5696E+01  0.5696E+01
     13.818  0.1364E+00  0.1364E+00  0.5705E+01  0.5705E+01
     13.883  0.4170E-01  0.4170E-01  0.5707E+01  0.5707E+01
     13.947  0.2166E+00  0.2166E+00  0.5721E+01  0.5721E+01
     14.011  0.1777E+00  0.1777E+00  0.5733E+01  0.5733E+01
     14.075 -0.1221E-01 -0.1221E-01  0.5732E+01  0.5732E+01
     14.140 -0.2258E-03 -0.2258E-03  0.5732E+01  0.5732E+01
     14.204 -0.4352E-05 -0.4352E-05  0.5732E+01  0.5732E+01
     14.268 -0.2590E-02 -0.2590E-02  0.5732E+01  0.5732E+01
     14.333  0.1979E-03  0.1979E-03  0.5732E+01  0.5732E+01
     14.397  0.4466E+00  0.4466E+00  0.5761E+01  0.5761E+01
     14.461  0.9799E-01  0.9799E-01  0.5767E+01  0.5767E+01
     14.526  0.3962E+00  0.3962E+00  0.5792E+01  0.5792E+01
     14.590  0.7253E+00  0.7253E+00  0.5839E+01  0.5839E+01
     14.654  0.4630E-01  0.4630E-01  0.5842E+01  0.5842E+01
     14.719  0.9512E-01  0.9512E-01  0.5848E+01  0.5848E+01
     14.783 -0.1088E-02 -0.1088E-02  0.5848E+01  0.5848E+01
     14.847 -0.2688E-02 -0.2688E-02  0.5848E+01  0.5848E+01
     14.912 -0.1499E-01 -0.1499E-01  0.5847E+01  0.5847E+01
     14.976  0.5341E+00  0.5341E+00  0.5881E+01  0.5881E+01
     15.040  0.4583E+00  0.4583E+00  0.5911E+01  0.5911E+01
     15.105  0.5376E+00  0.5376E+00  0.5945E+01  0.5945E+01
     15.169 -0.2121E-01 -0.2121E-01  0.5944E+01  0.5944E+01
     15.233  0.1309E-01  0.1309E-01  0.5945E+01  0.5945E+01
     15.297  0.3133E+00  0.3133E+00  0.5965E+01  0.5965E+01
     15.362  0.2032E+00  0.2032E+00  0.5978E+01  0.5978E+01
     15.426  0.2308E+00  0.2308E+00  0.5993E+01  0.5993E+01
     15.490 -0.1457E-01 -0.1457E-01  0.5992E+01  0.5992E+01
     15.555  0.1993E-01  0.1993E-01  0.5993E+01  0.5993E+01
     15.619  0.1053E+00  0.1053E+00  0.6000E+01  0.6000E+01
     15.683  0.1364E-02  0.1364E-02  0.6000E+01  0.6000E+01
     15.748 -0.6971E-03 -0.6971E-03  0.6000E+01  0.6000E+01
     15.812 -0.1104E-05 -0.1104E-05  0.6000E+01  0.6000E+01
     15.876 -0.4931E-10 -0.4931E-10  0.6000E+01  0.6000E+01
     15.941 -0.8286E-16 -0.8286E-16  0.6000E+01  0.6000E+01
     16.005  0.0000E+00  0.0000E+00  0.6000E+01  0.6000E+01
     16.069  0.0000E+00  0.0000E+00  0.6000E+01  0.6000E+01
     16.134  0.0000E+00  0.0000E+00  0.6000E+01  0.6000E+01
     16.198  0.0000E+00  0.0000E+00  0.6000E+01  0.6000E+01
     16.262  0.0000E+00  0.0000E+00  0.6000E+01  0.6000E+01
     16.327  0.0000E+00  0.0000E+00  0.6000E+01  0.6000E+01
     16.391  0.0000E+00  0.0000E+00  0.6000E+01  0.6000E+01
     16.455  0.0000E+00  0.0000E+00  0.6000E+01  0.6000E+01
