    1    1    1    2
  0.1813235E+02  0.2866544E-09  0.2866544E-09  0.2866544E-09  0.5000000E-15
  1.000000000000000E-004
  CAR 
 unknown system                          
    5   44    6
 
  0.5000000E-01  0.5000000E-01  0.5000000E-01  0.8000000E-02
   1       -1.547090     -1.547090
   2        6.086436      6.086436
   3        6.086436      6.086436
   4        7.201238      7.201238
   5        9.442504      9.442504
   6        9.442504      9.442504
 
  0.1500000E+00  0.5000000E-01  0.5000000E-01  0.2400000E-01
   1       -0.424526     -0.424526
   2        5.413368      5.413368
   3        5.596911      5.596911
   4        8.550549      8.550549
   5        9.126407      9.126407
   6        9.710550      9.710550
 
  0.2500000E+00  0.5000000E-01  0.5000000E-01  0.2400000E-01
   1        0.901059      0.901059
   2        4.756372      4.756372
   3        5.295589      5.295589
   4        9.344859      9.344859
   5       10.038217     10.038217
   6       10.522979     10.522979
 
  0.3500000E+00  0.5000000E-01  0.5000000E-01  0.2400000E-01
   1        1.529654      1.529654
   2        4.306755      4.306755
   3        6.107350      6.107350
   4        9.667356      9.667356
   5       10.402006     10.402006
   6       12.658251     12.658251
 
  0.4500000E+00  0.5000000E-01  0.5000000E-01  0.1200000E-01
   1        1.587066      1.587066
   2        4.148814      4.148814
   3        6.983179      6.983179
   4        9.649002      9.649002
   5       10.586571     10.586571
   6       13.803852     13.803852
 
 -0.5000000E-01  0.5000000E-01  0.5000000E-01  0.6000000E-02
   1       -1.962887     -1.962887
   2        6.404997      6.404997
   3        6.404997      6.404997
   4        6.542165      6.542165
   5        9.306021      9.306021
   6        9.802932      9.802932
 
  0.1500000E+00  0.1500000E+00  0.5000000E-01  0.2400000E-01
   1        0.845695      0.845695
   2        4.867723      4.867723
   3        4.940118      4.940118
   4        9.201557      9.201557
   5       10.083796     10.083796
   6       10.447337     10.447337
 
  0.2500000E+00  0.1500000E+00  0.5000000E-01  0.4800000E-01
   1        2.011777      2.011777
   2        4.395987      4.395987
   3        4.973133      4.973133
   4        9.502592      9.502592
   5       10.426307     10.426307
   6       12.673161     12.673161
 
  0.3500000E+00  0.1500000E+00  0.5000000E-01  0.4800000E-01
   1        2.289588      2.289588
   2        4.181582      4.181582
   3        5.938298      5.938298
   4        9.754845      9.754845
   5       10.627801     10.627801
   6       14.526059     14.526059
 
 -0.1500000E+00  0.1500000E+00  0.5000000E-01  0.2400000E-01
   1       -1.146551     -1.146551
   2        5.951243      5.951243
   3        6.179680      6.179680
   4        7.355183      7.355183
   5        8.624399      8.624399
   6        9.985769      9.985769
 
  0.2500000E+00  0.2500000E+00  0.5000000E-01  0.2400000E-01
   1        2.930557      2.930557
   2        4.290862      4.290862
   3        5.009142      5.009142
   4        9.817036      9.817036
   5       10.524516     10.524516
   6       14.956749     14.956749
 
  0.3500000E+00  0.2500000E+00  0.5000000E-01  0.2400000E-01
   1        3.111465      3.111465
   2        4.375037      4.375037
   3        5.249985      5.249985
   4       10.056464     10.056464
   5       10.569088     10.569088
   6       14.382272     14.382272
 
 -0.2500000E+00  0.2500000E+00  0.5000000E-01  0.2400000E-01
   1        0.174758      0.174758
   2        5.262843      5.262843
   3        5.608529      5.608529
   4        8.649485      8.649485
   5        8.968489      8.968489
   6       10.181835     10.181835
 
 -0.1500000E+00  0.2500000E+00  0.5000000E-01  0.2400000E-01
   1       -0.064407     -0.064407
   2        5.626175      5.626175
   3        5.697212      5.697212
   4        8.067024      8.067024
   5        8.474706      8.474706
   6       10.384941     10.384941
 
 -0.3500000E+00  0.3500000E+00  0.5000000E-01  0.2400000E-01
   1        1.212093      1.212093
   2        4.668351      4.668351
   3        5.692149      5.692149
   4        9.182476      9.182476
   5       10.409660     10.409660
   6       11.104184     11.104184
 
 -0.2500000E+00  0.3500000E+00  0.5000000E-01  0.4800000E-01
   1        1.238768      1.238768
   2        4.916077      4.916077
   3        5.348197      5.348197
   4        8.368917      8.368917
   5       10.302873     10.302873
   6       10.688078     10.688078
 
 -0.4500000E+00  0.4500000E+00  0.5000000E-01  0.2400000E-01
   1        1.454844      1.454844
   2        4.336291      4.336291
   3        6.695125      6.695125
   4        9.341676      9.341676
   5       10.779340     10.779340
   6       13.051237     13.051237
 
 -0.3500000E+00  0.4500000E+00  0.5000000E-01  0.4800000E-01
   1        1.894778      1.894778
   2        4.614207      4.614207
   3        5.595436      5.595436
   4        8.908113      8.908113
   5       10.722971     10.722971
   6       12.691794     12.691794
 
 -0.2500000E+00  0.4500000E+00  0.5000000E-01  0.2400000E-01
   1        2.361646      2.361646
   2        4.320860      4.320860
   3        5.354230      5.354230
   4        8.675644      8.675644
   5       10.428588     10.428588
   6       12.763530     12.763530
 
 -0.4500000E+00 -0.4500000E+00  0.5000000E-01  0.2400000E-01
   1        1.950561      1.950561
   2        4.512689      4.512689
   3        6.089413      6.089413
   4        8.862039      8.862039
   5       11.231194     11.231194
   6       13.943457     13.943457
 
 -0.3500000E+00 -0.4500000E+00  0.5000000E-01  0.4800000E-01
   1        2.831402      2.831402
   2        4.379069      4.379069
   3        5.219161      5.219161
   4        9.144720      9.144720
   5       10.649346     10.649346
   6       15.053623     15.053623
 
 -0.3500000E+00 -0.3500000E+00  0.5000000E-01  0.8000000E-02
   1        3.491038      3.491038
   2        4.476934      4.476934
   3        4.476934      4.476934
   4       10.107374     10.107374
   5       10.107374     10.107374
   6       14.673266     14.673266
 
  0.1500000E+00  0.1500000E+00  0.1500000E+00  0.8000000E-02
   1        2.232124      2.232124
   2        4.383407      4.383407
   3        4.383407      4.383407
   4       10.050819     10.050819
   5       10.050819     10.050819
   6       12.780899     12.780899
 
  0.2500000E+00  0.1500000E+00  0.1500000E+00  0.2400000E-01
   1        3.139211      3.139211
   2        4.137419      4.137419
   3        4.781825      4.781825
   4       10.217488     10.217488
   5       10.528321     10.528321
   6       14.967724     14.967724
 
  0.3500000E+00  0.1500000E+00  0.1500000E+00  0.1200000E-01
   1        3.146650      3.146650
   2        4.065434      4.065434
   3        5.604043      5.604043
   4       10.277641     10.277641
   5       10.680115     10.680115
   6       14.368417     14.368417
 
 -0.1500000E+00  0.1500000E+00  0.1500000E+00  0.6000000E-02
   1       -0.369430     -0.369430
   2        6.362787      6.362787
   3        6.362787      6.362787
   4        7.167444      7.167444
   5        7.361708      7.361708
   6       10.581228     10.581228
 
  0.2500000E+00  0.2500000E+00  0.1500000E+00  0.2400000E-01
   1        3.740169      3.740169
   2        4.400845      4.400845
   3        4.829643      4.829643
   4       10.531122     10.531122
   5       10.660878     10.660878
   6       13.660492     13.660492
 
 -0.2500000E+00  0.2500000E+00  0.1500000E+00  0.2400000E-01
   1        0.892964      0.892964
   2        5.511450      5.511450
   3        6.005113      6.005113
   4        7.233394      7.233394
   5        8.722137      8.722137
   6       10.785283     10.785283
 
 -0.3500000E+00  0.3500000E+00  0.1500000E+00  0.2400000E-01
   1        1.937225      1.937225
   2        4.886434      4.886434
   3        5.497438      5.497438
   4        8.037441      8.037441
   5       10.849264     10.849264
   6       10.889586     10.889586
 
 -0.2500000E+00  0.3500000E+00  0.1500000E+00  0.2400000E-01
   1        2.062139      2.062139
   2        4.567589      4.567589
   3        6.139441      6.139441
   4        7.515377      7.515377
   5        9.979775      9.979775
   6       10.950685     10.950685
 
 -0.4500000E+00  0.4500000E+00  0.1500000E+00  0.2400000E-01
   1        2.159954      2.159954
   2        5.198944      5.198944
   3        5.257544      5.257544
   4        8.012731      8.012731
   5       11.987626     11.987626
   6       12.848641     12.848641
 
 -0.3500000E+00  0.4500000E+00  0.1500000E+00  0.4800000E-01
   1        2.766829      2.766829
   2        4.182991      4.182991
   3        5.741212      5.741212
   4        8.149827      8.149827
   5       10.719395     10.719395
   6       12.907681     12.907681
 
 -0.4500000E+00 -0.4500000E+00  0.1500000E+00  0.2400000E-01
   1        2.778670      2.778670
   2        4.561763      4.561763
   3        5.294290      5.294290
   4        8.144688      8.144688
   5       11.755107     11.755107
   6       14.562611     14.562611
 
 -0.3500000E+00 -0.4500000E+00  0.1500000E+00  0.2400000E-01
   1        3.647095      3.647095
   2        3.708447      3.708447
   3        4.970729      4.970729
   4        9.412601      9.412601
   5       10.581576     10.581576
   6       15.367515     15.367515
 
  0.2500000E+00  0.2500000E+00  0.2500000E+00  0.2000000E-02
   1        4.470484      4.470484
   2        4.470484      4.470484
   3        4.470484      4.470484
   4       10.739368     10.739368
   5       10.739368     10.739368
   6       12.745456     12.745456
 
 -0.2500000E+00  0.2500000E+00  0.2500000E+00  0.6000000E-02
   1        1.969539      1.969539
   2        4.784028      4.784028
   3        6.952915      6.952915
   4        6.952915      6.952915
   5        8.880821      8.880821
   6       10.684603     10.684603
 
 -0.3500000E+00  0.3500000E+00  0.2500000E+00  0.2400000E-01
   1        2.792041      2.792041
   2        3.854407      3.854407
   3        7.012848      7.012848
   4        7.604058      7.604058
   5       10.543418     10.543418
   6       10.834601     10.834601
 
 -0.4500000E+00  0.4500000E+00  0.2500000E+00  0.2400000E-01
   1        2.826723      2.826723
   2        3.768342      3.768342
   3        6.842598      6.842598
   4        7.487897      7.487897
   5       12.538740     12.538740
   6       12.822834     12.822834
 
 -0.3500000E+00  0.4500000E+00  0.2500000E+00  0.2400000E-01
   1        3.118143      3.118143
   2        3.180346      3.180346
   3        6.855055      6.855055
   4        8.831248      8.831248
   5       10.814162     10.814162
   6       12.926118     12.926118
 
 -0.4500000E+00 -0.4500000E+00  0.2500000E+00  0.2400000E-01
   1        2.908824      2.908824
   2        3.232951      3.232951
   3        6.577758      6.577758
   4        9.347124      9.347124
   5       11.657924     11.657924
   6       15.269217     15.269217
 
 -0.3500000E+00  0.3500000E+00  0.3500000E+00  0.6000000E-02
   1        2.895590      2.895590
   2        2.994794      2.994794
   3        8.610357      8.610357
   4        8.610357      8.610357
   5       10.765263     10.765263
   6       10.944132     10.944132
 
 -0.4500000E+00  0.4500000E+00  0.3500000E+00  0.2400000E-01
   1        2.515535      2.515535
   2        2.678048      2.678048
   3        9.075410      9.075410
   4        9.081747      9.081747
   5       12.257961     12.257961
   6       13.070370     13.070370
 
 -0.4500000E+00 -0.4500000E+00  0.3500000E+00  0.8000000E-02
   1        2.361628      2.361628
   2        2.361628      2.361628
   3        9.007417      9.007417
   4       11.435641     11.435641
   5       11.435641     11.435641
   6       15.578147     15.578147
 
 -0.4500000E+00  0.4500000E+00  0.4500000E+00  0.6000000E-02
   1        2.059756      2.059756
   2        2.106549      2.106549
   3       11.339345     11.339345
   4       11.339345     11.339345
   5       12.247053     12.247053
   6       13.551952     13.551952
