    1    1    1    1
  0.1813235E+02  0.2866544E-09  0.2866544E-09  0.2866544E-09  0.5000000E-15
  1.000000000000000E-004
  CAR 
 unknown system                          
    5   44    6
 
  0.5000000E-01  0.5000000E-01  0.5000000E-01  0.8000000E-02
   1       -1.546349
   2        6.087251
   3        6.087251
   4        7.202119
   5        9.443340
   6        9.443340
 
  0.1500000E+00  0.5000000E-01  0.5000000E-01  0.2400000E-01
   1       -0.423741
   2        5.414145
   3        5.597691
   4        8.551500
   5        9.127253
   6        9.711413
 
  0.2500000E+00  0.5000000E-01  0.5000000E-01  0.2400000E-01
   1        0.901844
   2        4.757122
   3        5.296414
   4        9.345757
   5       10.039116
   6       10.524036
 
  0.3500000E+00  0.5000000E-01  0.5000000E-01  0.2400000E-01
   1        1.530345
   2        4.307490
   3        6.108363
   4        9.668301
   5       10.402957
   6       12.659415
 
  0.4500000E+00  0.5000000E-01  0.5000000E-01  0.1200000E-01
   1        1.587717
   2        4.149545
   3        6.984316
   4        9.649933
   5       10.587553
   6       13.805078
 
 -0.5000000E-01  0.5000000E-01  0.5000000E-01  0.6000000E-02
   1       -1.962165
   2        6.405835
   3        6.405836
   4        6.543009
   5        9.306839
   6        9.803797
 
  0.1500000E+00  0.1500000E+00  0.5000000E-01  0.2400000E-01
   1        0.846515
   2        4.868473
   3        4.940888
   4        9.202418
   5       10.084713
   6       10.448399
 
  0.2500000E+00  0.1500000E+00  0.5000000E-01  0.4800000E-01
   1        2.012562
   2        4.396739
   3        4.973990
   4        9.503496
   5       10.427269
   6       12.674331
 
  0.3500000E+00  0.1500000E+00  0.5000000E-01  0.4800000E-01
   1        2.290292
   2        4.182335
   3        5.939318
   4        9.755776
   5       10.628794
   6       14.527290
 
 -0.1500000E+00  0.1500000E+00  0.5000000E-01  0.2400000E-01
   1       -1.145792
   2        5.952051
   3        6.180495
   4        7.356067
   5        8.625180
   6        9.986653
 
  0.2500000E+00  0.2500000E+00  0.5000000E-01  0.2400000E-01
   1        2.931308
   2        4.291656
   3        5.010050
   4        9.817967
   5       10.525498
   6       14.957988
 
  0.3500000E+00  0.2500000E+00  0.5000000E-01  0.2400000E-01
   1        3.112188
   2        4.375857
   3        5.250931
   4       10.057415
   5       10.570088
   6       14.383312
 
 -0.2500000E+00  0.2500000E+00  0.5000000E-01  0.2400000E-01
   1        0.175550
   2        5.263615
   3        5.609317
   4        8.650320
   5        8.969452
   6       10.182749
 
 -0.1500000E+00  0.2500000E+00  0.5000000E-01  0.2400000E-01
   1       -0.063609
   2        5.626938
   3        5.698012
   4        8.067804
   5        8.475647
   6       10.385877
 
 -0.3500000E+00  0.3500000E+00  0.5000000E-01  0.2400000E-01
   1        1.212823
   2        4.669096
   3        5.693052
   4        9.183390
   5       10.410612
   6       11.105258
 
 -0.2500000E+00  0.3500000E+00  0.5000000E-01  0.4800000E-01
   1        1.239569
   2        4.916816
   3        5.349005
   4        8.369758
   5       10.303892
   6       10.689076
 
 -0.4500000E+00  0.4500000E+00  0.5000000E-01  0.2400000E-01
   1        1.455493
   2        4.337023
   3        6.696189
   4        9.342590
   5       10.780361
   6       13.052429
 
 -0.3500000E+00  0.4500000E+00  0.5000000E-01  0.4800000E-01
   1        1.895484
   2        4.614957
   3        5.596348
   4        8.909004
   5       10.723983
   6       12.692958
 
 -0.2500000E+00  0.4500000E+00  0.5000000E-01  0.2400000E-01
   1        2.362426
   2        4.321583
   3        5.355088
   4        8.676517
   5       10.429565
   6       12.764700
 
 -0.4500000E+00 -0.4500000E+00  0.5000000E-01  0.2400000E-01
   1        1.951222
   2        4.513438
   3        6.090399
   4        8.862895
   5       11.232290
   6       13.944698
 
 -0.3500000E+00 -0.4500000E+00  0.5000000E-01  0.4800000E-01
   1        2.832112
   2        4.379828
   3        5.220044
   4        9.145620
   5       10.650372
   6       15.054908
 
 -0.3500000E+00 -0.3500000E+00  0.5000000E-01  0.8000000E-02
   1        3.491742
   2        4.477745
   3        4.477745
   4       10.108367
   5       10.108367
   6       14.674300
 
  0.1500000E+00  0.1500000E+00  0.1500000E+00  0.8000000E-02
   1        2.232990
   2        4.384166
   3        4.384166
   4       10.051748
   5       10.051748
   6       12.782088
 
  0.2500000E+00  0.1500000E+00  0.1500000E+00  0.2400000E-01
   1        3.140017
   2        4.138191
   3        4.782726
   4       10.218446
   5       10.529296
   6       14.968973
 
  0.3500000E+00  0.1500000E+00  0.1500000E+00  0.1200000E-01
   1        3.147414
   2        4.066212
   3        5.605052
   4       10.278606
   5       10.681107
   6       14.369471
 
 -0.1500000E+00  0.1500000E+00  0.1500000E+00  0.6000000E-02
   1       -0.368636
   2        6.363624
   3        6.363624
   4        7.168121
   5        7.362577
   6       10.582181
 
  0.2500000E+00  0.2500000E+00  0.1500000E+00  0.2400000E-01
   1        3.740958
   2        4.401697
   3        4.830571
   4       10.532104
   5       10.661870
   6       13.661501
 
 -0.2500000E+00  0.2500000E+00  0.1500000E+00  0.2400000E-01
   1        0.893790
   2        5.512147
   3        6.005929
   4        7.234209
   5        8.723074
   6       10.786276
 
 -0.3500000E+00  0.3500000E+00  0.1500000E+00  0.2400000E-01
   1        1.937995
   2        4.887177
   3        5.498229
   4        8.038319
   5       10.850315
   6       10.890611
 
 -0.2500000E+00  0.3500000E+00  0.1500000E+00  0.2400000E-01
   1        2.062968
   2        4.568234
   3        6.140284
   4        7.516234
   5        9.980756
   6       10.951716
 
 -0.4500000E+00  0.4500000E+00  0.1500000E+00  0.2400000E-01
   1        2.160624
   2        5.199722
   3        5.258404
   4        8.013545
   5       11.988800
   6       12.849815
 
 -0.3500000E+00  0.4500000E+00  0.1500000E+00  0.4800000E-01
   1        2.767566
   2        4.183698
   3        5.742030
   4        8.150702
   5       10.720420
   6       12.908867
 
 -0.4500000E+00 -0.4500000E+00  0.1500000E+00  0.2400000E-01
   1        2.779338
   2        4.562557
   3        5.295059
   4        8.145539
   5       11.756251
   6       14.563912
 
 -0.3500000E+00 -0.4500000E+00  0.1500000E+00  0.2400000E-01
   1        3.647835
   2        3.709124
   3        4.971492
   4        9.413578
   5       10.582614
   6       15.368733
 
  0.2500000E+00  0.2500000E+00  0.2500000E+00  0.2000000E-02
   1        4.471360
   2        4.471360
   3        4.471360
   4       10.740366
   5       10.740366
   6       12.746407
 
 -0.2500000E+00  0.2500000E+00  0.2500000E+00  0.6000000E-02
   1        1.970390
   2        4.784617
   3        6.953795
   4        6.953795
   5        8.881746
   6       10.685589
 
 -0.3500000E+00  0.3500000E+00  0.2500000E+00  0.2400000E-01
   1        2.792834
   2        3.855005
   3        7.013726
   4        7.604947
   5       10.544437
   6       10.835618
 
 -0.4500000E+00  0.4500000E+00  0.2500000E+00  0.2400000E-01
   1        2.827363
   2        3.769045
   3        6.843464
   4        7.488732
   5       12.539889
   6       12.824039
 
 -0.3500000E+00  0.4500000E+00  0.2500000E+00  0.2400000E-01
   1        3.118859
   2        3.180927
   3        6.855907
   4        8.832220
   5       10.815189
   6       12.927286
 
 -0.4500000E+00 -0.4500000E+00  0.2500000E+00  0.2400000E-01
   1        2.909429
   2        3.233600
   3        6.578601
   4        9.348110
   5       11.659048
   6       15.270533
 
 -0.3500000E+00  0.3500000E+00  0.3500000E+00  0.6000000E-02
   1        2.896296
   2        2.995339
   3        8.611330
   4        8.611330
   5       10.766283
   6       10.945147
 
 -0.4500000E+00  0.4500000E+00  0.3500000E+00  0.2400000E-01
   1        2.516090
   2        2.678656
   3        9.076385
   4        9.082731
   5       12.259088
   6       13.071536
 
 -0.4500000E+00 -0.4500000E+00  0.3500000E+00  0.8000000E-02
   1        2.362187
   2        2.362187
   3        9.008391
   4       11.436746
   5       11.436746
   6       15.579442
 
 -0.4500000E+00  0.4500000E+00  0.4500000E+00  0.6000000E-02
   1        2.060284
   2        2.107094
   3       11.340445
   4       11.340445
   5       12.248179
   6       13.553120
