       N       E                     dE             d eps       ncg     rms          rms(c)
DAV:   1    -0.118644101954E+02   -0.11864E+02   -0.25009E-06   540   0.168E-02    0.354E-04
DAV:   2    -0.118644102401E+02   -0.44625E-07   -0.23361E-07   528   0.372E-03
   1 F= -.11864410E+02 E0= -.11864617E+02  d E =0.621249E-03  mag=     0.0000
