       N       E                     dE             d eps       ncg     rms          rms(c)
DAV:   1     0.209546018778E+01    0.20955E+01   -0.20655E+03   528   0.648E+02
DAV:   2    -0.122737654543E+02   -0.14369E+02   -0.13673E+02   960   0.896E+01
DAV:   3    -0.123443433486E+02   -0.70578E-01   -0.70597E-01   528   0.893E+00
DAV:   4    -0.123445432860E+02   -0.19994E-03   -0.19721E-03   732   0.325E-01
DAV:   5    -0.123445434094E+02   -0.12346E-06   -0.12380E-06   426   0.800E-03    0.322E+00
DAV:   6    -0.120165357261E+02    0.32801E+00   -0.20412E-01   624   0.344E+00    0.172E+00
DAV:   7    -0.118653592873E+02    0.15118E+00   -0.30055E-01   636   0.404E+00    0.126E-01
DAV:   8    -0.118644003139E+02    0.95897E-03   -0.88080E-04   564   0.261E-01    0.275E-02
DAV:   9    -0.118644150932E+02   -0.14779E-04   -0.55878E-05   384   0.573E-02
   1 F= -.11864415E+02 E0= -.11864623E+02  d E =0.622447E-03
