<?xml version="1.0" encoding="ISO-8859-1"?>
<modeling>
 <generator>
  <i name="program" type="string">vasp </i>
  <i name="version" type="string">5.2.12  </i>
  <i name="subversion" type="string">11Nov11 complex                                                      parallel </i>
  <i name="platform" type="string">LinuxIFC </i>
  <i name="date" type="string">2012 10 17 </i>
  <i name="time" type="string">09:24:41 </i>
 </generator>
 <incar>
  <i type="string" name="PREC">accurate</i>
  <i type="int" name="ISPIN">     2</i>
  <i name="ENCUT">    550.00000000</i>
  <i type="int" name="NBANDS">     6</i>
  <i type="logical" name="LREAL"> F  </i>
  <i type="int" name="ISMEAR">     1</i>
  <i name="SIGMA">      0.05000000</i>
 </incar>
 <kpoints>
  <generation param="Monkhorst-Pack">
   <v type="int" name="divisions">      10       10       10 </v>
   <v name="usershift">      0.00000000       0.00000000       0.00000000 </v>
   <v name="genvec1">      0.10000000       0.00000000       0.00000000 </v>
   <v name="genvec2">      0.00000000       0.10000000       0.00000000 </v>
   <v name="genvec3">      0.00000000       0.00000000       0.10000000 </v>
   <v name="shift">      0.50000000       0.50000000       0.50000000 </v>
  </generation>
  <varray name="kpointlist" >
   <v>       0.05000000       0.05000000       0.05000000 </v>
   <v>       0.15000000       0.05000000       0.05000000 </v>
   <v>       0.25000000       0.05000000       0.05000000 </v>
   <v>       0.35000000       0.05000000       0.05000000 </v>
   <v>       0.45000000       0.05000000       0.05000000 </v>
   <v>      -0.05000000       0.05000000       0.05000000 </v>
   <v>       0.15000000       0.15000000       0.05000000 </v>
   <v>       0.25000000       0.15000000       0.05000000 </v>
   <v>       0.35000000       0.15000000       0.05000000 </v>
   <v>      -0.15000000       0.15000000       0.05000000 </v>
   <v>       0.25000000       0.25000000       0.05000000 </v>
   <v>       0.35000000       0.25000000       0.05000000 </v>
   <v>      -0.25000000       0.25000000       0.05000000 </v>
   <v>      -0.15000000       0.25000000       0.05000000 </v>
   <v>      -0.35000000       0.35000000       0.05000000 </v>
   <v>      -0.25000000       0.35000000       0.05000000 </v>
   <v>      -0.45000000       0.45000000       0.05000000 </v>
   <v>      -0.35000000       0.45000000       0.05000000 </v>
   <v>      -0.25000000       0.45000000       0.05000000 </v>
   <v>      -0.45000000      -0.45000000       0.05000000 </v>
   <v>      -0.35000000      -0.45000000       0.05000000 </v>
   <v>      -0.35000000      -0.35000000       0.05000000 </v>
   <v>       0.15000000       0.15000000       0.15000000 </v>
   <v>       0.25000000       0.15000000       0.15000000 </v>
   <v>       0.35000000       0.15000000       0.15000000 </v>
   <v>      -0.15000000       0.15000000       0.15000000 </v>
   <v>       0.25000000       0.25000000       0.15000000 </v>
   <v>      -0.25000000       0.25000000       0.15000000 </v>
   <v>      -0.35000000       0.35000000       0.15000000 </v>
   <v>      -0.25000000       0.35000000       0.15000000 </v>
   <v>      -0.45000000       0.45000000       0.15000000 </v>
   <v>      -0.35000000       0.45000000       0.15000000 </v>
   <v>      -0.45000000      -0.45000000       0.15000000 </v>
   <v>      -0.35000000      -0.45000000       0.15000000 </v>
   <v>       0.25000000       0.25000000       0.25000000 </v>
   <v>      -0.25000000       0.25000000       0.25000000 </v>
   <v>      -0.35000000       0.35000000       0.25000000 </v>
   <v>      -0.45000000       0.45000000       0.25000000 </v>
   <v>      -0.35000000       0.45000000       0.25000000 </v>
   <v>      -0.45000000      -0.45000000       0.25000000 </v>
   <v>      -0.35000000       0.35000000       0.35000000 </v>
   <v>      -0.45000000       0.45000000       0.35000000 </v>
   <v>      -0.45000000      -0.45000000       0.35000000 </v>
   <v>      -0.45000000       0.45000000       0.45000000 </v>
  </varray>
  <varray name="weights" >
   <v>       0.00800000 </v>
   <v>       0.02400000 </v>
   <v>       0.02400000 </v>
   <v>       0.02400000 </v>
   <v>       0.01200000 </v>
   <v>       0.00600000 </v>
   <v>       0.02400000 </v>
   <v>       0.04800000 </v>
   <v>       0.04800000 </v>
   <v>       0.02400000 </v>
   <v>       0.02400000 </v>
   <v>       0.02400000 </v>
   <v>       0.02400000 </v>
   <v>       0.02400000 </v>
   <v>       0.02400000 </v>
   <v>       0.04800000 </v>
   <v>       0.02400000 </v>
   <v>       0.04800000 </v>
   <v>       0.02400000 </v>
   <v>       0.02400000 </v>
   <v>       0.04800000 </v>
   <v>       0.00800000 </v>
   <v>       0.00800000 </v>
   <v>       0.02400000 </v>
   <v>       0.01200000 </v>
   <v>       0.00600000 </v>
   <v>       0.02400000 </v>
   <v>       0.02400000 </v>
   <v>       0.02400000 </v>
   <v>       0.02400000 </v>
   <v>       0.02400000 </v>
   <v>       0.04800000 </v>
   <v>       0.02400000 </v>
   <v>       0.02400000 </v>
   <v>       0.00200000 </v>
   <v>       0.00600000 </v>
   <v>       0.02400000 </v>
   <v>       0.02400000 </v>
   <v>       0.02400000 </v>
   <v>       0.02400000 </v>
   <v>       0.00600000 </v>
   <v>       0.02400000 </v>
   <v>       0.00800000 </v>
   <v>       0.00600000 </v>
  </varray>
 </kpoints>
 <parameters>
  <separator name="general" >
   <i type="string" name="SYSTEM">unknown system</i>
   <i type="logical" name="LCOMPAT"> F  </i>
  </separator>
  <separator name="electronic" >
   <i type="string" name="PREC">accura</i>
   <i name="ENMAX">    550.00000000</i>
   <i name="ENAUG">    332.07500000</i>
   <i name="EDIFF">      0.00010000</i>
   <i type="int" name="IALGO">    38</i>
   <i type="int" name="IWAVPR">    10</i>
   <i type="int" name="NBANDS">     6</i>
   <i name="NELECT">      5.00000000</i>
   <i type="int" name="TURBO">     0</i>
   <i type="int" name="IRESTART">     0</i>
   <i type="int" name="NREBOOT">     0</i>
   <i type="int" name="NMIN">     0</i>
   <i name="EREF">      0.00000000</i>
   <separator name="electronic smearing" >
    <i type="int" name="ISMEAR">     1</i>
    <i name="SIGMA">      0.05000000</i>
    <i name="KSPACING">      0.50000000</i>
    <i type="logical" name="KGAMMA"> T  </i>
   </separator>
   <separator name="electronic projectors" >
    <i type="logical" name="LREAL"> F  </i>
    <v name="ROPT">      0.00000000</v>
    <i type="int" name="LMAXPAW">  -100</i>
    <i type="int" name="LMAXMIX">     2</i>
    <i type="logical" name="NLSPLINE"> F  </i>
   </separator>
   <separator name="electronic startup" >
    <i type="int" name="ISTART">     1</i>
    <i type="int" name="ICHARG">     0</i>
    <i type="int" name="INIWAV">     1</i>
   </separator>
   <separator name="electronic spin" >
    <i type="int" name="ISPIN">     2</i>
    <i type="logical" name="LNONCOLLINEAR"> F  </i>
    <v name="MAGMOM">      1.00000000</v>
    <i name="NUPDOWN">     -1.00000000</i>
    <i type="logical" name="LSORBIT"> F  </i>
    <v name="SAXIS">      0.00000000      0.00000000      1.00000000</v>
    <i type="logical" name="LSPIRAL"> F  </i>
    <v name="QSPIRAL">      0.00000000      0.00000000      0.00000000</v>
    <i type="logical" name="LZEROZ"> F  </i>
   </separator>
   <separator name="electronic exchange-correlation" >
    <i type="logical" name="LASPH"> F  </i>
    <i type="logical" name="LMETAGGA"> F  </i>
   </separator>
   <separator name="electronic convergence" >
    <i type="int" name="NELM">    60</i>
    <i type="int" name="NELMDL">     0</i>
    <i type="int" name="NELMIN">     2</i>
    <i name="ENINI">    550.00000000</i>
    <separator name="electronic convergence detail" >
     <i type="logical" name="LDIAG"> T  </i>
     <i type="logical" name="LSUBROT"> T  </i>
     <i name="WEIMIN">      0.00000000</i>
     <i name="EBREAK">      0.00000417</i>
     <i name="DEPER">      0.30000000</i>
     <i type="int" name="NRMM">     4</i>
     <i name="TIME">      0.40000000</i>
    </separator>
   </separator>
   <separator name="electronic mixer" >
    <i name="AMIX">      0.40000000</i>
    <i name="BMIX">      1.00000000</i>
    <i name="AMIN">      0.10000000</i>
    <i name="AMIX_MAG">      1.60000000</i>
    <i name="BMIX_MAG">      1.00000000</i>
    <separator name="electronic mixer details" >
     <i type="int" name="IMIX">     4</i>
     <i type="int" name="MAXMIX">   -45</i>
     <i name="WC">    100.00000000</i>
     <i type="int" name="INIMIX">     1</i>
     <i type="int" name="MIXPRE">     1</i>
     <i type="int" name="MREMOVE">     5</i>
    </separator>
   </separator>
   <separator name="electronic dipolcorrection" >
    <i type="logical" name="LDIPOL"> F  </i>
    <i type="logical" name="LMONO"> F  </i>
    <i type="int" name="IDIPOL">     0</i>
    <i name="EPSILON">      1.00000000</i>
    <v name="DIPOL">   -100.00000000   -100.00000000   -100.00000000</v>
    <i name="EFIELD">      0.00000000</i>
   </separator>
  </separator>
  <separator name="grids" >
   <i type="int" name="NGX">    24</i>
   <i type="int" name="NGY">    24</i>
   <i type="int" name="NGZ">    24</i>
   <i type="int" name="NGXF">    48</i>
   <i type="int" name="NGYF">    48</i>
   <i type="int" name="NGZF">    48</i>
   <i type="logical" name="ADDGRID"> F  </i>
  </separator>
  <separator name="ionic" >
   <i type="int" name="NSW">     0</i>
   <i type="int" name="IBRION">    -1</i>
   <i type="int" name="ISIF">     2</i>
   <i name="PSTRESS">      0.00000000</i>
   <i name="EDIFFG">      0.00100000</i>
   <i type="int" name="NFREE">     0</i>
   <i name="POTIM">      0.50000000</i>
   <i name="SMASS">     -3.00000000</i>
   <i name="SCALEE">      1.00000000</i>
  </separator>
  <separator name="ionic md" >
   <i name="TEBEG">      0.00010000</i>
   <i name="TEEND">      0.00010000</i>
   <i type="int" name="NBLOCK">     1</i>
   <i type="int" name="KBLOCK">     1</i>
   <i type="int" name="NPACO">   256</i>
   <i name="APACO">     16.00000000</i>
  </separator>
  <separator name="symmetry" >
   <i type="int" name="ISYM">     2</i>
   <i name="SYMPREC">      0.00001000</i>
  </separator>
  <separator name="dos" >
   <i type="logical" name="LORBIT"> F  </i>
   <v name="RWIGS">     -1.00000000</v>
   <i type="int" name="NEDOS">   301</i>
   <i name="EMIN">     10.00000000</i>
   <i name="EMAX">    -10.00000000</i>
   <i name="EFERMI">      0.00000000</i>
  </separator>
  <separator name="writing" >
   <i type="int" name="NWRITE">     2</i>
   <i type="logical" name="LWAVE"> T  </i>
   <i type="logical" name="LCHARG"> T  </i>
   <i type="logical" name="LPARD"> F  </i>
   <i type="logical" name="LVTOT"> F  </i>
   <i type="logical" name="LVHAR"> F  </i>
   <i type="logical" name="LELF"> F  </i>
   <i type="logical" name="LOPTICS"> F  </i>
   <v name="STM">      0.00000000      0.00000000      0.00000000      0.00000000      0.00000000      0.00000000      0.00000000</v>
  </separator>
  <separator name="performance" >
   <i type="int" name="NPAR">     1</i>
   <i type="int" name="NSIM">     4</i>
   <i type="int" name="NBLK">    -1</i>
   <i type="logical" name="LPLANE"> T  </i>
   <i type="logical" name="LSCALAPACK"> F  </i>
   <i type="logical" name="LSCAAWARE"> F  </i>
   <i type="logical" name="LSCALU"> F  </i>
   <i type="logical" name="LASYNC"> F  </i>
   <i type="logical" name="LORBITALREAL"> F  </i>
  </separator>
  <separator name="miscellaneous" >
   <i type="int" name="IDIOT">     3</i>
   <i type="logical" name="LMUSIC"> F  </i>
   <v name="POMASS">    180.94800000</v>
   <v name="DARWINR">      0.00000000</v>
   <v name="DARWINV">      1.00000000</v>
   <i type="logical" name="LCORR"> T  </i>
  </separator>
  <i type="logical" name="GGA_COMPAT"> T  </i>
  <i type="logical" name="LBERRY"> F  </i>
  <i type="int" name="ICORELEVEL">     0</i>
  <i type="logical" name="LDAU"> F  </i>
  <i type="int" name="I_CONSTRAINED_M">     0</i>
  <separator name="electronic exchange-correlation" >
   <i type="string" name="GGA">--</i>
   <i type="int" name="VOSKOWN">     0</i>
   <i type="logical" name="LHFCALC"> F  </i>
   <i type="string" name="PRECFOCK"></i>
   <i type="logical" name="LHFONE"> F  </i>
   <i type="logical" name="LRHFCALC"> F  </i>
   <i type="logical" name="LTHOMAS"> F  </i>
   <i type="logical" name="LMODELHF"> F  </i>
   <i name="ENCUT4O">     -1.00000000</i>
   <i type="int" name="EXXOEP">     0</i>
   <i type="int" name="FOURORBIT">     0</i>
   <i name="AEXX">      0.00000000</i>
   <i name="HFALPHA">      0.00000000</i>
   <i name="ALDAX">      1.00000000</i>
   <i name="AGGAX">      1.00000000</i>
   <i name="ALDAC">      1.00000000</i>
   <i name="AGGAC">      1.00000000</i>
   <i type="int" name="NKREDX">     1</i>
   <i type="int" name="NKREDY">     1</i>
   <i type="int" name="NKREDZ">     1</i>
   <i type="logical" name="SHIFTRED"> F  </i>
   <i type="logical" name="ODDONLY"> F  </i>
   <i type="logical" name="EVENONLY"> F  </i>
   <i type="int" name="LMAXFOCK">     0</i>
   <i type="int" name="NMAXFOCKAE">     0</i>
   <i type="logical" name="LFOCKAEDFT"> F  </i>
   <i name="HFSCREEN">      0.00000000</i>
   <i name="HFSCREENC">      0.00000000</i>
  </separator>
  <separator name="vdW DFT" >
   <i type="logical" name="LUSE_VDW"> F  </i>
   <i name="Zab_VDW">     -0.84910000</i>
   <i name="PARAM1">      0.12340000</i>
   <i name="PARAM2">      1.00000000</i>
   <i name="PARAM3">      0.00000000</i>
  </separator>
  <separator name="model GW" >
   <i type="int" name="MODEL_GW">     0</i>
   <i name="MODEL_EPS0">     10.87940730</i>
   <i name="MODEL_ALPHA">      1.00000000</i>
  </separator>
  <separator name="linear response parameters" >
   <i type="logical" name="LEPSILON"> F  </i>
   <i type="logical" name="LRPA"> F  </i>
   <i type="logical" name="LNABLA"> F  </i>
   <i type="logical" name="LVEL"> F  </i>
   <i type="int" name="KINTER">     0</i>
   <i name="CSHIFT">      0.10000000</i>
   <i name="OMEGAMAX">     -1.00000000</i>
  </separator>
  <separator name="orbital magnetization" >
   <i type="logical" name="NUCIND"> F  </i>
   <v name="MAGPOS">      0.00000000      0.00000000      0.00000000</v>
   <i type="logical" name="LNICSALL"> T  </i>
   <i type="logical" name="ORBITALMAG"> F  </i>
   <i type="logical" name="LMAGBLOCH"> F  </i>
   <i type="logical" name="LCHIMAG"> F  </i>
   <i type="logical" name="LGAUGE"> T  </i>
   <i type="int" name="MAGATOM">     0</i>
   <v name="MAGDIPOL">      0.00000000      0.00000000      0.00000000</v>
   <v name="AVECCONST">      0.00000000      0.00000000      0.00000000</v>
  </separator>
  <separator name="response functions" >
   <i type="logical" name="LADDER"> F  </i>
   <i type="logical" name="LHARTREE"> T  </i>
   <i type="int" name="IBSE">     0</i>
   <i type="logical" name="LTCTE"> F  </i>
   <i type="logical" name="LTETE"> F  </i>
   <i type="logical" name="LFXCEPS"> F  </i>
   <i type="logical" name="L2ORDER"> F  </i>
   <i type="logical" name="LUSEW"> F  </i>
   <i name="ENCUTGW">     -2.00000000</i>
   <i name="ENCUTGWSOFT">     -2.00000000</i>
   <i name="ENCUTLF">     -1.00000000</i>
   <i type="int" name="LMAXMP2">    -1</i>
   <i name="SCISSOR">      0.00000000</i>
   <i type="int" name="NOMEGA">     0</i>
   <i type="int" name="NOMEGAR">     0</i>
   <i type="int" name="NBANDSGW">    -1</i>
   <i type="int" name="NBANDSO">    -1</i>
   <i type="int" name="NBANDSV">    -1</i>
   <i name="OPTEMAX">      0.00000000</i>
   <i type="int" name="NELM">     1</i>
   <i type="int" name="DIM">     3</i>
   <i type="int" name="ANTIRES">     0</i>
   <i name="OMEGAMAX">    -30.00000000</i>
   <i name="OMEGATL">   -200.00000000</i>
   <i type="int" name="OMEGAGRID">     0</i>
   <i name="CSHIFT">     -0.10000000</i>
   <i type="logical" name="SELFENERGY"> F  </i>
   <i type="logical" name="LSPECTRAL"> F  </i>
   <i type="logical" name="ODDONLYGW"> F  </i>
   <i type="logical" name="EVENONLYGW"> F  </i>
   <i type="int" name="NKREDLFX">     1</i>
   <i type="int" name="NKREDLFY">     1</i>
   <i type="int" name="NKREDLFZ">     1</i>
   <i type="int" name="MAXMEM">  1800</i>
   <i type="int" name="TELESCOPE">     0</i>
  </separator>
 </parameters>
 <atominfo>
  <atoms>       1 </atoms>
  <types>       1 </types>
  <array name="atoms" >
   <dimension dim="1">ion</dimension>
   <field type="string">element</field>
   <field type="int">atomtype</field>
   <set>
    <rc><c>Ta</c><c>   1</c></rc>
   </set>
  </array>
  <array name="atomtypes" >
   <dimension dim="1">type</dimension>
   <field type="int">atomspertype</field>
   <field type="string">element</field>
   <field>mass</field>
   <field>valence</field>
   <field type="string">pseudopotential</field>
   <set>
    <rc><c>   1</c><c>Ta</c><c>    180.94800000</c><c>      5.00000000</c><c>  PAW_PBE Ta 17Jan2003                  </c></rc>
   </set>
  </array>
 </atominfo>
 <structure name="initialpos" >
  <crystal>
   <varray name="basis" >
    <v>       2.86654409       0.00000000       0.00000000 </v>
    <v>      -0.95551470       2.70260368       0.00000000 </v>
    <v>      -0.95551470      -1.35130184       2.34052345 </v>
   </varray>
   <i name="volume">     18.13234550 </i>
   <varray name="rec_basis" >
    <v>       0.34885213       0.12333785       0.21362743 </v>
    <v>       0.00000000       0.37001356       0.21362743 </v>
    <v>       0.00000000       0.00000000       0.42725485 </v>
   </varray>
  </crystal>
  <varray name="positions" >
   <v>       0.00000000       0.00000000       0.00000000 </v>
  </varray>
 </structure>
 <calculation>
  <scstep>
   <time name="dav">    1.54    1.54</time>
   <time name="total">    2.21    2.21</time>
   <energy>
    <i name="alphaZ">     30.58334069 </i>
    <i name="ewald">   -197.90100875 </i>
    <i name="hartreedc">     -0.59042261 </i>
    <i name="XCdc">    -66.00324805 </i>
    <i name="pawpsdc">    192.74081289 </i>
    <i name="pawaedc">   -119.31479726 </i>
    <i name="eentropy">      0.00062137 </i>
    <i name="bandstr">     17.97038795 </i>
    <i name="atom">    130.64990357 </i>
    <i name="e_fr_energy">    -11.86441020 </i>
    <i name="e_wo_entrp">    -11.86503157 </i>
    <i name="e_0_energy">    -11.86461732 </i>
   </energy>
  </scstep>
  <scstep>
   <time name="dav">    1.52    1.52</time>
   <time name="total">    1.94    1.94</time>
   <energy>
    <i name="alphaZ">     30.58334069 </i>
    <i name="ewald">   -197.90100875 </i>
    <i name="hartreedc">     -0.59048222 </i>
    <i name="XCdc">    -66.00328065 </i>
    <i name="pawpsdc">    192.73915281 </i>
    <i name="pawaedc">   -119.31320850 </i>
    <i name="eentropy">      0.00062125 </i>
    <i name="bandstr">     17.97055156 </i>
    <i name="atom">    130.64990357 </i>
    <i name="e_fr_energy">    -11.86441024 </i>
    <i name="e_wo_entrp">    -11.86503149 </i>
    <i name="e_0_energy">    -11.86461732 </i>
   </energy>
  </scstep>
  <parameters_embedded>
   <separator name="dft+d2" >
    <i type="logical" name="LVDW"> F  </i>
   </separator>
  </parameters_embedded>
  <structure>
   <crystal>
    <varray name="basis" >
     <v>       2.86654409       0.00000000       0.00000000 </v>
     <v>      -0.95551470       2.70260368       0.00000000 </v>
     <v>      -0.95551470      -1.35130184       2.34052345 </v>
    </varray>
    <i name="volume">     18.13234550 </i>
    <varray name="rec_basis" >
     <v>       0.34885213       0.12333785       0.21362743 </v>
     <v>       0.00000000       0.37001356       0.21362743 </v>
     <v>       0.00000000       0.00000000       0.42725485 </v>
    </varray>
   </crystal>
   <varray name="positions" >
    <v>       0.00000000       0.00000000       0.00000000 </v>
   </varray>
  </structure>
  <varray name="forces" >
   <v>       0.00000000       0.00000000       0.00000000 </v>
  </varray>
  <varray name="stress" >
   <v>      -9.05412771       0.00000000       0.00000000 </v>
   <v>       0.00000000      -9.05412771       0.00000000 </v>
   <v>       0.00000000       0.00000000      -9.05412771 </v>
  </varray>
  <energy>
   <i name="e_fr_energy">    -11.86441024 </i>
   <i name="e_wo_entrp">    -11.86461732 </i>
   <i name="e_0_energy">      0.00062125 </i>
  </energy>
  <time name="totalsc">    7.04    7.21</time>
  <eigenvalues>
   <array>
    <dimension dim="1">band</dimension>
    <dimension dim="2">kpoint</dimension>
    <dimension dim="3">spin</dimension>
    <field>eigene</field>
    <field>occ</field>
    <set>
     <set comment="spin 1">
      <set comment="kpoint 1">
       <r>   -1.5471    1.0000 </r>
       <r>    6.0864    0.0000 </r>
       <r>    6.0864    0.0000 </r>
       <r>    7.2012    0.0000 </r>
       <r>    9.4425    0.0000 </r>
       <r>    9.4425    0.0000 </r>
      </set>
      <set comment="kpoint 2">
       <r>   -0.4245    1.0000 </r>
       <r>    5.4134    1.0000 </r>
       <r>    5.5969    1.0268 </r>
       <r>    8.5505    0.0000 </r>
       <r>    9.1264    0.0000 </r>
       <r>    9.7105    0.0000 </r>
      </set>
      <set comment="kpoint 3">
       <r>    0.9011    1.0000 </r>
       <r>    4.7564    1.0000 </r>
       <r>    5.2956    1.0000 </r>
       <r>    9.3449    0.0000 </r>
       <r>   10.0382    0.0000 </r>
       <r>   10.5230    0.0000 </r>
      </set>
      <set comment="kpoint 4">
       <r>    1.5297    1.0000 </r>
       <r>    4.3068    1.0000 </r>
       <r>    6.1074    0.0000 </r>
       <r>    9.6674    0.0000 </r>
       <r>   10.4020    0.0000 </r>
       <r>   12.6583    0.0000 </r>
      </set>
      <set comment="kpoint 5">
       <r>    1.5871    1.0000 </r>
       <r>    4.1488    1.0000 </r>
       <r>    6.9832    0.0000 </r>
       <r>    9.6490    0.0000 </r>
       <r>   10.5866    0.0000 </r>
       <r>   13.8039    0.0000 </r>
      </set>
      <set comment="kpoint 6">
       <r>   -1.9629    1.0000 </r>
       <r>    6.4050    0.0000 </r>
       <r>    6.4050    0.0000 </r>
       <r>    6.5422    0.0000 </r>
       <r>    9.3060    0.0000 </r>
       <r>    9.8029    0.0000 </r>
      </set>
      <set comment="kpoint 7">
       <r>    0.8457    1.0000 </r>
       <r>    4.8677    1.0000 </r>
       <r>    4.9401    1.0000 </r>
       <r>    9.2016    0.0000 </r>
       <r>   10.0838    0.0000 </r>
       <r>   10.4473    0.0000 </r>
      </set>
      <set comment="kpoint 8">
       <r>    2.0118    1.0000 </r>
       <r>    4.3960    1.0000 </r>
       <r>    4.9731    1.0000 </r>
       <r>    9.5026    0.0000 </r>
       <r>   10.4263    0.0000 </r>
       <r>   12.6732    0.0000 </r>
      </set>
      <set comment="kpoint 9">
       <r>    2.2896    1.0000 </r>
       <r>    4.1816    1.0000 </r>
       <r>    5.9383    0.0000 </r>
       <r>    9.7548    0.0000 </r>
       <r>   10.6278    0.0000 </r>
       <r>   14.5261    0.0000 </r>
      </set>
      <set comment="kpoint 10">
       <r>   -1.1466    1.0000 </r>
       <r>    5.9512    0.0000 </r>
       <r>    6.1797    0.0000 </r>
       <r>    7.3552    0.0000 </r>
       <r>    8.6244    0.0000 </r>
       <r>    9.9858    0.0000 </r>
      </set>
      <set comment="kpoint 11">
       <r>    2.9306    1.0000 </r>
       <r>    4.2909    1.0000 </r>
       <r>    5.0091    1.0000 </r>
       <r>    9.8170    0.0000 </r>
       <r>   10.5245    0.0000 </r>
       <r>   14.9567    0.0000 </r>
      </set>
      <set comment="kpoint 12">
       <r>    3.1115    1.0000 </r>
       <r>    4.3750    1.0000 </r>
       <r>    5.2500    1.0000 </r>
       <r>   10.0565    0.0000 </r>
       <r>   10.5691    0.0000 </r>
       <r>   14.3823    0.0000 </r>
      </set>
      <set comment="kpoint 13">
       <r>    0.1748    1.0000 </r>
       <r>    5.2628    1.0000 </r>
       <r>    5.6085    1.0349 </r>
       <r>    8.6495    0.0000 </r>
       <r>    8.9685    0.0000 </r>
       <r>   10.1818    0.0000 </r>
      </set>
      <set comment="kpoint 14">
       <r>   -0.0644    1.0000 </r>
       <r>    5.6262    1.0169 </r>
       <r>    5.6972    0.1375 </r>
       <r>    8.0670    0.0000 </r>
       <r>    8.4747    0.0000 </r>
       <r>   10.3849    0.0000 </r>
      </set>
      <set comment="kpoint 15">
       <r>    1.2121    1.0000 </r>
       <r>    4.6684    1.0000 </r>
       <r>    5.6921    0.1993 </r>
       <r>    9.1825    0.0000 </r>
       <r>   10.4097    0.0000 </r>
       <r>   11.1042    0.0000 </r>
      </set>
      <set comment="kpoint 16">
       <r>    1.2388    1.0000 </r>
       <r>    4.9161    1.0000 </r>
       <r>    5.3482    1.0000 </r>
       <r>    8.3689    0.0000 </r>
       <r>   10.3029    0.0000 </r>
       <r>   10.6881    0.0000 </r>
      </set>
      <set comment="kpoint 17">
       <r>    1.4548    1.0000 </r>
       <r>    4.3363    1.0000 </r>
       <r>    6.6951    0.0000 </r>
       <r>    9.3417    0.0000 </r>
       <r>   10.7793    0.0000 </r>
       <r>   13.0512    0.0000 </r>
      </set>
      <set comment="kpoint 18">
       <r>    1.8948    1.0000 </r>
       <r>    4.6142    1.0000 </r>
       <r>    5.5954    1.0254 </r>
       <r>    8.9081    0.0000 </r>
       <r>   10.7230    0.0000 </r>
       <r>   12.6918    0.0000 </r>
      </set>
      <set comment="kpoint 19">
       <r>    2.3616    1.0000 </r>
       <r>    4.3209    1.0000 </r>
       <r>    5.3542    1.0000 </r>
       <r>    8.6756    0.0000 </r>
       <r>   10.4286    0.0000 </r>
       <r>   12.7635    0.0000 </r>
      </set>
      <set comment="kpoint 20">
       <r>    1.9506    1.0000 </r>
       <r>    4.5127    1.0000 </r>
       <r>    6.0894    0.0000 </r>
       <r>    8.8620    0.0000 </r>
       <r>   11.2312    0.0000 </r>
       <r>   13.9435    0.0000 </r>
      </set>
      <set comment="kpoint 21">
       <r>    2.8314    1.0000 </r>
       <r>    4.3791    1.0000 </r>
       <r>    5.2192    1.0000 </r>
       <r>    9.1447    0.0000 </r>
       <r>   10.6493    0.0000 </r>
       <r>   15.0536    0.0000 </r>
      </set>
      <set comment="kpoint 22">
       <r>    3.4910    1.0000 </r>
       <r>    4.4769    1.0000 </r>
       <r>    4.4769    1.0000 </r>
       <r>   10.1074    0.0000 </r>
       <r>   10.1074    0.0000 </r>
       <r>   14.6733    0.0000 </r>
      </set>
      <set comment="kpoint 23">
       <r>    2.2321    1.0000 </r>
       <r>    4.3834    1.0000 </r>
       <r>    4.3834    1.0000 </r>
       <r>   10.0508    0.0000 </r>
       <r>   10.0508    0.0000 </r>
       <r>   12.7809    0.0000 </r>
      </set>
      <set comment="kpoint 24">
       <r>    3.1392    1.0000 </r>
       <r>    4.1374    1.0000 </r>
       <r>    4.7818    1.0000 </r>
       <r>   10.2175    0.0000 </r>
       <r>   10.5283    0.0000 </r>
       <r>   14.9677    0.0000 </r>
      </set>
      <set comment="kpoint 25">
       <r>    3.1467    1.0000 </r>
       <r>    4.0654    1.0000 </r>
       <r>    5.6040    1.0326 </r>
       <r>   10.2776    0.0000 </r>
       <r>   10.6801    0.0000 </r>
       <r>   14.3684    0.0000 </r>
      </set>
      <set comment="kpoint 26">
       <r>   -0.3694    1.0000 </r>
       <r>    6.3628    0.0000 </r>
       <r>    6.3628    0.0000 </r>
       <r>    7.1674    0.0000 </r>
       <r>    7.3617    0.0000 </r>
       <r>   10.5812    0.0000 </r>
      </set>
      <set comment="kpoint 27">
       <r>    3.7402    1.0000 </r>
       <r>    4.4008    1.0000 </r>
       <r>    4.8296    1.0000 </r>
       <r>   10.5311    0.0000 </r>
       <r>   10.6609    0.0000 </r>
       <r>   13.6605    0.0000 </r>
      </set>
      <set comment="kpoint 28">
       <r>    0.8930    1.0000 </r>
       <r>    5.5114    1.0000 </r>
       <r>    6.0051    0.0000 </r>
       <r>    7.2334    0.0000 </r>
       <r>    8.7221    0.0000 </r>
       <r>   10.7853    0.0000 </r>
      </set>
      <set comment="kpoint 29">
       <r>    1.9372    1.0000 </r>
       <r>    4.8864    1.0000 </r>
       <r>    5.4974    1.0000 </r>
       <r>    8.0374    0.0000 </r>
       <r>   10.8493    0.0000 </r>
       <r>   10.8896    0.0000 </r>
      </set>
      <set comment="kpoint 30">
       <r>    2.0621    1.0000 </r>
       <r>    4.5676    1.0000 </r>
       <r>    6.1394    0.0000 </r>
       <r>    7.5154    0.0000 </r>
       <r>    9.9798    0.0000 </r>
       <r>   10.9507    0.0000 </r>
      </set>
      <set comment="kpoint 31">
       <r>    2.1600    1.0000 </r>
       <r>    5.1989    1.0000 </r>
       <r>    5.2575    1.0000 </r>
       <r>    8.0127    0.0000 </r>
       <r>   11.9876    0.0000 </r>
       <r>   12.8486    0.0000 </r>
      </set>
      <set comment="kpoint 32">
       <r>    2.7668    1.0000 </r>
       <r>    4.1830    1.0000 </r>
       <r>    5.7412   -0.0329 </r>
       <r>    8.1498    0.0000 </r>
       <r>   10.7194    0.0000 </r>
       <r>   12.9077    0.0000 </r>
      </set>
      <set comment="kpoint 33">
       <r>    2.7787    1.0000 </r>
       <r>    4.5618    1.0000 </r>
       <r>    5.2943    1.0000 </r>
       <r>    8.1447    0.0000 </r>
       <r>   11.7551    0.0000 </r>
       <r>   14.5626    0.0000 </r>
      </set>
      <set comment="kpoint 34">
       <r>    3.6471    1.0000 </r>
       <r>    3.7084    1.0000 </r>
       <r>    4.9707    1.0000 </r>
       <r>    9.4126    0.0000 </r>
       <r>   10.5816    0.0000 </r>
       <r>   15.3675    0.0000 </r>
      </set>
      <set comment="kpoint 35">
       <r>    4.4705    1.0000 </r>
       <r>    4.4705    1.0000 </r>
       <r>    4.4705    1.0000 </r>
       <r>   10.7394    0.0000 </r>
       <r>   10.7394    0.0000 </r>
       <r>   12.7455    0.0000 </r>
      </set>
      <set comment="kpoint 36">
       <r>    1.9695    1.0000 </r>
       <r>    4.7840    1.0000 </r>
       <r>    6.9529    0.0000 </r>
       <r>    6.9529    0.0000 </r>
       <r>    8.8808    0.0000 </r>
       <r>   10.6846    0.0000 </r>
      </set>
      <set comment="kpoint 37">
       <r>    2.7920    1.0000 </r>
       <r>    3.8544    1.0000 </r>
       <r>    7.0128    0.0000 </r>
       <r>    7.6041    0.0000 </r>
       <r>   10.5434    0.0000 </r>
       <r>   10.8346    0.0000 </r>
      </set>
      <set comment="kpoint 38">
       <r>    2.8267    1.0000 </r>
       <r>    3.7683    1.0000 </r>
       <r>    6.8426    0.0000 </r>
       <r>    7.4879    0.0000 </r>
       <r>   12.5387    0.0000 </r>
       <r>   12.8228    0.0000 </r>
      </set>
      <set comment="kpoint 39">
       <r>    3.1181    1.0000 </r>
       <r>    3.1803    1.0000 </r>
       <r>    6.8551    0.0000 </r>
       <r>    8.8312    0.0000 </r>
       <r>   10.8142    0.0000 </r>
       <r>   12.9261    0.0000 </r>
      </set>
      <set comment="kpoint 40">
       <r>    2.9088    1.0000 </r>
       <r>    3.2330    1.0000 </r>
       <r>    6.5778    0.0000 </r>
       <r>    9.3471    0.0000 </r>
       <r>   11.6579    0.0000 </r>
       <r>   15.2692    0.0000 </r>
      </set>
      <set comment="kpoint 41">
       <r>    2.8956    1.0000 </r>
       <r>    2.9948    1.0000 </r>
       <r>    8.6104    0.0000 </r>
       <r>    8.6104    0.0000 </r>
       <r>   10.7653    0.0000 </r>
       <r>   10.9441    0.0000 </r>
      </set>
      <set comment="kpoint 42">
       <r>    2.5155    1.0000 </r>
       <r>    2.6780    1.0000 </r>
       <r>    9.0754    0.0000 </r>
       <r>    9.0817    0.0000 </r>
       <r>   12.2580    0.0000 </r>
       <r>   13.0704    0.0000 </r>
      </set>
      <set comment="kpoint 43">
       <r>    2.3616    1.0000 </r>
       <r>    2.3616    1.0000 </r>
       <r>    9.0074    0.0000 </r>
       <r>   11.4356    0.0000 </r>
       <r>   11.4356    0.0000 </r>
       <r>   15.5781    0.0000 </r>
      </set>
      <set comment="kpoint 44">
       <r>    2.0598    1.0000 </r>
       <r>    2.1065    1.0000 </r>
       <r>   11.3393    0.0000 </r>
       <r>   11.3393    0.0000 </r>
       <r>   12.2471    0.0000 </r>
       <r>   13.5520    0.0000 </r>
      </set>
     </set>
     <set comment="spin 2">
      <set comment="kpoint 1">
       <r>   -1.5471    1.0000 </r>
       <r>    6.0864    0.0000 </r>
       <r>    6.0864    0.0000 </r>
       <r>    7.2012    0.0000 </r>
       <r>    9.4425    0.0000 </r>
       <r>    9.4425    0.0000 </r>
      </set>
      <set comment="kpoint 2">
       <r>   -0.4245    1.0000 </r>
       <r>    5.4134    1.0000 </r>
       <r>    5.5969    1.0268 </r>
       <r>    8.5505    0.0000 </r>
       <r>    9.1264    0.0000 </r>
       <r>    9.7105    0.0000 </r>
      </set>
      <set comment="kpoint 3">
       <r>    0.9011    1.0000 </r>
       <r>    4.7564    1.0000 </r>
       <r>    5.2956    1.0000 </r>
       <r>    9.3449    0.0000 </r>
       <r>   10.0382    0.0000 </r>
       <r>   10.5230    0.0000 </r>
      </set>
      <set comment="kpoint 4">
       <r>    1.5297    1.0000 </r>
       <r>    4.3068    1.0000 </r>
       <r>    6.1074    0.0000 </r>
       <r>    9.6674    0.0000 </r>
       <r>   10.4020    0.0000 </r>
       <r>   12.6583    0.0000 </r>
      </set>
      <set comment="kpoint 5">
       <r>    1.5871    1.0000 </r>
       <r>    4.1488    1.0000 </r>
       <r>    6.9832    0.0000 </r>
       <r>    9.6490    0.0000 </r>
       <r>   10.5866    0.0000 </r>
       <r>   13.8039    0.0000 </r>
      </set>
      <set comment="kpoint 6">
       <r>   -1.9629    1.0000 </r>
       <r>    6.4050    0.0000 </r>
       <r>    6.4050    0.0000 </r>
       <r>    6.5422    0.0000 </r>
       <r>    9.3060    0.0000 </r>
       <r>    9.8029    0.0000 </r>
      </set>
      <set comment="kpoint 7">
       <r>    0.8457    1.0000 </r>
       <r>    4.8677    1.0000 </r>
       <r>    4.9401    1.0000 </r>
       <r>    9.2016    0.0000 </r>
       <r>   10.0838    0.0000 </r>
       <r>   10.4473    0.0000 </r>
      </set>
      <set comment="kpoint 8">
       <r>    2.0118    1.0000 </r>
       <r>    4.3960    1.0000 </r>
       <r>    4.9731    1.0000 </r>
       <r>    9.5026    0.0000 </r>
       <r>   10.4263    0.0000 </r>
       <r>   12.6732    0.0000 </r>
      </set>
      <set comment="kpoint 9">
       <r>    2.2896    1.0000 </r>
       <r>    4.1816    1.0000 </r>
       <r>    5.9383    0.0000 </r>
       <r>    9.7548    0.0000 </r>
       <r>   10.6278    0.0000 </r>
       <r>   14.5261    0.0000 </r>
      </set>
      <set comment="kpoint 10">
       <r>   -1.1466    1.0000 </r>
       <r>    5.9512    0.0000 </r>
       <r>    6.1797    0.0000 </r>
       <r>    7.3552    0.0000 </r>
       <r>    8.6244    0.0000 </r>
       <r>    9.9858    0.0000 </r>
      </set>
      <set comment="kpoint 11">
       <r>    2.9306    1.0000 </r>
       <r>    4.2909    1.0000 </r>
       <r>    5.0091    1.0000 </r>
       <r>    9.8170    0.0000 </r>
       <r>   10.5245    0.0000 </r>
       <r>   14.9567    0.0000 </r>
      </set>
      <set comment="kpoint 12">
       <r>    3.1115    1.0000 </r>
       <r>    4.3750    1.0000 </r>
       <r>    5.2500    1.0000 </r>
       <r>   10.0565    0.0000 </r>
       <r>   10.5691    0.0000 </r>
       <r>   14.3823    0.0000 </r>
      </set>
      <set comment="kpoint 13">
       <r>    0.1748    1.0000 </r>
       <r>    5.2628    1.0000 </r>
       <r>    5.6085    1.0349 </r>
       <r>    8.6495    0.0000 </r>
       <r>    8.9685    0.0000 </r>
       <r>   10.1818    0.0000 </r>
      </set>
      <set comment="kpoint 14">
       <r>   -0.0644    1.0000 </r>
       <r>    5.6262    1.0169 </r>
       <r>    5.6972    0.1375 </r>
       <r>    8.0670    0.0000 </r>
       <r>    8.4747    0.0000 </r>
       <r>   10.3849    0.0000 </r>
      </set>
      <set comment="kpoint 15">
       <r>    1.2121    1.0000 </r>
       <r>    4.6684    1.0000 </r>
       <r>    5.6921    0.1993 </r>
       <r>    9.1825    0.0000 </r>
       <r>   10.4097    0.0000 </r>
       <r>   11.1042    0.0000 </r>
      </set>
      <set comment="kpoint 16">
       <r>    1.2388    1.0000 </r>
       <r>    4.9161    1.0000 </r>
       <r>    5.3482    1.0000 </r>
       <r>    8.3689    0.0000 </r>
       <r>   10.3029    0.0000 </r>
       <r>   10.6881    0.0000 </r>
      </set>
      <set comment="kpoint 17">
       <r>    1.4548    1.0000 </r>
       <r>    4.3363    1.0000 </r>
       <r>    6.6951    0.0000 </r>
       <r>    9.3417    0.0000 </r>
       <r>   10.7793    0.0000 </r>
       <r>   13.0512    0.0000 </r>
      </set>
      <set comment="kpoint 18">
       <r>    1.8948    1.0000 </r>
       <r>    4.6142    1.0000 </r>
       <r>    5.5954    1.0254 </r>
       <r>    8.9081    0.0000 </r>
       <r>   10.7230    0.0000 </r>
       <r>   12.6918    0.0000 </r>
      </set>
      <set comment="kpoint 19">
       <r>    2.3616    1.0000 </r>
       <r>    4.3209    1.0000 </r>
       <r>    5.3542    1.0000 </r>
       <r>    8.6756    0.0000 </r>
       <r>   10.4286    0.0000 </r>
       <r>   12.7635    0.0000 </r>
      </set>
      <set comment="kpoint 20">
       <r>    1.9506    1.0000 </r>
       <r>    4.5127    1.0000 </r>
       <r>    6.0894    0.0000 </r>
       <r>    8.8620    0.0000 </r>
       <r>   11.2312    0.0000 </r>
       <r>   13.9435    0.0000 </r>
      </set>
      <set comment="kpoint 21">
       <r>    2.8314    1.0000 </r>
       <r>    4.3791    1.0000 </r>
       <r>    5.2192    1.0000 </r>
       <r>    9.1447    0.0000 </r>
       <r>   10.6493    0.0000 </r>
       <r>   15.0536    0.0000 </r>
      </set>
      <set comment="kpoint 22">
       <r>    3.4910    1.0000 </r>
       <r>    4.4769    1.0000 </r>
       <r>    4.4769    1.0000 </r>
       <r>   10.1074    0.0000 </r>
       <r>   10.1074    0.0000 </r>
       <r>   14.6733    0.0000 </r>
      </set>
      <set comment="kpoint 23">
       <r>    2.2321    1.0000 </r>
       <r>    4.3834    1.0000 </r>
       <r>    4.3834    1.0000 </r>
       <r>   10.0508    0.0000 </r>
       <r>   10.0508    0.0000 </r>
       <r>   12.7809    0.0000 </r>
      </set>
      <set comment="kpoint 24">
       <r>    3.1392    1.0000 </r>
       <r>    4.1374    1.0000 </r>
       <r>    4.7818    1.0000 </r>
       <r>   10.2175    0.0000 </r>
       <r>   10.5283    0.0000 </r>
       <r>   14.9677    0.0000 </r>
      </set>
      <set comment="kpoint 25">
       <r>    3.1467    1.0000 </r>
       <r>    4.0654    1.0000 </r>
       <r>    5.6040    1.0326 </r>
       <r>   10.2776    0.0000 </r>
       <r>   10.6801    0.0000 </r>
       <r>   14.3684    0.0000 </r>
      </set>
      <set comment="kpoint 26">
       <r>   -0.3694    1.0000 </r>
       <r>    6.3628    0.0000 </r>
       <r>    6.3628    0.0000 </r>
       <r>    7.1674    0.0000 </r>
       <r>    7.3617    0.0000 </r>
       <r>   10.5812    0.0000 </r>
      </set>
      <set comment="kpoint 27">
       <r>    3.7402    1.0000 </r>
       <r>    4.4008    1.0000 </r>
       <r>    4.8296    1.0000 </r>
       <r>   10.5311    0.0000 </r>
       <r>   10.6609    0.0000 </r>
       <r>   13.6605    0.0000 </r>
      </set>
      <set comment="kpoint 28">
       <r>    0.8930    1.0000 </r>
       <r>    5.5114    1.0000 </r>
       <r>    6.0051    0.0000 </r>
       <r>    7.2334    0.0000 </r>
       <r>    8.7221    0.0000 </r>
       <r>   10.7853    0.0000 </r>
      </set>
      <set comment="kpoint 29">
       <r>    1.9372    1.0000 </r>
       <r>    4.8864    1.0000 </r>
       <r>    5.4974    1.0000 </r>
       <r>    8.0374    0.0000 </r>
       <r>   10.8493    0.0000 </r>
       <r>   10.8896    0.0000 </r>
      </set>
      <set comment="kpoint 30">
       <r>    2.0621    1.0000 </r>
       <r>    4.5676    1.0000 </r>
       <r>    6.1394    0.0000 </r>
       <r>    7.5154    0.0000 </r>
       <r>    9.9798    0.0000 </r>
       <r>   10.9507    0.0000 </r>
      </set>
      <set comment="kpoint 31">
       <r>    2.1600    1.0000 </r>
       <r>    5.1989    1.0000 </r>
       <r>    5.2575    1.0000 </r>
       <r>    8.0127    0.0000 </r>
       <r>   11.9876    0.0000 </r>
       <r>   12.8486    0.0000 </r>
      </set>
      <set comment="kpoint 32">
       <r>    2.7668    1.0000 </r>
       <r>    4.1830    1.0000 </r>
       <r>    5.7412   -0.0329 </r>
       <r>    8.1498    0.0000 </r>
       <r>   10.7194    0.0000 </r>
       <r>   12.9077    0.0000 </r>
      </set>
      <set comment="kpoint 33">
       <r>    2.7787    1.0000 </r>
       <r>    4.5618    1.0000 </r>
       <r>    5.2943    1.0000 </r>
       <r>    8.1447    0.0000 </r>
       <r>   11.7551    0.0000 </r>
       <r>   14.5626    0.0000 </r>
      </set>
      <set comment="kpoint 34">
       <r>    3.6471    1.0000 </r>
       <r>    3.7084    1.0000 </r>
       <r>    4.9707    1.0000 </r>
       <r>    9.4126    0.0000 </r>
       <r>   10.5816    0.0000 </r>
       <r>   15.3675    0.0000 </r>
      </set>
      <set comment="kpoint 35">
       <r>    4.4705    1.0000 </r>
       <r>    4.4705    1.0000 </r>
       <r>    4.4705    1.0000 </r>
       <r>   10.7394    0.0000 </r>
       <r>   10.7394    0.0000 </r>
       <r>   12.7455    0.0000 </r>
      </set>
      <set comment="kpoint 36">
       <r>    1.9695    1.0000 </r>
       <r>    4.7840    1.0000 </r>
       <r>    6.9529    0.0000 </r>
       <r>    6.9529    0.0000 </r>
       <r>    8.8808    0.0000 </r>
       <r>   10.6846    0.0000 </r>
      </set>
      <set comment="kpoint 37">
       <r>    2.7920    1.0000 </r>
       <r>    3.8544    1.0000 </r>
       <r>    7.0128    0.0000 </r>
       <r>    7.6041    0.0000 </r>
       <r>   10.5434    0.0000 </r>
       <r>   10.8346    0.0000 </r>
      </set>
      <set comment="kpoint 38">
       <r>    2.8267    1.0000 </r>
       <r>    3.7683    1.0000 </r>
       <r>    6.8426    0.0000 </r>
       <r>    7.4879    0.0000 </r>
       <r>   12.5387    0.0000 </r>
       <r>   12.8228    0.0000 </r>
      </set>
      <set comment="kpoint 39">
       <r>    3.1181    1.0000 </r>
       <r>    3.1803    1.0000 </r>
       <r>    6.8551    0.0000 </r>
       <r>    8.8312    0.0000 </r>
       <r>   10.8142    0.0000 </r>
       <r>   12.9261    0.0000 </r>
      </set>
      <set comment="kpoint 40">
       <r>    2.9088    1.0000 </r>
       <r>    3.2330    1.0000 </r>
       <r>    6.5778    0.0000 </r>
       <r>    9.3471    0.0000 </r>
       <r>   11.6579    0.0000 </r>
       <r>   15.2692    0.0000 </r>
      </set>
      <set comment="kpoint 41">
       <r>    2.8956    1.0000 </r>
       <r>    2.9948    1.0000 </r>
       <r>    8.6104    0.0000 </r>
       <r>    8.6104    0.0000 </r>
       <r>   10.7653    0.0000 </r>
       <r>   10.9441    0.0000 </r>
      </set>
      <set comment="kpoint 42">
       <r>    2.5155    1.0000 </r>
       <r>    2.6780    1.0000 </r>
       <r>    9.0754    0.0000 </r>
       <r>    9.0817    0.0000 </r>
       <r>   12.2580    0.0000 </r>
       <r>   13.0704    0.0000 </r>
      </set>
      <set comment="kpoint 43">
       <r>    2.3616    1.0000 </r>
       <r>    2.3616    1.0000 </r>
       <r>    9.0074    0.0000 </r>
       <r>   11.4356    0.0000 </r>
       <r>   11.4356    0.0000 </r>
       <r>   15.5781    0.0000 </r>
      </set>
      <set comment="kpoint 44">
       <r>    2.0598    1.0000 </r>
       <r>    2.1065    1.0000 </r>
       <r>   11.3393    0.0000 </r>
       <r>   11.3393    0.0000 </r>
       <r>   12.2471    0.0000 </r>
       <r>   13.5520    0.0000 </r>
      </set>
     </set>
    </set>
   </array>
  </eigenvalues>
  <separator name="orbital magnetization" >
   <v name="MAGDIPOLOUT">      0.00000000      0.00000000      0.00000000</v>
  </separator>
  <dos>
   <i name="efermi">      5.67289223 </i>
   <total>
    <array>
     <dimension dim="1">gridpoints</dimension>
     <dimension dim="2">spin</dimension>
     <field>energy</field>
     <field>total</field>
     <field>integrated</field>
     <set>
      <set comment="spin 1">
       <r>    -2.8399     0.0000     0.0000 </r>
       <r>    -2.7756     0.0000     0.0000 </r>
       <r>    -2.7113     0.0000     0.0000 </r>
       <r>    -2.6470     0.0000     0.0000 </r>
       <r>    -2.5827     0.0000     0.0000 </r>
       <r>    -2.5184     0.0000     0.0000 </r>
       <r>    -2.4540     0.0000     0.0000 </r>
       <r>    -2.3897     0.0000     0.0000 </r>
       <r>    -2.3254     0.0000     0.0000 </r>
       <r>    -2.2611     0.0000     0.0000 </r>
       <r>    -2.1968     0.0000     0.0000 </r>
       <r>    -2.1324     0.0000     0.0000 </r>
       <r>    -2.0681    -0.0005     0.0000 </r>
       <r>    -2.0038     0.0010     0.0000 </r>
       <r>    -1.9395     0.0790     0.0051 </r>
       <r>    -1.8752     0.0153     0.0061 </r>
       <r>    -1.8109    -0.0015     0.0060 </r>
       <r>    -1.7465     0.0000     0.0060 </r>
       <r>    -1.6822    -0.0001     0.0060 </r>
       <r>    -1.6179    -0.0038     0.0058 </r>
       <r>    -1.5536     0.0525     0.0091 </r>
       <r>    -1.4893     0.0801     0.0143 </r>
       <r>    -1.4250    -0.0041     0.0140 </r>
       <r>    -1.3606    -0.0002     0.0140 </r>
       <r>    -1.2963     0.0000     0.0140 </r>
       <r>    -1.2320    -0.0067     0.0136 </r>
       <r>    -1.1677     0.0721     0.0182 </r>
       <r>    -1.1034     0.3095     0.0381 </r>
       <r>    -1.0391     0.0001     0.0381 </r>
       <r>    -0.9747    -0.0018     0.0380 </r>
       <r>    -0.9104     0.0000     0.0380 </r>
       <r>    -0.8461     0.0000     0.0380 </r>
       <r>    -0.7818     0.0000     0.0380 </r>
       <r>    -0.7175     0.0000     0.0380 </r>
       <r>    -0.6532     0.0000     0.0380 </r>
       <r>    -0.5888     0.0000     0.0380 </r>
       <r>    -0.5245    -0.0030     0.0378 </r>
       <r>    -0.4602     0.0149     0.0388 </r>
       <r>    -0.3959     0.3373     0.0605 </r>
       <r>    -0.3316     0.1197     0.0682 </r>
       <r>    -0.2673    -0.0019     0.0680 </r>
       <r>    -0.2029    -0.0008     0.0680 </r>
       <r>    -0.1386    -0.0105     0.0673 </r>
       <r>    -0.0743     0.1360     0.0761 </r>
       <r>    -0.0100     0.2597     0.0928 </r>
       <r>     0.0543    -0.0119     0.0920 </r>
       <r>     0.1186    -0.0126     0.0912 </r>
       <r>     0.1830     0.2502     0.1073 </r>
       <r>     0.2473     0.1466     0.1167 </r>
       <r>     0.3116    -0.0110     0.1160 </r>
       <r>     0.3759    -0.0001     0.1160 </r>
       <r>     0.4402     0.0000     0.1160 </r>
       <r>     0.5046     0.0000     0.1160 </r>
       <r>     0.5689     0.0000     0.1160 </r>
       <r>     0.6332     0.0000     0.1160 </r>
       <r>     0.6975     0.0000     0.1160 </r>
       <r>     0.7618    -0.0076     0.1155 </r>
       <r>     0.8261     0.0576     0.1192 </r>
       <r>     0.8905     0.6191     0.1590 </r>
       <r>     0.9548     0.4768     0.1897 </r>
       <r>     1.0191    -0.0253     0.1881 </r>
       <r>     1.0834    -0.0015     0.1880 </r>
       <r>     1.1477    -0.0229     0.1865 </r>
       <r>     1.2120     0.2927     0.2053 </r>
       <r>     1.2764     0.8456     0.2597 </r>
       <r>     1.3407     0.0089     0.2603 </r>
       <r>     1.4050    -0.0142     0.2594 </r>
       <r>     1.4693     0.2699     0.2767 </r>
       <r>     1.5336     0.3278     0.2978 </r>
       <r>     1.5979     0.2974     0.3169 </r>
       <r>     1.6623     0.0528     0.3203 </r>
       <r>     1.7266    -0.0053     0.3200 </r>
       <r>     1.7909    -0.0047     0.3197 </r>
       <r>     1.8552     0.0016     0.3198 </r>
       <r>     1.9195     0.7471     0.3679 </r>
       <r>     1.9838     0.8771     0.4243 </r>
       <r>     2.0482     0.8216     0.4771 </r>
       <r>     2.1125     0.4227     0.5043 </r>
       <r>     2.1768     0.3108     0.5243 </r>
       <r>     2.2411     0.1607     0.5346 </r>
       <r>     2.3054     0.5979     0.5731 </r>
       <r>     2.3697     0.6132     0.6125 </r>
       <r>     2.4341     0.2203     0.6267 </r>
       <r>     2.4984     0.0746     0.6315 </r>
       <r>     2.5627     0.2937     0.6504 </r>
       <r>     2.6270    -0.0149     0.6494 </r>
       <r>     2.6913     0.2466     0.6653 </r>
       <r>     2.7557     0.4174     0.6921 </r>
       <r>     2.8200     1.5626     0.7926 </r>
       <r>     2.8843     0.8849     0.8495 </r>
       <r>     2.9486     0.6414     0.8908 </r>
       <r>     3.0129     0.1586     0.9010 </r>
       <r>     3.0772     0.0150     0.9020 </r>
       <r>     3.1416     0.9420     0.9625 </r>
       <r>     3.2059     0.7612     1.0115 </r>
       <r>     3.2702     0.3462     1.0338 </r>
       <r>     3.3345     0.0062     1.0342 </r>
       <r>     3.3988    -0.0043     1.0339 </r>
       <r>     3.4631     0.0140     1.0348 </r>
       <r>     3.5275     0.1075     1.0417 </r>
       <r>     3.5918    -0.0078     1.0412 </r>
       <r>     3.6561     0.2352     1.0563 </r>
       <r>     3.7204     0.4850     1.0875 </r>
       <r>     3.7847     0.6974     1.1324 </r>
       <r>     3.8490     0.2502     1.1485 </r>
       <r>     3.9134     0.2233     1.1628 </r>
       <r>     3.9777    -0.0157     1.1618 </r>
       <r>     4.0420     0.0248     1.1634 </r>
       <r>     4.1063     0.1492     1.1730 </r>
       <r>     4.1706     0.9846     1.2364 </r>
       <r>     4.2349     1.1006     1.3071 </r>
       <r>     4.2993     0.3954     1.3326 </r>
       <r>     4.3636     1.4689     1.4270 </r>
       <r>     4.4279     2.0351     1.5579 </r>
       <r>     4.4922     0.3883     1.5829 </r>
       <r>     4.5565     0.6454     1.6244 </r>
       <r>     4.6208     0.9661     1.6866 </r>
       <r>     4.6852     0.5659     1.7230 </r>
       <r>     4.7495     0.2474     1.7389 </r>
       <r>     4.8138     0.7158     1.7849 </r>
       <r>     4.8781     0.7165     1.8310 </r>
       <r>     4.9424     1.3215     1.9160 </r>
       <r>     5.0068     1.4207     2.0074 </r>
       <r>     5.0711     0.2505     2.0235 </r>
       <r>     5.1354    -0.0521     2.0201 </r>
       <r>     5.1997     0.3236     2.0409 </r>
       <r>     5.2640     1.5727     2.1421 </r>
       <r>     5.3283     1.2974     2.2255 </r>
       <r>     5.3927     1.0123     2.2906 </r>
       <r>     5.4570     0.2996     2.3099 </r>
       <r>     5.5213     0.5269     2.3438 </r>
       <r>     5.5856     0.7020     2.3889 </r>
       <r>     5.6499     1.5372     2.4878 </r>
       <r>     5.7142     0.7260     2.5345 </r>
       <r>     5.7786     0.7967     2.5857 </r>
       <r>     5.8429    -0.0003     2.5857 </r>
       <r>     5.9072     0.0503     2.5890 </r>
       <r>     5.9715     0.9812     2.6521 </r>
       <r>     6.0358     0.4198     2.6791 </r>
       <r>     6.1001     0.6198     2.7189 </r>
       <r>     6.1645     0.8699     2.7749 </r>
       <r>     6.2288     0.3119     2.7950 </r>
       <r>     6.2931    -0.0203     2.7936 </r>
       <r>     6.3574     0.0783     2.7987 </r>
       <r>     6.4217     0.2631     2.8156 </r>
       <r>     6.4860     0.0336     2.8178 </r>
       <r>     6.5504     0.1021     2.8243 </r>
       <r>     6.6147     0.3521     2.8470 </r>
       <r>     6.6790     0.1090     2.8540 </r>
       <r>     6.7433     0.2834     2.8722 </r>
       <r>     6.8076     0.0058     2.8726 </r>
       <r>     6.8719     0.6138     2.9121 </r>
       <r>     6.9363     0.1666     2.9228 </r>
       <r>     7.0006     0.4033     2.9487 </r>
       <r>     7.0649     0.3144     2.9689 </r>
       <r>     7.1292    -0.0180     2.9678 </r>
       <r>     7.1935     0.1357     2.9765 </r>
       <r>     7.2578     0.4091     3.0028 </r>
       <r>     7.3222     0.0768     3.0078 </r>
       <r>     7.3865     0.3979     3.0334 </r>
       <r>     7.4508     0.0431     3.0361 </r>
       <r>     7.5151     0.5105     3.0690 </r>
       <r>     7.5794     0.3017     3.0884 </r>
       <r>     7.6438     0.3011     3.1077 </r>
       <r>     7.7081     0.0063     3.1081 </r>
       <r>     7.7724    -0.0023     3.1080 </r>
       <r>     7.8367     0.0000     3.1080 </r>
       <r>     7.9010    -0.0015     3.1079 </r>
       <r>     7.9653    -0.0195     3.1067 </r>
       <r>     8.0297     0.4529     3.1358 </r>
       <r>     8.0940     0.6328     3.1765 </r>
       <r>     8.1583     0.8079     3.2284 </r>
       <r>     8.2226     0.3976     3.2540 </r>
       <r>     8.2869    -0.0468     3.2510 </r>
       <r>     8.3512     0.1796     3.2626 </r>
       <r>     8.4156     0.5814     3.2999 </r>
       <r>     8.4799     0.2108     3.3135 </r>
       <r>     8.5442     0.3048     3.3331 </r>
       <r>     8.6085     0.4121     3.3596 </r>
       <r>     8.6728     0.8721     3.4157 </r>
       <r>     8.7371     0.5462     3.4508 </r>
       <r>     8.8015     0.1010     3.4573 </r>
       <r>     8.8658     0.5672     3.4938 </r>
       <r>     8.9301     0.8965     3.5515 </r>
       <r>     8.9944     0.4646     3.5813 </r>
       <r>     9.0587     0.2615     3.5982 </r>
       <r>     9.1230     0.8946     3.6557 </r>
       <r>     9.1874     1.1804     3.7316 </r>
       <r>     9.2517     0.4189     3.7586 </r>
       <r>     9.3160     0.1562     3.7686 </r>
       <r>     9.3803     1.0229     3.8344 </r>
       <r>     9.4446     0.4911     3.8660 </r>
       <r>     9.5089     0.6206     3.9059 </r>
       <r>     9.5733     0.2955     3.9249 </r>
       <r>     9.6376     0.0625     3.9289 </r>
       <r>     9.7019     0.5812     3.9663 </r>
       <r>     9.7662     0.7966     4.0175 </r>
       <r>     9.8305     0.5978     4.0560 </r>
       <r>     9.8949     0.0921     4.0619 </r>
       <r>     9.9592     0.0952     4.0680 </r>
       <r>    10.0235     0.7731     4.1178 </r>
       <r>    10.0878     1.1114     4.1892 </r>
       <r>    10.1521     0.4244     4.2165 </r>
       <r>    10.2164     0.4794     4.2474 </r>
       <r>    10.2808     0.4654     4.2773 </r>
       <r>    10.3451     0.6538     4.3194 </r>
       <r>    10.4094     1.0364     4.3860 </r>
       <r>    10.4737     1.5601     4.4864 </r>
       <r>    10.5380     1.2465     4.5665 </r>
       <r>    10.6023     1.6502     4.6727 </r>
       <r>    10.6667     1.7531     4.7854 </r>
       <r>    10.7310     2.2168     4.9280 </r>
       <r>    10.7953     1.2595     5.0090 </r>
       <r>    10.8596     1.1057     5.0801 </r>
       <r>    10.9239     0.5557     5.1159 </r>
       <r>    10.9882     0.4010     5.1416 </r>
       <r>    11.0526    -0.0019     5.1415 </r>
       <r>    11.1169     0.2703     5.1589 </r>
       <r>    11.1812     0.1105     5.1660 </r>
       <r>    11.2455     0.2707     5.1834 </r>
       <r>    11.3098     0.1268     5.1916 </r>
       <r>    11.3741     0.1455     5.2009 </r>
       <r>    11.4385     0.1543     5.2109 </r>
       <r>    11.5028     0.1193     5.2185 </r>
       <r>    11.5671    -0.0133     5.2177 </r>
       <r>    11.6314     0.0470     5.2207 </r>
       <r>    11.6957     0.3098     5.2406 </r>
       <r>    11.7600     0.2416     5.2562 </r>
       <r>    11.8244     0.1650     5.2668 </r>
       <r>    11.8887    -0.0150     5.2658 </r>
       <r>    11.9530     0.0190     5.2670 </r>
       <r>    12.0173     0.3263     5.2880 </r>
       <r>    12.0816     0.0352     5.2903 </r>
       <r>    12.1460    -0.0063     5.2899 </r>
       <r>    12.2103    -0.0027     5.2897 </r>
       <r>    12.2746     0.3738     5.3137 </r>
       <r>    12.3389     0.1069     5.3206 </r>
       <r>    12.4032    -0.0096     5.3200 </r>
       <r>    12.4675    -0.0114     5.3193 </r>
       <r>    12.5319     0.1545     5.3292 </r>
       <r>    12.5962     0.2027     5.3422 </r>
       <r>    12.6605     0.4953     5.3741 </r>
       <r>    12.7248     1.3946     5.4638 </r>
       <r>    12.7891     0.4538     5.4930 </r>
       <r>    12.8534     0.6147     5.5325 </r>
       <r>    12.9178     0.8580     5.5877 </r>
       <r>    12.9821     0.4870     5.6190 </r>
       <r>    13.0464     0.1940     5.6315 </r>
       <r>    13.1107     0.5466     5.6666 </r>
       <r>    13.1750    -0.0074     5.6662 </r>
       <r>    13.2393    -0.0027     5.6660 </r>
       <r>    13.3037     0.0000     5.6660 </r>
       <r>    13.3680     0.0000     5.6660 </r>
       <r>    13.4323    -0.0002     5.6660 </r>
       <r>    13.4966    -0.0029     5.6658 </r>
       <r>    13.5609     0.0606     5.6697 </r>
       <r>    13.6252     0.0528     5.6731 </r>
       <r>    13.6896     0.3226     5.6938 </r>
       <r>    13.7539     0.0333     5.6960 </r>
       <r>    13.8182     0.1364     5.7048 </r>
       <r>    13.8825     0.0417     5.7074 </r>
       <r>    13.9468     0.2166     5.7214 </r>
       <r>    14.0111     0.1777     5.7328 </r>
       <r>    14.0755    -0.0122     5.7320 </r>
       <r>    14.1398    -0.0002     5.7320 </r>
       <r>    14.2041     0.0000     5.7320 </r>
       <r>    14.2684    -0.0026     5.7318 </r>
       <r>    14.3327     0.0002     5.7318 </r>
       <r>    14.3971     0.4466     5.7606 </r>
       <r>    14.4614     0.0980     5.7669 </r>
       <r>    14.5257     0.3962     5.7924 </r>
       <r>    14.5900     0.7253     5.8390 </r>
       <r>    14.6543     0.0463     5.8420 </r>
       <r>    14.7186     0.0951     5.8481 </r>
       <r>    14.7830    -0.0011     5.8480 </r>
       <r>    14.8473    -0.0027     5.8479 </r>
       <r>    14.9116    -0.0150     5.8469 </r>
       <r>    14.9759     0.5341     5.8812 </r>
       <r>    15.0402     0.4583     5.9107 </r>
       <r>    15.1045     0.5376     5.9453 </r>
       <r>    15.1689    -0.0212     5.9439 </r>
       <r>    15.2332     0.0131     5.9448 </r>
       <r>    15.2975     0.3133     5.9649 </r>
       <r>    15.3618     0.2032     5.9780 </r>
       <r>    15.4261     0.2308     5.9928 </r>
       <r>    15.4904    -0.0146     5.9919 </r>
       <r>    15.5548     0.0199     5.9932 </r>
       <r>    15.6191     0.1053     6.0000 </r>
       <r>    15.6834     0.0014     6.0000 </r>
       <r>    15.7477    -0.0007     6.0000 </r>
       <r>    15.8120     0.0000     6.0000 </r>
       <r>    15.8763     0.0000     6.0000 </r>
       <r>    15.9407     0.0000     6.0000 </r>
       <r>    16.0050     0.0000     6.0000 </r>
       <r>    16.0693     0.0000     6.0000 </r>
       <r>    16.1336     0.0000     6.0000 </r>
       <r>    16.1979     0.0000     6.0000 </r>
       <r>    16.2622     0.0000     6.0000 </r>
       <r>    16.3266     0.0000     6.0000 </r>
       <r>    16.3909     0.0000     6.0000 </r>
       <r>    16.4552     0.0000     6.0000 </r>
      </set>
      <set comment="spin 2">
       <r>    -2.8399     0.0000     0.0000 </r>
       <r>    -2.7756     0.0000     0.0000 </r>
       <r>    -2.7113     0.0000     0.0000 </r>
       <r>    -2.6470     0.0000     0.0000 </r>
       <r>    -2.5827     0.0000     0.0000 </r>
       <r>    -2.5184     0.0000     0.0000 </r>
       <r>    -2.4540     0.0000     0.0000 </r>
       <r>    -2.3897     0.0000     0.0000 </r>
       <r>    -2.3254     0.0000     0.0000 </r>
       <r>    -2.2611     0.0000     0.0000 </r>
       <r>    -2.1968     0.0000     0.0000 </r>
       <r>    -2.1324     0.0000     0.0000 </r>
       <r>    -2.0681    -0.0005     0.0000 </r>
       <r>    -2.0038     0.0010     0.0000 </r>
       <r>    -1.9395     0.0790     0.0051 </r>
       <r>    -1.8752     0.0153     0.0061 </r>
       <r>    -1.8109    -0.0015     0.0060 </r>
       <r>    -1.7465     0.0000     0.0060 </r>
       <r>    -1.6822    -0.0001     0.0060 </r>
       <r>    -1.6179    -0.0038     0.0058 </r>
       <r>    -1.5536     0.0525     0.0091 </r>
       <r>    -1.4893     0.0801     0.0143 </r>
       <r>    -1.4250    -0.0041     0.0140 </r>
       <r>    -1.3606    -0.0002     0.0140 </r>
       <r>    -1.2963     0.0000     0.0140 </r>
       <r>    -1.2320    -0.0067     0.0136 </r>
       <r>    -1.1677     0.0721     0.0182 </r>
       <r>    -1.1034     0.3095     0.0381 </r>
       <r>    -1.0391     0.0001     0.0381 </r>
       <r>    -0.9747    -0.0018     0.0380 </r>
       <r>    -0.9104     0.0000     0.0380 </r>
       <r>    -0.8461     0.0000     0.0380 </r>
       <r>    -0.7818     0.0000     0.0380 </r>
       <r>    -0.7175     0.0000     0.0380 </r>
       <r>    -0.6532     0.0000     0.0380 </r>
       <r>    -0.5888     0.0000     0.0380 </r>
       <r>    -0.5245    -0.0030     0.0378 </r>
       <r>    -0.4602     0.0149     0.0388 </r>
       <r>    -0.3959     0.3373     0.0605 </r>
       <r>    -0.3316     0.1197     0.0682 </r>
       <r>    -0.2673    -0.0019     0.0680 </r>
       <r>    -0.2029    -0.0008     0.0680 </r>
       <r>    -0.1386    -0.0105     0.0673 </r>
       <r>    -0.0743     0.1360     0.0761 </r>
       <r>    -0.0100     0.2597     0.0928 </r>
       <r>     0.0543    -0.0119     0.0920 </r>
       <r>     0.1186    -0.0126     0.0912 </r>
       <r>     0.1830     0.2502     0.1073 </r>
       <r>     0.2473     0.1466     0.1167 </r>
       <r>     0.3116    -0.0110     0.1160 </r>
       <r>     0.3759    -0.0001     0.1160 </r>
       <r>     0.4402     0.0000     0.1160 </r>
       <r>     0.5046     0.0000     0.1160 </r>
       <r>     0.5689     0.0000     0.1160 </r>
       <r>     0.6332     0.0000     0.1160 </r>
       <r>     0.6975     0.0000     0.1160 </r>
       <r>     0.7618    -0.0076     0.1155 </r>
       <r>     0.8261     0.0576     0.1192 </r>
       <r>     0.8905     0.6191     0.1590 </r>
       <r>     0.9548     0.4768     0.1897 </r>
       <r>     1.0191    -0.0253     0.1881 </r>
       <r>     1.0834    -0.0015     0.1880 </r>
       <r>     1.1477    -0.0229     0.1865 </r>
       <r>     1.2120     0.2927     0.2053 </r>
       <r>     1.2764     0.8456     0.2597 </r>
       <r>     1.3407     0.0089     0.2603 </r>
       <r>     1.4050    -0.0142     0.2594 </r>
       <r>     1.4693     0.2699     0.2767 </r>
       <r>     1.5336     0.3278     0.2978 </r>
       <r>     1.5979     0.2974     0.3169 </r>
       <r>     1.6623     0.0528     0.3203 </r>
       <r>     1.7266    -0.0053     0.3200 </r>
       <r>     1.7909    -0.0047     0.3197 </r>
       <r>     1.8552     0.0016     0.3198 </r>
       <r>     1.9195     0.7471     0.3679 </r>
       <r>     1.9838     0.8771     0.4243 </r>
       <r>     2.0482     0.8216     0.4771 </r>
       <r>     2.1125     0.4227     0.5043 </r>
       <r>     2.1768     0.3108     0.5243 </r>
       <r>     2.2411     0.1607     0.5346 </r>
       <r>     2.3054     0.5979     0.5731 </r>
       <r>     2.3697     0.6132     0.6125 </r>
       <r>     2.4341     0.2203     0.6267 </r>
       <r>     2.4984     0.0746     0.6315 </r>
       <r>     2.5627     0.2937     0.6504 </r>
       <r>     2.6270    -0.0149     0.6494 </r>
       <r>     2.6913     0.2466     0.6653 </r>
       <r>     2.7557     0.4174     0.6921 </r>
       <r>     2.8200     1.5626     0.7926 </r>
       <r>     2.8843     0.8849     0.8495 </r>
       <r>     2.9486     0.6414     0.8908 </r>
       <r>     3.0129     0.1586     0.9010 </r>
       <r>     3.0772     0.0150     0.9020 </r>
       <r>     3.1416     0.9420     0.9625 </r>
       <r>     3.2059     0.7612     1.0115 </r>
       <r>     3.2702     0.3462     1.0338 </r>
       <r>     3.3345     0.0062     1.0342 </r>
       <r>     3.3988    -0.0043     1.0339 </r>
       <r>     3.4631     0.0140     1.0348 </r>
       <r>     3.5275     0.1075     1.0417 </r>
       <r>     3.5918    -0.0078     1.0412 </r>
       <r>     3.6561     0.2352     1.0563 </r>
       <r>     3.7204     0.4850     1.0875 </r>
       <r>     3.7847     0.6974     1.1324 </r>
       <r>     3.8490     0.2502     1.1485 </r>
       <r>     3.9134     0.2233     1.1628 </r>
       <r>     3.9777    -0.0157     1.1618 </r>
       <r>     4.0420     0.0248     1.1634 </r>
       <r>     4.1063     0.1492     1.1730 </r>
       <r>     4.1706     0.9846     1.2364 </r>
       <r>     4.2349     1.1006     1.3071 </r>
       <r>     4.2993     0.3954     1.3326 </r>
       <r>     4.3636     1.4689     1.4270 </r>
       <r>     4.4279     2.0351     1.5579 </r>
       <r>     4.4922     0.3883     1.5829 </r>
       <r>     4.5565     0.6454     1.6244 </r>
       <r>     4.6208     0.9661     1.6866 </r>
       <r>     4.6852     0.5659     1.7230 </r>
       <r>     4.7495     0.2474     1.7389 </r>
       <r>     4.8138     0.7158     1.7849 </r>
       <r>     4.8781     0.7165     1.8310 </r>
       <r>     4.9424     1.3215     1.9160 </r>
       <r>     5.0068     1.4207     2.0074 </r>
       <r>     5.0711     0.2505     2.0235 </r>
       <r>     5.1354    -0.0521     2.0201 </r>
       <r>     5.1997     0.3236     2.0409 </r>
       <r>     5.2640     1.5727     2.1421 </r>
       <r>     5.3283     1.2974     2.2255 </r>
       <r>     5.3927     1.0123     2.2906 </r>
       <r>     5.4570     0.2996     2.3099 </r>
       <r>     5.5213     0.5269     2.3438 </r>
       <r>     5.5856     0.7020     2.3889 </r>
       <r>     5.6499     1.5372     2.4878 </r>
       <r>     5.7142     0.7260     2.5345 </r>
       <r>     5.7786     0.7967     2.5857 </r>
       <r>     5.8429    -0.0003     2.5857 </r>
       <r>     5.9072     0.0503     2.5890 </r>
       <r>     5.9715     0.9812     2.6521 </r>
       <r>     6.0358     0.4198     2.6791 </r>
       <r>     6.1001     0.6198     2.7189 </r>
       <r>     6.1645     0.8699     2.7749 </r>
       <r>     6.2288     0.3119     2.7950 </r>
       <r>     6.2931    -0.0203     2.7936 </r>
       <r>     6.3574     0.0783     2.7987 </r>
       <r>     6.4217     0.2631     2.8156 </r>
       <r>     6.4860     0.0336     2.8178 </r>
       <r>     6.5504     0.1021     2.8243 </r>
       <r>     6.6147     0.3521     2.8470 </r>
       <r>     6.6790     0.1090     2.8540 </r>
       <r>     6.7433     0.2834     2.8722 </r>
       <r>     6.8076     0.0058     2.8726 </r>
       <r>     6.8719     0.6138     2.9121 </r>
       <r>     6.9363     0.1666     2.9228 </r>
       <r>     7.0006     0.4033     2.9487 </r>
       <r>     7.0649     0.3144     2.9689 </r>
       <r>     7.1292    -0.0180     2.9678 </r>
       <r>     7.1935     0.1357     2.9765 </r>
       <r>     7.2578     0.4091     3.0028 </r>
       <r>     7.3222     0.0768     3.0078 </r>
       <r>     7.3865     0.3979     3.0334 </r>
       <r>     7.4508     0.0431     3.0361 </r>
       <r>     7.5151     0.5105     3.0690 </r>
       <r>     7.5794     0.3017     3.0884 </r>
       <r>     7.6438     0.3011     3.1077 </r>
       <r>     7.7081     0.0063     3.1081 </r>
       <r>     7.7724    -0.0023     3.1080 </r>
       <r>     7.8367     0.0000     3.1080 </r>
       <r>     7.9010    -0.0015     3.1079 </r>
       <r>     7.9653    -0.0195     3.1067 </r>
       <r>     8.0297     0.4529     3.1358 </r>
       <r>     8.0940     0.6328     3.1765 </r>
       <r>     8.1583     0.8079     3.2284 </r>
       <r>     8.2226     0.3976     3.2540 </r>
       <r>     8.2869    -0.0468     3.2510 </r>
       <r>     8.3512     0.1796     3.2626 </r>
       <r>     8.4156     0.5814     3.2999 </r>
       <r>     8.4799     0.2108     3.3135 </r>
       <r>     8.5442     0.3048     3.3331 </r>
       <r>     8.6085     0.4121     3.3596 </r>
       <r>     8.6728     0.8721     3.4157 </r>
       <r>     8.7371     0.5462     3.4508 </r>
       <r>     8.8015     0.1010     3.4573 </r>
       <r>     8.8658     0.5672     3.4938 </r>
       <r>     8.9301     0.8965     3.5515 </r>
       <r>     8.9944     0.4646     3.5813 </r>
       <r>     9.0587     0.2615     3.5982 </r>
       <r>     9.1230     0.8946     3.6557 </r>
       <r>     9.1874     1.1804     3.7316 </r>
       <r>     9.2517     0.4189     3.7586 </r>
       <r>     9.3160     0.1562     3.7686 </r>
       <r>     9.3803     1.0229     3.8344 </r>
       <r>     9.4446     0.4911     3.8660 </r>
       <r>     9.5089     0.6206     3.9059 </r>
       <r>     9.5733     0.2955     3.9249 </r>
       <r>     9.6376     0.0625     3.9289 </r>
       <r>     9.7019     0.5812     3.9663 </r>
       <r>     9.7662     0.7966     4.0175 </r>
       <r>     9.8305     0.5978     4.0560 </r>
       <r>     9.8949     0.0921     4.0619 </r>
       <r>     9.9592     0.0952     4.0680 </r>
       <r>    10.0235     0.7731     4.1178 </r>
       <r>    10.0878     1.1114     4.1892 </r>
       <r>    10.1521     0.4244     4.2165 </r>
       <r>    10.2164     0.4794     4.2474 </r>
       <r>    10.2808     0.4654     4.2773 </r>
       <r>    10.3451     0.6538     4.3194 </r>
       <r>    10.4094     1.0364     4.3860 </r>
       <r>    10.4737     1.5601     4.4864 </r>
       <r>    10.5380     1.2465     4.5665 </r>
       <r>    10.6023     1.6502     4.6727 </r>
       <r>    10.6667     1.7531     4.7854 </r>
       <r>    10.7310     2.2168     4.9280 </r>
       <r>    10.7953     1.2595     5.0090 </r>
       <r>    10.8596     1.1057     5.0801 </r>
       <r>    10.9239     0.5557     5.1159 </r>
       <r>    10.9882     0.4010     5.1416 </r>
       <r>    11.0526    -0.0019     5.1415 </r>
       <r>    11.1169     0.2703     5.1589 </r>
       <r>    11.1812     0.1105     5.1660 </r>
       <r>    11.2455     0.2707     5.1834 </r>
       <r>    11.3098     0.1268     5.1916 </r>
       <r>    11.3741     0.1455     5.2009 </r>
       <r>    11.4385     0.1543     5.2109 </r>
       <r>    11.5028     0.1193     5.2185 </r>
       <r>    11.5671    -0.0133     5.2177 </r>
       <r>    11.6314     0.0470     5.2207 </r>
       <r>    11.6957     0.3098     5.2406 </r>
       <r>    11.7600     0.2416     5.2562 </r>
       <r>    11.8244     0.1650     5.2668 </r>
       <r>    11.8887    -0.0150     5.2658 </r>
       <r>    11.9530     0.0190     5.2670 </r>
       <r>    12.0173     0.3263     5.2880 </r>
       <r>    12.0816     0.0352     5.2903 </r>
       <r>    12.1460    -0.0063     5.2899 </r>
       <r>    12.2103    -0.0027     5.2897 </r>
       <r>    12.2746     0.3738     5.3137 </r>
       <r>    12.3389     0.1069     5.3206 </r>
       <r>    12.4032    -0.0096     5.3200 </r>
       <r>    12.4675    -0.0114     5.3193 </r>
       <r>    12.5319     0.1545     5.3292 </r>
       <r>    12.5962     0.2027     5.3422 </r>
       <r>    12.6605     0.4953     5.3741 </r>
       <r>    12.7248     1.3946     5.4638 </r>
       <r>    12.7891     0.4538     5.4930 </r>
       <r>    12.8534     0.6147     5.5325 </r>
       <r>    12.9178     0.8580     5.5877 </r>
       <r>    12.9821     0.4870     5.6190 </r>
       <r>    13.0464     0.1940     5.6315 </r>
       <r>    13.1107     0.5466     5.6666 </r>
       <r>    13.1750    -0.0074     5.6662 </r>
       <r>    13.2393    -0.0027     5.6660 </r>
       <r>    13.3037     0.0000     5.6660 </r>
       <r>    13.3680     0.0000     5.6660 </r>
       <r>    13.4323    -0.0002     5.6660 </r>
       <r>    13.4966    -0.0029     5.6658 </r>
       <r>    13.5609     0.0606     5.6697 </r>
       <r>    13.6252     0.0528     5.6731 </r>
       <r>    13.6896     0.3226     5.6938 </r>
       <r>    13.7539     0.0333     5.6960 </r>
       <r>    13.8182     0.1364     5.7048 </r>
       <r>    13.8825     0.0417     5.7074 </r>
       <r>    13.9468     0.2166     5.7214 </r>
       <r>    14.0111     0.1777     5.7328 </r>
       <r>    14.0755    -0.0122     5.7320 </r>
       <r>    14.1398    -0.0002     5.7320 </r>
       <r>    14.2041     0.0000     5.7320 </r>
       <r>    14.2684    -0.0026     5.7318 </r>
       <r>    14.3327     0.0002     5.7318 </r>
       <r>    14.3971     0.4466     5.7606 </r>
       <r>    14.4614     0.0980     5.7669 </r>
       <r>    14.5257     0.3962     5.7924 </r>
       <r>    14.5900     0.7253     5.8390 </r>
       <r>    14.6543     0.0463     5.8420 </r>
       <r>    14.7186     0.0951     5.8481 </r>
       <r>    14.7830    -0.0011     5.8480 </r>
       <r>    14.8473    -0.0027     5.8479 </r>
       <r>    14.9116    -0.0150     5.8469 </r>
       <r>    14.9759     0.5341     5.8812 </r>
       <r>    15.0402     0.4583     5.9107 </r>
       <r>    15.1045     0.5376     5.9453 </r>
       <r>    15.1689    -0.0212     5.9439 </r>
       <r>    15.2332     0.0131     5.9448 </r>
       <r>    15.2975     0.3133     5.9649 </r>
       <r>    15.3618     0.2032     5.9780 </r>
       <r>    15.4261     0.2308     5.9928 </r>
       <r>    15.4904    -0.0146     5.9919 </r>
       <r>    15.5548     0.0199     5.9932 </r>
       <r>    15.6191     0.1053     6.0000 </r>
       <r>    15.6834     0.0014     6.0000 </r>
       <r>    15.7477    -0.0007     6.0000 </r>
       <r>    15.8120     0.0000     6.0000 </r>
       <r>    15.8763     0.0000     6.0000 </r>
       <r>    15.9407     0.0000     6.0000 </r>
       <r>    16.0050     0.0000     6.0000 </r>
       <r>    16.0693     0.0000     6.0000 </r>
       <r>    16.1336     0.0000     6.0000 </r>
       <r>    16.1979     0.0000     6.0000 </r>
       <r>    16.2622     0.0000     6.0000 </r>
       <r>    16.3266     0.0000     6.0000 </r>
       <r>    16.3909     0.0000     6.0000 </r>
       <r>    16.4552     0.0000     6.0000 </r>
      </set>
     </set>
    </array>
   </total>
  </dos>
 </calculation>
 <structure name="finalpos" >
  <crystal>
   <varray name="basis" >
    <v>       2.86654409       0.00000000       0.00000000 </v>
    <v>      -0.95551470       2.70260368       0.00000000 </v>
    <v>      -0.95551470      -1.35130184       2.34052345 </v>
   </varray>
   <i name="volume">     18.13234550 </i>
   <varray name="rec_basis" >
    <v>       0.34885213       0.12333785       0.21362743 </v>
    <v>       0.00000000       0.37001356       0.21362743 </v>
    <v>       0.00000000       0.00000000       0.42725485 </v>
   </varray>
  </crystal>
  <varray name="positions" >
   <v>       0.00000000       0.00000000       0.00000000 </v>
  </varray>
 </structure>
</modeling>
