unknown system                          
           1
     2.866544    0.000000    0.000000
    -0.955515    2.702604    0.000000
    -0.955515   -1.351302    2.340523
   Ta
   1
Direct configuration=     1
   0.00000000  0.00000000  0.00000000
