   4   4   1   0
  0.8797333E+01  0.2461200E-09  0.2461200E-09  0.6707900E-09  0.5000000E-15
  1.000000000000000E-004
  CAR 
 unknown system                          
     18.96297604    -16.59446290  301      2.78623524      1.00000000
    -16.594  0.0000E+00  0.0000E+00  0.0000E+00  0.0000E+00
    -16.476  0.0000E+00  0.0000E+00  0.0000E+00  0.0000E+00
    -16.357  0.0000E+00  0.0000E+00  0.0000E+00  0.0000E+00
    -16.239  0.0000E+00  0.0000E+00  0.0000E+00  0.0000E+00
    -16.120  0.0000E+00  0.0000E+00  0.0000E+00  0.0000E+00
    -16.002  0.0000E+00  0.0000E+00  0.0000E+00  0.0000E+00
    -15.883  0.0000E+00  0.0000E+00  0.0000E+00  0.0000E+00
    -15.765  0.0000E+00  0.0000E+00  0.0000E+00  0.0000E+00
    -15.646  0.0000E+00  0.0000E+00  0.0000E+00  0.0000E+00
    -15.528  0.0000E+00  0.0000E+00  0.0000E+00  0.0000E+00
    -15.409 -0.1722E-32 -0.9609E-33 -0.2041E-33 -0.1139E-33
    -15.291 -0.2538E-17 -0.1666E-17 -0.3008E-18 -0.1975E-18
    -15.172 -0.3949E-07 -0.3059E-07 -0.4680E-08 -0.3626E-08
    -15.054 -0.4216E-02 -0.3931E-02 -0.4997E-03 -0.4659E-03
    -14.935  0.2747E+00  0.2660E+00  0.3206E-01  0.3107E-01
    -14.817  0.3250E+00  0.3274E+00  0.7058E-01  0.6987E-01
    -14.698  0.3256E+00  0.3240E+00  0.1092E+00  0.1083E+00
    -14.580  0.1347E+00  0.1424E+00  0.1251E+00  0.1252E+00
    -14.461 -0.1144E-02 -0.1277E-02  0.1250E+00  0.1250E+00
    -14.342 -0.8854E-09 -0.1179E-08  0.1250E+00  0.1250E+00
    -14.224  0.0000E+00  0.0000E+00  0.1250E+00  0.1250E+00
    -14.105  0.0000E+00  0.0000E+00  0.1250E+00  0.1250E+00
    -13.987 -0.1074E-41 -0.5646E-42  0.1250E+00  0.1250E+00
    -13.868 -0.6231E-24 -0.3828E-24  0.1250E+00  0.1250E+00
    -13.750 -0.4124E-11 -0.2966E-11  0.1250E+00  0.1250E+00
    -13.631 -0.2726E-03 -0.2305E-03  0.1250E+00  0.1250E+00
    -13.513  0.1015E+00  0.8388E-01  0.1370E+00  0.1349E+00
    -13.394  0.2411E+01  0.2411E+01  0.4228E+00  0.4206E+00
    -13.276  0.1882E+01  0.1863E+01  0.6458E+00  0.6415E+00
    -13.157  0.1971E+01  0.2008E+01  0.8794E+00  0.8795E+00
    -13.039 -0.3718E-01 -0.3837E-01  0.8750E+00  0.8750E+00
    -12.920 -0.1492E-05 -0.1868E-05  0.8750E+00  0.8750E+00
    -12.802  0.0000E+00  0.0000E+00  0.8750E+00  0.8750E+00
    -12.683  0.0000E+00  0.0000E+00  0.8750E+00  0.8750E+00
    -12.565  0.0000E+00  0.0000E+00  0.8750E+00  0.8750E+00
    -12.446  0.0000E+00  0.0000E+00  0.8750E+00  0.8750E+00
    -12.328  0.0000E+00  0.0000E+00  0.8750E+00  0.8750E+00
    -12.209  0.0000E+00  0.0000E+00  0.8750E+00  0.8750E+00
    -12.091  0.0000E+00  0.0000E+00  0.8750E+00  0.8750E+00
    -11.972  0.0000E+00  0.0000E+00  0.8750E+00  0.8750E+00
    -11.853  0.0000E+00  0.0000E+00  0.8750E+00  0.8750E+00
    -11.735  0.0000E+00  0.0000E+00  0.8750E+00  0.8750E+00
    -11.616  0.0000E+00  0.0000E+00  0.8750E+00  0.8750E+00
    -11.498  0.0000E+00  0.0000E+00  0.8750E+00  0.8750E+00
    -11.379  0.0000E+00  0.0000E+00  0.8750E+00  0.8750E+00
    -11.261  0.0000E+00  0.0000E+00  0.8750E+00  0.8750E+00
    -11.142 -0.2812E-44 -0.1539E-44  0.8750E+00  0.8750E+00
    -11.024 -0.6769E-26 -0.4269E-26  0.8750E+00  0.8750E+00
    -10.905 -0.1885E-12 -0.1371E-12  0.8750E+00  0.8750E+00
    -10.787 -0.5576E-04 -0.4692E-04  0.8750E+00  0.8750E+00
    -10.668 -0.2001E-01 -0.2715E-01  0.8726E+00  0.8718E+00
    -10.550  0.2705E+01  0.2684E+01  0.1193E+01  0.1190E+01
    -10.431  0.2706E+01  0.2687E+01  0.1514E+01  0.1508E+01
    -10.313  0.9423E+00  0.9905E+00  0.1626E+01  0.1626E+01
    -10.194 -0.6125E-02 -0.6790E-02  0.1625E+01  0.1625E+01
    -10.076 -0.3253E-08 -0.4191E-08  0.1625E+01  0.1625E+01
     -9.957 -0.1731E-19 -0.1192E-19  0.1625E+01  0.1625E+01
     -9.839 -0.2908E-08 -0.2291E-08  0.1625E+01  0.1625E+01
     -9.720 -0.5180E-02 -0.4690E-02  0.1624E+01  0.1624E+01
     -9.601  0.7194E+00  0.6890E+00  0.1710E+01  0.1706E+01
     -9.483  0.2427E+01  0.2447E+01  0.1997E+01  0.1996E+01
     -9.364  0.2232E-01  0.3244E-01  0.2000E+01  0.2000E+01
     -9.246 -0.7991E-04 -0.9369E-04  0.2000E+01  0.2000E+01
     -9.127 -0.4191E-12 -0.5644E-12  0.2000E+01  0.2000E+01
     -9.009 -0.7409E-35 -0.4471E-35  0.2000E+01  0.2000E+01
     -8.890 -0.7589E-19 -0.5234E-19  0.2000E+01  0.2000E+01
     -8.772 -0.9288E-08 -0.7330E-08  0.2000E+01  0.2000E+01
     -8.653 -0.1093E-01 -0.9954E-02  0.1999E+01  0.1999E+01
     -8.535  0.1251E+01  0.1204E+01  0.2147E+01  0.2142E+01
     -8.416  0.1962E+01  0.2009E+01  0.2379E+01  0.2380E+01
     -8.298 -0.3792E-01 -0.3915E-01  0.2375E+01  0.2375E+01
     -8.179 -0.1297E-05 -0.1579E-05  0.2375E+01  0.2375E+01
     -8.061  0.0000E+00  0.0000E+00  0.2375E+01  0.2375E+01
     -7.942  0.0000E+00  0.0000E+00  0.2375E+01  0.2375E+01
     -7.824  0.0000E+00  0.0000E+00  0.2375E+01  0.2375E+01
     -7.705  0.0000E+00  0.0000E+00  0.2375E+01  0.2375E+01
     -7.587  0.0000E+00  0.0000E+00  0.2375E+01  0.2375E+01
     -7.468  0.0000E+00  0.0000E+00  0.2375E+01  0.2375E+01
     -7.350  0.0000E+00  0.0000E+00  0.2375E+01  0.2375E+01
     -7.231  0.0000E+00  0.0000E+00  0.2375E+01  0.2375E+01
     -7.112  0.0000E+00  0.0000E+00  0.2375E+01  0.2375E+01
     -6.994  0.0000E+00  0.0000E+00  0.2375E+01  0.2375E+01
     -6.875  0.0000E+00  0.0000E+00  0.2375E+01  0.2375E+01
     -6.757  0.0000E+00  0.0000E+00  0.2375E+01  0.2375E+01
     -6.638  0.0000E+00  0.0000E+00  0.2375E+01  0.2375E+01
     -6.520  0.0000E+00  0.0000E+00  0.2375E+01  0.2375E+01
     -6.401  0.0000E+00  0.0000E+00  0.2375E+01  0.2375E+01
     -6.283 -0.3166E-34 -0.2092E-34  0.2375E+01  0.2375E+01
     -6.164 -0.2456E-18 -0.1813E-18  0.2375E+01  0.2375E+01
     -6.046 -0.2294E-07 -0.1892E-07  0.2375E+01  0.2375E+01
     -5.927 -0.2147E-01 -0.1993E-01  0.2372E+01  0.2373E+01
     -5.809  0.2352E+01  0.2275E+01  0.2651E+01  0.2642E+01
     -5.690  0.4071E+01  0.4149E+01  0.3134E+01  0.3134E+01
     -5.572 -0.7333E-01 -0.7643E-01  0.3125E+01  0.3125E+01
     -5.453 -0.9635E-06 -0.1141E-05  0.3125E+01  0.3125E+01
     -5.335  0.0000E+00  0.0000E+00  0.3125E+01  0.3125E+01
     -5.216  0.0000E+00  0.0000E+00  0.3125E+01  0.3125E+01
     -5.098  0.0000E+00  0.0000E+00  0.3125E+01  0.3125E+01
     -4.979  0.0000E+00  0.0000E+00  0.3125E+01  0.3125E+01
     -4.861  0.0000E+00  0.0000E+00  0.3125E+01  0.3125E+01
     -4.742 -0.9005E-41 -0.5832E-41  0.3125E+01  0.3125E+01
     -4.623 -0.3663E-23 -0.2637E-23  0.3125E+01  0.3125E+01
     -4.505 -0.1807E-10 -0.1448E-10  0.3125E+01  0.3125E+01
     -4.386 -0.9784E-03 -0.8742E-03  0.3125E+01  0.3125E+01
     -4.268  0.4382E+00  0.3960E+00  0.3177E+01  0.3172E+01
     -4.149  0.6011E+01  0.6051E+01  0.3889E+01  0.3889E+01
     -4.031 -0.1201E+00 -0.1183E+00  0.3875E+01  0.3875E+01
     -3.912 -0.1673E-02 -0.1444E-02  0.3875E+01  0.3875E+01
     -3.794  0.1177E+00  0.1136E+00  0.3889E+01  0.3888E+01
     -3.675  0.1403E-01  0.1819E-01  0.3890E+01  0.3890E+01
     -3.557  0.2014E+00  0.1908E+00  0.3914E+01  0.3913E+01
     -3.438  0.6416E-01  0.7449E-01  0.3922E+01  0.3922E+01
     -3.320 -0.1241E-03 -0.1608E-03  0.3922E+01  0.3922E+01
     -3.201 -0.3320E-11 -0.4899E-11  0.3922E+01  0.3922E+01
     -3.083 -0.6023E-04 -0.4476E-04  0.3922E+01  0.3922E+01
     -2.964  0.3967E-01  0.3141E-01  0.3927E+01  0.3926E+01
     -2.846  0.2236E+00  0.2326E+00  0.3953E+01  0.3953E+01
     -2.727  0.8795E+00  0.8376E+00  0.4057E+01  0.4052E+01
     -2.609  0.5320E+01  0.5344E+01  0.4688E+01  0.4686E+01
     -2.490  0.1296E+00  0.1465E+00  0.4703E+01  0.4703E+01
     -2.371 -0.3499E-03 -0.3857E-03  0.4703E+01  0.4703E+01
     -2.253 -0.5632E-02 -0.7313E-02  0.4702E+01  0.4702E+01
     -2.134  0.2717E+00  0.2749E+00  0.4735E+01  0.4735E+01
     -2.016  0.6117E+00  0.5805E+00  0.4807E+01  0.4804E+01
     -1.897  0.1664E+00  0.1962E+00  0.4827E+01  0.4827E+01
     -1.779  0.1424E+01  0.1370E+01  0.4996E+01  0.4989E+01
     -1.660  0.2250E+01  0.2276E+01  0.5262E+01  0.5259E+01
     -1.542  0.1221E+01  0.1250E+01  0.5407E+01  0.5407E+01
     -1.423 -0.7159E-02 -0.7523E-02  0.5406E+01  0.5406E+01
     -1.305 -0.1082E-01 -0.8910E-02  0.5405E+01  0.5405E+01
     -1.186  0.1210E+01  0.1143E+01  0.5548E+01  0.5541E+01
     -1.068  0.3832E+00  0.4488E+00  0.5594E+01  0.5594E+01
     -0.949 -0.7387E-03 -0.9719E-03  0.5594E+01  0.5594E+01
     -0.831 -0.1583E-10 -0.2766E-10  0.5594E+01  0.5594E+01
     -0.712 -0.3716E-06 -0.2346E-06  0.5594E+01  0.5594E+01
     -0.594 -0.4083E-01 -0.3640E-01  0.5589E+01  0.5589E+01
     -0.475  0.1618E+01  0.1589E+01  0.5781E+01  0.5778E+01
     -0.357 -0.1222E+00 -0.1010E+00  0.5766E+01  0.5766E+01
     -0.238  0.6501E+01  0.6475E+01  0.6537E+01  0.6533E+01
     -0.120  0.7590E+00  0.7899E+00  0.6627E+01  0.6627E+01
     -0.001 -0.1445E-01 -0.1666E-01  0.6625E+01  0.6625E+01
      0.118 -0.4953E-07 -0.8095E-07  0.6625E+01  0.6625E+01
      0.236  0.0000E+00  0.0000E+00  0.6625E+01  0.6625E+01
      0.355  0.0000E+00  0.0000E+00  0.6625E+01  0.6625E+01
      0.473  0.0000E+00  0.0000E+00  0.6625E+01  0.6625E+01
      0.592  0.0000E+00  0.0000E+00  0.6625E+01  0.6625E+01
      0.710  0.0000E+00  0.0000E+00  0.6625E+01  0.6625E+01
      0.829 -0.8550E-38 -0.3082E-38  0.6625E+01  0.6625E+01
      0.947 -0.5294E-21 -0.2474E-21  0.6625E+01  0.6625E+01
      1.066 -0.3651E-09 -0.2220E-09  0.6625E+01  0.6625E+01
      1.184 -0.2218E-02 -0.1781E-02  0.6625E+01  0.6625E+01
      1.303  0.4511E+00  0.4144E+00  0.6678E+01  0.6674E+01
      1.421  0.2877E+00  0.3261E+00  0.6712E+01  0.6713E+01
      1.540  0.1687E+01  0.1679E+01  0.6912E+01  0.6912E+01
      1.658 -0.1117E+00 -0.1051E+00  0.6899E+01  0.6899E+01
      1.777  0.2186E+01  0.2181E+01  0.7158E+01  0.7158E+01
      1.895 -0.6645E-01 -0.5958E-01  0.7150E+01  0.7151E+01
      2.014  0.1998E+01  0.1970E+01  0.7387E+01  0.7384E+01
      2.132  0.8466E+00  0.8684E+00  0.7487E+01  0.7487E+01
      2.251 -0.2950E-01 -0.2594E-01  0.7484E+01  0.7484E+01
      2.370  0.5435E+00  0.5063E+00  0.7548E+01  0.7544E+01
      2.488  0.4755E+00  0.4604E+00  0.7605E+01  0.7599E+01
      2.607  0.2094E+01  0.2113E+01  0.7853E+01  0.7849E+01
      2.725  0.6343E+00  0.6353E+00  0.7928E+01  0.7924E+01
      2.844  0.6126E+00  0.6458E+00  0.8001E+01  0.8001E+01
      2.962 -0.5880E-02 -0.7196E-02  0.8000E+01  0.8000E+01
      3.081 -0.3875E-08 -0.6607E-08  0.8000E+01  0.8000E+01
      3.199  0.0000E+00  0.0000E+00  0.8000E+01  0.8000E+01
      3.318  0.0000E+00  0.0000E+00  0.8000E+01  0.8000E+01
      3.436  0.0000E+00  0.0000E+00  0.8000E+01  0.8000E+01
      3.555  0.0000E+00  0.0000E+00  0.8000E+01  0.8000E+01
      3.673  0.0000E+00  0.0000E+00  0.8000E+01  0.8000E+01
      3.792  0.0000E+00  0.0000E+00  0.8000E+01  0.8000E+01
      3.910  0.0000E+00  0.0000E+00  0.8000E+01  0.8000E+01
      4.029  0.0000E+00  0.0000E+00  0.8000E+01  0.8000E+01
      4.147  0.0000E+00  0.0000E+00  0.8000E+01  0.8000E+01
      4.266  0.0000E+00  0.0000E+00  0.8000E+01  0.8000E+01
      4.384  0.0000E+00  0.0000E+00  0.8000E+01  0.8000E+01
      4.503  0.0000E+00  0.0000E+00  0.8000E+01  0.8000E+01
      4.621  0.0000E+00  0.0000E+00  0.8000E+01  0.8000E+01
      4.740  0.0000E+00  0.0000E+00  0.8000E+01  0.8000E+01
      4.859  0.0000E+00  0.0000E+00  0.8000E+01  0.8000E+01
      4.977  0.0000E+00  0.0000E+00  0.8000E+01  0.8000E+01
      5.096  0.0000E+00  0.0000E+00  0.8000E+01  0.8000E+01
      5.214  0.0000E+00  0.0000E+00  0.8000E+01  0.8000E+01
      5.333  0.0000E+00  0.0000E+00  0.8000E+01  0.8000E+01
      5.451  0.0000E+00  0.0000E+00  0.8000E+01  0.8000E+01
      5.570  0.0000E+00  0.0000E+00  0.8000E+01  0.8000E+01
      5.688  0.0000E+00  0.0000E+00  0.8000E+01  0.8000E+01
      5.807 -0.5229E-33 -0.1898E-33  0.8000E+01  0.8000E+01
      5.925 -0.1823E-17 -0.8716E-18  0.8000E+01  0.8000E+01
      6.044 -0.7045E-07 -0.4455E-07  0.8000E+01  0.8000E+01
      6.162 -0.2020E-01 -0.1747E-01  0.7998E+01  0.7998E+01
      6.281  0.1121E+01  0.1088E+01  0.8130E+01  0.8127E+01
      6.399  0.5662E+00  0.5572E+00  0.8198E+01  0.8193E+01
      6.518  0.3114E+00  0.3507E+00  0.8234E+01  0.8235E+01
      6.636 -0.8498E-02 -0.7398E-02  0.8233E+01  0.8234E+01
      6.755  0.6624E+00  0.6286E+00  0.8312E+01  0.8308E+01
      6.873  0.1303E+00  0.1594E+00  0.8327E+01  0.8327E+01
      6.992  0.4131E+00  0.4175E+00  0.8376E+01  0.8377E+01
      7.110 -0.1184E-01 -0.1283E-01  0.8375E+01  0.8375E+01
      7.229 -0.1719E-01 -0.2216E-01  0.8373E+01  0.8372E+01
      7.348  0.1303E+01  0.1239E+01  0.8527E+01  0.8519E+01
      7.466  0.1090E+01  0.1162E+01  0.8657E+01  0.8657E+01
      7.585  0.9694E+00  0.8857E+00  0.8771E+01  0.8762E+01
      7.703  0.5862E+00  0.6713E+00  0.8841E+01  0.8841E+01
      7.822  0.1457E+01  0.1407E+01  0.9014E+01  0.9008E+01
      7.940  0.9662E+00  0.1010E+01  0.9128E+01  0.9128E+01
      8.059 -0.2687E-01 -0.2436E-01  0.9125E+01  0.9125E+01
      8.177 -0.3514E-05 -0.5331E-05  0.9125E+01  0.9125E+01
      8.296  0.0000E+00  0.0000E+00  0.9125E+01  0.9125E+01
      8.414  0.0000E+00  0.0000E+00  0.9125E+01  0.9125E+01
      8.533 -0.8069E-36 -0.7247E-36  0.9125E+01  0.9125E+01
      8.651 -0.9588E-20 -0.8860E-20  0.9125E+01  0.9125E+01
      8.770 -0.1242E-08 -0.1181E-08  0.9125E+01  0.9125E+01
      8.888 -0.1254E-02 -0.1231E-02  0.9125E+01  0.9125E+01
      9.007  0.1102E+00  0.1097E+00  0.9138E+01  0.9138E+01
      9.125  0.2291E-01  0.2340E-01  0.9141E+01  0.9141E+01
      9.244 -0.3679E-04 -0.3794E-04  0.9141E+01  0.9141E+01
      9.362 -0.4729E-12 -0.5023E-12  0.9141E+01  0.9141E+01
      9.481 -0.4154E-11 -0.3810E-11  0.9141E+01  0.9141E+01
      9.600 -0.1539E-03 -0.1476E-03  0.9141E+01  0.9141E+01
      9.718  0.7270E-01  0.7098E-01  0.9149E+01  0.9149E+01
      9.837  0.1927E+00  0.1944E+00  0.9172E+01  0.9172E+01
      9.955 -0.1541E-02 -0.1589E-02  0.9172E+01  0.9172E+01
     10.074 -0.7007E-09 -0.7563E-09  0.9172E+01  0.9172E+01
     10.192  0.0000E+00  0.0000E+00  0.9172E+01  0.9172E+01
     10.311 -0.4827E-40 -0.4260E-40  0.9172E+01  0.9172E+01
     10.429 -0.1100E-22 -0.1001E-22  0.9172E+01  0.9172E+01
     10.548 -0.2832E-10 -0.2661E-10  0.9172E+01  0.9172E+01
     10.666 -0.6871E-03 -0.6668E-03  0.9172E+01  0.9172E+01
     10.785  0.2697E+00  0.2656E+00  0.9204E+01  0.9203E+01
     10.903  0.5253E+00  0.5295E+00  0.9266E+01  0.9266E+01
     11.022 -0.3417E-02 -0.3499E-02  0.9266E+01  0.9266E+01
     11.140 -0.1005E-08 -0.1064E-08  0.9266E+01  0.9266E+01
     11.259 -0.1935E-03 -0.1756E-03  0.9266E+01  0.9266E+01
     11.377  0.1406E+00  0.1278E+00  0.9282E+01  0.9281E+01
     11.496  0.1465E+01  0.1479E+01  0.9456E+01  0.9456E+01
     11.614  0.3170E-01  0.2820E-01  0.9460E+01  0.9459E+01
     11.733  0.3332E+00  0.3075E+00  0.9499E+01  0.9496E+01
     11.851  0.6369E+00  0.6582E+00  0.9575E+01  0.9574E+01
     11.970  0.2453E+01  0.2365E+01  0.9865E+01  0.9854E+01
     12.089  0.1941E+01  0.2037E+01  0.1010E+02  0.1010E+02
     12.207  0.6965E+00  0.6836E+00  0.1018E+02  0.1018E+02
     12.326  0.2214E+01  0.2187E+01  0.1044E+02  0.1044E+02
     12.444  0.1417E+01  0.1438E+01  0.1061E+02  0.1061E+02
     12.563  0.7645E-02  0.2572E-01  0.1061E+02  0.1061E+02
     12.681 -0.5522E-01 -0.5170E-01  0.1060E+02  0.1060E+02
     12.800  0.3423E+01  0.3329E+01  0.1101E+02  0.1100E+02
     12.918  0.5809E+00  0.6726E+00  0.1108E+02  0.1108E+02
     13.037  0.1418E+01  0.1327E+01  0.1125E+02  0.1123E+02
     13.155  0.1658E+01  0.1712E+01  0.1144E+02  0.1144E+02
     13.274  0.1433E+01  0.1469E+01  0.1161E+02  0.1161E+02
     13.392 -0.2497E-01 -0.2513E-01  0.1161E+02  0.1161E+02
     13.511  0.9881E+00  0.9556E+00  0.1173E+02  0.1172E+02
     13.629  0.6012E+00  0.6334E+00  0.1180E+02  0.1180E+02
     13.748 -0.1711E-02 -0.1911E-02  0.1180E+02  0.1180E+02
     13.866 -0.3454E-03 -0.3189E-03  0.1180E+02  0.1180E+02
     13.985  0.1096E+00  0.1056E+00  0.1181E+02  0.1181E+02
     14.103  0.1552E+00  0.1592E+00  0.1183E+02  0.1183E+02
     14.222 -0.2529E-02 -0.2533E-02  0.1183E+02  0.1183E+02
     14.341  0.4091E+00  0.4037E+00  0.1188E+02  0.1188E+02
     14.459  0.3851E+00  0.3904E+00  0.1192E+02  0.1192E+02
     14.578 -0.3205E-01 -0.3102E-01  0.1192E+02  0.1192E+02
     14.696  0.1542E+01  0.1532E+01  0.1210E+02  0.1210E+02
     14.815  0.7026E-01  0.7930E-01  0.1211E+02  0.1211E+02
     14.933 -0.1061E-03 -0.1159E-03  0.1211E+02  0.1211E+02
     15.052 -0.1366E-08 -0.1035E-08  0.1211E+02  0.1211E+02
     15.170 -0.5817E-02 -0.5166E-02  0.1211E+02  0.1211E+02
     15.289  0.9977E+00  0.9563E+00  0.1223E+02  0.1222E+02
     15.407  0.7169E+00  0.7588E+00  0.1231E+02  0.1231E+02
     15.526  0.1161E+01  0.1133E+01  0.1245E+02  0.1245E+02
     15.644  0.4271E+00  0.4543E+00  0.1250E+02  0.1250E+02
     15.763 -0.8898E-03 -0.9933E-03  0.1250E+02  0.1250E+02
     15.881 -0.1107E-01 -0.9640E-02  0.1250E+02  0.1250E+02
     16.000  0.1253E+01  0.1205E+01  0.1265E+02  0.1264E+02
     16.118  0.7650E+00  0.8100E+00  0.1274E+02  0.1274E+02
     16.237  0.3726E+00  0.3752E+00  0.1278E+02  0.1278E+02
     16.355 -0.6972E-02 -0.7248E-02  0.1278E+02  0.1278E+02
     16.474 -0.1901E-01 -0.1817E-01  0.1278E+02  0.1278E+02
     16.592  0.1166E+01  0.1153E+01  0.1292E+02  0.1292E+02
     16.711  0.2787E+01  0.2793E+01  0.1325E+02  0.1325E+02
     16.830 -0.8135E-02 -0.1808E-03  0.1325E+02  0.1325E+02
     16.948  0.1698E+01  0.1644E+01  0.1345E+02  0.1344E+02
     17.067  0.9590E+00  0.9568E+00  0.1356E+02  0.1356E+02
     17.185  0.1287E+01  0.1346E+01  0.1371E+02  0.1371E+02
     17.304  0.1678E+01  0.1665E+01  0.1391E+02  0.1391E+02
     17.422  0.7557E+00  0.7657E+00  0.1400E+02  0.1400E+02
     17.541 -0.2050E-01 -0.2158E-01  0.1400E+02  0.1400E+02
     17.659 -0.1891E-06 -0.2364E-06  0.1400E+02  0.1400E+02
     17.778  0.0000E+00  0.0000E+00  0.1400E+02  0.1400E+02
     17.896  0.0000E+00  0.0000E+00  0.1400E+02  0.1400E+02
     18.015  0.0000E+00  0.0000E+00  0.1400E+02  0.1400E+02
     18.133  0.0000E+00  0.0000E+00  0.1400E+02  0.1400E+02
     18.252  0.0000E+00  0.0000E+00  0.1400E+02  0.1400E+02
     18.370  0.0000E+00  0.0000E+00  0.1400E+02  0.1400E+02
     18.489  0.0000E+00  0.0000E+00  0.1400E+02  0.1400E+02
     18.607  0.0000E+00  0.0000E+00  0.1400E+02  0.1400E+02
     18.726  0.0000E+00  0.0000E+00  0.1400E+02  0.1400E+02
     18.844  0.0000E+00  0.0000E+00  0.1400E+02  0.1400E+02
     18.963  0.0000E+00  0.0000E+00  0.1400E+02  0.1400E+02
     18.96297604    -16.59446290  301      2.78623524      1.00000000
    -16.594  0.0000E+00  0.0000E+00  0.0000E+00  0.0000E+00  0.0000E+00  0.0000E+00  0.0000E+00  0.0000E+00  0.0000E+00  0.0000E+00  0.0000E+00  0.0000E+00  0.0000E+00  0.0000E+00  0.0000E+00  0.0000E+00  0.0000E+00  0.0000E+00
    -16.476  0.0000E+00  0.0000E+00  0.0000E+00  0.0000E+00  0.0000E+00  0.0000E+00  0.0000E+00  0.0000E+00  0.0000E+00  0.0000E+00  0.0000E+00  0.0000E+00  0.0000E+00  0.0000E+00  0.0000E+00  0.0000E+00  0.0000E+00  0.0000E+00
    -16.357  0.0000E+00  0.0000E+00  0.0000E+00  0.0000E+00  0.0000E+00  0.0000E+00  0.0000E+00  0.0000E+00  0.0000E+00  0.0000E+00  0.0000E+00  0.0000E+00  0.0000E+00  0.0000E+00  0.0000E+00  0.0000E+00  0.0000E+00  0.0000E+00
    -16.239  0.0000E+00  0.0000E+00  0.0000E+00  0.0000E+00  0.0000E+00  0.0000E+00  0.0000E+00  0.0000E+00  0.0000E+00  0.0000E+00  0.0000E+00  0.0000E+00  0.0000E+00  0.0000E+00  0.0000E+00  0.0000E+00  0.0000E+00  0.0000E+00
    -16.120  0.0000E+00  0.0000E+00  0.0000E+00  0.0000E+00  0.0000E+00  0.0000E+00  0.0000E+00  0.0000E+00  0.0000E+00  0.0000E+00  0.0000E+00  0.0000E+00  0.0000E+00  0.0000E+00  0.0000E+00  0.0000E+00  0.0000E+00  0.0000E+00
    -16.002  0.0000E+00  0.0000E+00  0.0000E+00  0.0000E+00  0.0000E+00  0.0000E+00  0.0000E+00  0.0000E+00  0.0000E+00  0.0000E+00  0.0000E+00  0.0000E+00  0.0000E+00  0.0000E+00  0.0000E+00  0.0000E+00  0.0000E+00  0.0000E+00
    -15.883  0.0000E+00  0.0000E+00  0.0000E+00  0.0000E+00  0.0000E+00  0.0000E+00  0.0000E+00  0.0000E+00  0.0000E+00  0.0000E+00  0.0000E+00  0.0000E+00  0.0000E+00  0.0000E+00  0.0000E+00  0.0000E+00  0.0000E+00  0.0000E+00
    -15.765  0.0000E+00  0.0000E+00  0.0000E+00  0.0000E+00  0.0000E+00  0.0000E+00  0.0000E+00  0.0000E+00  0.0000E+00  0.0000E+00  0.0000E+00  0.0000E+00  0.0000E+00  0.0000E+00  0.0000E+00  0.0000E+00  0.0000E+00  0.0000E+00
    -15.646  0.0000E+00  0.0000E+00  0.0000E+00  0.0000E+00  0.0000E+00  0.0000E+00  0.0000E+00  0.0000E+00  0.0000E+00  0.0000E+00  0.0000E+00  0.0000E+00  0.0000E+00  0.0000E+00  0.0000E+00  0.0000E+00  0.0000E+00  0.0000E+00
    -15.528  0.0000E+00  0.0000E+00  0.0000E+00  0.0000E+00  0.0000E+00  0.0000E+00  0.0000E+00  0.0000E+00  0.0000E+00  0.0000E+00  0.0000E+00  0.0000E+00  0.0000E+00  0.0000E+00  0.0000E+00  0.0000E+00  0.0000E+00  0.0000E+00
    -15.409 -0.2734E-33 -0.1525E-33 -0.7890E-47 -0.6119E-49 -0.1610E-43 -0.8484E-44 -0.2510E-46 -0.2182E-48  0.0000E+00  0.0000E+00  0.0000E+00  0.0000E+00  0.0000E+00  0.0000E+00  0.0000E+00  0.0000E+00  0.0000E+00  0.0000E+00
    -15.291 -0.4028E-18 -0.2645E-18 -0.1163E-31 -0.1061E-33 -0.1226E-26 -0.7599E-27 -0.3698E-31 -0.3783E-33  0.0000E+00  0.0000E+00  0.0000E+00  0.0000E+00  0.0000E+00  0.0000E+00  0.0000E+00  0.0000E+00  0.0000E+00  0.0000E+00
    -15.172 -0.6268E-08 -0.4856E-08 -0.1808E-21 -0.1948E-23 -0.1043E-14 -0.7621E-15 -0.5752E-21 -0.6938E-23  0.0000E+00  0.0000E+00  0.0000E+00  0.0000E+00  0.0000E+00  0.0000E+00  0.0000E+00  0.0000E+00  0.0000E+00  0.0000E+00
    -15.054 -0.6698E-03 -0.6245E-03 -0.1862E-16 -0.2474E-18 -0.7917E-08 -0.6878E-08 -0.5885E-16 -0.8199E-18  0.0000E+00  0.0000E+00  0.0000E+00  0.0000E+00  0.0000E+00  0.0000E+00  0.0000E+00  0.0000E+00  0.0000E+00  0.0000E+00
    -14.935  0.4373E-01  0.4235E-01  0.1102E-14  0.1628E-16  0.1741E-05  0.1648E-05  0.3426E-14  0.4278E-16  0.0000E+00  0.0000E+00  0.0000E+00  0.0000E+00  0.0000E+00  0.0000E+00  0.0000E+00  0.0000E+00  0.0000E+00  0.0000E+00
    -14.817  0.5228E-01  0.5265E-01  0.1130E-14  0.1301E-16  0.7167E-05  0.7089E-05  0.3217E-14  0.2754E-16  0.0000E+00  0.0000E+00  0.0000E+00  0.0000E+00  0.0000E+00  0.0000E+00  0.0000E+00  0.0000E+00  0.0000E+00  0.0000E+00
    -14.698  0.5319E-01  0.5292E-01  0.1592E-14  0.1015E-16  0.5213E-05  0.5321E-05  0.4781E-14  0.5623E-16  0.0000E+00  0.0000E+00  0.0000E+00  0.0000E+00  0.0000E+00  0.0000E+00  0.0000E+00  0.0000E+00  0.0000E+00  0.0000E+00
    -14.580  0.2214E-01  0.2340E-01  0.7645E-15  0.7832E-17  0.4146E-06  0.4848E-06  0.2506E-14  0.3057E-16  0.0000E+00  0.0000E+00  0.0000E+00  0.0000E+00  0.0000E+00  0.0000E+00  0.0000E+00  0.0000E+00  0.0000E+00  0.0000E+00
    -14.461 -0.1883E-03 -0.2101E-03 -0.6631E-17 -0.7843E-19 -0.5841E-09 -0.7027E-09 -0.2209E-16 -0.2803E-18  0.0000E+00  0.0000E+00  0.0000E+00  0.0000E+00  0.0000E+00  0.0000E+00  0.0000E+00  0.0000E+00  0.0000E+00  0.0000E+00
    -14.342 -0.1457E-09 -0.1941E-09 -0.5150E-23 -0.7385E-25 -0.4157E-17 -0.5923E-17 -0.1721E-22 -0.2598E-24  0.0000E+00  0.0000E+00  0.0000E+00  0.0000E+00  0.0000E+00  0.0000E+00  0.0000E+00  0.0000E+00  0.0000E+00  0.0000E+00
    -14.224  0.0000E+00  0.0000E+00  0.0000E+00  0.0000E+00  0.0000E+00  0.0000E+00  0.0000E+00  0.0000E+00  0.0000E+00  0.0000E+00  0.0000E+00  0.0000E+00  0.0000E+00  0.0000E+00  0.0000E+00  0.0000E+00  0.0000E+00  0.0000E+00
    -14.105  0.0000E+00  0.0000E+00  0.0000E+00  0.0000E+00  0.0000E+00  0.0000E+00  0.0000E+00  0.0000E+00  0.0000E+00  0.0000E+00  0.0000E+00  0.0000E+00  0.0000E+00  0.0000E+00  0.0000E+00  0.0000E+00  0.0000E+00  0.0000E+00
    -13.987 -0.1582E-42 -0.8318E-43 -0.4072E-44 -0.2141E-44 -0.4870E-56 -0.6984E-58 -0.1222E-43 -0.6423E-44  0.0000E+00  0.0000E+00  0.0000E+00  0.0000E+00  0.0000E+00  0.0000E+00  0.0000E+00  0.0000E+00  0.0000E+00  0.0000E+00
    -13.868 -0.9181E-25 -0.5640E-25 -0.2363E-26 -0.1452E-26 -0.8635E-34 -0.5053E-34 -0.7088E-26 -0.4355E-26  0.0000E+00  0.0000E+00  0.0000E+00  0.0000E+00  0.0000E+00  0.0000E+00  0.0000E+00  0.0000E+00  0.0000E+00  0.0000E+00
    -13.750 -0.6076E-12 -0.4369E-12 -0.1563E-13 -0.1125E-13 -0.2192E-19 -0.1561E-19 -0.4690E-13 -0.3374E-13  0.0000E+00  0.0000E+00  0.0000E+00  0.0000E+00  0.0000E+00  0.0000E+00  0.0000E+00  0.0000E+00  0.0000E+00  0.0000E+00
    -13.631 -0.4017E-04 -0.3397E-04 -0.1034E-05 -0.8744E-06 -0.6129E-10 -0.4923E-10 -0.3102E-05 -0.2623E-05  0.0000E+00  0.0000E+00  0.0000E+00  0.0000E+00  0.0000E+00  0.0000E+00  0.0000E+00  0.0000E+00  0.0000E+00  0.0000E+00
    -13.513  0.1492E-01  0.1232E-01  0.3838E-03  0.3170E-03 -0.5576E-06 -0.5687E-06  0.1152E-02  0.9511E-03  0.0000E+00  0.0000E+00  0.0000E+00  0.0000E+00  0.0000E+00  0.0000E+00  0.0000E+00  0.0000E+00  0.0000E+00  0.0000E+00
    -13.394  0.3566E+00  0.3565E+00  0.9178E-02  0.9177E-02  0.1890E-04  0.1853E-04  0.2753E-01  0.2753E-01  0.0000E+00  0.0000E+00  0.0000E+00  0.0000E+00  0.0000E+00  0.0000E+00  0.0000E+00  0.0000E+00  0.0000E+00  0.0000E+00
    -13.276  0.2822E+00  0.2794E+00  0.7284E-02  0.7212E-02  0.3785E-04  0.3792E-04  0.2185E-01  0.2164E-01  0.0000E+00  0.0000E+00  0.0000E+00  0.0000E+00  0.0000E+00  0.0000E+00  0.0000E+00  0.0000E+00  0.0000E+00  0.0000E+00
    -13.157  0.2990E+00  0.3047E+00  0.7727E-02  0.7875E-02  0.1277E-04  0.1319E-04  0.2318E-01  0.2362E-01  0.0000E+00  0.0000E+00  0.0000E+00  0.0000E+00  0.0000E+00  0.0000E+00  0.0000E+00  0.0000E+00  0.0000E+00  0.0000E+00
    -13.039 -0.5650E-02 -0.5829E-02 -0.1460E-03 -0.1507E-03 -0.1071E-06 -0.1200E-06 -0.4380E-03 -0.4520E-03  0.0000E+00  0.0000E+00  0.0000E+00  0.0000E+00  0.0000E+00  0.0000E+00  0.0000E+00  0.0000E+00  0.0000E+00  0.0000E+00
    -12.920 -0.2270E-06 -0.2843E-06 -0.5865E-08 -0.7348E-08 -0.4857E-13 -0.6453E-13 -0.1760E-07 -0.2205E-07  0.0000E+00  0.0000E+00  0.0000E+00  0.0000E+00  0.0000E+00  0.0000E+00  0.0000E+00  0.0000E+00  0.0000E+00  0.0000E+00
    -12.802  0.0000E+00  0.0000E+00  0.0000E+00  0.0000E+00  0.0000E+00  0.0000E+00  0.0000E+00  0.0000E+00  0.0000E+00  0.0000E+00  0.0000E+00  0.0000E+00  0.0000E+00  0.0000E+00  0.0000E+00  0.0000E+00  0.0000E+00  0.0000E+00
    -12.683  0.0000E+00  0.0000E+00  0.0000E+00  0.0000E+00  0.0000E+00  0.0000E+00  0.0000E+00  0.0000E+00  0.0000E+00  0.0000E+00  0.0000E+00  0.0000E+00  0.0000E+00  0.0000E+00  0.0000E+00  0.0000E+00  0.0000E+00  0.0000E+00
    -12.565  0.0000E+00  0.0000E+00  0.0000E+00  0.0000E+00  0.0000E+00  0.0000E+00  0.0000E+00  0.0000E+00  0.0000E+00  0.0000E+00  0.0000E+00  0.0000E+00  0.0000E+00  0.0000E+00  0.0000E+00  0.0000E+00  0.0000E+00  0.0000E+00
    -12.446  0.0000E+00  0.0000E+00  0.0000E+00  0.0000E+00  0.0000E+00  0.0000E+00  0.0000E+00  0.0000E+00  0.0000E+00  0.0000E+00  0.0000E+00  0.0000E+00  0.0000E+00  0.0000E+00  0.0000E+00  0.0000E+00  0.0000E+00  0.0000E+00
    -12.328  0.0000E+00  0.0000E+00  0.0000E+00  0.0000E+00  0.0000E+00  0.0000E+00  0.0000E+00  0.0000E+00  0.0000E+00  0.0000E+00  0.0000E+00  0.0000E+00  0.0000E+00  0.0000E+00  0.0000E+00  0.0000E+00  0.0000E+00  0.0000E+00
    -12.209  0.0000E+00  0.0000E+00  0.0000E+00  0.0000E+00  0.0000E+00  0.0000E+00  0.0000E+00  0.0000E+00  0.0000E+00  0.0000E+00  0.0000E+00  0.0000E+00  0.0000E+00  0.0000E+00  0.0000E+00  0.0000E+00  0.0000E+00  0.0000E+00
    -12.091  0.0000E+00  0.0000E+00  0.0000E+00  0.0000E+00  0.0000E+00  0.0000E+00  0.0000E+00  0.0000E+00  0.0000E+00  0.0000E+00  0.0000E+00  0.0000E+00  0.0000E+00  0.0000E+00  0.0000E+00  0.0000E+00  0.0000E+00  0.0000E+00
    -11.972  0.0000E+00  0.0000E+00  0.0000E+00  0.0000E+00  0.0000E+00  0.0000E+00  0.0000E+00  0.0000E+00  0.0000E+00  0.0000E+00  0.0000E+00  0.0000E+00  0.0000E+00  0.0000E+00  0.0000E+00  0.0000E+00  0.0000E+00  0.0000E+00
    -11.853  0.0000E+00  0.0000E+00  0.0000E+00  0.0000E+00  0.0000E+00  0.0000E+00  0.0000E+00  0.0000E+00  0.0000E+00  0.0000E+00  0.0000E+00  0.0000E+00  0.0000E+00  0.0000E+00  0.0000E+00  0.0000E+00  0.0000E+00  0.0000E+00
    -11.735  0.0000E+00  0.0000E+00  0.0000E+00  0.0000E+00  0.0000E+00  0.0000E+00  0.0000E+00  0.0000E+00  0.0000E+00  0.0000E+00  0.0000E+00  0.0000E+00  0.0000E+00  0.0000E+00  0.0000E+00  0.0000E+00  0.0000E+00  0.0000E+00
    -11.616  0.0000E+00  0.0000E+00  0.0000E+00  0.0000E+00  0.0000E+00  0.0000E+00  0.0000E+00  0.0000E+00  0.0000E+00  0.0000E+00  0.0000E+00  0.0000E+00  0.0000E+00  0.0000E+00  0.0000E+00  0.0000E+00  0.0000E+00  0.0000E+00
    -11.498  0.0000E+00  0.0000E+00  0.0000E+00  0.0000E+00  0.0000E+00  0.0000E+00  0.0000E+00  0.0000E+00  0.0000E+00  0.0000E+00  0.0000E+00  0.0000E+00  0.0000E+00  0.0000E+00  0.0000E+00  0.0000E+00  0.0000E+00  0.0000E+00
    -11.379  0.0000E+00  0.0000E+00  0.0000E+00  0.0000E+00  0.0000E+00  0.0000E+00  0.0000E+00  0.0000E+00  0.0000E+00  0.0000E+00  0.0000E+00  0.0000E+00  0.0000E+00  0.0000E+00  0.0000E+00  0.0000E+00  0.0000E+00  0.0000E+00
    -11.261  0.0000E+00  0.0000E+00  0.0000E+00  0.0000E+00  0.0000E+00  0.0000E+00  0.0000E+00  0.0000E+00  0.0000E+00  0.0000E+00  0.0000E+00  0.0000E+00  0.0000E+00  0.0000E+00  0.0000E+00  0.0000E+00  0.0000E+00  0.0000E+00
    -11.142 -0.3586E-45 -0.1962E-45 -0.8884E-46 -0.4862E-46 -0.1118E-57 -0.1189E-57 -0.3104E-46 -0.1699E-46  0.0000E+00  0.0000E+00  0.0000E+00  0.0000E+00  0.0000E+00  0.0000E+00  0.0000E+00  0.0000E+00  0.0000E+00  0.0000E+00
    -11.024 -0.8632E-27 -0.5443E-27 -0.2139E-27 -0.1349E-27 -0.4573E-35 -0.2788E-35 -0.7471E-28 -0.4713E-28  0.0000E+00  0.0000E+00  0.0000E+00  0.0000E+00  0.0000E+00  0.0000E+00  0.0000E+00  0.0000E+00  0.0000E+00  0.0000E+00
    -10.905 -0.2403E-13 -0.1749E-13 -0.5955E-14 -0.4334E-14 -0.2371E-20 -0.1666E-20 -0.2080E-14 -0.1514E-14  0.0000E+00  0.0000E+00  0.0000E+00  0.0000E+00  0.0000E+00  0.0000E+00  0.0000E+00  0.0000E+00  0.0000E+00  0.0000E+00
    -10.787 -0.7113E-05 -0.5985E-05 -0.1762E-05 -0.1483E-05 -0.1269E-10 -0.1031E-10 -0.6156E-06 -0.5181E-06  0.0000E+00  0.0000E+00  0.0000E+00  0.0000E+00  0.0000E+00  0.0000E+00  0.0000E+00  0.0000E+00  0.0000E+00  0.0000E+00
    -10.668 -0.2607E-02 -0.3517E-02 -0.6359E-03 -0.8619E-03 -0.3096E-06 -0.3041E-06 -0.2223E-03 -0.3012E-03  0.0000E+00  0.0000E+00  0.0000E+00  0.0000E+00  0.0000E+00  0.0000E+00  0.0000E+00  0.0000E+00  0.0000E+00  0.0000E+00