    4    4    1    2
  0.8797333E+01  0.2461200E-09  0.2461200E-09  0.6707900E-09  0.5000000E-15
  1.000000000000000E-004
  CAR 
 unknown system                          
   16   12   14
 
  0.0000000E+00  0.0000000E+00  0.0000000E+00  0.1562500E-01
   1      -14.978216    -14.976516
   2      -14.678802    -14.677101
   3       -3.819713     -3.817088
   4       -1.861060     -1.857924
   5        1.736608      1.737112
   6        1.736619      1.737122
   7        1.741373      1.741873
   8        1.741384      1.741883
   9        8.985617      8.985915
  10       13.152755     13.154103
  11       13.152758     13.154105
  12       13.215906     13.217252
  13       13.215908     13.217254
  14       15.326040     15.326947
 
  0.2500000E+00 -0.1387779E-16  0.0000000E+00  0.9375000E-01
   1      -13.493393    -13.491758
   2      -13.219893    -13.218260
   3       -2.730413     -2.729424
   4       -2.627168     -2.626187
   5       -2.033372     -2.030722
   6       -0.317873     -0.317239
   7       -0.267374     -0.266744
   8       -0.205119     -0.201981
   9       10.794405     10.794729
  10       11.755774     11.758949
  11       12.407144     12.410588
  12       12.741696     12.743945
  13       13.029325     13.031576
  14       16.638764     16.640089
 
  0.5000000E+00 -0.2775558E-16  0.0000000E+00  0.4687500E-01
   1       -9.620802     -9.619406
   2       -9.510725     -9.509297
   3       -8.558824     -8.557418
   4       -8.476086     -8.474659
   5       -1.700436     -1.699756
   6       -1.643081     -1.642405
   7        1.948413      1.951139
   8        2.638477      2.641542
   9        6.255019      6.257919
  10        6.919605      6.922886
  11       11.977433     11.980058
  12       12.376451     12.379106
  13       16.028461     16.028657
  14       16.150839     16.151652
 
  0.2500000E+00  0.2500000E+00  0.0000000E+00  0.9375000E-01
   1      -10.633889    -10.632401
   2      -10.414807    -10.413327
   3       -5.835127     -5.833965
   4       -5.758136     -5.756973
   5       -4.253428     -4.252314
   6       -4.194348     -4.193235
   7        1.298777      1.301498
   8        2.742488      2.745638
   9        7.276997      7.279986
  10        7.883848      7.887008
  11       14.339622     14.340017
  12       16.666910     16.668871
  13       16.679483     16.679618
  14       16.898773     16.900653
 
  0.0000000E+00  0.0000000E+00  0.2500000E+00  0.3125000E-01
   1      -14.936945    -14.935244
   2      -14.725284    -14.723582
   3       -3.572811     -3.570140
   4       -2.204605     -2.201591
   5        1.725404      1.725905
   6        1.725416      1.725915
   7        1.734231      1.734731
   8        1.734243      1.734741
   9        9.731899      9.732338
  10       13.151006     13.152352
  11       13.151009     13.152355
  12       13.182424     13.183767
  13       13.182427     13.183770
  14       13.990019     13.990922
 
  0.2500000E+00 -0.1387779E-16  0.2500000E+00  0.1875000E+00
   1      -13.455344    -13.453710
   2      -13.261940    -13.260307
   3       -2.715688     -2.714700
   4       -2.648232     -2.647252
   5       -1.799902     -1.797206
   6       -0.516583     -0.513555
   7       -0.306727     -0.306094
   8       -0.273954     -0.273324
   9       11.406431     11.407312
  10       11.900184     11.902983
  11       12.269111     12.272456
  12       12.779722     12.781959
  13       13.031881     13.034162
  14       15.511513     15.512659
 
  0.5000000E+00 -0.2775558E-16  0.2500000E+00  0.9375000E-01
   1       -9.603113     -9.601714
   2       -9.524117     -9.522695
   3       -8.551297     -8.549886
   4       -8.492727     -8.491302
   5       -1.687212     -1.686532
   6       -1.651509     -1.650833
   7        2.077661      2.080436
   8        2.580821      2.583846
   9        6.246415      6.249304
  10        6.733533      6.736701
  11       12.032773     12.035401
  12       12.315581     12.318229
  13       16.555563     16.556653
  14       16.590235     16.590624
 
  0.2500000E+00  0.2500000E+00  0.2500000E+00  0.1875000E+00
   1      -10.603711    -10.602224
   2      -10.448804    -10.447322
   3       -5.824079     -5.822918
   4       -5.769697     -5.768535
   5       -4.247573     -4.246460
   6       -4.205171     -4.204058
   7        1.485174      1.487937
   8        2.511465      2.514527
   9        7.359939      7.362952
  10        7.791206      7.794338
  11       14.661678     14.662453
  12       15.983428     15.985471
  13       16.945485     16.947309
  14       17.089001     17.092050
 
  0.0000000E+00  0.0000000E+00  0.5000000E+00  0.1562500E-01
   1      -14.833614    -14.831912
   2      -14.833612    -14.831910
   3       -2.940903     -2.938097
   4       -2.940903     -2.938097
   5        1.728073      1.728573
   6        1.728075      1.728575
   7        1.728084      1.728583
   8        1.728086      1.728585
   9       11.632925     11.633621
  10       11.632926     11.633622
  11       13.162321     13.163664
  12       13.162323     13.163667
  13       13.162324     13.163667
  14       13.162326     13.163669
 
  0.2500000E+00 -0.1387779E-16  0.5000000E+00  0.9375000E-01
   1      -13.360524    -13.358889
   2      -13.360522    -13.358887
   3       -2.683166     -2.682183
   4       -2.683164     -2.682181
   5       -1.202396     -1.199566
   6       -1.202395     -1.199565
   7       -0.295128     -0.294498
   8       -0.295126     -0.294496
   9       11.974519     11.977644
  10       11.974519     11.977645
  11       12.780378     12.782351
  12       12.780380     12.782352
  13       13.503602     13.504832
  14       13.503603     13.504833
 
  0.5000000E+00 -0.2775558E-16  0.5000000E+00  0.4687500E-01
   1       -9.561006     -9.559597
   2       -9.561004     -9.559595
   3       -8.528321     -8.526903
   4       -8.528319     -8.526901
   5       -1.667072     -1.666393
   6       -1.667070     -1.666391
   7        2.358409      2.361312
   8        2.358409      2.361313
   9        6.392946      6.395919
  10        6.392947      6.395920
  11       12.169760     12.172396
  12       12.169762     12.172398
  13       17.345237     17.346729
  14       17.345238     17.346729
 
  0.2500000E+00  0.2500000E+00  0.5000000E+00  0.9375000E-01
   1      -10.527654    -10.526170
   2      -10.527652    -10.526168
   3       -5.795266     -5.794104
   4       -5.795264     -5.794102
   5       -4.227373     -4.226259
   6       -4.227371     -4.226257
   7        1.973936      1.976826
   8        1.973936      1.976827
   9        7.577755      7.580826
  10        7.577755      7.580826
  11       15.281233     15.282777
  12       15.281233     15.282777
  13       17.246682     17.249406
  14       17.246713     17.249521
