       N       E                     dE             d eps       ncg     rms          rms(c)
DAV:   1     0.209087888232E+02    0.20909E+02   -0.66565E+03   680   0.767E+02
DAV:   2    -0.353508217458E+02   -0.56260E+02   -0.50670E+02   918   0.169E+02
DAV:   3    -0.376300230992E+02   -0.22792E+01   -0.22682E+01   876   0.323E+01
DAV:   4    -0.376509573702E+02   -0.20934E-01   -0.20925E-01   824   0.353E+00
DAV:   5    -0.376513608269E+02   -0.40346E-03   -0.40340E-03   878   0.470E-01    0.123E+01
DAV:   6    -0.369082172015E+02    0.74314E+00   -0.21169E+00   768   0.937E+00    0.479E+00
DAV:   7    -0.370098269887E+02   -0.10161E+00   -0.14113E+00   756   0.749E+00    0.190E+00
DAV:   8    -0.369537076829E+02    0.56119E-01   -0.25745E-01   792   0.364E+00    0.669E-01
DAV:   9    -0.369654982066E+02   -0.11791E-01   -0.19553E-02   750   0.120E+00    0.329E-01
DAV:  10    -0.369659157577E+02   -0.41755E-03   -0.16187E-03   834   0.413E-01    0.125E-01
DAV:  11    -0.369661424491E+02   -0.22669E-03   -0.54141E-04   756   0.206E-01    0.492E-02
DAV:  12    -0.369661735822E+02   -0.31133E-04   -0.93985E-05   576   0.840E-02
   1 F= -.36966174E+02 E0= -.36966265E+02  d E =0.274305E-03  mag=     0.0006
