PROCAR lm decomposed
# of k-points:   12         # of bands:  14         # of ions:   4

 k-point    1 :    0.00000000 0.00000000 0.00000000     weight = 0.01562500

band   1 # energy  -14.97821567 # occ.  1.00000000
 
ion      s     py     pz     px    dxy    dyz    dz2    dxz    dx2    tot
  1  0.159  0.000  0.000  0.000  0.000  0.000  0.000  0.000  0.000  0.159
  2  0.159  0.000  0.000  0.000  0.000  0.000  0.000  0.000  0.000  0.159
  3  0.159  0.000  0.000  0.000  0.000  0.000  0.000  0.000  0.000  0.159
  4  0.159  0.000  0.000  0.000  0.000  0.000  0.000  0.000  0.000  0.159
tot  0.635  0.000  0.000  0.000  0.000  0.000  0.000  0.000  0.000  0.635
 
band   2 # energy  -14.67880213 # occ.  1.00000000
 
ion      s     py     pz     px    dxy    dyz    dz2    dxz    dx2    tot
  1  0.165  0.000  0.000  0.000  0.000  0.000  0.000  0.000  0.000  0.165
  2  0.165  0.000  0.000  0.000  0.000  0.000  0.000  0.000  0.000  0.165
  3  0.165  0.000  0.000  0.000  0.000  0.000  0.000  0.000  0.000  0.165
  4  0.165  0.000  0.000  0.000  0.000  0.000  0.000  0.000  0.000  0.165
tot  0.659  0.000  0.000  0.000  0.000  0.000  0.000  0.000  0.000  0.659
 
band   3 # energy   -3.81971267 # occ.  1.00000000
 
ion      s     py     pz     px    dxy    dyz    dz2    dxz    dx2    tot
  1  0.000  0.000  0.096  0.000  0.000  0.000  0.000  0.000  0.000  0.096
  2  0.000  0.000  0.097  0.000  0.000  0.000  0.000  0.000  0.000  0.097
  3  0.000  0.000  0.097  0.000  0.000  0.000  0.000  0.000  0.000  0.097
  4  0.000  0.000  0.096  0.000  0.000  0.000  0.000  0.000  0.000  0.096
tot  0.000  0.000  0.387  0.000  0.000  0.000  0.000  0.000  0.000  0.387
 
band   4 # energy   -1.86105952 # occ.  1.00000000
 
ion      s     py     pz     px    dxy    dyz    dz2    dxz    dx2    tot
  1  0.000  0.000  0.127  0.000  0.000  0.000  0.000  0.000  0.000  0.127
  2  0.000  0.000  0.126  0.000  0.000  0.000  0.000  0.000  0.000  0.126
  3  0.000  0.000  0.126  0.000  0.000  0.000  0.000  0.000  0.000  0.126
  4  0.000  0.000  0.127  0.000  0.000  0.000  0.000  0.000  0.000  0.127
tot  0.000  0.000  0.506  0.000  0.000  0.000  0.000  0.000  0.000  0.506
 
band   5 # energy    1.73660845 # occ.  1.00000000
 
ion      s     py     pz     px    dxy    dyz    dz2    dxz    dx2    tot
  1  0.000  0.052  0.000  0.156  0.000  0.000  0.000  0.000  0.000  0.207
  2  0.000  0.052  0.000  0.156  0.000  0.000  0.000  0.000  0.000  0.208
  3  0.000  0.052  0.000  0.156  0.000  0.000  0.000  0.000  0.000  0.208
  4  0.000  0.052  0.000  0.155  0.000  0.000  0.000  0.000  0.000  0.207
tot  0.000  0.208  0.000  0.623  0.000  0.000  0.000  0.000  0.000  0.831
 
band   6 # energy    1.73661930 # occ.  1.00000000
 
ion      s     py     pz     px    dxy    dyz    dz2    dxz    dx2    tot
  1  0.000  0.156  0.000  0.052  0.000  0.000  0.000  0.000  0.000  0.207
  2  0.000  0.156  0.000  0.052  0.000  0.000  0.000  0.000  0.000  0.208
  3  0.000  0.156  0.000  0.052  0.000  0.000  0.000  0.000  0.000  0.208
  4  0.000  0.155  0.000  0.052  0.000  0.000  0.000  0.000  0.000  0.207
tot  0.000  0.623  0.000  0.208  0.000  0.000  0.000  0.000  0.000  0.831
 
band   7 # energy    1.74137265 # occ.  1.00000000
 
ion      s     py     pz     px    dxy    dyz    dz2    dxz    dx2    tot
  1  0.000  0.052  0.000  0.156  0.000  0.000  0.000  0.000  0.000  0.208
  2  0.000  0.052  0.000  0.156  0.000  0.000  0.000  0.000  0.000  0.208
  3  0.000  0.052  0.000  0.156  0.000  0.000  0.000  0.000  0.000  0.208
  4  0.000  0.052  0.000  0.156  0.000  0.000  0.000  0.000  0.000  0.208
tot  0.000  0.208  0.000  0.623  0.000  0.000  0.000  0.000  0.000  0.831
 
band   8 # energy    1.74138394 # occ.  1.00000000
 
ion      s     py     pz     px    dxy    dyz    dz2    dxz    dx2    tot
  1  0.000  0.156  0.000  0.052  0.000  0.000  0.000  0.000  0.000  0.208
  2  0.000  0.156  0.000  0.052  0.000  0.000  0.000  0.000  0.000  0.208
  3  0.000  0.156  0.000  0.052  0.000  0.000  0.000  0.000  0.000  0.208
  4  0.000  0.156  0.000  0.052  0.000  0.000  0.000  0.000  0.000  0.208
tot  0.000  0.623  0.000  0.208  0.000  0.000  0.000  0.000  0.000  0.831
 
band   9 # energy    8.98561672 # occ.  0.00000000
 
ion      s     py     pz     px    dxy    dyz    dz2    dxz    dx2    tot
  1  0.021  0.000  0.000  0.000  0.000  0.000  0.000  0.000  0.000  0.021
  2  0.020  0.000  0.000  0.000  0.000  0.000  0.000  0.000  0.000  0.020
  3  0.020  0.000  0.000  0.000  0.000  0.000  0.000  0.000  0.000  0.020
  4  0.021  0.000  0.000  0.000  0.000  0.000  0.000  0.000  0.000  0.021
tot  0.082  0.000  0.000  0.000  0.000  0.000  0.000  0.000  0.000  0.082
 
band  10 # energy   13.15275456 # occ.  0.00000000
 
ion      s     py     pz     px    dxy    dyz    dz2    dxz    dx2    tot
  1  0.000  0.033  0.000  0.098  0.000  0.000  0.000  0.000  0.000  0.131
  2  0.000  0.033  0.000  0.099  0.000  0.000  0.000  0.000  0.000  0.132
  3  0.000  0.033  0.000  0.099  0.000  0.000  0.000  0.000  0.000  0.132
  4  0.000  0.033  0.000  0.098  0.000  0.000  0.000  0.000  0.000  0.131
tot  0.000  0.132  0.000  0.394  0.000  0.000  0.000  0.000  0.000  0.526
 
band  11 # energy   13.15275766 # occ.  0.00000000
 
ion      s     py     pz     px    dxy    dyz    dz2    dxz    dx2    tot
  1  0.000  0.098  0.000  0.033  0.000  0.000  0.000  0.000  0.000  0.131
  2  0.000  0.099  0.000  0.033  0.000  0.000  0.000  0.000  0.000  0.132
  3  0.000  0.099  0.000  0.033  0.000  0.000  0.000  0.000  0.000  0.132
  4  0.000  0.098  0.000  0.033  0.000  0.000  0.000  0.000  0.000  0.131
tot  0.000  0.394  0.000  0.132  0.000  0.000  0.000  0.000  0.000  0.526
 
band  12 # energy   13.21590587 # occ.  0.00000000
 
ion      s     py     pz     px    dxy    dyz    dz2    dxz    dx2    tot
  1  0.000  0.033  0.000  0.100  0.000  0.000  0.000  0.000  0.000  0.134
  2  0.000  0.033  0.000  0.098  0.000  0.000  0.000  0.000  0.000  0.131
  3  0.000  0.033  0.000  0.098  0.000  0.000  0.000  0.000  0.000  0.131
  4  0.000  0.033  0.000  0.100  0.000  0.000  0.000  0.000  0.000  0.134
tot  0.000  0.132  0.000  0.397  0.000  0.000  0.000  0.000  0.000  0.530
 
band  13 # energy   13.21590845 # occ.  0.00000000
 
ion      s     py     pz     px    dxy    dyz    dz2    dxz    dx2    tot
  1  0.000  0.100  0.000  0.033  0.000  0.000  0.000  0.000  0.000  0.134
  2  0.000  0.098  0.000  0.033  0.000  0.000  0.000  0.000  0.000  0.131
  3  0.000  0.098  0.000  0.033  0.000  0.000  0.000  0.000  0.000  0.131
  4  0.000  0.100  0.000  0.033  0.000  0.000  0.000  0.000  0.000  0.134
tot  0.000  0.397  0.000  0.132  0.000  0.000  0.000  0.000  0.000  0.530
 
band  14 # energy   15.32604026 # occ.  0.00000000
 
ion      s     py     pz     px    dxy    dyz    dz2    dxz    dx2    tot
  1  0.000  0.000  0.064  0.000  0.000  0.000  0.000  0.000  0.000  0.064
  2  0.000  0.000  0.089  0.000  0.000  0.000  0.000  0.000  0.000  0.089
  3  0.000  0.000  0.092  0.000  0.000  0.000  0.000  0.000  0.000  0.092
  4  0.000  0.000  0.061  0.000  0.000  0.000  0.000  0.000  0.000  0.061
tot  0.000  0.000  0.306  0.000  0.000  0.000  0.000  0.000  0.000  0.306
 

 k-point    2 :    0.25000000 0.00000000 0.00000000     weight = 0.09375000

band   1 # energy  -13.49339259 # occ.  1.00000000
 
ion      s     py     pz     px    dxy    dyz    dz2    dxz    dx2    tot
  1  0.147  0.004  0.000  0.011  0.000  0.000  0.000  0.000  0.000  0.163
  2  0.148  0.004  0.000  0.011  0.000  0.000  0.000  0.000  0.000  0.163
  3  0.148  0.004  0.000  0.011  0.000  0.000  0.000  0.000  0.000  0.163
  4  0.147  0.004  0.000  0.011  0.000  0.000  0.000  0.000  0.000  0.163
tot  0.590  0.015  0.000  0.045  0.000  0.000  0.000  0.000  0.000  0.651
 
band   2 # energy  -13.21989252 # occ.  1.00000000
 
ion      s     py     pz     px    dxy    dyz    dz2    dxz    dx2    tot
  1  0.152  0.004  0.000  0.012  0.000  0.000  0.000  0.000  0.000  0.168
  2  0.152  0.004  0.000  0.012  0.000  0.000  0.000  0.000  0.000  0.168
  3  0.152  0.004  0.000  0.012  0.000  0.000  0.000  0.000  0.000  0.168
  4  0.152  0.004  0.000  0.012  0.000  0.000  0.000  0.000  0.000  0.168
tot  0.608  0.016  0.000  0.047  0.000  0.000  0.000  0.000  0.000  0.671
 
band   3 # energy   -2.73041314 # occ.  1.00000000
 
ion      s     py     pz     px    dxy    dyz    dz2    dxz    dx2    tot
  1  0.049  0.035  0.000  0.105  0.000  0.000  0.000  0.000  0.000  0.189
  2  0.049  0.035  0.000  0.105  0.000  0.000  0.000  0.000  0.000  0.190
  3  0.049  0.035  0.000  0.105  0.000  0.000  0.000  0.000  0.000  0.190
  4  0.049  0.035  0.000  0.105  0.000  0.000  0.000  0.000  0.000  0.189
tot  0.198  0.140  0.000  0.420  0.000  0.000  0.000  0.000  0.000  0.757
 
band   4 # energy   -2.62716779 # occ.  1.00000000
 
ion      s     py     pz     px    dxy    dyz    dz2    dxz    dx2    tot
  1  0.050  0.035  0.000  0.106  0.000  0.000  0.000  0.000  0.000  0.192
  2  0.050  0.035  0.000  0.106  0.000  0.000  0.000  0.000  0.000  0.192
  3  0.050  0.035  0.000  0.106  0.000  0.000  0.000  0.000  0.000  0.192
  4  0.050  0.035  0.000  0.106  0.000  0.000  0.000  0.000  0.000  0.192
tot  0.201  0.142  0.000  0.426  0.000  0.000  0.000  0.000  0.000  0.768
 
band   5 # energy   -2.03337153 # occ.  1.00000000
 
ion      s     py     pz     px    dxy    dyz    dz2    dxz    dx2    tot
  1  0.000  0.000  0.099  0.000  0.000  0.000  0.000  0.000  0.000  0.099
  2  0.000  0.000  0.101  0.000  0.000  0.000  0.000  0.000  0.000  0.101
  3  0.000  0.000  0.101  0.000  0.000  0.000  0.000  0.000  0.000  0.101
  4  0.000  0.000  0.099  0.000  0.000  0.000  0.000  0.000  0.000  0.099
tot  0.000  0.000  0.400  0.000  0.000  0.000  0.000  0.000  0.000  0.400
 
band   6 # energy   -0.31787281 # occ.  1.00000000
 
ion      s     py     pz     px    dxy    dyz    dz2    dxz    dx2    tot
  1  0.000  0.149  0.000  0.050  0.000  0.000  0.000  0.000  0.000  0.199
  2  0.000  0.149  0.000  0.050  0.000  0.000  0.000  0.000  0.000  0.199
  3  0.000  0.149  0.000  0.050  0.000  0.000  0.000  0.000  0.000  0.199
  4  0.000  0.149  0.000  0.050  0.000  0.000  0.000  0.000  0.000  0.199
tot  0.000  0.597  0.000  0.199  0.000  0.000  0.000  0.000  0.000  0.796
 
band   7 # energy   -0.26737402 # occ.  1.00000000
 
ion      s     py     pz     px    dxy    dyz    dz2    dxz    dx2    tot
  1  0.000  0.150  0.000  0.050  0.000  0.000  0.000  0.000  0.000  0.200
  2  0.000  0.150  0.000  0.050  0.000  0.000  0.000  0.000  0.000  0.200
  3  0.000  0.150  0.000  0.050  0.000  0.000  0.000  0.000  0.000  0.200
  4  0.000  0.150  0.000  0.050  0.000  0.000  0.000  0.000  0.000  0.200
tot  0.000  0.601  0.000  0.200  0.000  0.000  0.000  0.000  0.000  0.801
 
band   8 # energy   -0.20511937 # occ.  1.00000000
 
ion      s     py     pz     px    dxy    dyz    dz2    dxz    dx2    tot
  1  0.000  0.000  0.130  0.000  0.000  0.000  0.000  0.000  0.000  0.130
  2  0.000  0.000  0.129  0.000  0.000  0.000  0.000  0.000  0.000  0.129
  3  0.000  0.000  0.129  0.000  0.000  0.000  0.000  0.000  0.000  0.129
  4  0.000  0.000  0.130  0.000  0.000  0.000  0.000  0.000  0.000  0.130
tot  0.000  0.000  0.517  0.000  0.000  0.000  0.000  0.000  0.000  0.517
 
band   9 # energy   10.79440494 # occ.  0.00000000
 
ion      s     py     pz     px    dxy    dyz    dz2    dxz    dx2    tot
  1  0.014  0.002  0.000  0.007  0.000  0.000  0.000  0.000  0.000  0.023
  2  0.013  0.002  0.000  0.007  0.000  0.000  0.000  0.000  0.000  0.022
  3  0.013  0.002  0.000  0.007  0.000  0.000  0.000  0.000  0.000  0.022
  4  0.014  0.002  0.000  0.007  0.000  0.000  0.000  0.000  0.000  0.023
tot  0.053  0.009  0.000  0.028  0.000  0.000  0.000  0.000  0.000  0.090
 
band  10 # energy   11.75577392 # occ.  0.00000000
 
ion      s     py     pz     px    dxy    dyz    dz2    dxz    dx2    tot
  1  0.000  0.000  0.135  0.000  0.000  0.000  0.000  0.000  0.000  0.135
  2  0.000  0.000  0.156  0.000  0.000  0.000  0.000  0.000  0.000  0.156
  3  0.000  0.000  0.156  0.000  0.000  0.000  0.000  0.000  0.000  0.156
  4  0.000  0.000  0.135  0.000  0.000  0.000  0.000  0.000  0.000  0.135
tot  0.000  0.000  0.582  0.000  0.000  0.000  0.000  0.000  0.000  0.582
 
band  11 # energy   12.40714449 # occ.  0.00000000
 
ion      s     py     pz     px    dxy    dyz    dz2    dxz    dx2    tot
  1  0.000  0.000  0.171  0.000  0.000  0.000  0.000  0.000  0.000  0.171
  2  0.000  0.000  0.154  0.000  0.000  0.000  0.000  0.000  0.000  0.154
  3  0.000  0.000  0.154  0.000  0.000  0.000  0.000  0.000  0.000  0.154
  4  0.000  0.000  0.171  0.000  0.000  0.000  0.000  0.000  0.000  0.171
tot  0.000  0.000  0.650  0.000  0.000  0.000  0.000  0.000  0.000  0.650
 
band  12 # energy   12.74169647 # occ.  0.00000000
 
ion      s     py     pz     px    dxy    dyz    dz2    dxz    dx2    tot
  1  0.054  0.014  0.000  0.041  0.000  0.000  0.000  0.000  0.000  0.110
  2  0.062  0.014  0.000  0.043  0.000  0.000  0.000  0.000  0.000  0.119
  3  0.062  0.014  0.000  0.043  0.000  0.000  0.000  0.000  0.000  0.119
  4  0.054  0.014  0.000  0.041  0.000  0.000  0.000  0.000  0.000  0.110
tot  0.233  0.056  0.000  0.169  0.000  0.000  0.000  0.000  0.000  0.458
 
band  13 # energy   13.02932500 # occ.  0.00000000
 
ion      s     py     pz     px    dxy    dyz    dz2    dxz    dx2    tot
  1  0.066  0.014  0.000  0.042  0.000  0.000  0.000  0.000  0.000  0.123
  2  0.060  0.014  0.000  0.041  0.000  0.000  0.000  0.000  0.000  0.114
  3  0.060  0.014  0.000  0.041  0.000  0.000  0.000  0.000  0.000  0.114
  4  0.066  0.014  0.000  0.042  0.000  0.000  0.000  0.000  0.000  0.123
tot  0.252  0.055  0.000  0.166  0.000  0.000  0.000  0.000  0.000  0.474
 
band  14 # energy   16.63876378 # occ.  0.00000000
 
ion      s     py     pz     px    dxy    dyz    dz2    dxz    dx2    tot
  1  0.000  0.000  0.086  0.000  0.000  0.000  0.000  0.000  0.000  0.086
  2  0.000  0.000  0.071  0.000  0.000  0.000  0.000  0.000  0.000  0.071
  3  0.000  0.000  0.071  0.000  0.000  0.000  0.000  0.000  0.000  0.071
  4  0.000  0.000  0.086  0.000  0.000  0.000  0.000  0.000  0.000  0.086
tot  0.000  0.000  0.316  0.000  0.000  0.000  0.000  0.000  0.000  0.316
 

 k-point    3 :    0.50000000 0.00000000 0.00000000     weight = 0.04687500

band   1 # energy   -9.62080189 # occ.  1.00000000
 
ion      s     py     pz     px    dxy    dyz    dz2    dxz    dx2    tot
  1  0.134  0.010  0.000  0.030  0.000  0.000  0.000  0.000  0.000  0.174
  2  0.163  0.006  0.000  0.018  0.000  0.000  0.000  0.000  0.000  0.187
  3  0.163  0.006  0.000  0.018  0.000  0.000  0.000  0.000  0.000  0.187
  4  0.134  0.010  0.000  0.030  0.000  0.000  0.000  0.000  0.000  0.174
tot  0.594  0.032  0.000  0.096  0.000  0.000  0.000  0.000  0.000  0.722
 
band   2 # energy   -9.51072503 # occ.  1.00000000
 
ion      s     py     pz     px    dxy    dyz    dz2    dxz    dx2    tot
  1  0.167  0.006  0.000  0.017  0.000  0.000  0.000  0.000  0.000  0.190
  2  0.133  0.010  0.000  0.031  0.000  0.000  0.000  0.000  0.000  0.175
  3  0.133  0.010  0.000  0.031  0.000  0.000  0.000  0.000  0.000  0.175
  4  0.167  0.006  0.000  0.017  0.000  0.000  0.000  0.000  0.000  0.190
tot  0.600  0.033  0.000  0.098  0.000  0.000  0.000  0.000  0.000  0.731
 
band   3 # energy   -8.55882356 # occ.  1.00000000
 
ion      s     py     pz     px    dxy    dyz    dz2    dxz    dx2    tot
  1  0.050  0.027  0.000  0.081  0.000  0.000  0.000  0.000  0.000  0.159
  2  0.089  0.022  0.000  0.065  0.000  0.000  0.000  0.000  0.000  0.176
  3  0.089  0.022  0.000  0.065  0.000  0.000  0.000  0.000  0.000  0.176
  4  0.050  0.027  0.000  0.081  0.000  0.000  0.000  0.000  0.000  0.159
tot  0.278  0.098  0.000  0.293  0.000  0.000  0.000  0.000  0.000  0.669
 
band   4 # energy   -8.47608616 # occ.  1.00000000
 
ion      s     py     pz     px    dxy    dyz    dz2    dxz    dx2    tot
  1  0.087  0.022  0.000  0.067  0.000  0.000  0.000  0.000  0.000  0.177
  2  0.053  0.027  0.000  0.081  0.000  0.000  0.000  0.000  0.000  0.162
  3  0.053  0.027  0.000  0.081  0.000  0.000  0.000  0.000  0.000  0.162
  4  0.087  0.022  0.000  0.067  0.000  0.000  0.000  0.000  0.000  0.177
tot  0.281  0.099  0.000  0.297  0.000  0.000  0.000  0.000  0.000  0.677
 
band   5 # energy   -1.70043603 # occ.  1.00000000
 
ion      s     py     pz     px    dxy    dyz    dz2    dxz    dx2    tot
  1  0.000  0.148  0.000  0.049  0.000  0.000  0.000  0.000  0.000  0.197
  2  0.000  0.148  0.000  0.049  0.000  0.000  0.000  0.000  0.000  0.197
  3  0.000  0.148  0.000  0.049  0.000  0.000  0.000  0.000  0.000  0.197
  4  0.000  0.148  0.000  0.049  0.000  0.000  0.000  0.000  0.000  0.197
tot  0.000  0.591  0.000  0.197  0.000  0.000  0.000  0.000  0.000  0.788
 
band   6 # energy   -1.64308060 # occ.  1.00000000
 
ion      s     py     pz     px    dxy    dyz    dz2    dxz    dx2    tot
  1  0.000  0.149  0.000  0.050  0.000  0.000  0.000  0.000  0.000  0.198
  2  0.000  0.149  0.000  0.050  0.000  0.000  0.000  0.000  0.000  0.198
  3  0.000  0.149  0.000  0.050  0.000  0.000  0.000  0.000  0.000  0.198
  4  0.000  0.149  0.000  0.050  0.000  0.000  0.000  0.000  0.000  0.198
tot  0.000  0.595  0.000  0.198  0.000  0.000  0.000  0.000  0.000  0.793
 
band   7 # energy    1.94841333 # occ.  1.00000000
 
ion      s     py     pz     px    dxy    dyz    dz2    dxz    dx2    tot
  1  0.000  0.000  0.098  0.000  0.000  0.000  0.000  0.000  0.000  0.098
  2  0.000  0.000  0.143  0.000  0.000  0.000  0.000  0.000  0.000  0.143
  3  0.000  0.000  0.143  0.000  0.000  0.000  0.000  0.000  0.000  0.143
  4  0.000  0.000  0.098  0.000  0.000  0.000  0.000  0.000  0.000  0.098
tot  0.000  0.000  0.483  0.000  0.000  0.000  0.000  0.000  0.000  0.483
 
band   8 # energy    2.63847655 # occ.  1.00011973
 
ion      s     py     pz     px    dxy    dyz    dz2    dxz    dx2    tot
  1  0.000  0.000  0.163  0.000  0.000  0.000  0.000  0.000  0.000  0.163
  2  0.000  0.000  0.097  0.000  0.000  0.000  0.000  0.000  0.000  0.097
  3  0.000  0.000  0.097  0.000  0.000  0.000  0.000  0.000  0.000  0.097
  4  0.000  0.000  0.163  0.000  0.000  0.000  0.000  0.000  0.000  0.163
tot  0.000  0.000  0.521  0.000  0.000  0.000  0.000  0.000  0.000  0.521
 
band   9 # energy    6.25501950 # occ.  0.00000000
 
ion      s     py     pz     px    dxy    dyz    dz2    dxz    dx2    tot
  1  0.000  0.000  0.054  0.000  0.000  0.000  0.000  0.000  0.000  0.054
  2  0.000  0.000  0.170  0.000  0.000  0.000  0.000  0.000  0.000  0.170
  3  0.000  0.000  0.170  0.000  0.000  0.000  0.000  0.000  0.000  0.170
  4  0.000  0.000  0.054  0.000  0.000  0.000  0.000  0.000  0.000  0.054
tot  0.000  0.000  0.448  0.000  0.000  0.000  0.000  0.000  0.000  0.448
 
band  10 # energy    6.91960467 # occ.  0.00000000
 
ion      s     py     pz     px    dxy    dyz    dz2    dxz    dx2    tot
  1  0.000  0.000  0.174  0.000  0.000  0.000  0.000  0.000  0.000  0.174
  2  0.000  0.000  0.080  0.000  0.000  0.000  0.000  0.000  0.000  0.080
  3  0.000  0.000  0.080  0.000  0.000  0.000  0.000  0.000  0.000  0.080
  4  0.000  0.000  0.174  0.000  0.000  0.000  0.000  0.000  0.000  0.174
tot  0.000  0.000  0.509  0.000  0.000  0.000  0.000  0.000  0.000  0.509
 
band  11 # energy   11.97743310 # occ.  0.00000000
 
ion      s     py     pz     px    dxy    dyz    dz2    dxz    dx2    tot
  1  0.089  0.005  0.000  0.015  0.000  0.000  0.000  0.000  0.000  0.108
  2  0.088  0.005  0.000  0.015  0.000  0.000  0.000  0.000  0.000  0.108
  3  0.088  0.005  0.000  0.015  0.000  0.000  0.000  0.000  0.000  0.108
  4  0.089  0.005  0.000  0.015  0.000  0.000  0.000  0.000  0.000  0.108
tot  0.353  0.020  0.000  0.059  0.000  0.000  0.000  0.000  0.000  0.432
 
band  12 # energy   12.37645108 # occ.  0.00000000
 
ion      s     py     pz     px    dxy    dyz    dz2    dxz    dx2    tot
  1  0.094  0.005  0.000  0.015  0.000  0.000  0.000  0.000  0.000  0.114
  2  0.094  0.005  0.000  0.015  0.000  0.000  0.000  0.000  0.000  0.114
  3  0.094  0.005  0.000  0.015  0.000  0.000  0.000  0.000  0.000  0.114
  4  0.094  0.005  0.000  0.015  0.000  0.000  0.000  0.000  0.000  0.114
tot  0.375  0.020  0.000  0.061  0.000  0.000  0.000  0.000  0.000  0.456
 
band  13 # energy   16.02846127 # occ.  0.00000000
 
ion      s     py     pz     px    dxy    dyz    dz2    dxz    dx2    tot
  1  0.002  0.010  0.000  0.031  0.000  0.000  0.000  0.000  0.000  0.044
  2  0.010  0.001  0.000  0.002  0.000  0.000  0.000  0.000  0.000  0.012
  3  0.010  0.001  0.000  0.002  0.000  0.000  0.000  0.000  0.000  0.012
  4  0.002  0.010  0.000  0.031  0.000  0.000  0.000  0.000  0.000  0.044
tot  0.023  0.022  0.000  0.066  0.000  0.000  0.000  0.000  0.000  0.111
 
band  14 # energy   16.15083925 # occ.  0.00000000
 
ion      s     py     pz     px    dxy    dyz    dz2    dxz    dx2    tot
  1  0.007  0.001  0.000  0.003  0.000  0.000  0.000  0.000  0.000  0.011
  2  0.000  0.011  0.000  0.034  0.000  0.000  0.000  0.000  0.000  0.045
  3  0.000  0.011  0.000  0.034  0.000  0.000  0.000  0.000  0.000  0.045
  4  0.007  0.001  0.000  0.003  0.000  0.000  0.000  0.000  0.000  0.011
tot  0.014  0.025  0.000  0.074  0.000  0.000  0.000  0.000  0.000  0.113
 

 k-point    4 :    0.25000000 0.25000000 0.00000000     weight = 0.09375000

band   1 # energy  -10.63388878 # occ.  1.00000000
 
ion      s     py     pz     px    dxy    dyz    dz2    dxz    dx2    tot
  1  0.128  0.032  0.000  0.011  0.000  0.000  0.000  0.000  0.000  0.170
  2  0.129  0.031  0.000  0.011  0.000  0.000  0.000  0.000  0.000  0.171
  3  0.129  0.031  0.000  0.011  0.000  0.000  0.000  0.000  0.000  0.171
  4  0.128  0.032  0.000  0.011  0.000  0.000  0.000  0.000  0.000  0.170
tot  0.513  0.126  0.000  0.044  0.000  0.000  0.000  0.000  0.000  0.682
 
band   2 # energy  -10.41480748 # occ.  1.00000000
 
ion      s     py     pz     px    dxy    dyz    dz2    dxz    dx2    tot
  1  0.132  0.032  0.000  0.011  0.000  0.000  0.000  0.000  0.000  0.176
  2  0.132  0.032  0.000  0.011  0.000  0.000  0.000  0.000  0.000  0.175
  3  0.132  0.032  0.000  0.011  0.000  0.000  0.000  0.000  0.000  0.175
  4  0.132  0.032  0.000  0.011  0.000  0.000  0.000  0.000  0.000  0.176
tot  0.528  0.129  0.000  0.045  0.000  0.000  0.000  0.000  0.000  0.702
 
band   3 # energy   -5.83512660 # occ.  1.00000000
 
ion      s     py     pz     px    dxy    dyz    dz2    dxz    dx2    tot
  1  0.094  0.054  0.000  0.039  0.000  0.000  0.000  0.000  0.000  0.188
  2  0.097  0.058  0.000  0.036  0.000  0.000  0.000  0.000  0.000  0.191
  3  0.097  0.058  0.000  0.036  0.000  0.000  0.000  0.000  0.000  0.191
  4  0.094  0.054  0.000  0.039  0.000  0.000  0.000  0.000  0.000  0.188
tot  0.384  0.224  0.000  0.150  0.000  0.000  0.000  0.000  0.000  0.757
 
band   4 # energy   -5.75813649 # occ.  1.00000000
 
ion      s     py     pz     px    dxy    dyz    dz2    dxz    dx2    tot
  1  0.098  0.058  0.000  0.036  0.000  0.000  0.000  0.000  0.000  0.192
  2  0.095  0.055  0.000  0.040  0.000  0.000  0.000  0.000  0.000  0.189
  3  0.095  0.055  0.000  0.040  0.000  0.000  0.000  0.000  0.000  0.189
  4  0.098  0.058  0.000  0.036  0.000  0.000  0.000  0.000  0.000  0.192
tot  0.386  0.226  0.000  0.151  0.000  0.000  0.000  0.000  0.000  0.764
 
band   5 # energy   -4.25342753 # occ.  1.00000000
 
ion      s     py     pz     px    dxy    dyz    dz2    dxz    dx2    tot
  1  0.010  0.057  0.000  0.105  0.000  0.000  0.000  0.000  0.000  0.171
  2  0.015  0.061  0.000  0.100  0.000  0.000  0.000  0.000  0.000  0.175
  3  0.015  0.061  0.000  0.100  0.000  0.000  0.000  0.000  0.000  0.175
  4  0.010  0.057  0.000  0.105  0.000  0.000  0.000  0.000  0.000  0.171
tot  0.049  0.235  0.000  0.409  0.000  0.000  0.000  0.000  0.000  0.693
 
band   6 # energy   -4.19434754 # occ.  1.00000000
 
ion      s     py     pz     px    dxy    dyz    dz2    dxz    dx2    tot
  1  0.016  0.061  0.000  0.100  0.000  0.000  0.000  0.000  0.000  0.177
  2  0.010  0.057  0.000  0.106  0.000  0.000  0.000  0.000  0.000  0.173
  3  0.010  0.057  0.000  0.106  0.000  0.000  0.000  0.000  0.000  0.173
  4  0.016  0.061  0.000  0.100  0.000  0.000  0.000  0.000  0.000  0.177
tot  0.052  0.235  0.000  0.412  0.000  0.000  0.000  0.000  0.000  0.699
 
band   7 # energy    1.29877736 # occ.  1.00000000
 
ion      s     py     pz     px    dxy    dyz    dz2    dxz    dx2    tot
  1  0.000  0.000  0.106  0.000  0.000  0.000  0.000  0.000  0.000  0.106
  2  0.000  0.000  0.114  0.000  0.000  0.000  0.000  0.000  0.000  0.114
  3  0.000  0.000  0.114  0.000  0.000  0.000  0.000  0.000  0.000  0.114
  4  0.000  0.000  0.106  0.000  0.000  0.000  0.000  0.000  0.000  0.106
tot  0.000  0.000  0.441  0.000  0.000  0.000  0.000  0.000  0.000  0.441
 
band   8 # energy    2.74248817 # occ.  1.00681420
 
ion      s     py     pz     px    dxy    dyz    dz2    dxz    dx2    tot
  1  0.000  0.000  0.143  0.000  0.000  0.000  0.000  0.000  0.000  0.143
  2  0.000  0.000  0.130  0.000  0.000  0.000  0.000  0.000  0.000  0.130
  3  0.000  0.000  0.130  0.000  0.000  0.000  0.000  0.000  0.000  0.130
  4  0.000  0.000  0.143  0.000  0.000  0.000  0.000  0.000  0.000  0.143
tot  0.000  0.000  0.544  0.000  0.000  0.000  0.000  0.000  0.000  0.544
 
band   9 # energy    7.27699674 # occ.  0.00000000
 
ion      s     py     pz     px    dxy    dyz    dz2    dxz    dx2    tot
  1  0.000  0.000  0.136  0.000  0.000  0.000  0.000  0.000  0.000  0.136
  2  0.000  0.000  0.128  0.000  0.000  0.000  0.000  0.000  0.000  0.128
  3  0.000  0.000  0.128  0.000  0.000  0.000  0.000  0.000  0.000  0.128
  4  0.000  0.000  0.136  0.000  0.000  0.000  0.000  0.000  0.000  0.136
tot  0.000  0.000  0.528  0.000  0.000  0.000  0.000  0.000  0.000  0.528
 
band  10 # energy    7.88384794 # occ.  0.00000000
 
ion      s     py     pz     px    dxy    dyz    dz2    dxz    dx2    tot
  1  0.000  0.000  0.132  0.000  0.000  0.000  0.000  0.000  0.000  0.132
  2  0.000  0.000  0.154  0.000  0.000  0.000  0.000  0.000  0.000  0.154
  3  0.000  0.000  0.154  0.000  0.000  0.000  0.000  0.000  0.000  0.154
  4  0.000  0.000  0.132  0.000  0.000  0.000  0.000  0.000  0.000  0.132
tot  0.000  0.000  0.573  0.000  0.000  0.000  0.000  0.000  0.000  0.573
 
band  11 # energy   14.33962166 # occ.  0.00000000
 
ion      s     py     pz     px    dxy    dyz    dz2    dxz    dx2    tot
  1  0.006  0.016  0.000  0.007  0.000  0.000  0.000  0.000  0.000  0.028
  2  0.005  0.014  0.000  0.006  0.000  0.000  0.000  0.000  0.000  0.025
  3  0.005  0.014  0.000  0.006  0.000  0.000  0.000  0.000  0.000  0.025
  4  0.006  0.016  0.000  0.007  0.000  0.000  0.000  0.000  0.000  0.028
tot  0.023  0.059  0.000  0.025  0.000  0.000  0.000  0.000  0.000  0.107
 
band  12 # energy   16.66690993 # occ.  0.00000000
 
ion      s     py     pz     px    dxy    dyz    dz2    dxz    dx2    tot
  1  0.033  0.008  0.000  0.024  0.000  0.000  0.000  0.000  0.000  0.065
  2  0.003  0.049  0.000  0.091  0.000  0.000  0.000  0.000  0.000  0.143
  3  0.003  0.049  0.000  0.091  0.000  0.000  0.000  0.000  0.000  0.143
  4  0.033  0.008  0.000  0.024  0.000  0.000  0.000  0.000  0.000  0.065
tot  0.071  0.115  0.000  0.230  0.000  0.000  0.000  0.000  0.000  0.415
 
band  13 # energy   16.67948344 # occ.  0.00000000
 
ion      s     py     pz     px    dxy    dyz    dz2    dxz    dx2    tot
  1  0.000  0.000  0.064  0.000  0.000  0.000  0.000  0.000  0.000  0.064
  2  0.000  0.000  0.019  0.000  0.000  0.000  0.000  0.000  0.000  0.019
  3  0.000  0.000  0.019  0.000  0.000  0.000  0.000  0.000  0.000  0.019
  4  0.000  0.000  0.064  0.000  0.000  0.000  0.000  0.000  0.000  0.064
tot  0.000  0.000  0.165  0.000  0.000  0.000  0.000  0.000  0.000  0.166
 
band  14 # energy   16.89877299 # occ.  0.00000000
 
ion      s     py     pz     px    dxy    dyz    dz2    dxz    dx2    tot
  1  0.002  0.062  0.000  0.103  0.000  0.000  0.000  0.000  0.000  0.167
  2  0.059  0.006  0.000  0.002  0.000  0.000  0.000  0.000  0.000  0.067
  3  0.058  0.006  0.000  0.002  0.000  0.000  0.000  0.000  0.000  0.066
  4  0.002  0.062  0.000  0.103  0.000  0.000  0.000  0.000  0.000  0.167
tot  0.121  0.135  0.000  0.211  0.000  0.000  0.000  0.000  0.000  0.467
 

 k-point    5 :    0.00000000 0.00000000 0.25000000     weight = 0.03125000

band   1 # energy  -14.93694469 # occ.  1.00000000
 
ion      s     py     pz     px    dxy    dyz    dz2    dxz    dx2    tot
  1  0.160  0.000  0.000  0.000  0.000  0.000  0.000  0.000  0.000  0.160
  2  0.160  0.000  0.000  0.000  0.000  0.000  0.000  0.000  0.000  0.160
  3  0.160  0.000  0.000  0.000  0.000  0.000  0.000  0.000  0.000  0.160
  4  0.160  0.000  0.000  0.000  0.000  0.000  0.000  0.000  0.000  0.160
tot  0.639  0.000  0.000  0.000  0.000  0.000  0.000  0.000  0.000  0.639
 
band   2 # energy  -14.72528367 # occ.  1.00000000
 
ion      s     py     pz     px    dxy    dyz    dz2    dxz    dx2    tot
  1  0.164  0.000  0.000  0.000  0.000  0.000  0.000  0.000  0.000  0.164
  2  0.164  0.000  0.000  0.000  0.000  0.000  0.000  0.000  0.000  0.164
  3  0.164  0.000  0.000  0.000  0.000  0.000  0.000  0.000  0.000  0.164
  4  0.164  0.000  0.000  0.000  0.000  0.000  0.000  0.000  0.000  0.164
tot  0.655  0.000  0.000  0.000  0.000  0.000  0.000  0.000  0.000  0.655
 
band   3 # energy   -3.57281110 # occ.  1.00000000
 
ion      s     py     pz     px    dxy    dyz    dz2    dxz    dx2    tot
  1  0.000  0.000  0.099  0.000  0.000  0.000  0.000  0.000  0.000  0.100
  2  0.000  0.000  0.100  0.000  0.000  0.000  0.000  0.000  0.000  0.100
  3  0.000  0.000  0.100  0.000  0.000  0.000  0.000  0.000  0.000  0.100
  4  0.000  0.000  0.099  0.000  0.000  0.000  0.000  0.000  0.000  0.100
tot  0.001  0.000  0.398  0.000  0.000  0.000  0.000  0.000  0.000  0.399
 
band   4 # energy   -2.20460459 # occ.  1.00000000
 