<?xml version="1.0" encoding="ISO-8859-1"?>
<modeling>
 <generator>
  <i name="program" type="string">vasp </i>
  <i name="version" type="string">5.2.12  </i>
  <i name="subversion" type="string">11Nov11 complex                                                      parallel </i>
  <i name="platform" type="string">LinuxIFC </i>
  <i name="date" type="string">2012 10 17 </i>
  <i name="time" type="string">09:39:29 </i>
 </generator>
 <incar>
  <i type="string" name="PREC">accurate</i>
  <i type="int" name="ISPIN">     2</i>
  <i name="ENCUT">    350.00000000</i>
  <i type="logical" name="LREAL"> F  </i>
  <i type="int" name="ISMEAR">     1</i>
  <i name="SIGMA">      0.05000000</i>
  <i type="logical" name="LORBIT"> F  </i>
 </incar>
 <kpoints>
  <generation param="Gamma">
   <v type="int" name="divisions">       4        4        4 </v>
   <v name="usershift">      0.00000000       0.00000000       0.00000000 </v>
   <v name="genvec1">      0.25000000       0.00000000       0.00000000 </v>
   <v name="genvec2">      0.00000000       0.25000000       0.00000000 </v>
   <v name="genvec3">      0.00000000       0.00000000       0.25000000 </v>
   <v name="shift">      0.00000000       0.00000000       0.00000000 </v>
  </generation>
  <varray name="kpointlist" >
   <v>       0.00000000       0.00000000       0.00000000 </v>
   <v>       0.25000000       0.00000000       0.00000000 </v>
   <v>       0.50000000       0.00000000       0.00000000 </v>
   <v>       0.25000000       0.25000000       0.00000000 </v>
   <v>       0.00000000       0.00000000       0.25000000 </v>
   <v>       0.25000000       0.00000000       0.25000000 </v>
   <v>       0.50000000       0.00000000       0.25000000 </v>
   <v>       0.25000000       0.25000000       0.25000000 </v>
   <v>       0.00000000       0.00000000       0.50000000 </v>
   <v>       0.25000000       0.00000000       0.50000000 </v>
   <v>       0.50000000       0.00000000       0.50000000 </v>
   <v>       0.25000000       0.25000000       0.50000000 </v>
  </varray>
  <varray name="weights" >
   <v>       0.01562500 </v>
   <v>       0.09375000 </v>
   <v>       0.04687500 </v>
   <v>       0.09375000 </v>
   <v>       0.03125000 </v>
   <v>       0.18750000 </v>
   <v>       0.09375000 </v>
   <v>       0.18750000 </v>
   <v>       0.01562500 </v>
   <v>       0.09375000 </v>
   <v>       0.04687500 </v>
   <v>       0.09375000 </v>
  </varray>
 </kpoints>
 <parameters>
  <separator name="general" >
   <i type="string" name="SYSTEM">unknown system</i>
   <i type="logical" name="LCOMPAT"> F  </i>
  </separator>
  <separator name="electronic" >
   <i type="string" name="PREC">accura</i>
   <i name="ENMAX">    350.00000000</i>
   <i name="ENAUG">    644.87300000</i>
   <i name="EDIFF">      0.00010000</i>
   <i type="int" name="IALGO">    38</i>
   <i type="int" name="IWAVPR">    10</i>
   <i type="int" name="NBANDS">    14</i>
   <i name="NELECT">     16.00000000</i>
   <i type="int" name="TURBO">     0</i>
   <i type="int" name="IRESTART">     0</i>
   <i type="int" name="NREBOOT">     0</i>
   <i type="int" name="NMIN">     0</i>
   <i name="EREF">      0.00000000</i>
   <separator name="electronic smearing" >
    <i type="int" name="ISMEAR">     1</i>
    <i name="SIGMA">      0.05000000</i>
    <i name="KSPACING">      0.50000000</i>
    <i type="logical" name="KGAMMA"> T  </i>
   </separator>
   <separator name="electronic projectors" >
    <i type="logical" name="LREAL"> F  </i>
    <v name="ROPT">      0.00000000</v>
    <i type="int" name="LMAXPAW">  -100</i>
    <i type="int" name="LMAXMIX">     2</i>
    <i type="logical" name="NLSPLINE"> F  </i>
   </separator>
   <separator name="electronic startup" >
    <i type="int" name="ISTART">     0</i>
    <i type="int" name="ICHARG">     2</i>
    <i type="int" name="INIWAV">     1</i>
   </separator>
   <separator name="electronic spin" >
    <i type="int" name="ISPIN">     2</i>
    <i type="logical" name="LNONCOLLINEAR"> F  </i>
    <v name="MAGMOM">      1.00000000      1.00000000      1.00000000      1.00000000</v>
    <i name="NUPDOWN">     -1.00000000</i>
    <i type="logical" name="LSORBIT"> F  </i>
    <v name="SAXIS">      0.00000000      0.00000000      1.00000000</v>
    <i type="logical" name="LSPIRAL"> F  </i>
    <v name="QSPIRAL">      0.00000000      0.00000000      0.00000000</v>
    <i type="logical" name="LZEROZ"> F  </i>
   </separator>
   <separator name="electronic exchange-correlation" >
    <i type="logical" name="LASPH"> F  </i>
    <i type="logical" name="LMETAGGA"> F  </i>
   </separator>
   <separator name="electronic convergence" >
    <i type="int" name="NELM">    60</i>
    <i type="int" name="NELMDL">    -5</i>
    <i type="int" name="NELMIN">     2</i>
    <i name="ENINI">    350.00000000</i>
    <separator name="electronic convergence detail" >
     <i type="logical" name="LDIAG"> T  </i>
     <i type="logical" name="LSUBROT"> T  </i>
     <i name="WEIMIN">      0.00000000</i>
     <i name="EBREAK">      0.00000179</i>
     <i name="DEPER">      0.30000000</i>
     <i type="int" name="NRMM">     4</i>
     <i name="TIME">      0.40000000</i>
    </separator>
   </separator>
   <separator name="electronic mixer" >
    <i name="AMIX">      0.40000000</i>
    <i name="BMIX">      1.00000000</i>
    <i name="AMIN">      0.10000000</i>
    <i name="AMIX_MAG">      1.60000000</i>
    <i name="BMIX_MAG">      1.00000000</i>
    <separator name="electronic mixer details" >
     <i type="int" name="IMIX">     4</i>
     <i type="int" name="MAXMIX">   -45</i>
     <i name="WC">    100.00000000</i>
     <i type="int" name="INIMIX">     1</i>
     <i type="int" name="MIXPRE">     1</i>
     <i type="int" name="MREMOVE">     5</i>
    </separator>
   </separator>
   <separator name="electronic dipolcorrection" >
    <i type="logical" name="LDIPOL"> F  </i>
    <i type="logical" name="LMONO"> F  </i>
    <i type="int" name="IDIPOL">     0</i>
    <i name="EPSILON">      1.00000000</i>
    <v name="DIPOL">   -100.00000000   -100.00000000   -100.00000000</v>
    <i name="EFIELD">      0.00000000</i>
   </separator>
  </separator>
  <separator name="grids" >
   <i type="int" name="NGX">    16</i>
   <i type="int" name="NGY">    16</i>
   <i type="int" name="NGZ">    42</i>
   <i type="int" name="NGXF">    32</i>
   <i type="int" name="NGYF">    32</i>
   <i type="int" name="NGZF">    84</i>
   <i type="logical" name="ADDGRID"> F  </i>
  </separator>
  <separator name="ionic" >
   <i type="int" name="NSW">     0</i>
   <i type="int" name="IBRION">    -1</i>
   <i type="int" name="ISIF">     2</i>
   <i name="PSTRESS">      0.00000000</i>
   <i name="EDIFFG">      0.00100000</i>
   <i type="int" name="NFREE">     0</i>
   <i name="POTIM">      0.50000000</i>
   <i name="SMASS">     -3.00000000</i>
   <i name="SCALEE">      1.00000000</i>
  </separator>
  <separator name="ionic md" >
   <i name="TEBEG">      0.00010000</i>
   <i name="TEEND">      0.00010000</i>
   <i type="int" name="NBLOCK">     1</i>
   <i type="int" name="KBLOCK">     1</i>
   <i type="int" name="NPACO">   256</i>
   <i name="APACO">     16.00000000</i>
  </separator>
  <separator name="symmetry" >
   <i type="int" name="ISYM">     2</i>
   <i name="SYMPREC">      0.00001000</i>
  </separator>
  <separator name="dos" >
   <i type="logical" name="LORBIT"> F  </i>
   <v name="RWIGS">     -1.00000000</v>
   <i type="int" name="NEDOS">   301</i>
   <i name="EMIN">     10.00000000</i>
   <i name="EMAX">    -10.00000000</i>
   <i name="EFERMI">      0.00000000</i>
  </separator>
  <separator name="writing" >
   <i type="int" name="NWRITE">     2</i>
   <i type="logical" name="LWAVE"> T  </i>
   <i type="logical" name="LCHARG"> T  </i>
   <i type="logical" name="LPARD"> F  </i>
   <i type="logical" name="LVTOT"> F  </i>
   <i type="logical" name="LVHAR"> F  </i>
   <i type="logical" name="LELF"> F  </i>
   <i type="logical" name="LOPTICS"> F  </i>
   <v name="STM">      0.00000000      0.00000000      0.00000000      0.00000000      0.00000000      0.00000000      0.00000000</v>
  </separator>
  <separator name="performance" >
   <i type="int" name="NPAR">     1</i>
   <i type="int" name="NSIM">     4</i>
   <i type="int" name="NBLK">    -1</i>
   <i type="logical" name="LPLANE"> T  </i>
   <i type="logical" name="LSCALAPACK"> F  </i>
   <i type="logical" name="LSCAAWARE"> F  </i>
   <i type="logical" name="LSCALU"> F  </i>
   <i type="logical" name="LASYNC"> F  </i>
   <i type="logical" name="LORBITALREAL"> F  </i>
  </separator>
  <separator name="miscellaneous" >
   <i type="int" name="IDIOT">     3</i>
   <i type="logical" name="LMUSIC"> F  </i>
   <v name="POMASS">     12.01100000</v>
   <v name="DARWINR">      0.00000000</v>
   <v name="DARWINV">      1.00000000</v>
   <i type="logical" name="LCORR"> T  </i>
  </separator>
  <i type="logical" name="GGA_COMPAT"> T  </i>
  <i type="logical" name="LBERRY"> F  </i>
  <i type="int" name="ICORELEVEL">     0</i>
  <i type="logical" name="LDAU"> F  </i>
  <i type="int" name="I_CONSTRAINED_M">     0</i>
  <separator name="electronic exchange-correlation" >
   <i type="string" name="GGA">--</i>
   <i type="int" name="VOSKOWN">     0</i>
   <i type="logical" name="LHFCALC"> F  </i>
   <i type="string" name="PRECFOCK"></i>
   <i type="logical" name="LHFONE"> F  </i>
   <i type="logical" name="LRHFCALC"> F  </i>
   <i type="logical" name="LTHOMAS"> F  </i>
   <i type="logical" name="LMODELHF"> F  </i>
   <i name="ENCUT4O">     -1.00000000</i>
   <i type="int" name="EXXOEP">     0</i>
   <i type="int" name="FOURORBIT">     0</i>
   <i name="AEXX">      0.00000000</i>
   <i name="HFALPHA">      0.00000000</i>
   <i name="ALDAX">      1.00000000</i>
   <i name="AGGAX">      1.00000000</i>
   <i name="ALDAC">      1.00000000</i>
   <i name="AGGAC">      1.00000000</i>
   <i type="int" name="NKREDX">     1</i>
   <i type="int" name="NKREDY">     1</i>
   <i type="int" name="NKREDZ">     1</i>
   <i type="logical" name="SHIFTRED"> F  </i>
   <i type="logical" name="ODDONLY"> F  </i>
   <i type="logical" name="EVENONLY"> F  </i>
   <i type="int" name="LMAXFOCK">     0</i>
   <i type="int" name="NMAXFOCKAE">     0</i>
   <i type="logical" name="LFOCKAEDFT"> F  </i>
   <i name="HFSCREEN">      0.00000000</i>
   <i name="HFSCREENC">      0.00000000</i>
  </separator>
  <separator name="vdW DFT" >
   <i type="logical" name="LUSE_VDW"> F  </i>
   <i name="Zab_VDW">     -0.84910000</i>
   <i name="PARAM1">      0.12340000</i>
   <i name="PARAM2">      1.00000000</i>
   <i name="PARAM3">      0.00000000</i>
  </separator>
  <separator name="model GW" >
   <i type="int" name="MODEL_GW">     0</i>
   <i name="MODEL_EPS0">      5.27839982</i>
   <i name="MODEL_ALPHA">      1.00000000</i>
  </separator>
  <separator name="linear response parameters" >
   <i type="logical" name="LEPSILON"> F  </i>
   <i type="logical" name="LRPA"> F  </i>
   <i type="logical" name="LNABLA"> F  </i>
   <i type="logical" name="LVEL"> F  </i>
   <i type="int" name="KINTER">     0</i>
   <i name="CSHIFT">      0.10000000</i>
   <i name="OMEGAMAX">     -1.00000000</i>
  </separator>
  <separator name="orbital magnetization" >
   <i type="logical" name="NUCIND"> F  </i>
   <v name="MAGPOS">      0.00000000      0.00000000      0.00000000</v>
   <i type="logical" name="LNICSALL"> T  </i>
   <i type="logical" name="ORBITALMAG"> F  </i>
   <i type="logical" name="LMAGBLOCH"> F  </i>
   <i type="logical" name="LCHIMAG"> F  </i>
   <i type="logical" name="LGAUGE"> T  </i>
   <i type="int" name="MAGATOM">     0</i>
   <v name="MAGDIPOL">      0.00000000      0.00000000      0.00000000</v>
   <v name="AVECCONST">      0.00000000      0.00000000      0.00000000</v>
  </separator>
  <separator name="response functions" >
   <i type="logical" name="LADDER"> F  </i>
   <i type="logical" name="LHARTREE"> T  </i>
   <i type="int" name="IBSE">     0</i>
   <i type="logical" name="LTCTE"> F  </i>
   <i type="logical" name="LTETE"> F  </i>
   <i type="logical" name="LFXCEPS"> F  </i>
   <i type="logical" name="L2ORDER"> F  </i>
   <i type="logical" name="LUSEW"> F  </i>
   <i name="ENCUTGW">     -2.00000000</i>
   <i name="ENCUTGWSOFT">     -2.00000000</i>
   <i name="ENCUTLF">     -1.00000000</i>
   <i type="int" name="LMAXMP2">    -1</i>
   <i name="SCISSOR">      0.00000000</i>
   <i type="int" name="NOMEGA">     0</i>
   <i type="int" name="NOMEGAR">     0</i>
   <i type="int" name="NBANDSGW">    -1</i>
   <i type="int" name="NBANDSO">    -1</i>
   <i type="int" name="NBANDSV">    -1</i>
   <i name="OPTEMAX">      0.00000000</i>
   <i type="int" name="NELM">     1</i>
   <i type="int" name="DIM">     3</i>
   <i type="int" name="ANTIRES">     0</i>
   <i name="OMEGAMAX">    -30.00000000</i>
   <i name="OMEGATL">   -200.00000000</i>
   <i type="int" name="OMEGAGRID">     0</i>
   <i name="CSHIFT">     -0.10000000</i>
   <i type="logical" name="SELFENERGY"> F  </i>
   <i type="logical" name="LSPECTRAL"> F  </i>
   <i type="logical" name="ODDONLYGW"> F  </i>
   <i type="logical" name="EVENONLYGW"> F  </i>
   <i type="int" name="NKREDLFX">     1</i>
   <i type="int" name="NKREDLFY">     1</i>
   <i type="int" name="NKREDLFZ">     1</i>
   <i type="int" name="MAXMEM">  1800</i>
   <i type="int" name="TELESCOPE">     0</i>
  </separator>
 </parameters>
 <atominfo>
  <atoms>       4 </atoms>
  <types>       1 </types>
  <array name="atoms" >
   <dimension dim="1">ion</dimension>
   <field type="string">element</field>
   <field type="int">atomtype</field>
   <set>
    <rc><c>C </c><c>   1</c></rc>
    <rc><c>C </c><c>   1</c></rc>
    <rc><c>C </c><c>   1</c></rc>
    <rc><c>C </c><c>   1</c></rc>
   </set>
  </array>
  <array name="atomtypes" >
   <dimension dim="1">type</dimension>
   <field type="int">atomspertype</field>
   <field type="string">element</field>
   <field>mass</field>
   <field>valence</field>
   <field type="string">pseudopotential</field>
   <set>
    <rc><c>   4</c><c>C </c><c>     12.01100000</c><c>      4.00000000</c><c> PAW_PBE C 08Apr2002                    </c></rc>
   </set>
  </array>
 </atominfo>
 <structure name="initialpos" >
  <crystal>
   <varray name="basis" >
    <v>       2.46120000       0.00000000       0.00000000 </v>
    <v>      -1.23060000       2.13146172       0.00000000 </v>
    <v>       0.00000000       0.00000000       6.70790000 </v>
   </varray>
   <i name="volume">     35.18933212 </i>
   <varray name="rec_basis" >
    <v>       0.40630587       0.23458080       0.00000000 </v>
    <v>       0.00000000       0.46916160       0.00000000 </v>
    <v>       0.00000000       0.00000000       0.14907795 </v>
   </varray>
  </crystal>
  <varray name="positions" >
   <v>       0.00000000       0.00000000       0.00000000 </v>
   <v>       0.33333333       0.66666667       0.00000000 </v>
   <v>       0.33333333       0.66666667       0.50000000 </v>
   <v>       0.66666667       0.33333333       0.50000000 </v>
  </varray>
 </structure>
 <calculation>
  <scstep>
   <time name="dav">    1.28    1.28</time>
   <time name="total">    1.62    1.63</time>
   <energy>
    <i name="alphaZ">     37.04766603 </i>
    <i name="ewald">   -460.60042082 </i>
    <i name="hartreedc">   -148.78490797 </i>
    <i name="XCdc">     56.10990993 </i>
    <i name="pawpsdc">    150.95130483 </i>
    <i name="pawaedc">   -155.51722924 </i>
    <i name="eentropy">      0.00002418 </i>
    <i name="bandstr">    -46.58002200 </i>
    <i name="atom">    588.28246388 </i>
    <i name="e_fr_energy">     20.90878882 </i>
    <i name="e_wo_entrp">     20.90876464 </i>
    <i name="e_0_energy">     20.90878076 </i>
   </energy>
  </scstep>
  <scstep>
   <time name="dav">    1.58    1.58</time>
   <time name="total">    1.59    1.59</time>
   <energy>
    <i name="e_fr_energy">    -35.35082175 </i>
    <i name="e_wo_entrp">    -35.35119085 </i>
    <i name="e_0_energy">    -35.35094478 </i>
   </energy>
  </scstep>
  <scstep>
   <time name="dav">    1.59    1.59</time>
   <time name="total">    1.59    1.60</time>
   <energy>
    <i name="e_fr_energy">    -37.63002310 </i>
    <i name="e_wo_entrp">    -37.63024550 </i>
    <i name="e_0_energy">    -37.63009723 </i>
   </energy>
  </scstep>
  <scstep>
   <time name="dav">    1.46    1.46</time>
   <time name="total">    1.46    1.47</time>
   <energy>
    <i name="e_fr_energy">    -37.65095737 </i>
    <i name="e_wo_entrp">    -37.65118165 </i>
    <i name="e_0_energy">    -37.65103213 </i>
   </energy>
  </scstep>
  <scstep>
   <time name="dav">    1.57    1.57</time>
   <time name="total">    1.70    1.73</time>
   <energy>
    <i name="e_fr_energy">    -37.65136083 </i>
    <i name="e_wo_entrp">    -37.65158521 </i>
    <i name="e_0_energy">    -37.65143562 </i>
   </energy>
  </scstep>
  <scstep>
   <time name="dav">    1.38    1.39</time>
   <time name="total">    1.86    1.87</time>
   <energy>
    <i name="e_fr_energy">    -36.90821720 </i>
    <i name="e_wo_entrp">    -36.90845772 </i>
    <i name="e_0_energy">    -36.90829737 </i>
   </energy>
  </scstep>
  <scstep>
   <time name="dav">    1.38    1.38</time>
   <time name="total">    1.86    1.88</time>
   <energy>
    <i name="e_fr_energy">    -37.00982699 </i>
    <i name="e_wo_entrp">    -37.01013242 </i>
    <i name="e_0_energy">    -37.00992880 </i>
   </energy>
  </scstep>
  <scstep>
   <time name="dav">    1.42    1.42</time>
   <time name="total">    1.89    2.01</time>
   <energy>
    <i name="e_fr_energy">    -36.95370768 </i>
    <i name="e_wo_entrp">    -36.95398151 </i>
    <i name="e_0_energy">    -36.95379896 </i>
   </energy>
  </scstep>
  <scstep>
   <time name="dav">    1.43    1.43</time>
   <time name="total">    1.91    1.93</time>
   <energy>
    <i name="e_fr_energy">    -36.96549821 </i>
    <i name="e_wo_entrp">    -36.96578864 </i>
    <i name="e_0_energy">    -36.96559502 </i>
   </energy>
  </scstep>
  <scstep>
   <time name="dav">    1.59    1.59</time>
   <time name="total">    2.07    2.10</time>
   <energy>
    <i name="e_fr_energy">    -36.96591576 </i>
    <i name="e_wo_entrp">    -36.96618949 </i>
    <i name="e_0_energy">    -36.96600700 </i>
   </energy>
  </scstep>
  <scstep>
   <time name="dav">    1.46    1.47</time>
   <time name="total">    1.95    1.96</time>
   <energy>
    <i name="e_fr_energy">    -36.96614245 </i>
    <i name="e_wo_entrp">    -36.96641824 </i>
    <i name="e_0_energy">    -36.96623438 </i>
   </energy>
  </scstep>
  <scstep>
   <time name="dav">    1.21    1.21</time>
   <time name="total">    1.56    1.58</time>
   <energy>
    <i name="alphaZ">     37.04766603 </i>
    <i name="ewald">   -460.60042082 </i>
    <i name="hartreedc">   -183.62678029 </i>
    <i name="XCdc">     57.70263362 </i>
    <i name="pawpsdc">    281.37688621 </i>
    <i name="pawaedc">   -286.46270989 </i>
    <i name="eentropy">      0.00027430 </i>
    <i name="bandstr">    -70.68618663 </i>
    <i name="atom">    588.28246388 </i>
    <i name="e_fr_energy">    -36.96617358 </i>
    <i name="e_wo_entrp">    -36.96644789 </i>
    <i name="e_0_energy">    -36.96626502 </i>
   </energy>
  </scstep>
  <parameters_embedded>
   <separator name="dft+d2" >
    <i type="logical" name="LVDW"> F  </i>
   </separator>
  </parameters_embedded>
  <structure>
   <crystal>
    <varray name="basis" >
     <v>       2.46120000       0.00000000       0.00000000 </v>
     <v>      -1.23060000       2.13146172       0.00000000 </v>
     <v>       0.00000000       0.00000000       6.70790000 </v>
    </varray>
    <i name="volume">     35.18933212 </i>
    <varray name="rec_basis" >
     <v>       0.40630587       0.23458080       0.00000000 </v>
     <v>       0.00000000       0.46916160       0.00000000 </v>
     <v>       0.00000000       0.00000000       0.14907795 </v>
    </varray>
   </crystal>
   <varray name="positions" >
    <v>       0.00000000       0.00000000       0.00000000 </v>
    <v>       0.33333333       0.66666667       0.00000000 </v>
    <v>       0.33333333       0.66666667       0.50000000 </v>
    <v>       0.66666667       0.33333333       0.50000000 </v>
   </varray>
  </structure>
  <varray name="forces" >
   <v>       0.00000000       0.00000000       0.00000000 </v>
   <v>       0.00000000       0.00000000       0.00000000 </v>
   <v>       0.00000000       0.00000000       0.00000000 </v>
   <v>       0.00000000       0.00000000       0.00000000 </v>
  </varray>
  <varray name="stress" >
   <v>     -37.10666105       0.00000000       0.00000000 </v>
   <v>       0.00000000     -37.10666105       0.00000000 </v>
   <v>       0.00000000       0.00000000     -41.94322466 </v>
  </varray>
  <energy>
   <i name="e_fr_energy">    -36.96617358 </i>
   <i name="e_wo_entrp">    -36.96626502 </i>
   <i name="e_0_energy">      0.00027430 </i>
  </energy>
  <time name="totalsc">   22.36   22.74</time>
  <eigenvalues>
   <array>
    <dimension dim="1">band</dimension>
    <dimension dim="2">kpoint</dimension>
    <dimension dim="3">spin</dimension>
    <field>eigene</field>
    <field>occ</field>
    <set>
     <set comment="spin 1">
      <set comment="kpoint 1">
       <r>  -14.9782    1.0000 </r>
       <r>  -14.6788    1.0000 </r>
       <r>   -3.8197    1.0000 </r>
       <r>   -1.8611    1.0000 </r>
       <r>    1.7366    1.0000 </r>
       <r>    1.7366    1.0000 </r>
       <r>    1.7414    1.0000 </r>
       <r>    1.7414    1.0000 </r>
       <r>    8.9856    0.0000 </r>
       <r>   13.1528    0.0000 </r>
       <r>   13.1528    0.0000 </r>
       <r>   13.2159    0.0000 </r>
       <r>   13.2159    0.0000 </r>
       <r>   15.3260    0.0000 </r>
      </set>
      <set comment="kpoint 2">
       <r>  -13.4934    1.0000 </r>
       <r>  -13.2199    1.0000 </r>
       <r>   -2.7304    1.0000 </r>
       <r>   -2.6272    1.0000 </r>
       <r>   -2.0334    1.0000 </r>
       <r>   -0.3179    1.0000 </r>
       <r>   -0.2674    1.0000 </r>
       <r>   -0.2051    1.0000 </r>
       <r>   10.7944    0.0000 </r>
       <r>   11.7558    0.0000 </r>
       <r>   12.4071    0.0000 </r>
       <r>   12.7417    0.0000 </r>
       <r>   13.0293    0.0000 </r>
       <r>   16.6388    0.0000 </r>
      </set>
      <set comment="kpoint 3">
       <r>   -9.6208    1.0000 </r>
       <r>   -9.5107    1.0000 </r>
       <r>   -8.5588    1.0000 </r>
       <r>   -8.4761    1.0000 </r>
       <r>   -1.7004    1.0000 </r>
       <r>   -1.6431    1.0000 </r>
       <r>    1.9484    1.0000 </r>
       <r>    2.6385    1.0001 </r>
       <r>    6.2550    0.0000 </r>
       <r>    6.9196    0.0000 </r>
       <r>   11.9774    0.0000 </r>
       <r>   12.3765    0.0000 </r>
       <r>   16.0285    0.0000 </r>
       <r>   16.1508    0.0000 </r>
      </set>
      <set comment="kpoint 4">
       <r>  -10.6339    1.0000 </r>
       <r>  -10.4148    1.0000 </r>
       <r>   -5.8351    1.0000 </r>
       <r>   -5.7581    1.0000 </r>
       <r>   -4.2534    1.0000 </r>
       <r>   -4.1943    1.0000 </r>
       <r>    1.2988    1.0000 </r>
       <r>    2.7425    1.0068 </r>
       <r>    7.2770    0.0000 </r>
       <r>    7.8838    0.0000 </r>
       <r>   14.3396    0.0000 </r>
       <r>   16.6669    0.0000 </r>
       <r>   16.6795    0.0000 </r>
       <r>   16.8988    0.0000 </r>
      </set>
      <set comment="kpoint 5">
       <r>  -14.9369    1.0000 </r>
       <r>  -14.7253    1.0000 </r>
       <r>   -3.5728    1.0000 </r>
       <r>   -2.2046    1.0000 </r>
       <r>    1.7254    1.0000 </r>
       <r>    1.7254    1.0000 </r>
       <r>    1.7342    1.0000 </r>
       <r>    1.7342    1.0000 </r>
       <r>    9.7319    0.0000 </r>
       <r>   13.1510    0.0000 </r>
       <r>   13.1510    0.0000 </r>
       <r>   13.1824    0.0000 </r>
       <r>   13.1824    0.0000 </r>
       <r>   13.9900    0.0000 </r>
      </set>
      <set comment="kpoint 6">
       <r>  -13.4553    1.0000 </r>
       <r>  -13.2619    1.0000 </r>
       <r>   -2.7157    1.0000 </r>
       <r>   -2.6482    1.0000 </r>
       <r>   -1.7999    1.0000 </r>
       <r>   -0.5166    1.0000 </r>
       <r>   -0.3067    1.0000 </r>
       <r>   -0.2740    1.0000 </r>
       <r>   11.4064    0.0000 </r>
       <r>   11.9002    0.0000 </r>
       <r>   12.2691    0.0000 </r>
       <r>   12.7797    0.0000 </r>
       <r>   13.0319    0.0000 </r>
       <r>   15.5115    0.0000 </r>
      </set>
      <set comment="kpoint 7">
       <r>   -9.6031    1.0000 </r>
       <r>   -9.5241    1.0000 </r>
       <r>   -8.5513    1.0000 </r>
       <r>   -8.4927    1.0000 </r>
       <r>   -1.6872    1.0000 </r>
       <r>   -1.6515    1.0000 </r>
       <r>    2.0777    1.0000 </r>
       <r>    2.5808    1.0000 </r>
       <r>    6.2464    0.0000 </r>
       <r>    6.7335    0.0000 </r>
       <r>   12.0328    0.0000 </r>
       <r>   12.3156    0.0000 </r>
       <r>   16.5556    0.0000 </r>
       <r>   16.5902    0.0000 </r>
      </set>
      <set comment="kpoint 8">
       <r>  -10.6037    1.0000 </r>
       <r>  -10.4488    1.0000 </r>
       <r>   -5.8241    1.0000 </r>
       <r>   -5.7697    1.0000 </r>
       <r>   -4.2476    1.0000 </r>
       <r>   -4.2052    1.0000 </r>
       <r>    1.4852    1.0000 </r>
       <r>    2.5115    1.0000 </r>
       <r>    7.3599    0.0000 </r>
       <r>    7.7912    0.0000 </r>
       <r>   14.6617    0.0000 </r>
       <r>   15.9834    0.0000 </r>
       <r>   16.9455    0.0000 </r>
       <r>   17.0890    0.0000 </r>
      </set>
      <set comment="kpoint 9">
       <r>  -14.8336    1.0000 </r>
       <r>  -14.8336    1.0000 </r>
       <r>   -2.9409    1.0000 </r>
       <r>   -2.9409    1.0000 </r>
       <r>    1.7281    1.0000 </r>
       <r>    1.7281    1.0000 </r>
       <r>    1.7281    1.0000 </r>
       <r>    1.7281    1.0000 </r>
       <r>   11.6329    0.0000 </r>
       <r>   11.6329    0.0000 </r>
       <r>   13.1623    0.0000 </r>
       <r>   13.1623    0.0000 </r>
       <r>   13.1623    0.0000 </r>
       <r>   13.1623    0.0000 </r>
      </set>
      <set comment="kpoint 10">
       <r>  -13.3605    1.0000 </r>
       <r>  -13.3605    1.0000 </r>
       <r>   -2.6832    1.0000 </r>
       <r>   -2.6832    1.0000 </r>
       <r>   -1.2024    1.0000 </r>
       <r>   -1.2024    1.0000 </r>
       <r>   -0.2951    1.0000 </r>
       <r>   -0.2951    1.0000 </r>
       <r>   11.9745    0.0000 </r>
       <r>   11.9745    0.0000 </r>
       <r>   12.7804    0.0000 </r>
       <r>   12.7804    0.0000 </r>
       <r>   13.5036    0.0000 </r>
       <r>   13.5036    0.0000 </r>
      </set>
      <set comment="kpoint 11">
       <r>   -9.5610    1.0000 </r>
       <r>   -9.5610    1.0000 </r>
       <r>   -8.5283    1.0000 </r>
       <r>   -8.5283    1.0000 </r>
       <r>   -1.6671    1.0000 </r>
       <r>   -1.6671    1.0000 </r>
       <r>    2.3584    1.0000 </r>
       <r>    2.3584    1.0000 </r>
       <r>    6.3929    0.0000 </r>
       <r>    6.3929    0.0000 </r>
       <r>   12.1698    0.0000 </r>
       <r>   12.1698    0.0000 </r>
       <r>   17.3452    0.0000 </r>
       <r>   17.3452    0.0000 </r>
      </set>
      <set comment="kpoint 12">
       <r>  -10.5277    1.0000 </r>
       <r>  -10.5277    1.0000 </r>
       <r>   -5.7953    1.0000 </r>
       <r>   -5.7953    1.0000 </r>
       <r>   -4.2274    1.0000 </r>
       <r>   -4.2274    1.0000 </r>
       <r>    1.9739    1.0000 </r>
       <r>    1.9739    1.0000 </r>
       <r>    7.5778    0.0000 </r>
       <r>    7.5778    0.0000 </r>
       <r>   15.2812    0.0000 </r>
       <r>   15.2812    0.0000 </r>
       <r>   17.2467    0.0000 </r>
       <r>   17.2467    0.0000 </r>
      </set>
     </set>
     <set comment="spin 2">
      <set comment="kpoint 1">
       <r>  -14.9765    1.0000 </r>
       <r>  -14.6771    1.0000 </r>
       <r>   -3.8171    1.0000 </r>
       <r>   -1.8579    1.0000 </r>
       <r>    1.7371    1.0000 </r>
       <r>    1.7371    1.0000 </r>
       <r>    1.7419    1.0000 </r>
       <r>    1.7419    1.0000 </r>
       <r>    8.9859    0.0000 </r>
       <r>   13.1541    0.0000 </r>
       <r>   13.1541    0.0000 </r>
       <r>   13.2173    0.0000 </r>
       <r>   13.2173    0.0000 </r>
       <r>   15.3269    0.0000 </r>
      </set>
      <set comment="kpoint 2">
       <r>  -13.4918    1.0000 </r>
       <r>  -13.2183    1.0000 </r>
       <r>   -2.7294    1.0000 </r>
       <r>   -2.6262    1.0000 </r>
       <r>   -2.0307    1.0000 </r>
       <r>   -0.3172    1.0000 </r>
       <r>   -0.2667    1.0000 </r>
       <r>   -0.2020    1.0000 </r>
       <r>   10.7947    0.0000 </r>
       <r>   11.7589    0.0000 </r>
       <r>   12.4106    0.0000 </r>
       <r>   12.7439    0.0000 </r>
       <r>   13.0316    0.0000 </r>
       <r>   16.6401    0.0000 </r>
      </set>
      <set comment="kpoint 3">
       <r>   -9.6194    1.0000 </r>
       <r>   -9.5093    1.0000 </r>
       <r>   -8.5574    1.0000 </r>
       <r>   -8.4747    1.0000 </r>
       <r>   -1.6998    1.0000 </r>
       <r>   -1.6424    1.0000 </r>
       <r>    1.9511    1.0000 </r>
       <r>    2.6415    1.0002 </r>
       <r>    6.2579    0.0000 </r>
       <r>    6.9229    0.0000 </r>
       <r>   11.9801    0.0000 </r>
       <r>   12.3791    0.0000 </r>
       <r>   16.0287    0.0000 </r>
       <r>   16.1517    0.0000 </r>
      </set>
      <set comment="kpoint 4">
       <r>  -10.6324    1.0000 </r>
       <r>  -10.4133    1.0000 </r>
       <r>   -5.8340    1.0000 </r>
       <r>   -5.7570    1.0000 </r>
       <r>   -4.2523    1.0000 </r>
       <r>   -4.1932    1.0000 </r>
       <r>    1.3015    1.0000 </r>
       <r>    2.7456    0.9930 </r>
       <r>    7.2800    0.0000 </r>
       <r>    7.8870    0.0000 </r>
       <r>   14.3400    0.0000 </r>
       <r>   16.6689    0.0000 </r>
       <r>   16.6796    0.0000 </r>
       <r>   16.9007    0.0000 </r>
      </set>
      <set comment="kpoint 5">
       <r>  -14.9352    1.0000 </r>
       <r>  -14.7236    1.0000 </r>
       <r>   -3.5701    1.0000 </r>
       <r>   -2.2016    1.0000 </r>
       <r>    1.7259    1.0000 </r>
       <r>    1.7259    1.0000 </r>
       <r>    1.7347    1.0000 </r>
       <r>    1.7347    1.0000 </r>
       <r>    9.7323    0.0000 </r>
       <r>   13.1524    0.0000 </r>
       <r>   13.1524    0.0000 </r>
       <r>   13.1838    0.0000 </r>
       <r>   13.1838    0.0000 </r>
       <r>   13.9909    0.0000 </r>
      </set>
      <set comment="kpoint 6">
       <r>  -13.4537    1.0000 </r>
       <r>  -13.2603    1.0000 </r>
       <r>   -2.7147    1.0000 </r>
       <r>   -2.6473    1.0000 </r>
       <r>   -1.7972    1.0000 </r>
       <r>   -0.5136    1.0000 </r>
       <r>   -0.3061    1.0000 </r>
       <r>   -0.2733    1.0000 </r>
       <r>   11.4073    0.0000 </r>
       <r>   11.9030    0.0000 </r>
       <r>   12.2725    0.0000 </r>
       <r>   12.7820    0.0000 </r>
       <r>   13.0342    0.0000 </r>
       <r>   15.5127    0.0000 </r>
      </set>
      <set comment="kpoint 7">
       <r>   -9.6017    1.0000 </r>
       <r>   -9.5227    1.0000 </r>
       <r>   -8.5499    1.0000 </r>
       <r>   -8.4913    1.0000 </r>
       <r>   -1.6865    1.0000 </r>
       <r>   -1.6508    1.0000 </r>
       <r>    2.0804    1.0000 </r>
       <r>    2.5838    1.0000 </r>
       <r>    6.2493    0.0000 </r>
       <r>    6.7367    0.0000 </r>
       <r>   12.0354    0.0000 </r>
       <r>   12.3182    0.0000 </r>
       <r>   16.5567    0.0000 </r>
       <r>   16.5906    0.0000 </r>
      </set>
      <set comment="kpoint 8">
       <r>  -10.6022    1.0000 </r>
       <r>  -10.4473    1.0000 </r>
       <r>   -5.8229    1.0000 </r>
       <r>   -5.7685    1.0000 </r>
       <r>   -4.2465    1.0000 </r>
       <r>   -4.2041    1.0000 </r>
       <r>    1.4879    1.0000 </r>
       <r>    2.5145    1.0000 </r>
       <r>    7.3630    0.0000 </r>
       <r>    7.7943    0.0000 </r>
       <r>   14.6625    0.0000 </r>
       <r>   15.9855    0.0000 </r>
       <r>   16.9473    0.0000 </r>
       <r>   17.0921    0.0000 </r>
      </set>
      <set comment="kpoint 9">
       <r>  -14.8319    1.0000 </r>
       <r>  -14.8319    1.0000 </r>
       <r>   -2.9381    1.0000 </r>
       <r>   -2.9381    1.0000 </r>
       <r>    1.7286    1.0000 </r>
       <r>    1.7286    1.0000 </r>
       <r>    1.7286    1.0000 </r>
       <r>    1.7286    1.0000 </r>
       <r>   11.6336    0.0000 </r>
       <r>   11.6336    0.0000 </r>
       <r>   13.1637    0.0000 </r>
       <r>   13.1637    0.0000 </r>
       <r>   13.1637    0.0000 </r>
       <r>   13.1637    0.0000 </r>
      </set>
      <set comment="kpoint 10">
       <r>  -13.3589    1.0000 </r>
       <r>  -13.3589    1.0000 </r>
       <r>   -2.6822    1.0000 </r>
       <r>   -2.6822    1.0000 </r>
       <r>   -1.1996    1.0000 </r>
       <r>   -1.1996    1.0000 </r>
       <r>   -0.2945    1.0000 </r>
       <r>   -0.2945    1.0000 </r>
       <r>   11.9776    0.0000 </r>
       <r>   11.9776    0.0000 </r>
       <r>   12.7824    0.0000 </r>
       <r>   12.7824    0.0000 </r>
       <r>   13.5048    0.0000 </r>
       <r>   13.5048    0.0000 </r>
      </set>
      <set comment="kpoint 11">
       <r>   -9.5596    1.0000 </r>
       <r>   -9.5596    1.0000 </r>
       <r>   -8.5269    1.0000 </r>
       <r>   -8.5269    1.0000 </r>
       <r>   -1.6664    1.0000 </r>
       <r>   -1.6664    1.0000 </r>
       <r>    2.3613    1.0000 </r>
       <r>    2.3613    1.0000 </r>
       <r>    6.3959    0.0000 </r>
       <r>    6.3959    0.0000 </r>
       <r>   12.1724    0.0000 </r>
       <r>   12.1724    0.0000 </r>
       <r>   17.3467    0.0000 </r>
       <r>   17.3467    0.0000 </r>
      </set>
      <set comment="kpoint 12">
       <r>  -10.5262    1.0000 </r>
       <r>  -10.5262    1.0000 </r>
       <r>   -5.7941    1.0000 </r>
       <r>   -5.7941    1.0000 </r>
       <r>   -4.2263    1.0000 </r>
       <r>   -4.2263    1.0000 </r>
       <r>    1.9768    1.0000 </r>
       <r>    1.9768    1.0000 </r>
       <r>    7.5808    0.0000 </r>
       <r>    7.5808    0.0000 </r>
       <r>   15.2828    0.0000 </r>
       <r>   15.2828    0.0000 </r>
       <r>   17.2494    0.0000 </r>
       <r>   17.2495    0.0000 </r>
      </set>
     </set>
    </set>
   </array>
  </eigenvalues>
  <separator name="orbital magnetization" >
   <v name="MAGDIPOLOUT">      0.00000000      0.00000000      0.00000000</v>
  </separator>
  <dos>
   <i name="efermi">      2.78623524 </i>
   <total>
    <array>
     <dimension dim="1">gridpoints</dimension>
     <dimension dim="2">spin</dimension>
     <field>energy</field>
     <field>total</field>
     <field>integrated</field>
     <set>
      <set comment="spin 1">
       <r>   -16.5945     0.0000     0.0000 </r>
       <r>   -16.4759     0.0000     0.0000 </r>
       <r>   -16.3574     0.0000     0.0000 </r>
       <r>   -16.2389     0.0000     0.0000 </r>
       <r>   -16.1204     0.0000     0.0000 </r>
       <r>   -16.0018     0.0000     0.0000 </r>
       <r>   -15.8833     0.0000     0.0000 </r>
       <r>   -15.7648     0.0000     0.0000 </r>
       <r>   -15.6463     0.0000     0.0000 </r>
       <r>   -15.5277     0.0000     0.0000 </r>
       <r>   -15.4092     0.0000     0.0000 </r>
       <r>   -15.2907     0.0000     0.0000 </r>
       <r>   -15.1722     0.0000     0.0000 </r>
       <r>   -15.0536    -0.0042    -0.0005 </r>
       <r>   -14.9351     0.2747     0.0321 </r>
       <r>   -14.8166     0.3250     0.0706 </r>
       <r>   -14.6981     0.3256     0.1092 </r>
       <r>   -14.5795     0.1347     0.1251 </r>
       <r>   -14.4610    -0.0011     0.1250 </r>
       <r>   -14.3425     0.0000     0.1250 </r>
       <r>   -14.2240     0.0000     0.1250 </r>
       <r>   -14.1054     0.0000     0.1250 </r>
       <r>   -13.9869     0.0000     0.1250 </r>
       <r>   -13.8684     0.0000     0.1250 </r>
       <r>   -13.7499     0.0000     0.1250 </r>
       <r>   -13.6313    -0.0003     0.1250 </r>
       <r>   -13.5128     0.1015     0.1370 </r>
       <r>   -13.3943     2.4111     0.4228 </r>
       <r>   -13.2758     1.8818     0.6458 </r>
       <r>   -13.1572     1.9709     0.8794 </r>
       <r>   -13.0387    -0.0372     0.8750 </r>
       <r>   -12.9202     0.0000     0.8750 </r>
       <r>   -12.8017     0.0000     0.8750 </r>
       <r>   -12.6831     0.0000     0.8750 </r>
       <r>   -12.5646     0.0000     0.8750 </r>
       <r>   -12.4461     0.0000     0.8750 </r>
       <r>   -12.3276     0.0000     0.8750 </r>
       <r>   -12.2090     0.0000     0.8750 </r>
       <r>   -12.0905     0.0000     0.8750 </r>
       <r>   -11.9720     0.0000     0.8750 </r>
       <r>   -11.8535     0.0000     0.8750 </r>
       <r>   -11.7349     0.0000     0.8750 </r>
       <r>   -11.6164     0.0000     0.8750 </r>
       <r>   -11.4979     0.0000     0.8750 </r>
       <r>   -11.3794     0.0000     0.8750 </r>
       <r>   -11.2608     0.0000     0.8750 </r>
       <r>   -11.1423     0.0000     0.8750 </r>
       <r>   -11.0238     0.0000     0.8750 </r>
       <r>   -10.9053     0.0000     0.8750 </r>
       <r>   -10.7867    -0.0001     0.8750 </r>
       <r>   -10.6682    -0.0200     0.8726 </r>
       <r>   -10.5497     2.7054     1.1933 </r>
       <r>   -10.4312     2.7062     1.5140 </r>
       <r>   -10.3126     0.9423     1.6257 </r>
       <r>   -10.1941    -0.0061     1.6250 </r>
       <r>   -10.0756     0.0000     1.6250 </r>
       <r>    -9.9571     0.0000     1.6250 </r>
       <r>    -9.8385     0.0000     1.6250 </r>
       <r>    -9.7200    -0.0052     1.6244 </r>
       <r>    -9.6015     0.7194     1.7097 </r>
       <r>    -9.4830     2.4274     1.9974 </r>
       <r>    -9.3645     0.0223     2.0000 </r>
       <r>    -9.2459    -0.0001     2.0000 </r>
       <r>    -9.1274     0.0000     2.0000 </r>
       <r>    -9.0089     0.0000     2.0000 </r>
       <r>    -8.8904     0.0000     2.0000 </r>
       <r>    -8.7718     0.0000     2.0000 </r>
       <r>    -8.6533    -0.0109     1.9987 </r>
       <r>    -8.5348     1.2508     2.1470 </r>
       <r>    -8.4163     1.9619     2.3795 </r>
       <r>    -8.2977    -0.0379     2.3750 </r>
       <r>    -8.1792     0.0000     2.3750 </r>
       <r>    -8.0607     0.0000     2.3750 </r>
       <r>    -7.9422     0.0000     2.3750 </r>
       <r>    -7.8236     0.0000     2.3750 </r>
       <r>    -7.7051     0.0000     2.3750 </r>
       <r>    -7.5866     0.0000     2.3750 </r>
       <r>    -7.4681     0.0000     2.3750 </r>
       <r>    -7.3495     0.0000     2.3750 </r>
       <r>    -7.2310     0.0000     2.3750 </r>
       <r>    -7.1125     0.0000     2.3750 </r>
       <r>    -6.9940     0.0000     2.3750 </r>
       <r>    -6.8754     0.0000     2.3750 </r>
       <r>    -6.7569     0.0000     2.3750 </r>
       <r>    -6.6384     0.0000     2.3750 </r>
       <r>    -6.5199     0.0000     2.3750 </r>
       <r>    -6.4013     0.0000     2.3750 </r>
       <r>    -6.2828     0.0000     2.3750 </r>
       <r>    -6.1643     0.0000     2.3750 </r>
       <r>    -6.0458     0.0000     2.3750 </r>
       <r>    -5.9272    -0.0215     2.3725 </r>
       <r>    -5.8087     2.3519     2.6512 </r>
       <r>    -5.6902     4.0707     3.1337 </r>
       <r>    -5.5717    -0.0733     3.1250 </r>
       <r>    -5.4531     0.0000     3.1250 </r>
       <r>    -5.3346     0.0000     3.1250 </r>
       <r>    -5.2161     0.0000     3.1250 </r>
       <r>    -5.0976     0.0000     3.1250 </r>
       <r>    -4.9790     0.0000     3.1250 </r>
       <r>    -4.8605     0.0000     3.1250 </r>
       <r>    -4.7420     0.0000     3.1250 </r>
       <r>    -4.6235     0.0000     3.1250 </r>
       <r>    -4.5049     0.0000     3.1250 </r>
       <r>    -4.3864    -0.0010     3.1249 </r>
       <r>    -4.2679     0.4382     3.1768 </r>
       <r>    -4.1494     6.0107     3.8892 </r>
       <r>    -4.0308    -0.1201     3.8750 </r>
       <r>    -3.9123    -0.0017     3.8748 </r>
       <r>    -3.7938     0.1177     3.8888 </r>
       <r>    -3.6753     0.0140     3.8904 </r>
       <r>    -3.5567     0.2014     3.9143 </r>
       <r>    -3.4382     0.0642     3.9219 </r>
       <r>    -3.3197    -0.0001     3.9219 </r>
       <r>    -3.2012     0.0000     3.9219 </r>
       <r>    -3.0826    -0.0001     3.9219 </r>
       <r>    -2.9641     0.0397     3.9266 </r>
       <r>    -2.8456     0.2236     3.9531 </r>
       <r>    -2.7271     0.8795     4.0573 </r>
       <r>    -2.6085     5.3196     4.6878 </r>
       <r>    -2.4900     0.1296     4.7032 </r>
       <r>    -2.3715    -0.0003     4.7031 </r>
       <r>    -2.2530    -0.0056     4.7025 </r>
       <r>    -2.1344     0.2717     4.7347 </r>
       <r>    -2.0159     0.6117     4.8072 </r>
       <r>    -1.8974     0.1664     4.8269 </r>
       <r>    -1.7789     1.4240     4.9957 </r>
       <r>    -1.6603     2.2498     5.2623 </r>
       <r>    -1.5418     1.2214     5.4071 </r>
       <r>    -1.4233    -0.0072     5.4062 </r>
       <r>    -1.3048    -0.0108     5.4050 </r>
       <r>    -1.1862     1.2104     5.5484 </r>
       <r>    -1.0677     0.3832     5.5938 </r>
       <r>    -0.9492    -0.0007     5.5938 </r>
       <r>    -0.8307     0.0000     5.5938 </r>
       <r>    -0.7121     0.0000     5.5937 </r>
       <r>    -0.5936    -0.0408     5.5889 </r>
       <r>    -0.4751     1.6184     5.7807 </r>
       <r>    -0.3566    -0.1222     5.7663 </r>
       <r>    -0.2380     6.5008     6.5368 </r>
       <r>    -0.1195     0.7590     6.6267 </r>
       <r>    -0.0010    -0.0144     6.6250 </r>
       <r>     0.1175     0.0000     6.6250 </r>
       <r>     0.2361     0.0000     6.6250 </r>
       <r>     0.3546     0.0000     6.6250 </r>
       <r>     0.4731     0.0000     6.6250 </r>
       <r>     0.5916     0.0000     6.6250 </r>
       <r>     0.7102     0.0000     6.6250 </r>
       <r>     0.8287     0.0000     6.6250 </r>
       <r>     0.9472     0.0000     6.6250 </r>
       <r>     1.0657     0.0000     6.6250 </r>
       <r>     1.1843    -0.0022     6.6247 </r>
       <r>     1.3028     0.4511     6.6782 </r>
       <r>     1.4213     0.2877     6.7123 </r>
       <r>     1.5398     1.6874     6.9123 </r>
       <r>     1.6584    -0.1117     6.8991 </r>
       <r>     1.7769     2.1858     7.1581 </r>
       <r>     1.8954    -0.0664     7.1503 </r>
       <r>     2.0139     1.9981     7.3871 </r>
       <r>     2.1325     0.8466     7.4874 </r>
       <r>     2.2510    -0.0295     7.4839 </r>
       <r>     2.3695     0.5435     7.5483 </r>
       <r>     2.4880     0.4755     7.6047 </r>
       <r>     2.6066     2.0942     7.8529 </r>
       <r>     2.7251     0.6343     7.9281 </r>
       <r>     2.8436     0.6126     8.0007 </r>
       <r>     2.9621    -0.0059     8.0000 </r>
       <r>     3.0807     0.0000     8.0000 </r>
       <r>     3.1992     0.0000     8.0000 </r>
       <r>     3.3177     0.0000     8.0000 </r>
       <r>     3.4362     0.0000     8.0000 </r>
       <r>     3.5548     0.0000     8.0000 </r>
       <r>     3.6733     0.0000     8.0000 </r>
       <r>     3.7918     0.0000     8.0000 </r>
       <r>     3.9103     0.0000     8.0000 </r>
       <r>     4.0289     0.0000     8.0000 </r>
       <r>     4.1474     0.0000     8.0000 </r>
       <r>     4.2659     0.0000     8.0000 </r>
       <r>     4.3844     0.0000     8.0000 </r>
       <r>     4.5030     0.0000     8.0000 </r>
       <r>     4.6215     0.0000     8.0000 </r>
       <r>     4.7400     0.0000     8.0000 </r>
       <r>     4.8585     0.0000     8.0000 </r>
       <r>     4.9771     0.0000     8.0000 </r>
       <r>     5.0956     0.0000     8.0000 </r>
       <r>     5.2141     0.0000     8.0000 </r>
       <r>     5.3326     0.0000     8.0000 </r>
       <r>     5.4511     0.0000     8.0000 </r>
       <r>     5.5697     0.0000     8.0000 </r>
       <r>     5.6882     0.0000     8.0000 </r>
       <r>     5.8067     0.0000     8.0000 </r>
       <r>     5.9252     0.0000     8.0000 </r>
       <r>     6.0438     0.0000     8.0000 </r>
       <r>     6.1623    -0.0202     7.9976 </r>
       <r>     6.2808     1.1210     8.1305 </r>
       <r>     6.3993     0.5662     8.1976 </r>
       <r>     6.5179     0.3114     8.2345 </r>
       <r>     6.6364    -0.0085     8.2335 </r>
       <r>     6.7549     0.6624     8.3120 </r>
       <r>     6.8734     0.1303     8.3274 </r>
       <r>     6.9920     0.4131     8.3764 </r>
       <r>     7.1105    -0.0118     8.3750 </r>
       <r>     7.2290    -0.0172     8.3730 </r>
       <r>     7.3475     1.3032     8.5274 </r>
       <r>     7.4661     1.0898     8.6566 </r>
       <r>     7.5846     0.9694     8.7715 </r>
       <r>     7.7031     0.5862     8.8410 </r>
       <r>     7.8216     1.4570     9.0137 </r>
       <r>     7.9402     0.9662     9.1282 </r>
       <r>     8.0587    -0.0269     9.1250 </r>
       <r>     8.1772     0.0000     9.1250 </r>
       <r>     8.2957     0.0000     9.1250 </r>
       <r>     8.4143     0.0000     9.1250 </r>
       <r>     8.5328     0.0000     9.1250 </r>
       <r>     8.6513     0.0000     9.1250 </r>
       <r>     8.7698     0.0000     9.1250 </r>
       <r>     8.8884    -0.0013     9.1249 </r>
       <r>     9.0069     0.1102     9.1379 </r>
       <r>     9.1254     0.0229     9.1406 </r>
       <r>     9.2439     0.0000     9.1406 </r>
       <r>     9.3625     0.0000     9.1406 </r>
       <r>     9.4810     0.0000     9.1406 </r>
       <r>     9.5995    -0.0002     9.1406 </r>
       <r>     9.7180     0.0727     9.1492 </r>
       <r>     9.8366     0.1927     9.1721 </r>
       <r>     9.9551    -0.0015     9.1719 </r>
       <r>    10.0736     0.0000     9.1719 </r>
       <r>    10.1921     0.0000     9.1719 </r>
       <r>    10.3107     0.0000     9.1719 </r>
       <r>    10.4292     0.0000     9.1719 </r>
       <r>    10.5477     0.0000     9.1719 </r>
       <r>    10.6662    -0.0007     9.1718 </r>
       <r>    10.7848     0.2697     9.2038 </r>
       <r>    10.9033     0.5253     9.2660 </r>
       <r>    11.0218    -0.0034     9.2656 </r>
       <r>    11.1403     0.0000     9.2656 </r>
       <r>    11.2589    -0.0002     9.2656 </r>
       <r>    11.3774     0.1406     9.2823 </r>
       <r>    11.4959     1.4649     9.4559 </r>
       <r>    11.6144     0.0317     9.4597 </r>
       <r>    11.7330     0.3332     9.4991 </r>
       <r>    11.8515     0.6369     9.5746 </r>
       <r>    11.9700     2.4535     9.8654 </r>
       <r>    12.0885     1.9414    10.0955 </r>
       <r>    12.2071     0.6965    10.1781 </r>
       <r>    12.3256     2.2137    10.4405 </r>
       <r>    12.4441     1.4174    10.6085 </r>
       <r>    12.5626     0.0076    10.6094 </r>
       <r>    12.6812    -0.0552    10.6028 </r>
       <r>    12.7997     3.4225    11.0085 </r>
       <r>    12.9182     0.5809    11.0773 </r>
       <r>    13.0367     1.4176    11.2454 </r>
       <r>    13.1553     1.6578    11.4418 </r>
       <r>    13.2738     1.4327    11.6117 </r>
       <r>    13.3923    -0.0250    11.6087 </r>
       <r>    13.5108     0.9881    11.7258 </r>
       <r>    13.6294     0.6012    11.7971 </r>
       <r>    13.7479    -0.0017    11.7969 </r>
       <r>    13.8664    -0.0003    11.7968 </r>
       <r>    13.9849     0.1096    11.8098 </r>
       <r>    14.1035     0.1552    11.8282 </r>
       <r>    14.2220    -0.0025    11.8279 </r>
       <r>    14.3405     0.4091    11.8764 </r>
       <r>    14.4590     0.3851    11.9221 </r>
       <r>    14.5776    -0.0321    11.9183 </r>
       <r>    14.6961     1.5424    12.1011 </r>
       <r>    14.8146     0.0703    12.1094 </r>
       <r>    14.9331    -0.0001    12.1094 </r>
       <r>    15.0517     0.0000    12.1094 </r>
       <r>    15.1702    -0.0058    12.1087 </r>
       <r>    15.2887     0.9977    12.2269 </r>
       <r>    15.4072     0.7169    12.3119 </r>
       <r>    15.5258     1.1607    12.4495 </r>
       <r>    15.6443     0.4271    12.5001 </r>
       <r>    15.7628    -0.0009    12.5000 </r>
       <r>    15.8813    -0.0111    12.4987 </r>
       <r>    15.9999     1.2534    12.6472 </r>
       <r>    16.1184     0.7650    12.7379 </r>
       <r>    16.2369     0.3726    12.7821 </r>
       <r>    16.3554    -0.0070    12.7812 </r>
       <r>    16.4740    -0.0190    12.7790 </r>
       <r>    16.5925     1.1659    12.9172 </r>
       <r>    16.7110     2.7867    13.2475 </r>
       <r>    16.8295    -0.0081    13.2465 </r>
       <r>    16.9481     1.6983    13.4478 </r>
       <r>    17.0666     0.9590    13.5615 </r>
       <r>    17.1851     1.2870    13.7140 </r>
       <r>    17.3036     1.6777    13.9129 </r>
       <r>    17.4222     0.7557    14.0024 </r>
       <r>    17.5407    -0.0205    14.0000 </r>
       <r>    17.6592     0.0000    14.0000 </r>
       <r>    17.7777     0.0000    14.0000 </r>
       <r>    17.8963     0.0000    14.0000 </r>
       <r>    18.0148     0.0000    14.0000 </r>
       <r>    18.1333     0.0000    14.0000 </r>
       <r>    18.2518     0.0000    14.0000 </r>
       <r>    18.3704     0.0000    14.0000 </r>
       <r>    18.4889     0.0000    14.0000 </r>
       <r>    18.6074     0.0000    14.0000 </r>
       <r>    18.7259     0.0000    14.0000 </r>
       <r>    18.8445     0.0000    14.0000 </r>
       <r>    18.9630     0.0000    14.0000 </r>
      </set>
      <set comment="spin 2">
       <r>   -16.5945     0.0000     0.0000 </r>
       <r>   -16.4759     0.0000     0.0000 </r>
       <r>   -16.3574     0.0000     0.0000 </r>
       <r>   -16.2389     0.0000     0.0000 </r>
       <r>   -16.1204     0.0000     0.0000 </r>
       <r>   -16.0018     0.0000     0.0000 </r>
       <r>   -15.8833     0.0000     0.0000 </r>
       <r>   -15.7648     0.0000     0.0000 </r>
       <r>   -15.6463     0.0000     0.0000 </r>
       <r>   -15.5277     0.0000     0.0000 </r>
       <r>   -15.4092     0.0000     0.0000 </r>
       <r>   -15.2907     0.0000     0.0000 </r>
       <r>   -15.1722     0.0000     0.0000 </r>
       <r>   -15.0536    -0.0039    -0.0005 </r>
       <r>   -14.9351     0.2660     0.0311 </r>
       <r>   -14.8166     0.3274     0.0699 </r>
       <r>   -14.6981     0.3240     0.1083 </r>
       <r>   -14.5795     0.1424     0.1252 </r>
       <r>   -14.4610    -0.0013     0.1250 </r>
       <r>   -14.3425     0.0000     0.1250 </r>
       <r>   -14.2240     0.0000     0.1250 </r>
       <r>   -14.1054     0.0000     0.1250 </r>
       <r>   -13.9869     0.0000     0.1250 </r>
       <r>   -13.8684     0.0000     0.1250 </r>
       <r>   -13.7499     0.0000     0.1250 </r>
       <r>   -13.6313    -0.0002     0.1250 </r>
       <r>   -13.5128     0.0839     0.1349 </r>
       <r>   -13.3943     2.4107     0.4206 </r>
       <r>   -13.2758     1.8633     0.6415 </r>
       <r>   -13.1572     2.0085     0.8795 </r>
       <r>   -13.0387    -0.0384     0.8750 </r>
       <r>   -12.9202     0.0000     0.8750 </r>
       <r>   -12.8017     0.0000     0.8750 </r>
       <r>   -12.6831     0.0000     0.8750 </r>
       <r>   -12.5646     0.0000     0.8750 </r>
       <r>   -12.4461     0.0000     0.8750 </r>
       <r>   -12.3276     0.0000     0.8750 </r>
       <r>   -12.2090     0.0000     0.8750 </r>
       <r>   -12.0905     0.0000     0.8750 </r>
       <r>   -11.9720     0.0000     0.8750 </r>
       <r>   -11.8535     0.0000     0.8750 </r>
       <r>   -11.7349     0.0000     0.8750 </r>
       <r>   -11.6164     0.0000     0.8750 </r>
       <r>   -11.4979     0.0000     0.8750 </r>
       <r>   -11.3794     0.0000     0.8750 </r>
       <r>   -11.2608     0.0000     0.8750 </r>
       <r>   -11.1423     0.0000     0.8750 </r>
       <r>   -11.0238     0.0000     0.8750 </r>
       <r>   -10.9053     0.0000     0.8750 </r>
       <r>   -10.7867     0.0000     0.8750 </r>
       <r>   -10.6682    -0.0272     0.8718 </r>
       <r>   -10.5497     2.6838     1.1899 </r>
       <r>   -10.4312     2.6874     1.5084 </r>
       <r>   -10.3126     0.9905     1.6258 </r>
       <r>   -10.1941    -0.0068     1.6250 </r>
       <r>   -10.0756     0.0000     1.6250 </r>
       <r>    -9.9571     0.0000     1.6250 </r>
       <r>    -9.8385     0.0000     1.6250 </r>
       <r>    -9.7200    -0.0047     1.6244 </r>
       <r>    -9.6015     0.6890     1.7061 </r>
       <r>    -9.4830     2.4472     1.9962 </r>
       <r>    -9.3645     0.0324     2.0000 </r>
       <r>    -9.2459    -0.0001     2.0000 </r>
       <r>    -9.1274     0.0000     2.0000 </r>
       <r>    -9.0089     0.0000     2.0000 </r>
       <r>    -8.8904     0.0000     2.0000 </r>
       <r>    -8.7718     0.0000     2.0000 </r>
       <r>    -8.6533    -0.0100     1.9988 </r>
       <r>    -8.5348     1.2042     2.1416 </r>
       <r>    -8.4163     2.0088     2.3796 </r>
       <r>    -8.2977    -0.0391     2.3750 </r>
       <r>    -8.1792     0.0000     2.3750 </r>
       <r>    -8.0607     0.0000     2.3750 </r>
       <r>    -7.9422     0.0000     2.3750 </r>
       <r>    -7.8236     0.0000     2.3750 </r>
       <r>    -7.7051     0.0000     2.3750 </r>
       <r>    -7.5866     0.0000     2.3750 </r>
       <r>    -7.4681     0.0000     2.3750 </r>
       <r>    -7.3495     0.0000     2.3750 </r>
       <r>    -7.2310     0.0000     2.3750 </r>
       <r>    -7.1125     0.0000     2.3750 </r>
       <r>    -6.9940     0.0000     2.3750 </r>
       <r>    -6.8754     0.0000     2.3750 </r>
       <r>    -6.7569     0.0000     2.3750 </r>
       <r>    -6.6384     0.0000     2.3750 </r>
       <r>    -6.5199     0.0000     2.3750 </r>
       <r>    -6.4013     0.0000     2.3750 </r>
       <r>    -6.2828     0.0000     2.3750 </r>
       <r>    -6.1643     0.0000     2.3750 </r>
       <r>    -6.0458     0.0000     2.3750 </r>
       <r>    -5.9272    -0.0199     2.3726 </r>
       <r>    -5.8087     2.2752     2.6423 </r>
       <r>    -5.6902     4.1490     3.1341 </r>
       <r>    -5.5717    -0.0764     3.1250 </r>
       <r>    -5.4531     0.0000     3.1250 </r>
       <r>    -5.3346     0.0000     3.1250 </r>
       <r>    -5.2161     0.0000     3.1250 </r>
       <r>    -5.0976     0.0000     3.1250 </r>
       <r>    -4.9790     0.0000     3.1250 </r>
       <r>    -4.8605     0.0000     3.1250 </r>
       <r>    -4.7420     0.0000     3.1250 </r>
       <r>    -4.6235     0.0000     3.1250 </r>
       <r>    -4.5049     0.0000     3.1250 </r>
       <r>    -4.3864    -0.0009     3.1249 </r>
       <r>    -4.2679     0.3960     3.1718 </r>
       <r>    -4.1494     6.0510     3.8890 </r>
       <r>    -4.0308    -0.1183     3.8750 </r>
       <r>    -3.9123    -0.0014     3.8748 </r>
       <r>    -3.7938     0.1136     3.8883 </r>
       <r>    -3.6753     0.0182     3.8905 </r>
       <r>    -3.5567     0.1908     3.9131 </r>
       <r>    -3.4382     0.0745     3.9219 </r>
       <r>    -3.3197    -0.0002     3.9219 </r>
       <r>    -3.2012     0.0000     3.9219 </r>
       <r>    -3.0826     0.0000     3.9219 </r>
       <r>    -2.9641     0.0314     3.9256 </r>
       <r>    -2.8456     0.2326     3.9532 </r>
       <r>    -2.7271     0.8376     4.0524 </r>
       <r>    -2.6085     5.3438     4.6858 </r>
       <r>    -2.4900     0.1465     4.7032 </r>
       <r>    -2.3715    -0.0004     4.7031 </r>
       <r>    -2.2530    -0.0073     4.7023 </r>
       <r>    -2.1344     0.2749     4.7348 </r>
       <r>    -2.0159     0.5805     4.8036 </r>
       <r>    -1.8974     0.1962     4.8269 </r>
       <r>    -1.7789     1.3698     4.9892 </r>
       <r>    -1.6603     2.2761     5.2590 </r>
       <r>    -1.5418     1.2496     5.4071 </r>
       <r>    -1.4233    -0.0075     5.4062 </r>
       <r>    -1.3048    -0.0089     5.4052 </r>
       <r>    -1.1862     1.1430     5.5407 </r>
       <r>    -1.0677     0.4488     5.5939 </r>
       <r>    -0.9492    -0.0010     5.5938 </r>
       <r>    -0.8307     0.0000     5.5938 </r>
       <r>    -0.7121     0.0000     5.5937 </r>
       <r>    -0.5936    -0.0364     5.5894 </r>
       <r>    -0.4751     1.5895     5.7778 </r>
       <r>    -0.3566    -0.1010     5.7659 </r>
       <r>    -0.2380     6.4754     6.5333 </r>
       <r>    -0.1195     0.7899     6.6270 </r>
       <r>    -0.0010    -0.0167     6.6250 </r>
       <r>     0.1175     0.0000     6.6250 </r>
       <r>     0.2361     0.0000     6.6250 </r>
       <r>     0.3546     0.0000     6.6250 </r>
       <r>     0.4731     0.0000     6.6250 </r>
       <r>     0.5916     0.0000     6.6250 </r>
       <r>     0.7102     0.0000     6.6250 </r>
       <r>     0.8287     0.0000     6.6250 </r>
       <r>     0.9472     0.0000     6.6250 </r>
       <r>     1.0657     0.0000     6.6250 </r>
       <r>     1.1843    -0.0018     6.6248 </r>
       <r>     1.3028     0.4144     6.6739 </r>
       <r>     1.4213     0.3261     6.7126 </r>
       <r>     1.5398     1.6794     6.9116 </r>
       <r>     1.6584    -0.1051     6.8992 </r>
       <r>     1.7769     2.1811     7.1577 </r>
       <r>     1.8954    -0.0596     7.1506 </r>
       <r>     2.0139     1.9705     7.3842 </r>
       <r>     2.1325     0.8684     7.4871 </r>
       <r>     2.2510    -0.0259     7.4840 </r>
       <r>     2.3695     0.5063     7.5440 </r>
       <r>     2.4880     0.4604     7.5986 </r>
       <r>     2.6066     2.1128     7.8490 </r>
       <r>     2.7251     0.6353     7.9243 </r>
       <r>     2.8436     0.6458     8.0009 </r>
       <r>     2.9621    -0.0072     8.0000 </r>
       <r>     3.0807     0.0000     8.0000 </r>
       <r>     3.1992     0.0000     8.0000 </r>
       <r>     3.3177     0.0000     8.0000 </r>
       <r>     3.4362     0.0000     8.0000 </r>
       <r>     3.5548     0.0000     8.0000 </r>
       <r>     3.6733     0.0000     8.0000 </r>
       <r>     3.7918     0.0000     8.0000 </r>
       <r>     3.9103     0.0000     8.0000 </r>
       <r>     4.0289     0.0000     8.0000 </r>
       <r>     4.1474     0.0000     8.0000 </r>
       <r>     4.2659     0.0000     8.0000 </r>
       <r>     4.3844     0.0000     8.0000 </r>
       <r>     4.5030     0.0000     8.0000 </r>
       <r>     4.6215     0.0000     8.0000 </r>
       <r>     4.7400     0.0000     8.0000 </r>
       <r>     4.8585     0.0000     8.0000 </r>
       <r>     4.9771     0.0000     8.0000 </r>
       <r>     5.0956     0.0000     8.0000 </r>
       <r>     5.2141     0.0000     8.0000 </r>
       <r>     5.3326     0.0000     8.0000 </r>
       <r>     5.4511     0.0000     8.0000 </r>
       <r>     5.5697     0.0000     8.0000 </r>
       <r>     5.6882     0.0000     8.0000 </r>
       <r>     5.8067     0.0000     8.0000 </r>
       <r>     5.9252     0.0000     8.0000 </r>
       <r>     6.0438     0.0000     8.0000 </r>
       <r>     6.1623    -0.0175     7.9979 </r>
       <r>     6.2808     1.0881     8.1269 </r>
       <r>     6.3993     0.5572     8.1929 </r>
       <r>     6.5179     0.3507     8.2345 </r>
       <r>     6.6364    -0.0074     8.2336 </r>
       <r>     6.7549     0.6286     8.3081 </r>
       <r>     6.8734     0.1594     8.3270 </r>
       <r>     6.9920     0.4175     8.3765 </r>
       <r>     7.1105    -0.0128     8.3750 </r>
       <r>     7.2290    -0.0222     8.3724 </r>
       <r>     7.3475     1.2389     8.5192 </r>
       <r>     7.4661     1.1621     8.6570 </r>
       <r>     7.5846     0.8857     8.7619 </r>
       <r>     7.7031     0.6713     8.8415 </r>
       <r>     7.8216     1.4066     9.0082 </r>
       <r>     7.9402     1.0097     9.1279 </r>
       <r>     8.0587    -0.0244     9.1250 </r>
       <r>     8.1772     0.0000     9.1250 </r>
       <r>     8.2957     0.0000     9.1250 </r>
       <r>     8.4143     0.0000     9.1250 </r>
       <r>     8.5328     0.0000     9.1250 </r>
       <r>     8.6513     0.0000     9.1250 </r>
       <r>     8.7698     0.0000     9.1250 </r>
       <r>     8.8884    -0.0012     9.1249 </r>
       <r>     9.0069     0.1097     9.1379 </r>
       <r>     9.1254     0.0234     9.1406 </r>
       <r>     9.2439     0.0000     9.1406 </r>
       <r>     9.3625     0.0000     9.1406 </r>
       <r>     9.4810     0.0000     9.1406 </r>
       <r>     9.5995    -0.0001     9.1406 </r>
       <r>     9.7180     0.0710     9.1490 </r>
       <r>     9.8366     0.1944     9.1721 </r>
       <r>     9.9551    -0.0016     9.1719 </r>
       <r>    10.0736     0.0000     9.1719 </r>
       <r>    10.1921     0.0000     9.1719 </r>
       <r>    10.3107     0.0000     9.1719 </r>
       <r>    10.4292     0.0000     9.1719 </r>
       <r>    10.5477     0.0000     9.1719 </r>
       <r>    10.6662    -0.0007     9.1718 </r>
       <r>    10.7848     0.2656     9.2033 </r>
       <r>    10.9033     0.5295     9.2660 </r>
       <r>    11.0218    -0.0035     9.2656 </r>
       <r>    11.1403     0.0000     9.2656 </r>
       <r>    11.2589    -0.0002     9.2656 </r>
       <r>    11.3774     0.1278     9.2808 </r>
       <r>    11.4959     1.4788     9.4560 </r>
       <r>    11.6144     0.0282     9.4594 </r>
       <r>    11.7330     0.3075     9.4958 </r>
       <r>    11.8515     0.6582     9.5738 </r>
       <r>    11.9700     2.3655     9.8542 </r>
       <r>    12.0885     2.0374    10.0957 </r>
       <r>    12.2071     0.6836    10.1767 </r>
       <r>    12.3256     2.1872    10.4359 </r>
       <r>    12.4441     1.4376    10.6063 </r>
       <r>    12.5626     0.0257    10.6094 </r>
       <r>    12.6812    -0.0517    10.6033 </r>
       <r>    12.7997     3.3288    10.9978 </r>
       <r>    12.9182     0.6726    11.0775 </r>
       <r>    13.0367     1.3265    11.2347 </r>
       <r>    13.1553     1.7116    11.4376 </r>
       <r>    13.2738     1.4691    11.6117 </r>
       <r>    13.3923    -0.0251    11.6088 </r>
       <r>    13.5108     0.9556    11.7220 </r>
       <r>    13.6294     0.6334    11.7971 </r>
       <r>    13.7479    -0.0019    11.7969 </r>
       <r>    13.8664    -0.0003    11.7968 </r>
       <r>    13.9849     0.1056    11.8094 </r>
       <r>    14.1035     0.1592    11.8282 </r>
       <r>    14.2220    -0.0025    11.8279 </r>
       <r>    14.3405     0.4037    11.8758 </r>
       <r>    14.4590     0.3904    11.9221 </r>
       <r>    14.5776    -0.0310    11.9184 </r>
       <r>    14.6961     1.5323    12.1000 </r>
       <r>    14.8146     0.0793    12.1094 </r>
       <r>    14.9331    -0.0001    12.1094 </r>
       <r>    15.0517     0.0000    12.1094 </r>
       <r>    15.1702    -0.0052    12.1088 </r>
       <r>    15.2887     0.9563    12.2221 </r>
       <r>    15.4072     0.7588    12.3120 </r>
       <r>    15.5258     1.1325    12.4463 </r>
       <r>    15.6443     0.4543    12.5001 </r>
       <r>    15.7628    -0.0010    12.5000 </r>
       <r>    15.8813    -0.0096    12.4989 </r>
       <r>    15.9999     1.2046    12.6416 </r>
       <r>    16.1184     0.8100    12.7376 </r>
       <r>    16.2369     0.3752    12.7821 </r>
       <r>    16.3554    -0.0072    12.7812 </r>
       <r>    16.4740    -0.0182    12.7791 </r>
       <r>    16.5925     1.1527    12.9157 </r>
       <r>    16.7110     2.7927    13.2467 </r>
       <r>    16.8295    -0.0002    13.2467 </r>
       <r>    16.9481     1.6443    13.4416 </r>
       <r>    17.0666     0.9568    13.5550 </r>
       <r>    17.1851     1.3456    13.7145 </r>
       <r>    17.3036     1.6648    13.9118 </r>
       <r>    17.4222     0.7657    14.0026 </r>
       <r>    17.5407    -0.0216    14.0000 </r>
       <r>    17.6592     0.0000    14.0000 </r>
       <r>    17.7777     0.0000    14.0000 </r>
       <r>    17.8963     0.0000    14.0000 </r>
       <r>    18.0148     0.0000    14.0000 </r>
       <r>    18.1333     0.0000    14.0000 </r>
       <r>    18.2518     0.0000    14.0000 </r>
       <r>    18.3704     0.0000    14.0000 </r>
       <r>    18.4889     0.0000    14.0000 </r>
       <r>    18.6074     0.0000    14.0000 </r>
       <r>    18.7259     0.0000    14.0000 </r>
       <r>    18.8445     0.0000    14.0000 </r>
       <r>    18.9630     0.0000    14.0000 </r>
      </set>
     </set>
    </array>
   </total>
   <partial>
    <array>
     <dimension dim="1">gridpoints</dimension>
     <dimension dim="2">spin</dimension>
     <dimension dim="3">ion</dimension>
     <field>energy</field>
     <field>  s</field>
     <field> py</field>
     <field> pz</field>
     <field> px</field>
     <field>dxy</field>
     <field>dyz</field>
     <field>dz2</field>
     <field>dxz</field>
     <field>dx2</field>
     <set>
      <set comment="ion 1">
       <set comment="spin 1">
        <r>   -16.5945     0.0000     0.0000     0.0000     0.0000     0.0000     0.0000     0.0000     0.0000     0.0000 </r>
        <r>   -16.4759     0.0000     0.0000     0.0000     0.0000     0.0000     0.0000     0.0000     0.0000     0.0000 </r>
        <r>   -16.3574     0.0000     0.0000     0.0000     0.0000     0.0000     0.0000     0.0000     0.0000     0.0000 </r>
        <r>   -16.2389     0.0000     0.0000     0.0000     0.0000     0.0000     0.0000     0.0000     0.0000     0.0000 </r>
        <r>   -16.1204     0.0000     0.0000     0.0000     0.0000     0.0000     0.0000     0.0000     0.0000     0.0000 </r>
        <r>   -16.0018     0.0000     0.0000     0.0000     0.0000     0.0000     0.0000     0.0000     0.0000     0.0000 </r>
        <r>   -15.8833     0.0000     0.0000     0.0000     0.0000     0.0000     0.0000     0.0000     0.0000     0.0000 </r>
        <r>   -15.7648     0.0000     0.0000     0.0000     0.0000     0.0000     0.0000     0.0000     0.0000     0.0000 </r>
        <r>   -15.6463     0.0000     0.0000     0.0000     0.0000     0.0000     0.0000     0.0000     0.0000     0.0000 </r>
        <r>   -15.5277     0.0000     0.0000     0.0000     0.0000     0.0000     0.0000     0.0000     0.0000     0.0000 </r>
        <r>   -15.4092     0.0000     0.0000     0.0000     0.0000     0.0000     0.0000     0.0000     0.0000     0.0000 </r>
        <r>   -15.2907     0.0000     0.0000     0.0000     0.0000     0.0000     0.0000     0.0000     0.0000     0.0000 </r>
        <r>   -15.1722     0.0000     0.0000     0.0000     0.0000     0.0000     0.0000     0.0000     0.0000     0.0000 </r>
        <r>   -15.0536    -0.0007     0.0000     0.0000     0.0000     0.0000     0.0000     0.0000     0.0000     0.0000 </r>
        <r>   -14.9351     0.0437     0.0000     0.0000     0.0000     0.0000     0.0000     0.0000     0.0000     0.0000 </r>
        <r>   -14.8166     0.0523     0.0000     0.0000     0.0000     0.0000     0.0000     0.0000     0.0000     0.0000 </r>
        <r>   -14.6981     0.0532     0.0000     0.0000     0.0000     0.0000     0.0000     0.0000     0.0000     0.0000 </r>
        <r>   -14.5795     0.0221     0.0000     0.0000     0.0000     0.0000     0.0000     0.0000     0.0000     0.0000 </r>
        <r>   -14.4610    -0.0002     0.0000     0.0000     0.0000     0.0000     0.0000     0.0000     0.0000     0.0000 </r>
        <r>   -14.3425     0.0000     0.0000     0.0000     0.0000     0.0000     0.0000     0.0000     0.0000     0.0000 </r>
        <r>   -14.2240     0.0000     0.0000     0.0000     0.0000     0.0000     0.0000     0.0000     0.0000     0.0000 </r>
        <r>   -14.1054     0.0000     0.0000     0.0000     0.0000     0.0000     0.0000     0.0000     0.0000     0.0000 </r>
        <r>   -13.9869     0.0000     0.0000     0.0000     0.0000     0.0000     0.0000     0.0000     0.0000     0.0000 </r>
        <r>   -13.8684     0.0000     0.0000     0.0000     0.0000     0.0000     0.0000     0.0000     0.0000     0.0000 </r>
        <r>   -13.7499     0.0000     0.0000     0.0000     0.0000     0.0000     0.0000     0.0000     0.0000     0.0000 </r>
        <r>   -13.6313     0.0000     0.0000     0.0000     0.0000     0.0000     0.0000     0.0000     0.0000     0.0000 </r>
        <r>   -13.5128     0.0149     0.0004     0.0000     0.0012     0.0000     0.0000     0.0000     0.0000     0.0000 </r>
        <r>   -13.3943     0.3566     0.0092     0.0000     0.0275     0.0000     0.0000     0.0000     0.0000     0.0000 </r>
        <r>   -13.2758     0.2822     0.0073     0.0000     0.0219     0.0000     0.0000     0.0000     0.0000     0.0000 </r>
        <r>   -13.1572     0.2990     0.0077     0.0000     0.0232     0.0000     0.0000     0.0000     0.0000     0.0000 </r>
        <r>   -13.0387    -0.0056    -0.0001     0.0000    -0.0004     0.0000     0.0000     0.0000     0.0000     0.0000 </r>
        <r>   -12.9202     0.0000     0.0000     0.0000     0.0000     0.0000     0.0000     0.0000     0.0000     0.0000 </r>
        <r>   -12.8017     0.0000     0.0000     0.0000     0.0000     0.0000     0.0000     0.0000     0.0000     0.0000 </r>
        <r>   -12.6831     0.0000     0.0000     0.0000     0.0000     0.0000     0.0000     0.0000     0.0000     0.0000 </r>
        <r>   -12.5646     0.0000     0.0000     0.0000     0.0000     0.0000     0.0000     0.0000     0.0000     0.0000 </r>
        <r>   -12.4461     0.0000     0.0000     0.0000     0.0000     0.0000     0.0000     0.0000     0.0000     0.0000 </r>
        <r>   -12.3276     0.0000     0.0000     0.0000     0.0000     0.0000     0.0000     0.0000     0.0000     0.0000 </r>
        <r>   -12.2090     0.0000     0.0000     0.0000     0.0000     0.0000     0.0000     0.0000     0.0000     0.0000 </r>
        <r>   -12.0905     0.0000     0.0000     0.0000     0.0000     0.0000     0.0000     0.0000     0.0000     0.0000 </r>
        <r>   -11.9720     0.0000     0.0000     0.0000     0.0000     0.0000     0.0000     0.0000     0.0000     0.0000 </r>
        <r>   -11.8535     0.0000     0.0000     0.0000     0.0000     0.0000     0.0000     0.0000     0.0000     0.0000 </r>
        <r>   -11.7349     0.0000     0.0000     0.0000     0.0000     0.0000     0.0000     0.0000     0.0000     0.0000 </r>
        <r>   -11.6164     0.0000     0.0000     0.0000     0.0000     0.0000     0.0000     0.0000     0.0000     0.0000 </r>
        <r>   -11.4979     0.0000     0.0000     0.0000     0.0000     0.0000     0.0000     0.0000     0.0000     0.0000 </r>
        <r>   -11.3794     0.0000     0.0000     0.0000     0.0000     0.0000     0.0000     0.0000     0.0000     0.0000 </r>
        <r>   -11.2608     0.0000     0.0000     0.0000     0.0000     0.0000     0.0000     0.0000     0.0000     0.0000 </r>
        <r>   -11.1423     0.0000     0.0000     0.0000     0.0000     0.0000     0.0000     0.0000     0.0000     0.0000 </r>
        <r>   -11.0238     0.0000     0.0000     0.0000     0.0000     0.0000     0.0000     0.0000     0.0000     0.0000 </r>
        <r>   -10.9053     0.0000     0.0000     0.0000     0.0000     0.0000     0.0000     0.0000     0.0000     0.0000 </r>
        <r>   -10.7867     0.0000     0.0000     0.0000     0.0000     0.0000     0.0000     0.0000     0.0000     0.0000 </r>
        <r>   -10.6682    -0.0026    -0.0006     0.0000    -0.0002     0.0000     0.0000     0.0000     0.0000     0.0000 </r>
        <r>   -10.5497     0.3473     0.0857     0.0000     0.0299     0.0000     0.0000     0.0000     0.0000     0.0000 </r>
        <r>   -10.4312     0.3549     0.0865     0.0000     0.0302     0.0000     0.0000     0.0000     0.0000     0.0000 </r>
        <r>   -10.3126     0.1246     0.0303     0.0000     0.0106     0.0000     0.0000     0.0000     0.0000     0.0000 </r>
        <r>   -10.1941    -0.0008    -0.0002     0.0000    -0.0001     0.0000     0.0000     0.0000     0.0000     0.0000 </r>
        <r>   -10.0756     0.0000     0.0000     0.0000     0.0000     0.0000     0.0000     0.0000     0.0000     0.0000 </r>
        <r>    -9.9571     0.0000     0.0000     0.0000     0.0000     0.0000     0.0000     0.0000     0.0000     0.0000 </r>
        <r>    -9.8385     0.0000     0.0000     0.0000     0.0000     0.0000     0.0000     0.0000     0.0000     0.0000 </r>
        <r>    -9.7200    -0.0007    -0.0001     0.0000    -0.0002     0.0000     0.0000     0.0000     0.0000     0.0000 </r>
        <r>    -9.6015     0.0973     0.0070     0.0000     0.0211     0.0000     0.0000     0.0000     0.0000     0.0000 </r>
        <r>    -9.4830     0.3735     0.0181     0.0000     0.0544     0.0000     0.0000     0.0000     0.0000     0.0000 </r>
        <r>    -9.3645     0.0041     0.0001     0.0000     0.0002     0.0000     0.0000     0.0000     0.0000     0.0000 </r>
        <r>    -9.2459     0.0000     0.0000     0.0000     0.0000     0.0000     0.0000     0.0000     0.0000     0.0000 </r>
        <r>    -9.1274     0.0000     0.0000     0.0000     0.0000     0.0000     0.0000     0.0000     0.0000     0.0000 </r>
        <r>    -9.0089     0.0000     0.0000     0.0000     0.0000     0.0000     0.0000     0.0000     0.0000     0.0000 </r>
        <r>    -8.8904     0.0000     0.0000     0.0000     0.0000     0.0000     0.0000     0.0000     0.0000     0.0000 </r>
        <r>    -8.7718     0.0000     0.0000     0.0000     0.0000     0.0000     0.0000     0.0000     0.0000     0.0000 </r>
        <r>    -8.6533    -0.0006    -0.0003     0.0000    -0.0009     0.0000     0.0000     0.0000     0.0000     0.0000 </r>
        <r>    -8.5348     0.0719     0.0327     0.0000     0.0982     0.0000     0.0000     0.0000     0.0000     0.0000 </r>
        <r>    -8.4163     0.1503     0.0465     0.0000     0.1395     0.0000     0.0000     0.0000     0.0000     0.0000 </r>
        <r>    -8.2977    -0.0031    -0.0009     0.0000    -0.0026     0.0000     0.0000     0.0000     0.0000     0.0000 </r>
        <r>    -8.1792     0.0000     0.0000     0.0000     0.0000     0.0000     0.0000     0.0000     0.0000     0.0000 </r>
        <r>    -8.0607     0.0000     0.0000     0.0000     0.0000     0.0000     0.0000     0.0000     0.0000     0.0000 </r>
        <r>    -7.9422     0.0000     0.0000     0.0000     0.0000     0.0000     0.0000     0.0000     0.0000     0.0000 </r>
        <r>    -7.8236     0.0000     0.0000     0.0000     0.0000     0.0000     0.0000     0.0000     0.0000     0.0000 </r>
        <r>    -7.7051     0.0000     0.0000     0.0000     0.0000     0.0000     0.0000     0.0000     0.0000     0.0000 </r>
        <r>    -7.5866     0.0000     0.0000     0.0000     0.0000     0.0000     0.0000     0.0000     0.0000     0.0000 </r>
        <r>    -7.4681     0.0000     0.0000     0.0000     0.0000     0.0000     0.0000     0.0000     0.0000     0.0000 </r>
        <r>    -7.3495     0.0000     0.0000     0.0000     0.0000     0.0000     0.0000     0.0000     0.0000     0.0000 </r>
        <r>    -7.2310     0.0000     0.0000     0.0000     0.0000     0.0000     0.0000     0.0000     0.0000     0.0000 </r>
        <r>    -7.1125     0.0000     0.0000     0.0000     0.0000     0.0000     0.0000     0.0000     0.0000     0.0000 </r>
        <r>    -6.9940     0.0000     0.0000     0.0000     0.0000     0.0000     0.0000     0.0000     0.0000     0.0000 </r>
        <r>    -6.8754     0.0000     0.0000     0.0000     0.0000     0.0000     0.0000     0.0000     0.0000     0.0000 </r>
        <r>    -6.7569     0.0000     0.0000     0.0000     0.0000     0.0000     0.0000     0.0000     0.0000     0.0000 </r>
        <r>    -6.6384     0.0000     0.0000     0.0000     0.0000     0.0000     0.0000     0.0000     0.0000     0.0000 </r>
        <r>    -6.5199     0.0000     0.0000     0.0000     0.0000     0.0000     0.0000     0.0000     0.0000     0.0000 </r>
        <r>    -6.4013     0.0000     0.0000     0.0000     0.0000     0.0000     0.0000     0.0000     0.0000     0.0000 </r>
        <r>    -6.2828     0.0000     0.0000     0.0000     0.0000     0.0000     0.0000     0.0000     0.0000     0.0000 </r>
        <r>    -6.1643     0.0000     0.0000     0.0000     0.0000     0.0000     0.0000     0.0000     0.0000     0.0000 </r>
        <r>    -6.0458     0.0000     0.0000     0.0000     0.0000     0.0000     0.0000     0.0000     0.0000     0.0000 </r>
        <r>    -5.9272    -0.0020    -0.0012     0.0000    -0.0008     0.0000     0.0000     0.0000     0.0000     0.0000 </r>
        <r>    -5.8087     0.2233     0.1289     0.0000     0.0909     0.0000     0.0000     0.0000     0.0000     0.0000 </r>
        <r>    -5.6902     0.3944     0.2321     0.0000     0.1500     0.0000     0.0000     0.0000     0.0000     0.0000 </r>
        <r>    -5.5717    -0.0072    -0.0042     0.0000    -0.0027     0.0000     0.0000     0.0000     0.0000     0.0000 </r>
        <r>    -5.4531     0.0000     0.0000     0.0000     0.0000     0.0000     0.0000     0.0000     0.0000     0.0000 </r>
        <r>    -5.3346     0.0000     0.0000     0.0000     0.0000     0.0000     0.0000     0.0000     0.0000     0.0000 </r>
        <r>    -5.2161     0.0000     0.0000     0.0000     0.0000     0.0000     0.0000     0.0000     0.0000     0.0000 </r>
        <r>    -5.0976     0.0000     0.0000     0.0000     0.0000     0.0000     0.0000     0.0000     0.0000     0.0000 </r>
        <r>    -4.9790     0.0000     0.0000     0.0000     0.0000     0.0000     0.0000     0.0000     0.0000     0.0000 </r>
        <r>    -4.8605     0.0000     0.0000     0.0000     0.0000     0.0000     0.0000     0.0000     0.0000     0.0000 </r>
        <r>    -4.7420     0.0000     0.0000     0.0000     0.0000     0.0000     0.0000     0.0000     0.0000     0.0000 </r>
        <r>    -4.6235     0.0000     0.0000     0.0000     0.0000     0.0000     0.0000     0.0000     0.0000     0.0000 </r>
        <r>    -4.5049     0.0000     0.0000     0.0000     0.0000     0.0000     0.0000     0.0000     0.0000     0.0000 </r>
        <r>    -4.3864     0.0000    -0.0001     0.0000    -0.0001     0.0000     0.0000     0.0000     0.0000     0.0000 </r>
        <r>    -4.2679     0.0041     0.0248     0.0000     0.0460     0.0000     0.0000     0.0000     0.0000     0.0000 </r>
        <r>    -4.1494     0.0766     0.3535     0.0001     0.6155     0.0000     0.0000     0.0000     0.0000     0.0000 </r>
        <r>    -4.0308    -0.0016    -0.0071     0.0000    -0.0123     0.0000     0.0000     0.0000     0.0000     0.0000 </r>
        <r>    -3.9123     0.0000     0.0000    -0.0002     0.0000     0.0000     0.0000     0.0000     0.0000     0.0000 </r>
        <r>    -3.7938     0.0000     0.0000     0.0113     0.0000     0.0000     0.0000     0.0000     0.0000     0.0000 </r>
        <r>    -3.6753     0.0000     0.0000     0.0013     0.0000     0.0000     0.0000     0.0000     0.0000     0.0000 </r>
        <r>    -3.5567     0.0001     0.0000     0.0200     0.0000     0.0000     0.0000     0.0000     0.0000     0.0000 </r>
        <r>    -3.4382     0.0000     0.0000     0.0064     0.0000     0.0000     0.0000     0.0000     0.0000     0.0000 </r>
        <r>    -3.3197     0.0000     0.0000     0.0000     0.0000     0.0000     0.0000     0.0000     0.0000     0.0000 </r>
        <r>    -3.2012     0.0000     0.0000     0.0000     0.0000     0.0000     0.0000     0.0000     0.0000     0.0000 </r>
        <r>    -3.0826     0.0000     0.0000     0.0000     0.0000     0.0000     0.0000     0.0000     0.0000     0.0000 </r>
        <r>    -2.9641     0.0000     0.0000     0.0043     0.0000     0.0000     0.0000     0.0000     0.0000     0.0000 </r>
        <r>    -2.8456     0.0001    -0.0001     0.0244    -0.0003     0.0000     0.0000     0.0000     0.0000     0.0000 </r>
        <r>    -2.7271     0.0436     0.0308    -0.0003     0.0925     0.0000     0.0000     0.0000     0.0000     0.0000 </r>
        <r>    -2.6085     0.2657     0.1872     0.0000     0.5617     0.0000     0.0000     0.0000     0.0000     0.0000 </r>
[...]
       </set>
       <set comment="band 10">
        <r>  0.0000  0.0000  0.0604  0.0000  0.0000  0.0000  0.0000  0.0000  0.0000 </r>
        <r>  0.0000  0.0000  0.0589  0.0000  0.0000  0.0000  0.0000  0.0000  0.0000 </r>
        <r>  0.0274  0.0000  0.0000  0.0000  0.0000  0.0000  0.0000  0.0000  0.0000 </r>
        <r>  0.0255  0.0000  0.0000  0.0000  0.0000  0.0000  0.0000  0.0000  0.0000 </r>
       </set>
       <set comment="band 11">
        <r>  0.0000  0.1997  0.0000  0.0644  0.0000  0.0000  0.0000  0.0000  0.0000 </r>
        <r>  0.0000  0.1992  0.0000  0.0643  0.0000  0.0000  0.0000  0.0000  0.0000 </r>
        <r>  0.0000  0.0000  0.0000  0.0000  0.0000  0.0000  0.0000  0.0000  0.0000 </r>
        <r>  0.0000  0.0000  0.0000  0.0000  0.0000  0.0000  0.0000  0.0000  0.0000 </r>
       </set>
       <set comment="band 12">
        <r>  0.0000  0.0000  0.0000  0.0000  0.0000  0.0000  0.0000  0.0000  0.0000 </r>
        <r>  0.0000  0.0000  0.0000  0.0000  0.0000  0.0000  0.0000  0.0000  0.0000 </r>
        <r>  0.0000  0.1978  0.0000  0.0657  0.0000  0.0000  0.0000  0.0000  0.0000 </r>
        <r>  0.0000  0.1983  0.0000  0.0659  0.0000  0.0000  0.0000  0.0000  0.0000 </r>
       </set>
       <set comment="band 13">
        <r>  0.0000  0.0644  0.0000  0.1997  0.0000  0.0000  0.0000  0.0000  0.0000 </r>
        <r>  0.0000  0.0643  0.0000  0.1992  0.0000  0.0000  0.0000  0.0000  0.0000 </r>
        <r>  0.0000  0.0000  0.0000  0.0000  0.0000  0.0000  0.0000  0.0000  0.0000 </r>
        <r>  0.0000  0.0000  0.0000  0.0000  0.0000  0.0000  0.0000  0.0000  0.0000 </r>
       </set>
       <set comment="band 14">
        <r>  0.0000  0.0000  0.0000  0.0000  0.0000  0.0000  0.0000  0.0000  0.0000 </r>
        <r>  0.0000  0.0000  0.0000  0.0000  0.0000  0.0000  0.0000  0.0000  0.0000 </r>
        <r>  0.0000  0.0657  0.0000  0.1978  0.0000  0.0000  0.0000  0.0000  0.0000 </r>
        <r>  0.0000  0.0658  0.0000  0.1982  0.0000  0.0000  0.0000  0.0000  0.0000 </r>
       </set>
      </set>
      <set comment="kpoint 10">
       <set comment="band 1">
        <r>  0.2991  0.0077  0.0000  0.0232  0.0000  0.0000  0.0000  0.0000  0.0000 </r>
        <r>  0.2994  0.0077  0.0000  0.0231  0.0000  0.0000  0.0000  0.0000  0.0000 </r>
        <r>  0.0000  0.0000  0.0000  0.0000  0.0000  0.0000  0.0000  0.0000  0.0000 </r>
        <r>  0.0000  0.0000  0.0000  0.0000  0.0000  0.0000  0.0000  0.0000  0.0000 </r>
       </set>
       <set comment="band 2">
        <r>  0.0000  0.0000  0.0000  0.0000  0.0000  0.0000  0.0000  0.0000  0.0000 </r>
        <r>  0.0000  0.0000  0.0000  0.0000  0.0000  0.0000  0.0000  0.0000  0.0000 </r>
        <r>  0.2994  0.0077  0.0000  0.0231  0.0000  0.0000  0.0000  0.0000  0.0000 </r>
        <r>  0.2991  0.0077  0.0000  0.0232  0.0000  0.0000  0.0000  0.0000  0.0000 </r>
       </set>
       <set comment="band 3">
        <r>  0.1001  0.0703  0.0000  0.2109  0.0000  0.0000  0.0000  0.0000  0.0000 </r>
        <r>  0.0996  0.0705  0.0000  0.2115  0.0000  0.0000  0.0000  0.0000  0.0000 </r>
        <r>  0.0000  0.0000  0.0000  0.0000  0.0000  0.0000  0.0000  0.0000  0.0000 </r>
        <r>  0.0000  0.0000  0.0000  0.0000  0.0000  0.0000  0.0000  0.0000  0.0000 </r>
       </set>
       <set comment="band 4">
        <r>  0.0000  0.0000  0.0000  0.0000  0.0000  0.0000  0.0000  0.0000  0.0000 </r>
        <r>  0.0000  0.0000  0.0000  0.0000  0.0000  0.0000  0.0000  0.0000  0.0000 </r>
        <r>  0.0996  0.0705  0.0000  0.2115  0.0000  0.0000  0.0000  0.0000  0.0000 </r>
        <r>  0.1001  0.0703  0.0000  0.2109  0.0000  0.0000  0.0000  0.0000  0.0000 </r>
       </set>
       <set comment="band 5">
        <r>  0.0000  0.0000  0.2218  0.0000  0.0000  0.0000  0.0000  0.0000  0.0000 </r>
        <r>  0.0000  0.0000  0.2224  0.0000  0.0000  0.0000  0.0000  0.0000  0.0000 </r>
        <r>  0.0016  0.0000  0.0000  0.0001  0.0000  0.0000  0.0000  0.0000  0.0000 </r>
        <r>  0.0011  0.0001  0.0000  0.0004  0.0000  0.0000  0.0000  0.0000  0.0000 </r>
       </set>
       <set comment="band 6">
        <r>  0.0011  0.0001  0.0000  0.0004  0.0000  0.0000  0.0000  0.0000  0.0000 </r>
        <r>  0.0016  0.0000  0.0000  0.0001  0.0000  0.0000  0.0000  0.0000  0.0000 </r>
        <r>  0.0000  0.0000  0.2224  0.0000  0.0000  0.0000  0.0000  0.0000  0.0000 </r>
        <r>  0.0000  0.0000  0.2218  0.0000  0.0000  0.0000  0.0000  0.0000  0.0000 </r>
       </set>
       <set comment="band 7">
        <r>  0.0000  0.2991  0.0000  0.0997  0.0000  0.0000  0.0000  0.0000  0.0000 </r>
        <r>  0.0000  0.2996  0.0000  0.0999  0.0000  0.0000  0.0000  0.0000  0.0000 </r>
        <r>  0.0000  0.0000  0.0000  0.0000  0.0000  0.0000  0.0000  0.0000  0.0000 </r>
        <r>  0.0000  0.0000  0.0000  0.0000  0.0000  0.0000  0.0000  0.0000  0.0000 </r>
       </set>
       <set comment="band 8">
        <r>  0.0000  0.0000  0.0000  0.0000  0.0000  0.0000  0.0000  0.0000  0.0000 </r>
        <r>  0.0000  0.0000  0.0000  0.0000  0.0000  0.0000  0.0000  0.0000  0.0000 </r>
        <r>  0.0000  0.2996  0.0000  0.0999  0.0000  0.0000  0.0000  0.0000  0.0000 </r>
        <r>  0.0000  0.2991  0.0000  0.0997  0.0000  0.0000  0.0000  0.0000  0.0000 </r>
       </set>
       <set comment="band 9">
        <r>  0.0000  0.0000  0.2923  0.0000  0.0000  0.0000  0.0000  0.0000  0.0000 </r>
        <r>  0.0000  0.0000  0.2708  0.0000  0.0000  0.0000  0.0000  0.0000  0.0000 </r>
        <r>  0.0006  0.0011  0.0000  0.0032  0.0000  0.0000  0.0000  0.0000  0.0000 </r>
        <r>  0.0059  0.0012  0.0000  0.0036  0.0000  0.0000  0.0000  0.0000  0.0000 </r>
       </set>
       <set comment="band 10">
        <r>  0.0059  0.0012  0.0000  0.0036  0.0000  0.0000  0.0000  0.0000  0.0000 </r>
        <r>  0.0006  0.0011  0.0000  0.0032  0.0000  0.0000  0.0000  0.0000  0.0000 </r>
        <r>  0.0000  0.0000  0.2708  0.0000  0.0000  0.0000  0.0000  0.0000  0.0000 </r>
        <r>  0.0000  0.0000  0.2923  0.0000  0.0000  0.0000  0.0000  0.0000  0.0000 </r>
       </set>
       <set comment="band 11">
        <r>  0.0722  0.0282  0.0000  0.0846  0.0000  0.0000  0.0000  0.0000  0.0000 </r>
        <r>  0.0881  0.0284  0.0000  0.0852  0.0000  0.0000  0.0000  0.0000  0.0000 </r>
        <r>  0.0000  0.0000  0.0410  0.0000  0.0000  0.0000  0.0000  0.0000  0.0000 </r>
        <r>  0.0000  0.0000  0.0024  0.0000  0.0000  0.0000  0.0000  0.0000  0.0000 </r>
       </set>
       <set comment="band 12">
        <r>  0.0000  0.0000  0.0024  0.0000  0.0000  0.0000  0.0000  0.0000  0.0000 </r>
        <r>  0.0000  0.0000  0.0410  0.0000  0.0000  0.0000  0.0000  0.0000  0.0000 </r>
        <r>  0.0881  0.0284  0.0000  0.0852  0.0000  0.0000  0.0000  0.0000  0.0000 </r>
        <r>  0.0722  0.0282  0.0000  0.0846  0.0000  0.0000  0.0000  0.0000  0.0000 </r>
       </set>
       <set comment="band 13">
        <r>  0.0626  0.0011  0.0001  0.0032  0.0000  0.0000  0.0000  0.0000  0.0000 </r>
        <r>  0.0516  0.0014  0.0001  0.0041  0.0000  0.0000  0.0000  0.0000  0.0000 </r>
        <r>  0.0000  0.0000  0.0583  0.0000  0.0000  0.0000  0.0000  0.0000  0.0000 </r>
        <r>  0.0001  0.0000  0.0747  0.0000  0.0000  0.0000  0.0000  0.0000  0.0000 </r>
       </set>
       <set comment="band 14">
        <r>  0.0001  0.0000  0.0747  0.0000  0.0000  0.0000  0.0000  0.0000  0.0000 </r>
        <r>  0.0000  0.0000  0.0583  0.0000  0.0000  0.0000  0.0000  0.0000  0.0000 </r>
        <r>  0.0516  0.0014  0.0001  0.0041  0.0000  0.0000  0.0000  0.0000  0.0000 </r>
        <r>  0.0626  0.0011  0.0001  0.0032  0.0000  0.0000  0.0000  0.0000  0.0000 </r>
       </set>
      </set>
      <set comment="kpoint 11">
       <set comment="band 1">
        <r>  0.2987  0.0161  0.0000  0.0483  0.0000  0.0000  0.0000  0.0000  0.0000 </r>
        <r>  0.3007  0.0159  0.0000  0.0476  0.0000  0.0000  0.0000  0.0000  0.0000 </r>
        <r>  0.0000  0.0000  0.0000  0.0000  0.0000  0.0000  0.0000  0.0000  0.0000 </r>
        <r>  0.0000  0.0000  0.0000  0.0000  0.0000  0.0000  0.0000  0.0000  0.0000 </r>
       </set>
       <set comment="band 2">
        <r>  0.0000  0.0000  0.0000  0.0000  0.0000  0.0000  0.0000  0.0000  0.0000 </r>
        <r>  0.0000  0.0000  0.0000  0.0000  0.0000  0.0000  0.0000  0.0000  0.0000 </r>
        <r>  0.3007  0.0159  0.0000  0.0476  0.0000  0.0000  0.0000  0.0000  0.0000 </r>
        <r>  0.2987  0.0161  0.0000  0.0483  0.0000  0.0000  0.0000  0.0000  0.0000 </r>
       </set>
       <set comment="band 3">
        <r>  0.1389  0.0492  0.0000  0.1475  0.0000  0.0000  0.0000  0.0000  0.0000 </r>
        <r>  0.1371  0.0495  0.0000  0.1484  0.0000  0.0000  0.0000  0.0000  0.0000 </r>
        <r>  0.0000  0.0000  0.0000  0.0000  0.0000  0.0000  0.0000  0.0000  0.0000 </r>
        <r>  0.0000  0.0000  0.0000  0.0000  0.0000  0.0000  0.0000  0.0000  0.0000 </r>
       </set>
       <set comment="band 4">
        <r>  0.0000  0.0000  0.0000  0.0000  0.0000  0.0000  0.0000  0.0000  0.0000 </r>
        <r>  0.0000  0.0000  0.0000  0.0000  0.0000  0.0000  0.0000  0.0000  0.0000 </r>
        <r>  0.1371  0.0495  0.0000  0.1484  0.0000  0.0000  0.0000  0.0000  0.0000 </r>
        <r>  0.1389  0.0492  0.0000  0.1475  0.0000  0.0000  0.0000  0.0000  0.0000 </r>
       </set>
       <set comment="band 5">
        <r>  0.0000  0.2965  0.0000  0.0988  0.0000  0.0000  0.0000  0.0000  0.0000 </r>
        <r>  0.0000  0.2968  0.0000  0.0989  0.0000  0.0000  0.0000  0.0000  0.0000 </r>
        <r>  0.0000  0.0000  0.0000  0.0000  0.0000  0.0000  0.0000  0.0000  0.0000 </r>
        <r>  0.0000  0.0000  0.0000  0.0000  0.0000  0.0000  0.0000  0.0000  0.0000 </r>
       </set>
       <set comment="band 6">
        <r>  0.0000  0.0000  0.0000  0.0000  0.0000  0.0000  0.0000  0.0000  0.0000 </r>
        <r>  0.0000  0.0000  0.0000  0.0000  0.0000  0.0000  0.0000  0.0000  0.0000 </r>
        <r>  0.0000  0.2968  0.0000  0.0989  0.0000  0.0000  0.0000  0.0000  0.0000 </r>
        <r>  0.0000  0.2965  0.0000  0.0988  0.0000  0.0000  0.0000  0.0000  0.0000 </r>
       </set>
       <set comment="band 7">
        <r>  0.0000  0.0000  0.2545  0.0000  0.0000  0.0000  0.0000  0.0000  0.0000 </r>
        <r>  0.0000  0.0000  0.2564  0.0000  0.0000  0.0000  0.0000  0.0000  0.0000 </r>
        <r>  0.0008  0.0000  0.0000  0.0001  0.0000  0.0000  0.0000  0.0000  0.0000 </r>
        <r>  0.0000  0.0002  0.0000  0.0007  0.0000  0.0000  0.0000  0.0000  0.0000 </r>
       </set>
       <set comment="band 8">
        <r>  0.0000  0.0002  0.0000  0.0007  0.0000  0.0000  0.0000  0.0000  0.0000 </r>
        <r>  0.0008  0.0000  0.0000  0.0001  0.0000  0.0000  0.0000  0.0000  0.0000 </r>
        <r>  0.0000  0.0000  0.2564  0.0000  0.0000  0.0000  0.0000  0.0000  0.0000 </r>
        <r>  0.0000  0.0000  0.2545  0.0000  0.0000  0.0000  0.0000  0.0000  0.0000 </r>
       </set>
       <set comment="band 9">
        <r>  0.0000  0.0000  0.2225  0.0000  0.0000  0.0000  0.0000  0.0000  0.0000 </r>
        <r>  0.0000  0.0000  0.2202  0.0000  0.0000  0.0000  0.0000  0.0000  0.0000 </r>
        <r>  0.0002  0.0003  0.0000  0.0008  0.0000  0.0000  0.0000  0.0000  0.0000 </r>
        <r>  0.0015  0.0000  0.0000  0.0000  0.0000  0.0000  0.0000  0.0000  0.0000 </r>
       </set>
       <set comment="band 10">
        <r>  0.0015  0.0000  0.0000  0.0000  0.0000  0.0000  0.0000  0.0000  0.0000 </r>
        <r>  0.0002  0.0003  0.0000  0.0008  0.0000  0.0000  0.0000  0.0000  0.0000 </r>
        <r>  0.0000  0.0000  0.2202  0.0000  0.0000  0.0000  0.0000  0.0000  0.0000 </r>
        <r>  0.0000  0.0000  0.2225  0.0000  0.0000  0.0000  0.0000  0.0000  0.0000 </r>
       </set>
       <set comment="band 11">
        <r>  0.1805  0.0099  0.0000  0.0297  0.0000  0.0000  0.0000  0.0000  0.0000 </r>
        <r>  0.1830  0.0103  0.0000  0.0308  0.0000  0.0000  0.0000  0.0000  0.0000 </r>
        <r>  0.0000  0.0000  0.0000  0.0000  0.0000  0.0000  0.0000  0.0000  0.0000 </r>
        <r>  0.0000  0.0000  0.0000  0.0000  0.0000  0.0000  0.0000  0.0000  0.0000 </r>
       </set>
       <set comment="band 12">
        <r>  0.0000  0.0000  0.0000  0.0000  0.0000  0.0000  0.0000  0.0000  0.0000 </r>
        <r>  0.0000  0.0000  0.0000  0.0000  0.0000  0.0000  0.0000  0.0000  0.0000 </r>
        <r>  0.1830  0.0103  0.0000  0.0308  0.0000  0.0000  0.0000  0.0000  0.0000 </r>
        <r>  0.1805  0.0099  0.0000  0.0297  0.0000  0.0000  0.0000  0.0000  0.0000 </r>
       </set>
       <set comment="band 13">
        <r>  0.0089  0.0012  0.0148  0.0035  0.0000  0.0000  0.0000  0.0000  0.0000 </r>
        <r>  0.0005  0.0091  0.0167  0.0274  0.0000  0.0000  0.0000  0.0000  0.0000 </r>
        <r>  0.0001  0.0020  0.0775  0.0059  0.0000  0.0000  0.0000  0.0000  0.0000 </r>
        <r>  0.0019  0.0002  0.0689  0.0007  0.0000  0.0000  0.0000  0.0000  0.0000 </r>
       </set>
       <set comment="band 14">
        <r>  0.0019  0.0002  0.0689  0.0007  0.0000  0.0000  0.0000  0.0000  0.0000 </r>
        <r>  0.0001  0.0020  0.0775  0.0059  0.0000  0.0000  0.0000  0.0000  0.0000 </r>
        <r>  0.0005  0.0091  0.0167  0.0274  0.0000  0.0000  0.0000  0.0000  0.0000 </r>
        <r>  0.0089  0.0012  0.0148  0.0035  0.0000  0.0000  0.0000  0.0000  0.0000 </r>
       </set>
      </set>
      <set comment="kpoint 12">
       <set comment="band 1">
        <r>  0.2603  0.0637  0.0000  0.0223  0.0000  0.0000  0.0000  0.0000  0.0000 </r>
        <r>  0.2609  0.0636  0.0000  0.0222  0.0000  0.0000  0.0000  0.0000  0.0000 </r>
        <r>  0.0000  0.0000  0.0000  0.0000  0.0000  0.0000  0.0000  0.0000  0.0000 </r>
        <r>  0.0000  0.0000  0.0000  0.0000  0.0000  0.0000  0.0000  0.0000  0.0000 </r>
       </set>
       <set comment="band 2">
        <r>  0.0000  0.0000  0.0000  0.0000  0.0000  0.0000  0.0000  0.0000  0.0000 </r>
        <r>  0.0000  0.0000  0.0000  0.0000  0.0000  0.0000  0.0000  0.0000  0.0000 </r>
        <r>  0.2609  0.0636  0.0000  0.0222  0.0000  0.0000  0.0000  0.0000  0.0000 </r>
        <r>  0.2603  0.0637  0.0000  0.0223  0.0000  0.0000  0.0000  0.0000  0.0000 </r>
       </set>
       <set comment="band 3">
        <r>  0.1921  0.1123  0.0000  0.0751  0.0000  0.0000  0.0000  0.0000  0.0000 </r>
        <r>  0.1917  0.1128  0.0000  0.0751  0.0000  0.0000  0.0000  0.0000  0.0000 </r>
        <r>  0.0000  0.0000  0.0000  0.0000  0.0000  0.0000  0.0000  0.0000  0.0000 </r>
        <r>  0.0000  0.0000  0.0000  0.0000  0.0000  0.0000  0.0000  0.0000  0.0000 </r>
       </set>
       <set comment="band 4">
        <r>  0.0000  0.0000  0.0000  0.0000  0.0000  0.0000  0.0000  0.0000  0.0000 </r>
        <r>  0.0000  0.0000  0.0000  0.0000  0.0000  0.0000  0.0000  0.0000  0.0000 </r>
        <r>  0.1917  0.1128  0.0000  0.0751  0.0000  0.0000  0.0000  0.0000  0.0000 </r>
        <r>  0.1921  0.1123  0.0000  0.0751  0.0000  0.0000  0.0000  0.0000  0.0000 </r>
       </set>
       <set comment="band 5">
        <r>  0.0250  0.1173  0.0000  0.2051  0.0000  0.0000  0.0000  0.0000  0.0000 </r>
        <r>  0.0248  0.1173  0.0000  0.2055  0.0000  0.0000  0.0000  0.0000  0.0000 </r>
        <r>  0.0000  0.0000  0.0000  0.0000  0.0000  0.0000  0.0000  0.0000  0.0000 </r>
        <r>  0.0000  0.0000  0.0000  0.0000  0.0000  0.0000  0.0000  0.0000  0.0000 </r>
       </set>
       <set comment="band 6">
        <r>  0.0000  0.0000  0.0000  0.0000  0.0000  0.0000  0.0000  0.0000  0.0000 </r>
        <r>  0.0000  0.0000  0.0000  0.0000  0.0000  0.0000  0.0000  0.0000  0.0000 </r>
        <r>  0.0248  0.1173  0.0000  0.2055  0.0000  0.0000  0.0000  0.0000  0.0000 </r>
        <r>  0.0250  0.1173  0.0000  0.2051  0.0000  0.0000  0.0000  0.0000  0.0000 </r>
       </set>
       <set comment="band 7">
        <r>  0.0000  0.0000  0.2409  0.0000  0.0000  0.0000  0.0000  0.0000  0.0000 </r>
        <r>  0.0000  0.0000  0.2424  0.0000  0.0000  0.0000  0.0000  0.0000  0.0000 </r>
        <r>  0.0008  0.0002  0.0000  0.0001  0.0000  0.0000  0.0000  0.0000  0.0000 </r>
        <r>  0.0004  0.0006  0.0000  0.0002  0.0000  0.0000  0.0000  0.0000  0.0000 </r>
       </set>
       <set comment="band 8">
        <r>  0.0004  0.0006  0.0000  0.0002  0.0000  0.0000  0.0000  0.0000  0.0000 </r>
        <r>  0.0008  0.0002  0.0000  0.0001  0.0000  0.0000  0.0000  0.0000  0.0000 </r>
        <r>  0.0000  0.0000  0.2424  0.0000  0.0000  0.0000  0.0000  0.0000  0.0000 </r>
        <r>  0.0000  0.0000  0.2409  0.0000  0.0000  0.0000  0.0000  0.0000  0.0000 </r>
       </set>
       <set comment="band 9">
        <r>  0.0000  0.0000  0.2763  0.0000  0.0000  0.0000  0.0000  0.0000  0.0000 </r>
        <r>  0.0000  0.0000  0.2741  0.0000  0.0000  0.0000  0.0000  0.0000  0.0000 </r>
        <r>  0.0001  0.0002  0.0000  0.0002  0.0000  0.0000  0.0000  0.0000  0.0000 </r>
        <r>  0.0000  0.0003  0.0000  0.0007  0.0000  0.0000  0.0000  0.0000  0.0000 </r>
       </set>
       <set comment="band 10">
        <r>  0.0000  0.0003  0.0000  0.0007  0.0000  0.0000  0.0000  0.0000  0.0000 </r>
        <r>  0.0001  0.0002  0.0000  0.0002  0.0000  0.0000  0.0000  0.0000  0.0000 </r>
        <r>  0.0000  0.0000  0.2741  0.0000  0.0000  0.0000  0.0000  0.0000  0.0000 </r>
        <r>  0.0000  0.0000  0.2763  0.0000  0.0000  0.0000  0.0000  0.0000  0.0000 </r>
       </set>
       <set comment="band 11">
        <r>  0.0000  0.0000  0.0353  0.0000  0.0000  0.0000  0.0000  0.0000  0.0000 </r>
        <r>  0.0000  0.0000  0.0407  0.0000  0.0000  0.0000  0.0000  0.0000  0.0000 </r>
        <r>  0.0046  0.0334  0.0000  0.0270  0.0000  0.0000  0.0000  0.0000  0.0000 </r>
        <r>  0.0001  0.0056  0.0000  0.0035  0.0000  0.0000  0.0000  0.0000  0.0000 </r>
       </set>
       <set comment="band 12">
        <r>  0.0001  0.0056  0.0000  0.0035  0.0000  0.0000  0.0000  0.0000  0.0000 </r>
        <r>  0.0046  0.0334  0.0000  0.0270  0.0000  0.0000  0.0000  0.0000  0.0000 </r>
        <r>  0.0000  0.0000  0.0407  0.0000  0.0000  0.0000  0.0000  0.0000  0.0000 </r>
        <r>  0.0000  0.0000  0.0353  0.0000  0.0000  0.0000  0.0000  0.0000  0.0000 </r>
       </set>
       <set comment="band 13">
        <r>  0.0014  0.0070  0.0103  0.0141  0.0000  0.0000  0.0000  0.0000  0.0000 </r>
        <r>  0.0069  0.0019  0.0002  0.0052  0.0000  0.0000  0.0000  0.0000  0.0000 </r>
        <r>  0.0752  0.0202  0.0000  0.0537  0.0000  0.0000  0.0000  0.0000  0.0000 </r>
        <r>  0.0146  0.0769  0.0010  0.1520  0.0000  0.0000  0.0000  0.0000  0.0000 </r>
       </set>
       <set comment="band 14">
        <r>  0.0143  0.0769  0.0010  0.1528  0.0000  0.0000  0.0000  0.0000  0.0000 </r>
        <r>  0.0755  0.0198  0.0000  0.0535  0.0000  0.0000  0.0000  0.0000  0.0000 </r>
        <r>  0.0070  0.0019  0.0002  0.0051  0.0000  0.0000  0.0000  0.0000  0.0000 </r>
        <r>  0.0014  0.0072  0.0103  0.0141  0.0000  0.0000  0.0000  0.0000  0.0000 </r>
       </set>
      </set>
     </set>
    </set>
   </array>
  </projected>
 </calculation>
 <structure name="finalpos" >
  <crystal>
   <varray name="basis" >
    <v>       2.46120000       0.00000000       0.00000000 </v>
    <v>      -1.23060000       2.13146172       0.00000000 </v>
    <v>       0.00000000       0.00000000       6.70790000 </v>
   </varray>
   <i name="volume">     35.18933212 </i>
   <varray name="rec_basis" >
    <v>       0.40630587       0.23458080       0.00000000 </v>
    <v>       0.00000000       0.46916160       0.00000000 </v>
    <v>       0.00000000       0.00000000       0.14907795 </v>
   </varray>
  </crystal>
  <varray name="positions" >
   <v>       0.00000000       0.00000000       0.00000000 </v>
   <v>       0.33333333       0.66666667       0.00000000 </v>
   <v>       0.33333333       0.66666667       0.50000000 </v>
   <v>       0.66666667       0.33333333       0.50000000 </v>
  </varray>
 </structure>
</modeling>
