    3    3   50    1
  0.3333333E+03  0.1000000E-08  0.1000000E-08  0.1000000E-08  0.5000000E-15
  1.000000000000000E-004
  CAR 
 unknown system                          
   16    1   12
 
  0.0000000E+00  0.0000000E+00  0.0000000E+00  0.1000000E+01
   1      -28.939261
   2      -27.923540
   3      -13.563346
   4      -12.416169
   5      -12.416169
   6      -12.371261
   7       -8.849987
   8       -8.849987
   9       -0.917323
  10       -0.398643
  11       -0.398643
  12        0.526446
