       N       E                     dE             d eps       ncg     rms          rms(c)
DAV:   1     0.979745524068E+02    0.97975E+02   -0.43218E+03    32   0.719E+02
DAV:   2    -0.492294811283E+01   -0.10290E+03   -0.10188E+03    40   0.176E+02
DAV:   3    -0.238968938856E+02   -0.18974E+02   -0.18912E+02    32   0.813E+01
DAV:   4    -0.247302594946E+02   -0.83337E+00   -0.82831E+00    32   0.160E+01
DAV:   5    -0.247574576971E+02   -0.27198E-01   -0.26647E-01    32   0.316E+00    0.857E+00
DAV:   6    -0.231028268335E+02    0.16546E+01   -0.49764E+00    28   0.207E+01    0.341E+00
DAV:   7    -0.229650315942E+02    0.13780E+00   -0.26228E-01    24   0.473E+00    0.193E+00
DAV:   8    -0.229054540756E+02    0.59578E-01   -0.24439E-01    28   0.377E+00    0.415E-01
DAV:   9    -0.229026472220E+02    0.28069E-02   -0.28361E-02    28   0.153E+00    0.256E-01
DAV:  10    -0.229031067676E+02   -0.45955E-03   -0.29041E-03    28   0.569E-01    0.563E-02
DAV:  11    -0.229067103088E+02   -0.36035E-02   -0.79711E-04    28   0.201E-01    0.214E-02
DAV:  12    -0.229083250533E+02   -0.16147E-02   -0.14504E-04    16   0.798E-02    0.208E-02
DAV:  13    -0.229105106956E+02   -0.21856E-02   -0.42617E-04    24   0.111E-01    0.113E-02
DAV:  14    -0.229109796159E+02   -0.46892E-03   -0.36110E-05    20   0.485E-02    0.691E-03
DAV:  15    -0.229113287673E+02   -0.34915E-03   -0.33169E-05    20   0.346E-02    0.299E-03
DAV:  16    -0.229114163133E+02   -0.87546E-04   -0.10553E-05    20   0.220E-02
   1 F= -.22911416E+02 E0= -.22913349E+02  d E =-.229114E+02
       N       E                     dE             d eps       ncg     rms          rms(c)
DAV:   1    -0.225081227535E+02    0.40321E+00   -0.80602E+01    24   0.879E+01    0.282E+00
DAV:   2    -0.225391876146E+02   -0.31065E-01   -0.20066E+00    32   0.129E+01    0.117E+00
DAV:   3    -0.225142469578E+02    0.24941E-01   -0.44468E-02    28   0.236E+00    0.602E-01
DAV:   4    -0.225130055874E+02    0.12414E-02   -0.20782E-02    28   0.132E+00    0.207E-01
DAV:   5    -0.225136546692E+02   -0.64908E-03   -0.87335E-04    28   0.296E-01    0.821E-02
DAV:   6    -0.225138692284E+02   -0.21456E-03   -0.19959E-04    28   0.140E-01    0.194E-02
DAV:   7    -0.225138965731E+02   -0.27345E-04   -0.39502E-05    20   0.635E-02
   2 F= -.22513897E+02 E0= -.22515829E+02  d E =0.397520E+00
       N       E                     dE             d eps       ncg     rms          rms(c)
DAV:   1    -0.229150510013E+02   -0.40118E+00   -0.47066E+01    24   0.687E+01    0.190E+00
DAV:   2    -0.229577692785E+02   -0.42718E-01   -0.10676E+00    28   0.970E+00    0.918E-01
DAV:   3    -0.229390960002E+02    0.18673E-01   -0.29603E-02    28   0.175E+00    0.431E-01
DAV:   4    -0.229382065986E+02    0.88940E-03   -0.17803E-02    28   0.117E+00    0.122E-01
DAV:   5    -0.229383910521E+02   -0.18445E-03   -0.10050E-03    28   0.295E-01    0.655E-02
DAV:   6    -0.229385765161E+02   -0.18546E-03   -0.57899E-05    20   0.856E-02    0.108E-02
DAV:   7    -0.229386309682E+02   -0.54452E-04   -0.11270E-05    20   0.356E-02
   3 F= -.22938631E+02 E0= -.22940564E+02  d E =-.424734E+00
       N       E                     dE             d eps       ncg     rms          rms(c)
DAV:   1    -0.229405917629E+02   -0.20152E-02   -0.35437E-01    28   0.592E+00    0.181E-01
DAV:   2    -0.229406832401E+02   -0.91477E-04   -0.81230E-03    24   0.842E-01    0.806E-02
DAV:   3    -0.229405603030E+02    0.12294E-03   -0.23614E-04    20   0.166E-01    0.386E-02
DAV:   4    -0.229405965692E+02   -0.36266E-04   -0.17455E-04    16   0.121E-01
   4 F= -.22940597E+02 E0= -.22942529E+02  d E =-.196560E-02
       N       E                     dE             d eps       ncg     rms          rms(c)
DAV:   1    -0.229407674052E+02   -0.20710E-03   -0.16894E-02    24   0.129E+00    0.396E-02
DAV:   2    -0.229407812175E+02   -0.13812E-04   -0.38253E-04    24   0.183E-01
   5 F= -.22940781E+02 E0= -.22942714E+02  d E =-.184648E-03
