   1   1   1   0
  0.1813235E+02  0.2866544E-09  0.2866544E-09  0.2866544E-09  0.5000000E-15
  1.000000000000000E-004
  CAR 
 unknown system                          
     13.56675732      1.32767239  301      6.64746284      1.00000000
      1.328  0.0000E+00  0.0000E+00  0.0000E+00  0.0000E+00
      1.368  0.0000E+00  0.0000E+00  0.0000E+00  0.0000E+00
      1.409  0.0000E+00  0.0000E+00  0.0000E+00  0.0000E+00
      1.450 -0.8767E-31  0.0000E+00 -0.3577E-32  0.0000E+00
      1.491 -0.5775E-25  0.0000E+00 -0.2356E-26  0.0000E+00
      1.532 -0.9936E-20  0.0000E+00 -0.4054E-21  0.0000E+00
      1.572 -0.4454E-15  0.0000E+00 -0.1817E-16  0.0000E+00
      1.613 -0.5009E-11  0.0000E+00 -0.2044E-12  0.0000E+00
      1.654 -0.1484E-07  0.0000E+00 -0.6056E-09  0.0000E+00
      1.695 -0.1113E-04  0.0000E+00 -0.4546E-06  0.0000E+00
      1.736 -0.2051E-02 -0.4990E-27 -0.8412E-04 -0.2036E-28
      1.776 -0.8546E-01 -0.1404E-21 -0.3571E-02 -0.5729E-23
      1.817 -0.5347E+00 -0.1031E-16 -0.2539E-01 -0.4204E-18
      1.858  0.2820E+01 -0.1905E-12  0.8964E-01 -0.7772E-14
      1.899  0.1139E+02 -0.9306E-09  0.5544E+00 -0.3797E-10
      1.940  0.5404E+01 -0.1157E-05  0.7749E+00 -0.4724E-07
      1.980 -0.4267E+00 -0.3584E-03  0.7575E+00 -0.1467E-04
      2.021 -0.1772E+00 -0.2619E-01  0.7503E+00 -0.1083E-02
      2.062 -0.6613E-02 -0.3687E+00  0.7500E+00 -0.1613E-01
      2.103 -0.5316E-04  0.4959E+00  0.7500E+00  0.4106E-02
      2.144 -0.1035E-06  0.9058E+01  0.7500E+00  0.3737E+00
      2.184 -0.5073E-10  0.9105E+01  0.7500E+00  0.7451E+00
      2.225 -0.8164E-14  0.5184E+00  0.7500E+00  0.7663E+00
      2.266  0.0000E+00 -0.3718E+00  0.7500E+00  0.7511E+00
      2.307  0.0000E+00 -0.2667E-01  0.7500E+00  0.7500E+00
      2.348  0.0000E+00 -0.3679E-03  0.7500E+00  0.7500E+00
      2.388  0.0000E+00 -0.1196E-05  0.7500E+00  0.7500E+00
      2.429  0.0000E+00 -0.9692E-09  0.7500E+00  0.7500E+00
      2.470  0.0000E+00 -0.2000E-12  0.7500E+00  0.7500E+00
      2.511  0.0000E+00  0.0000E+00  0.7500E+00  0.7500E+00
      2.552  0.0000E+00  0.0000E+00  0.7500E+00  0.7500E+00
      2.592  0.0000E+00  0.0000E+00  0.7500E+00  0.7500E+00
      2.633  0.0000E+00  0.0000E+00  0.7500E+00  0.7500E+00
      2.674  0.0000E+00  0.0000E+00  0.7500E+00  0.7500E+00
      2.715  0.0000E+00  0.0000E+00  0.7500E+00  0.7500E+00
      2.756  0.0000E+00  0.0000E+00  0.7500E+00  0.7500E+00
      2.796  0.0000E+00  0.0000E+00  0.7500E+00  0.7500E+00
      2.837  0.0000E+00  0.0000E+00  0.7500E+00  0.7500E+00
      2.878  0.0000E+00  0.0000E+00  0.7500E+00  0.7500E+00
      2.919  0.0000E+00  0.0000E+00  0.7500E+00  0.7500E+00
      2.960  0.0000E+00  0.0000E+00  0.7500E+00  0.7500E+00
      3.000  0.0000E+00  0.0000E+00  0.7500E+00  0.7500E+00
      3.041  0.0000E+00  0.0000E+00  0.7500E+00  0.7500E+00
      3.082  0.0000E+00  0.0000E+00  0.7500E+00  0.7500E+00
      3.123  0.0000E+00  0.0000E+00  0.7500E+00  0.7500E+00
      3.164  0.0000E+00  0.0000E+00  0.7500E+00  0.7500E+00
      3.204  0.0000E+00  0.0000E+00  0.7500E+00  0.7500E+00
      3.245  0.0000E+00  0.0000E+00  0.7500E+00  0.7500E+00
      3.286  0.0000E+00  0.0000E+00  0.7500E+00  0.7500E+00
      3.327  0.0000E+00  0.0000E+00  0.7500E+00  0.7500E+00
      3.368  0.0000E+00  0.0000E+00  0.7500E+00  0.7500E+00
      3.408  0.0000E+00  0.0000E+00  0.7500E+00  0.7500E+00
      3.449  0.0000E+00  0.0000E+00  0.7500E+00  0.7500E+00
      3.490  0.0000E+00  0.0000E+00  0.7500E+00  0.7500E+00
      3.531  0.0000E+00  0.0000E+00  0.7500E+00  0.7500E+00
      3.572  0.0000E+00  0.0000E+00  0.7500E+00  0.7500E+00
      3.612  0.0000E+00  0.0000E+00  0.7500E+00  0.7500E+00
      3.653  0.0000E+00  0.0000E+00  0.7500E+00  0.7500E+00
      3.694  0.0000E+00  0.0000E+00  0.7500E+00  0.7500E+00
      3.735  0.0000E+00  0.0000E+00  0.7500E+00  0.7500E+00
      3.775  0.0000E+00  0.0000E+00  0.7500E+00  0.7500E+00
      3.816  0.0000E+00  0.0000E+00  0.7500E+00  0.7500E+00
      3.857 -0.6320E-26  0.0000E+00  0.7500E+00  0.7500E+00
      3.898 -0.1371E-20  0.0000E+00  0.7500E+00  0.7500E+00
      3.939 -0.7748E-16  0.0000E+00  0.7500E+00  0.7500E+00
      3.979 -0.1101E-11  0.0000E+00  0.7500E+00  0.7500E+00
      4.020 -0.4127E-08  0.0000E+00  0.7500E+00  0.7500E+00
      4.061 -0.3928E-05  0.0000E+00  0.7500E+00  0.7500E+00
      4.102 -0.9250E-03  0.0000E+00  0.7500E+00  0.7500E+00
      4.143 -0.5037E-01  0.0000E+00  0.7479E+00  0.7500E+00
      4.183 -0.4767E+00  0.0000E+00  0.7285E+00  0.7500E+00
      4.224  0.1538E+01 -0.2954E-31  0.7912E+00  0.7500E+00
      4.265  0.1058E+02 -0.2158E-25  0.1223E+01  0.7500E+00
      4.306  0.7199E+01 -0.4117E-20  0.1516E+01  0.7500E+00
      4.347 -0.1303E+00 -0.2047E-15  0.1511E+01  0.7500E+00
      4.387 -0.2606E+00 -0.2557E-11  0.1501E+01  0.7500E+00
      4.428 -0.1308E-01 -0.8415E-08  0.1500E+01  0.7500E+00
      4.469 -0.1352E-03 -0.7021E-05  0.1500E+01  0.7500E+00
      4.510 -0.4603E-06 -0.1444E-02  0.1500E+01  0.7499E+00
      4.551 -0.6195E-04 -0.6789E-01  0.1500E+01  0.7472E+00
      4.591 -0.7402E-02 -0.5161E+00  0.1500E+01  0.7261E+00
      4.632 -0.1893E+00  0.2207E+01  0.1492E+01  0.8161E+00
      4.673 -0.3938E+00  0.1110E+02  0.1476E+01  0.1269E+01
      4.714  0.5690E+01  0.6202E+01  0.1708E+01  0.1522E+01
      4.755  0.1130E+02 -0.4286E+00  0.2169E+01  0.1505E+01
      4.795  0.2592E+01 -0.7486E+00  0.2275E+01  0.1474E+01
      4.836 -0.5297E+00  0.3486E+01  0.2253E+01  0.1616E+01
      4.877 -0.7877E-01  0.1156E+02  0.2250E+01  0.2088E+01
      4.918 -0.1810E-02  0.4620E+01  0.2250E+01  0.2276E+01
      4.959 -0.9440E-05 -0.4936E+00  0.2250E+01  0.2256E+01
      4.999 -0.1211E-07 -0.1461E+00  0.2250E+01  0.2250E+01
      5.040 -0.3939E-11 -0.4798E-02  0.2250E+01  0.2250E+01
      5.081  0.0000E+00 -0.3448E-04  0.2250E+01  0.2250E+01
      5.122  0.0000E+00 -0.6029E-07  0.2250E+01  0.2250E+01
      5.163  0.0000E+00 -0.2657E-10  0.2250E+01  0.2250E+01
      5.203  0.0000E+00 -0.4082E-14  0.2250E+01  0.2250E+01
      5.244  0.0000E+00  0.0000E+00  0.2250E+01  0.2250E+01
      5.285  0.0000E+00  0.0000E+00  0.2250E+01  0.2250E+01
      5.326  0.0000E+00  0.0000E+00  0.2250E+01  0.2250E+01
      5.367  0.0000E+00  0.0000E+00  0.2250E+01  0.2250E+01
      5.407  0.0000E+00  0.0000E+00  0.2250E+01  0.2250E+01
      5.448  0.0000E+00  0.0000E+00  0.2250E+01  0.2250E+01
      5.489  0.0000E+00  0.0000E+00  0.2250E+01  0.2250E+01
      5.530  0.0000E+00  0.0000E+00  0.2250E+01  0.2250E+01
      5.571  0.0000E+00  0.0000E+00  0.2250E+01  0.2250E+01
      5.611  0.0000E+00  0.0000E+00  0.2250E+01  0.2250E+01
      5.652  0.0000E+00  0.0000E+00  0.2250E+01  0.2250E+01
      5.693  0.0000E+00  0.0000E+00  0.2250E+01  0.2250E+01
      5.734  0.0000E+00  0.0000E+00  0.2250E+01  0.2250E+01
      5.775  0.0000E+00  0.0000E+00  0.2250E+01  0.2250E+01
      5.815  0.0000E+00  0.0000E+00  0.2250E+01  0.2250E+01
      5.856  0.0000E+00  0.0000E+00  0.2250E+01  0.2250E+01
      5.897  0.0000E+00  0.0000E+00  0.2250E+01  0.2250E+01
      5.938  0.0000E+00  0.0000E+00  0.2250E+01  0.2250E+01
      5.979  0.0000E+00  0.0000E+00  0.2250E+01  0.2250E+01
      6.019  0.0000E+00  0.0000E+00  0.2250E+01  0.2250E+01
      6.060  0.0000E+00  0.0000E+00  0.2250E+01  0.2250E+01
      6.101  0.0000E+00  0.0000E+00  0.2250E+01  0.2250E+01
      6.142  0.0000E+00  0.0000E+00  0.2250E+01  0.2250E+01
      6.183  0.0000E+00  0.0000E+00  0.2250E+01  0.2250E+01
      6.223 -0.1584E-30  0.0000E+00  0.2250E+01  0.2250E+01
      6.264 -0.1053E-24  0.0000E+00  0.2250E+01  0.2250E+01
      6.305 -0.1830E-19  0.0000E+00  0.2250E+01  0.2250E+01
      6.346 -0.8284E-15  0.0000E+00  0.2250E+01  0.2250E+01
      6.386 -0.9406E-11  0.0000E+00  0.2250E+01  0.2250E+01
      6.427 -0.2815E-07  0.0000E+00  0.2250E+01  0.2250E+01
      6.468 -0.2132E-04  0.0000E+00  0.2250E+01  0.2250E+01
      6.509 -0.3970E-02  0.0000E+00  0.2250E+01  0.2250E+01
      6.550 -0.1673E+00  0.0000E+00  0.2243E+01  0.2250E+01
      6.590 -0.1067E+01  0.0000E+00  0.2199E+01  0.2250E+01
      6.631  0.5519E+01  0.0000E+00  0.2425E+01  0.2250E+01
      6.672  0.2274E+02  0.0000E+00  0.3352E+01  0.2250E+01
      6.713  0.1096E+02 -0.1787E-30  0.3799E+01  0.2250E+01
      6.754 -0.8373E+00 -0.1175E-24  0.3765E+01  0.2250E+01
      6.794 -0.3606E+00 -0.2018E-19  0.3751E+01  0.2250E+01
      6.835 -0.1362E-01 -0.9031E-15  0.3750E+01  0.2250E+01
      6.876 -0.1107E-03 -0.1014E-10  0.3750E+01  0.2250E+01
      6.917 -0.2177E-06 -0.2997E-07  0.3750E+01  0.2250E+01
      6.958 -0.1077E-09 -0.2244E-04  0.3750E+01  0.2250E+01
      6.998 -0.1633E-13 -0.4127E-02  0.3750E+01  0.2250E+01
      7.039  0.0000E+00 -0.1716E+00  0.3750E+01  0.2243E+01
      7.080  0.0000E+00 -0.1070E+01  0.3750E+01  0.2199E+01
      7.121  0.0000E+00  0.5662E+01  0.3750E+01  0.2430E+01
      7.162  0.0000E+00  0.2279E+02  0.3750E+01  0.3360E+01
      7.202  0.0000E+00  0.1078E+02  0.3750E+01  0.3800E+01
      7.243  0.0000E+00 -0.8565E+00  0.3750E+01  0.3765E+01
      7.284  0.0000E+00 -0.3532E+00  0.3750E+01  0.3751E+01
      7.325  0.0000E+00 -0.1315E-01  0.3750E+01  0.3750E+01
      7.366  0.0000E+00 -0.1055E-03  0.3750E+01  0.3750E+01
      7.406  0.0000E+00 -0.2051E-06  0.3750E+01  0.3750E+01
      7.447  0.0000E+00 -0.1003E-09  0.3750E+01  0.3750E+01
      7.488  0.0000E+00 -0.1633E-13  0.3750E+01  0.3750E+01
      7.529  0.0000E+00  0.0000E+00  0.3750E+01  0.3750E+01
      7.570  0.0000E+00  0.0000E+00  0.3750E+01  0.3750E+01
      7.610  0.0000E+00  0.0000E+00  0.3750E+01  0.3750E+01
      7.651  0.0000E+00  0.0000E+00  0.3750E+01  0.3750E+01
      7.692  0.0000E+00  0.0000E+00  0.3750E+01  0.3750E+01
      7.733  0.0000E+00  0.0000E+00  0.3750E+01  0.3750E+01
      7.774  0.0000E+00  0.0000E+00  0.3750E+01  0.3750E+01
      7.814  0.0000E+00  0.0000E+00  0.3750E+01  0.3750E+01
      7.855  0.0000E+00  0.0000E+00  0.3750E+01  0.3750E+01
      7.896  0.0000E+00  0.0000E+00  0.3750E+01  0.3750E+01
      7.937  0.0000E+00  0.0000E+00  0.3750E+01  0.3750E+01
      7.978  0.0000E+00  0.0000E+00  0.3750E+01  0.3750E+01
      8.018  0.0000E+00  0.0000E+00  0.3750E+01  0.3750E+01
      8.059  0.0000E+00  0.0000E+00  0.3750E+01  0.3750E+01
      8.100  0.0000E+00  0.0000E+00  0.3750E+01  0.3750E+01
      8.141 -0.3044E-26  0.0000E+00  0.3750E+01  0.3750E+01
      8.182 -0.7118E-21  0.0000E+00  0.3750E+01  0.3750E+01
      8.222 -0.4340E-16  0.0000E+00  0.3750E+01  0.3750E+01
      8.263 -0.6661E-12  0.0000E+00  0.3750E+01  0.3750E+01
      8.304 -0.2694E-08  0.0000E+00  0.3750E+01  0.3750E+01
      8.345 -0.2771E-05  0.0000E+00  0.3750E+01  0.3750E+01
      8.386 -0.7066E-03  0.0000E+00  0.3750E+01  0.3750E+01
      8.426 -0.4194E-01  0.0000E+00  0.3748E+01  0.3750E+01
      8.467 -0.4478E+00  0.0000E+00  0.3730E+01  0.3750E+01
      8.508  0.1192E+01  0.0000E+00  0.3779E+01  0.3750E+01
      8.549  0.1019E+02  0.0000E+00  0.4195E+01  0.3750E+01
      8.590  0.7776E+01  0.0000E+00  0.4512E+01  0.3750E+01
      8.630  0.1971E-01 -0.1677E-29  0.4513E+01  0.3750E+01
      8.671 -0.2916E+00 -0.8313E-24  0.4501E+01  0.3750E+01
      8.712 -0.1618E-01 -0.1076E-18  0.4500E+01  0.3750E+01
      8.753 -0.1818E-03 -0.3625E-14  0.4500E+01  0.3750E+01
      8.794 -0.4870E-06 -0.3054E-10  0.4500E+01  0.3750E+01
      8.834 -0.3265E-09 -0.6773E-07  0.4500E+01  0.3750E+01
      8.875 -0.5715E-13 -0.3785E-04  0.4500E+01  0.3750E+01
      8.916  0.0000E+00 -0.5143E-02  0.4500E+01  0.3750E+01
      8.957  0.0000E+00 -0.1524E+00  0.4500E+01  0.3744E+01
      8.997  0.0000E+00 -0.4822E+00  0.4500E+01  0.3724E+01
      9.038  0.0000E+00  0.4785E+01  0.4500E+01  0.3919E+01
      9.079  0.0000E+00  0.1154E+02  0.4500E+01  0.4390E+01
      9.120  0.0000E+00  0.3345E+01  0.4500E+01  0.4526E+01
      9.161  0.0000E+00 -0.5378E+00  0.4500E+01  0.4504E+01
      9.201  0.0000E+00 -0.1017E+00  0.4500E+01  0.4500E+01
      9.242  0.0000E+00 -0.2688E-02  0.4500E+01  0.4500E+01
      9.283  0.0000E+00 -0.1592E-04  0.4500E+01  0.4500E+01
      9.324  0.0000E+00 -0.2309E-07  0.4500E+01  0.4500E+01
      9.365  0.0000E+00 -0.8466E-11  0.4500E+01  0.4500E+01
      9.405  0.0000E+00  0.0000E+00  0.4500E+01  0.4500E+01
      9.446  0.0000E+00  0.0000E+00  0.4500E+01  0.4500E+01
      9.487  0.0000E+00  0.0000E+00  0.4500E+01  0.4500E+01
      9.528  0.0000E+00  0.0000E+00  0.4500E+01  0.4500E+01
      9.569  0.0000E+00  0.0000E+00  0.4500E+01  0.4500E+01
      9.609  0.0000E+00  0.0000E+00  0.4500E+01  0.4500E+01
      9.650  0.0000E+00  0.0000E+00  0.4500E+01  0.4500E+01
      9.691  0.0000E+00  0.0000E+00  0.4500E+01  0.4500E+01
      9.732  0.0000E+00  0.0000E+00  0.4500E+01  0.4500E+01
      9.773  0.0000E+00  0.0000E+00  0.4500E+01  0.4500E+01
      9.813  0.0000E+00  0.0000E+00  0.4500E+01  0.4500E+01
      9.854  0.0000E+00  0.0000E+00  0.4500E+01  0.4500E+01
      9.895  0.0000E+00  0.0000E+00  0.4500E+01  0.4500E+01
      9.936  0.0000E+00  0.0000E+00  0.4500E+01  0.4500E+01
      9.977  0.0000E+00  0.0000E+00  0.4500E+01  0.4500E+01
     10.017  0.0000E+00  0.0000E+00  0.4500E+01  0.4500E+01
     10.058  0.0000E+00  0.0000E+00  0.4500E+01  0.4500E+01
     10.099 -0.9029E-31  0.0000E+00  0.4500E+01  0.4500E+01
     10.140 -0.5931E-25  0.0000E+00  0.4500E+01  0.4500E+01
     10.181 -0.1018E-19  0.0000E+00  0.4500E+01  0.4500E+01
     10.221 -0.4549E-15  0.0000E+00  0.4500E+01  0.4500E+01
     10.262 -0.5100E-11  0.0000E+00  0.4500E+01  0.4500E+01
     10.303 -0.1507E-07  0.0000E+00  0.4500E+01  0.4500E+01
     10.344 -0.1127E-04 -0.2679E-28  0.4500E+01  0.4500E+01
     10.385 -0.2070E-02 -0.1053E-22  0.4500E+01  0.4500E+01
     10.425 -0.8600E-01 -0.1083E-17  0.4496E+01  0.4500E+01
     10.466 -0.5376E+00 -0.2800E-13  0.4474E+01  0.4500E+01
     10.507  0.2753E+01 -0.1943E-09  0.4587E+01  0.4500E+01
     10.548  0.1105E+02 -0.3430E-06  0.5038E+01  0.4500E+01
     10.589  0.8104E+01 -0.1524E-03  0.5368E+01  0.4500E+01
     10.629  0.7303E+01 -0.1633E-01  0.5666E+01  0.4499E+01
     10.670  0.2495E+01 -0.3692E+00  0.5768E+01  0.4484E+01
     10.711 -0.3561E+00 -0.4751E+00  0.5753E+01  0.4465E+01
     10.752 -0.8262E-01  0.1066E+02  0.5750E+01  0.4900E+01
     10.793 -0.2447E-02  0.1833E+02  0.5750E+01  0.5648E+01
     10.833 -0.1606E-04  0.3465E+01  0.5750E+01  0.5789E+01
     10.874 -0.2572E-07 -0.8471E+00  0.5750E+01  0.5754E+01
     10.915 -0.1041E-10 -0.1076E+00  0.5750E+01  0.5750E+01
     10.956  0.0000E+00 -0.2247E-02  0.5750E+01  0.5750E+01
     10.997  0.0000E+00 -0.1077E-04  0.5750E+01  0.5750E+01
     11.037  0.0000E+00 -0.1278E-07  0.5750E+01  0.5750E+01
     11.078  0.0000E+00 -0.3855E-11  0.5750E+01  0.5750E+01
     11.119  0.0000E+00  0.0000E+00  0.5750E+01  0.5750E+01
     11.160  0.0000E+00  0.0000E+00  0.5750E+01  0.5750E+01
     11.201  0.0000E+00  0.0000E+00  0.5750E+01  0.5750E+01
     11.241  0.0000E+00  0.0000E+00  0.5750E+01  0.5750E+01
     11.282  0.0000E+00  0.0000E+00  0.5750E+01  0.5750E+01
     11.323  0.0000E+00  0.0000E+00  0.5750E+01  0.5750E+01
     11.364  0.0000E+00  0.0000E+00  0.5750E+01  0.5750E+01
     11.405  0.0000E+00  0.0000E+00  0.5750E+01  0.5750E+01
     11.445  0.0000E+00  0.0000E+00  0.5750E+01  0.5750E+01
     11.486  0.0000E+00  0.0000E+00  0.5750E+01  0.5750E+01
     11.527  0.0000E+00  0.0000E+00  0.5750E+01  0.5750E+01
     11.568  0.0000E+00  0.0000E+00  0.5750E+01  0.5750E+01
     11.609  0.0000E+00  0.0000E+00  0.5750E+01  0.5750E+01
     11.649  0.0000E+00  0.0000E+00  0.5750E+01  0.5750E+01
     11.690  0.0000E+00  0.0000E+00  0.5750E+01  0.5750E+01
     11.731  0.0000E+00  0.0000E+00  0.5750E+01  0.5750E+01
     11.772  0.0000E+00  0.0000E+00  0.5750E+01  0.5750E+01
     11.812  0.0000E+00  0.0000E+00  0.5750E+01  0.5750E+01
     11.853  0.0000E+00  0.0000E+00  0.5750E+01  0.5750E+01
     11.894  0.0000E+00  0.0000E+00  0.5750E+01  0.5750E+01
     11.935  0.0000E+00  0.0000E+00  0.5750E+01  0.5750E+01
     11.976  0.0000E+00  0.0000E+00  0.5750E+01  0.5750E+01
     12.016  0.0000E+00  0.0000E+00  0.5750E+01  0.5750E+01
     12.057 -0.2207E-31  0.0000E+00  0.5750E+01  0.5750E+01
     12.098 -0.1493E-25  0.0000E+00  0.5750E+01  0.5750E+01
     12.139 -0.2638E-20  0.0000E+00  0.5750E+01  0.5750E+01
     12.180 -0.1215E-15  0.0000E+00  0.5750E+01  0.5750E+01
     12.220 -0.1404E-11  0.0000E+00  0.5750E+01  0.5750E+01
     12.261 -0.4274E-08  0.0000E+00  0.5750E+01  0.5750E+01
     12.302 -0.3295E-05  0.0000E+00  0.5750E+01  0.5750E+01
     12.343 -0.6247E-03  0.0000E+00  0.5750E+01  0.5750E+01
     12.384 -0.2687E-01  0.0000E+00  0.5749E+01  0.5750E+01
     12.424 -0.1771E+00  0.0000E+00  0.5742E+01  0.5750E+01
     12.465  0.8849E+00  0.0000E+00  0.5778E+01  0.5750E+01
     12.506  0.3776E+01  0.0000E+00  0.5932E+01  0.5750E+01
     12.547  0.1870E+01  0.0000E+00  0.6008E+01  0.5750E+01
     12.588 -0.1345E+00 -0.1289E-29  0.6003E+01  0.5750E+01
     12.628 -0.6195E-01 -0.5891E-24  0.6000E+01  0.5750E+01
     12.669 -0.2391E-02 -0.7026E-19  0.6000E+01  0.5750E+01
     12.710 -0.1979E-04 -0.2181E-14  0.6000E+01  0.5750E+01
     12.751 -0.3962E-07 -0.1691E-10  0.6000E+01  0.5750E+01
     12.792 -0.1995E-10 -0.3451E-07  0.6000E+01  0.5750E+01
     12.832 -0.2721E-14 -0.1772E-04  0.6000E+01  0.5750E+01
     12.873  0.0000E+00 -0.2204E-02  0.6000E+01  0.5750E+01
     12.914  0.0000E+00 -0.5906E-01  0.6000E+01  0.5747E+01
     12.955  0.0000E+00 -0.1422E+00  0.6000E+01  0.5742E+01
     12.996  0.0000E+00  0.1801E+01  0.6000E+01  0.5815E+01
     13.036  0.0000E+00  0.3798E+01  0.6000E+01  0.5970E+01
     13.077  0.0000E+00  0.9398E+00  0.6000E+01  0.6008E+01
     13.118  0.0000E+00 -0.1782E+00  0.6000E+01  0.6001E+01
     13.159  0.0000E+00 -0.2849E-01  0.6000E+01  0.6000E+01
     13.200  0.0000E+00 -0.6836E-03  0.6000E+01  0.6000E+01
     13.240  0.0000E+00 -0.3710E-05  0.6000E+01  0.6000E+01
     13.281  0.0000E+00 -0.4946E-08  0.6000E+01  0.6000E+01
     13.322  0.0000E+00 -0.1670E-11  0.6000E+01  0.6000E+01
     13.363  0.0000E+00  0.0000E+00  0.6000E+01  0.6000E+01
     13.404  0.0000E+00  0.0000E+00  0.6000E+01  0.6000E+01
     13.444  0.0000E+00  0.0000E+00  0.6000E+01  0.6000E+01
     13.485  0.0000E+00  0.0000E+00  0.6000E+01  0.6000E+01
     13.526  0.0000E+00  0.0000E+00  0.6000E+01  0.6000E+01
     13.567  0.0000E+00  0.0000E+00  0.6000E+01  0.6000E+01
     13.56675732      1.32767239  301      6.64746284      1.00000000
      1.328  0.0000E+00  0.0000E+00  0.0000E+00  0.0000E+00  0.0000E+00  0.0000E+00  0.0000E+00  0.0000E+00  0.0000E+00  0.0000E+00  0.0000E+00  0.0000E+00  0.0000E+00  0.0000E+00  0.0000E+00  0.0000E+00  0.0000E+00  0.0000E+00
      1.368  0.0000E+00  0.0000E+00  0.0000E+00  0.0000E+00  0.0000E+00  0.0000E+00  0.0000E+00  0.0000E+00  0.0000E+00  0.0000E+00  0.0000E+00  0.0000E+00  0.0000E+00  0.0000E+00  0.0000E+00  0.0000E+00  0.0000E+00  0.0000E+00
      1.409  0.0000E+00  0.0000E+00  0.0000E+00  0.0000E+00  0.0000E+00  0.0000E+00  0.0000E+00  0.0000E+00  0.0000E+00  0.0000E+00  0.0000E+00  0.0000E+00  0.0000E+00  0.0000E+00  0.0000E+00  0.0000E+00  0.0000E+00  0.0000E+00
      1.450 -0.4032E-31  0.0000E+00 -0.4242E-32  0.0000E+00 -0.1273E-31  0.0000E+00 -0.8484E-32  0.0000E+00 -0.2526E-32  0.0000E+00 -0.3789E-32  0.0000E+00 -0.9473E-33  0.0000E+00 -0.7578E-32  0.0000E+00 -0.3158E-33  0.0000E+00
      1.491 -0.2656E-25  0.0000E+00 -0.2794E-26  0.0000E+00 -0.8382E-26  0.0000E+00 -0.5588E-26  0.0000E+00 -0.1664E-26  0.0000E+00 -0.2496E-26  0.0000E+00 -0.6239E-27  0.0000E+00 -0.4992E-26  0.0000E+00 -0.2080E-27  0.0000E+00
      1.532 -0.4569E-20  0.0000E+00 -0.4807E-21  0.0000E+00 -0.1442E-20  0.0000E+00 -0.9615E-21  0.0000E+00 -0.2863E-21  0.0000E+00 -0.4294E-21  0.0000E+00 -0.1074E-21  0.0000E+00 -0.8589E-21  0.0000E+00 -0.3579E-22  0.0000E+00
      1.572 -0.2048E-15  0.0000E+00 -0.2155E-16  0.0000E+00 -0.6465E-16  0.0000E+00 -0.4310E-16  0.0000E+00 -0.1283E-16  0.0000E+00 -0.1925E-16  0.0000E+00 -0.4813E-17  0.0000E+00 -0.3850E-16  0.0000E+00 -0.1604E-17  0.0000E+00
      1.613 -0.2303E-11  0.0000E+00 -0.2423E-12  0.0000E+00 -0.7270E-12  0.0000E+00 -0.4847E-12  0.0000E+00 -0.1443E-12  0.0000E+00 -0.2165E-12  0.0000E+00 -0.5412E-13  0.0000E+00 -0.4330E-12  0.0000E+00 -0.1804E-13  0.0000E+00
      1.654 -0.6824E-08  0.0000E+00 -0.7179E-09  0.0000E+00 -0.2154E-08  0.0000E+00 -0.1436E-08  0.0000E+00 -0.4275E-09  0.0000E+00 -0.6413E-09  0.0000E+00 -0.1603E-09  0.0000E+00 -0.1283E-08  0.0000E+00 -0.5344E-10  0.0000E+00
      1.695 -0.5118E-05  0.0000E+00 -0.5385E-06  0.0000E+00 -0.1615E-05  0.0000E+00 -0.1077E-05  0.0000E+00 -0.3207E-06  0.0000E+00 -0.4810E-06  0.0000E+00 -0.1203E-06  0.0000E+00 -0.9620E-06  0.0000E+00 -0.4008E-07  0.0000E+00
      1.736 -0.9430E-03 -0.2240E-27 -0.9922E-04 -0.2384E-28 -0.2977E-03 -0.7152E-28 -0.1984E-03 -0.4768E-28 -0.5909E-04 -0.1496E-28 -0.8863E-04 -0.2245E-28 -0.2216E-04 -0.5612E-29 -0.1773E-03 -0.4489E-28 -0.7386E-05 -0.1871E-29
      1.776 -0.3930E-01 -0.6303E-22 -0.4135E-02 -0.6709E-23 -0.1240E-01 -0.2013E-22 -0.8270E-02 -0.1342E-22 -0.2462E-02 -0.4211E-23 -0.3694E-02 -0.6316E-23 -0.9234E-03 -0.1579E-23 -0.7387E-02 -0.1263E-22 -0.3078E-03 -0.5263E-24
      1.817 -0.2459E+00 -0.4626E-17 -0.2587E-01 -0.4924E-18 -0.7762E-01 -0.1477E-17 -0.5174E-01 -0.9847E-18 -0.1541E-01 -0.3090E-18 -0.2311E-01 -0.4636E-18 -0.5778E-02 -0.1159E-18 -0.4622E-01 -0.9271E-18 -0.1926E-02 -0.3863E-19
      1.858  0.1297E+01 -0.8550E-13  0.1364E+00 -0.9101E-14  0.4092E+00 -0.2730E-13  0.2728E+00 -0.1820E-13  0.8124E-01 -0.5712E-14  0.1219E+00 -0.8568E-14  0.3046E-01 -0.2142E-14  0.2437E+00 -0.1714E-13  0.1015E-01 -0.7140E-15
      1.899  0.5239E+01 -0.4177E-09  0.5512E+00 -0.4446E-10  0.1654E+01 -0.1334E-09  0.1102E+01 -0.8892E-10  0.3283E+00 -0.2791E-10  0.4924E+00 -0.4186E-10  0.1231E+00 -0.1046E-10  0.9848E+00 -0.8372E-10  0.4103E-01 -0.3488E-11
      1.940  0.2485E+01 -0.5193E-06  0.2615E+00 -0.5528E-07  0.7844E+00 -0.1658E-06  0.5229E+00 -0.1106E-06  0.1557E+00 -0.3470E-07  0.2336E+00 -0.5204E-07  0.5839E-01 -0.1301E-07  0.4671E+00 -0.1041E-06  0.1946E-01 -0.4337E-08
      1.980 -0.1962E+00 -0.1609E-03 -0.2065E-01 -0.1712E-04 -0.6194E-01 -0.5137E-04 -0.4129E-01 -0.3425E-04 -0.1230E-01 -0.1075E-04 -0.1844E-01 -0.1612E-04 -0.4611E-02 -0.4030E-05 -0.3689E-01 -0.3224E-04 -0.1537E-02 -0.1343E-05
      2.021 -0.8148E-01 -0.1175E-01 -0.8572E-02 -0.1251E-02 -0.2572E-01 -0.3753E-02 -0.1714E-01 -0.2502E-02 -0.5105E-02 -0.7852E-03 -0.7657E-02 -0.1178E-02 -0.1914E-02 -0.2945E-03 -0.1531E-01 -0.2356E-02 -0.6381E-03 -0.9815E-04
      2.062 -0.3041E-02 -0.1655E+00 -0.3200E-03 -0.1762E-01 -0.9599E-03 -0.5285E-01 -0.6399E-03 -0.3523E-01 -0.1905E-03 -0.1106E-01 -0.2858E-03 -0.1659E-01 -0.7145E-04 -0.4146E-02 -0.5716E-03 -0.3317E-01 -0.2382E-04 -0.1382E-02
      2.103 -0.2445E-04  0.2226E+00 -0.2572E-05  0.2369E-01 -0.7717E-05  0.7108E-01 -0.5145E-05  0.4739E-01 -0.1532E-05  0.1487E-01 -0.2298E-05  0.2231E-01 -0.5744E-06  0.5577E-02 -0.4595E-05  0.4461E-01 -0.1915E-06  0.1859E-02
      2.144 -0.4761E-07  0.4066E+01 -0.5009E-08  0.4328E+00 -0.1503E-07  0.1298E+01 -0.1002E-07  0.8655E+00 -0.2983E-08  0.2716E+00 -0.4474E-08  0.4074E+00 -0.1119E-08  0.1019E+00 -0.8948E-08  0.8149E+00 -0.3728E-09  0.3395E-01
      2.184 -0.2333E-10  0.4087E+01 -0.2454E-11  0.4350E+00 -0.7363E-11  0.1305E+01 -0.4909E-11  0.8700E+00 -0.1462E-11  0.2730E+00 -0.2192E-11  0.4096E+00 -0.5481E-12  0.1024E+00 -0.4385E-11  0.8191E+00 -0.1827E-12  0.3413E-01
      2.225 -0.3754E-14  0.2327E+00 -0.3950E-15  0.2477E-01 -0.1185E-14  0.7430E-01 -0.7900E-15  0.4953E-01 -0.2352E-15  0.1554E-01 -0.3528E-15  0.2332E-01 -0.8821E-16  0.5829E-02 -0.7057E-15  0.4663E-01 -0.2940E-16  0.1943E-02
      2.266  0.0000E+00 -0.1669E+00  0.0000E+00 -0.1776E-01  0.0000E+00 -0.5329E-01  0.0000E+00 -0.3553E-01  0.0000E+00 -0.1115E-01  0.0000E+00 -0.1672E-01  0.0000E+00 -0.4181E-02  0.0000E+00 -0.3345E-01  0.0000E+00 -0.1394E-02
      2.307  0.0000E+00 -0.1197E-01  0.0000E+00 -0.1274E-02  0.0000E+00 -0.3823E-02  0.0000E+00 -0.2548E-02  0.0000E+00 -0.7998E-03  0.0000E+00 -0.1200E-02  0.0000E+00 -0.2999E-03  0.0000E+00 -0.2399E-02  0.0000E+00 -0.9997E-04
      2.348  0.0000E+00 -0.1651E-03  0.0000E+00 -0.1758E-04  0.0000E+00 -0.5273E-04  0.0000E+00 -0.3515E-04  0.0000E+00 -0.1103E-04  0.0000E+00 -0.1655E-04  0.0000E+00 -0.4137E-05  0.0000E+00 -0.3310E-04  0.0000E+00 -0.1379E-05
      2.388  0.0000E+00 -0.5370E-06  0.0000E+00 -0.5716E-07  0.0000E+00 -0.1715E-06  0.0000E+00 -0.1143E-06  0.0000E+00 -0.3588E-07  0.0000E+00 -0.5381E-07  0.0000E+00 -0.1345E-07  0.0000E+00 -0.1076E-06  0.0000E+00 -0.4485E-08
      2.429  0.0000E+00 -0.4350E-09  0.0000E+00 -0.4630E-10  0.0000E+00 -0.1389E-09  0.0000E+00 -0.9261E-10  0.0000E+00 -0.2906E-10  0.0000E+00 -0.4359E-10  0.0000E+00 -0.1090E-10  0.0000E+00 -0.8719E-10  0.0000E+00 -0.3633E-11
      2.470  0.0000E+00 -0.8978E-13  0.0000E+00 -0.9556E-14  0.0000E+00 -0.2867E-13  0.0000E+00 -0.1911E-13  0.0000E+00 -0.5998E-14  0.0000E+00 -0.8997E-14  0.0000E+00 -0.2249E-14  0.0000E+00 -0.1799E-13  0.0000E+00 -0.7498E-15
      2.511  0.0000E+00  0.0000E+00  0.0000E+00  0.0000E+00  0.0000E+00  0.0000E+00  0.0000E+00  0.0000E+00  0.0000E+00  0.0000E+00  0.0000E+00  0.0000E+00  0.0000E+00  0.0000E+00  0.0000E+00  0.0000E+00  0.0000E+00  0.0000E+00
      2.552  0.0000E+00  0.0000E+00  0.0000E+00  0.0000E+00  0.0000E+00  0.0000E+00  0.0000E+00  0.0000E+00  0.0000E+00  0.0000E+00  0.0000E+00  0.0000E+00  0.0000E+00  0.0000E+00  0.0000E+00  0.0000E+00  0.0000E+00  0.0000E+00
      2.592  0.0000E+00  0.0000E+00  0.0000E+00  0.0000E+00  0.0000E+00  0.0000E+00  0.0000E+00  0.0000E+00  0.0000E+00  0.0000E+00  0.0000E+00  0.0000E+00  0.0000E+00  0.0000E+00  0.0000E+00  0.0000E+00  0.0000E+00  0.0000E+00
      2.633  0.0000E+00  0.0000E+00  0.0000E+00  0.0000E+00  0.0000E+00  0.0000E+00  0.0000E+00  0.0000E+00  0.0000E+00  0.0000E+00  0.0000E+00  0.0000E+00  0.0000E+00  0.0000E+00  0.0000E+00  0.0000E+00  0.0000E+00  0.0000E+00
      2.674  0.0000E+00  0.0000E+00  0.0000E+00  0.0000E+00  0.0000E+00  0.0000E+00  0.0000E+00  0.0000E+00  0.0000E+00  0.0000E+00  0.0000E+00  0.0000E+00  0.0000E+00  0.0000E+00  0.0000E+00  0.0000E+00  0.0000E+00  0.0000E+00
      2.715  0.0000E+00  0.0000E+00  0.0000E+00  0.0000E+00  0.0000E+00  0.0000E+00  0.0000E+00  0.0000E+00  0.0000E+00  0.0000E+00  0.0000E+00  0.0000E+00  0.0000E+00  0.0000E+00  0.0000E+00  0.0000E+00  0.0000E+00  0.0000E+00
      2.756  0.0000E+00  0.0000E+00  0.0000E+00  0.0000E+00  0.0000E+00  0.0000E+00  0.0000E+00  0.0000E+00  0.0000E+00  0.0000E+00  0.0000E+00  0.0000E+00  0.0000E+00  0.0000E+00  0.0000E+00  0.0000E+00  0.0000E+00  0.0000E+00
      2.796  0.0000E+00  0.0000E+00  0.0000E+00  0.0000E+00  0.0000E+00  0.0000E+00  0.0000E+00  0.0000E+00  0.0000E+00  0.0000E+00  0.0000E+00  0.0000E+00  0.0000E+00  0.0000E+00  0.0000E+00  0.0000E+00  0.0000E+00  0.0000E+00
      2.837  0.0000E+00  0.0000E+00  0.0000E+00  0.0000E+00  0.0000E+00  0.0000E+00  0.0000E+00  0.0000E+00  0.0000E+00  0.0000E+00  0.0000E+00  0.0000E+00  0.0000E+00  0.0000E+00  0.0000E+00  0.0000E+00  0.0000E+00  0.0000E+00
      2.878  0.0000E+00  0.0000E+00  0.0000E+00  0.0000E+00  0.0000E+00  0.0000E+00  0.0000E+00  0.0000E+00  0.0000E+00  0.0000E+00  0.0000E+00  0.0000E+00  0.0000E+00  0.0000E+00  0.0000E+00  0.0000E+00  0.0000E+00  0.0000E+00
      2.919  0.0000E+00  0.0000E+00  0.0000E+00  0.0000E+00  0.0000E+00  0.0000E+00  0.0000E+00  0.0000E+00  0.0000E+00  0.0000E+00  0.0000E+00  0.0000E+00  0.0000E+00  0.0000E+00  0.0000E+00  0.0000E+00  0.0000E+00  0.0000E+00
      2.960  0.0000E+00  0.0000E+00  0.0000E+00  0.0000E+00  0.0000E+00  0.0000E+00  0.0000E+00  0.0000E+00  0.0000E+00  0.0000E+00  0.0000E+00  0.0000E+00  0.0000E+00  0.0000E+00  0.0000E+00  0.0000E+00  0.0000E+00  0.0000E+00
      3.000  0.0000E+00  0.0000E+00  0.0000E+00  0.0000E+00  0.0000E+00  0.0000E+00  0.0000E+00  0.0000E+00  0.0000E+00  0.0000E+00  0.0000E+00  0.0000E+00  0.0000E+00  0.0000E+00  0.0000E+00  0.0000E+00  0.0000E+00  0.0000E+00
      3.041  0.0000E+00  0.0000E+00  0.0000E+00  0.0000E+00  0.0000E+00  0.0000E+00  0.0000E+00  0.0000E+00  0.0000E+00  0.0000E+00  0.0000E+00  0.0000E+00  0.0000E+00  0.0000E+00  0.0000E+00  0.0000E+00  0.0000E+00  0.0000E+00
      3.082  0.0000E+00  0.0000E+00  0.0000E+00  0.0000E+00  0.0000E+00  0.0000E+00  0.0000E+00  0.0000E+00  0.0000E+00  0.0000E+00  0.0000E+00  0.0000E+00  0.0000E+00  0.0000E+00  0.0000E+00  0.0000E+00  0.0000E+00  0.0000E+00
      3.123  0.0000E+00  0.0000E+00  0.0000E+00  0.0000E+00  0.0000E+00  0.0000E+00  0.0000E+00  0.0000E+00  0.0000E+00  0.0000E+00  0.0000E+00  0.0000E+00  0.0000E+00  0.0000E+00  0.0000E+00  0.0000E+00  0.0000E+00  0.0000E+00
      3.164  0.0000E+00  0.0000E+00  0.0000E+00  0.0000E+00  0.0000E+00  0.0000E+00  0.0000E+00  0.0000E+00  0.0000E+00  0.0000E+00  0.0000E+00  0.0000E+00  0.0000E+00  0.0000E+00  0.0000E+00  0.0000E+00  0.0000E+00  0.0000E+00
      3.204  0.0000E+00  0.0000E+00  0.0000E+00  0.0000E+00  0.0000E+00  0.0000E+00  0.0000E+00  0.0000E+00  0.0000E+00  0.0000E+00  0.0000E+00  0.0000E+00  0.0000E+00  0.0000E+00  0.0000E+00  0.0000E+00  0.0000E+00  0.0000E+00
      3.245  0.0000E+00  0.0000E+00  0.0000E+00  0.0000E+00  0.0000E+00  0.0000E+00  0.0000E+00  0.0000E+00  0.0000E+00  0.0000E+00  0.0000E+00  0.0000E+00  0.0000E+00  0.0000E+00  0.0000E+00  0.0000E+00  0.0000E+00  0.0000E+00
      3.286  0.0000E+00  0.0000E+00  0.0000E+00  0.0000E+00  0.0000E+00  0.0000E+00  0.0000E+00  0.0000E+00  0.0000E+00  0.0000E+00  0.0000E+00  0.0000E+00  0.0000E+00  0.0000E+00  0.0000E+00  0.0000E+00  0.0000E+00  0.0000E+00
      3.327  0.0000E+00  0.0000E+00  0.0000E+00  0.0000E+00  0.0000E+00  0.0000E+00  0.0000E+00  0.0000E+00  0.0000E+00  0.0000E+00  0.0000E+00  0.0000E+00  0.0000E+00  0.0000E+00  0.0000E+00  0.0000E+00  0.0000E+00  0.0000E+00
      3.368  0.0000E+00  0.0000E+00  0.0000E+00  0.0000E+00  0.0000E+00  0.0000E+00  0.0000E+00  0.0000E+00  0.0000E+00  0.0000E+00  0.0000E+00  0.0000E+00  0.0000E+00  0.0000E+00  0.0000E+00  0.0000E+00  0.0000E+00  0.0000E+00