   1   1   0   0
  0.1813235E+02  0.2866544E-09  0.2866544E-09  0.2866544E-09  0.5000000E-15
  1.000000000000000E-004
  CAR 
 unknown system                          
     13.27516313      1.47322518  301      6.87157398      1.00000000
      1.473  0.0000E+00  0.0000E+00
      1.513  0.0000E+00  0.0000E+00
      1.552  0.0000E+00  0.0000E+00
      1.591 -0.3458E-28 -0.1360E-29
      1.631 -0.8836E-23 -0.3476E-24
      1.670 -0.6475E-18 -0.2547E-19
      1.709 -0.1357E-13 -0.5340E-15
      1.749 -0.7816E-10 -0.3075E-11
      1.788 -0.1304E-06 -0.5132E-08
      1.827 -0.6038E-04 -0.2380E-05
      1.867 -0.7520E-02 -0.2982E-03
      1.906 -0.2304E+00 -0.9364E-02
      1.945 -0.1093E+01 -0.5235E-01
      1.985  0.6269E+01  0.1943E+00
      2.024  0.2295E+02  0.1097E+01
      2.063  0.1143E+02  0.1547E+01
      2.103 -0.7202E+00  0.1518E+01
      2.142 -0.4445E+00  0.1501E+01
      2.181 -0.2213E-01  0.1500E+01
      2.221 -0.2569E-03  0.1500E+01
      2.260 -0.7903E-06  0.1500E+01
      2.299 -0.6707E-09  0.1500E+01
      2.339 -0.1609E-12  0.1500E+01
      2.378  0.0000E+00  0.1500E+01
      2.417  0.0000E+00  0.1500E+01
      2.457  0.0000E+00  0.1500E+01
      2.496  0.0000E+00  0.1500E+01
      2.535  0.0000E+00  0.1500E+01
      2.575  0.0000E+00  0.1500E+01
      2.614  0.0000E+00  0.1500E+01
      2.653  0.0000E+00  0.1500E+01
      2.693  0.0000E+00  0.1500E+01
      2.732  0.0000E+00  0.1500E+01
      2.771  0.0000E+00  0.1500E+01
      2.811  0.0000E+00  0.1500E+01
      2.850  0.0000E+00  0.1500E+01
      2.889  0.0000E+00  0.1500E+01
      2.929  0.0000E+00  0.1500E+01
      2.968  0.0000E+00  0.1500E+01
      3.007  0.0000E+00  0.1500E+01
      3.047  0.0000E+00  0.1500E+01
      3.086  0.0000E+00  0.1500E+01
      3.125  0.0000E+00  0.1500E+01
      3.165  0.0000E+00  0.1500E+01
      3.204  0.0000E+00  0.1500E+01
      3.244  0.0000E+00  0.1500E+01
      3.283  0.0000E+00  0.1500E+01
      3.322  0.0000E+00  0.1500E+01
      3.362  0.0000E+00  0.1500E+01
      3.401  0.0000E+00  0.1500E+01
      3.440  0.0000E+00  0.1500E+01
      3.480  0.0000E+00  0.1500E+01
      3.519  0.0000E+00  0.1500E+01
      3.558  0.0000E+00  0.1500E+01
      3.598  0.0000E+00  0.1500E+01
      3.637  0.0000E+00  0.1500E+01
      3.676  0.0000E+00  0.1500E+01
      3.716  0.0000E+00  0.1500E+01
      3.755  0.0000E+00  0.1500E+01
      3.794  0.0000E+00  0.1500E+01
      3.834  0.0000E+00  0.1500E+01
      3.873  0.0000E+00  0.1500E+01
      3.912  0.0000E+00  0.1500E+01
      3.952  0.0000E+00  0.1500E+01
      3.991  0.0000E+00  0.1500E+01
      4.030 -0.9567E-29  0.1500E+01
      4.070 -0.2762E-23  0.1500E+01
      4.109 -0.2287E-18  0.1500E+01
      4.148 -0.5420E-14  0.1500E+01
      4.188 -0.3533E-10  0.1500E+01
      4.227 -0.6674E-07  0.1500E+01
      4.266 -0.3507E-04  0.1500E+01
      4.306 -0.4979E-02  0.1500E+01
      4.345 -0.1764E+00  0.1493E+01
      4.384 -0.1076E+01  0.1451E+01
      4.424  0.4700E+01  0.1635E+01
      4.463  0.2221E+02  0.2509E+01
      4.502  0.1342E+02  0.3037E+01
      4.542 -0.3659E+00  0.3023E+01
      4.581 -0.5437E+00  0.3001E+01
      4.620 -0.3197E-01  0.3000E+01
      4.660 -0.1983E-01  0.2999E+01
      4.699 -0.4120E+00  0.2983E+01
      4.738 -0.8130E+00  0.2951E+01
      4.778  0.1073E+02  0.3373E+01
      4.817  0.2312E+02  0.4283E+01
      4.856  0.6868E+01  0.4553E+01
      4.896 -0.1084E+01  0.4510E+01
      4.935 -0.2523E+00  0.4500E+01
      4.974 -0.8675E-02  0.4500E+01
      5.014 -0.7296E-04  0.4500E+01
      5.053 -0.1648E-06  0.4500E+01
      5.092 -0.1032E-09  0.4500E+01
      5.132 -0.1693E-13  0.4500E+01
      5.171  0.0000E+00  0.4500E+01
      5.211  0.0000E+00  0.4500E+01
      5.250  0.0000E+00  0.4500E+01
      5.289  0.0000E+00  0.4500E+01
      5.329  0.0000E+00  0.4500E+01
      5.368  0.0000E+00  0.4500E+01
      5.407  0.0000E+00  0.4500E+01
      5.447  0.0000E+00  0.4500E+01
      5.486  0.0000E+00  0.4500E+01
      5.525  0.0000E+00  0.4500E+01
      5.565  0.0000E+00  0.4500E+01
      5.604  0.0000E+00  0.4500E+01
      5.643  0.0000E+00  0.4500E+01
      5.683  0.0000E+00  0.4500E+01
      5.722  0.0000E+00  0.4500E+01
      5.761  0.0000E+00  0.4500E+01
      5.801  0.0000E+00  0.4500E+01
      5.840  0.0000E+00  0.4500E+01
      5.879  0.0000E+00  0.4500E+01
      5.919  0.0000E+00  0.4500E+01
      5.958  0.0000E+00  0.4500E+01
      5.997  0.0000E+00  0.4500E+01
      6.037  0.0000E+00  0.4500E+01
      6.076  0.0000E+00  0.4500E+01
      6.115  0.0000E+00  0.4500E+01
      6.155  0.0000E+00  0.4500E+01
      6.194  0.0000E+00  0.4500E+01
      6.233  0.0000E+00  0.4500E+01
      6.273  0.0000E+00  0.4500E+01
      6.312  0.0000E+00  0.4500E+01
      6.351  0.0000E+00  0.4500E+01
      6.391  0.0000E+00  0.4500E+01
      6.430  0.0000E+00  0.4500E+01
      6.469 -0.1064E-28  0.4500E+01
      6.509 -0.3246E-23  0.4500E+01
      6.548 -0.2842E-18  0.4500E+01
      6.587 -0.7119E-14  0.4500E+01
      6.627 -0.4909E-10  0.4500E+01
      6.666 -0.9812E-07  0.4500E+01
      6.705 -0.5460E-04  0.4500E+01
      6.745 -0.8223E-02  0.4500E+01
      6.784 -0.3110E+00  0.4487E+01
      6.823 -0.2105E+01  0.4405E+01
      6.863  0.8100E+01  0.4723E+01
      6.902  0.4351E+02  0.6435E+01
      6.941  0.2864E+02  0.7562E+01
      6.981 -0.3111E+00  0.7550E+01
      7.020 -0.1184E+01  0.7503E+01
      7.059 -0.7449E-01  0.7500E+01
      7.099 -0.1052E-02  0.7500E+01
      7.138 -0.3894E-05  0.7500E+01
      7.177 -0.3963E-08  0.7500E+01
      7.217 -0.1134E-11  0.7500E+01
      7.256  0.0000E+00  0.7500E+01
      7.296  0.0000E+00  0.7500E+01
      7.335  0.0000E+00  0.7500E+01
      7.374  0.0000E+00  0.7500E+01
      7.414  0.0000E+00  0.7500E+01
      7.453  0.0000E+00  0.7500E+01
      7.492  0.0000E+00  0.7500E+01
      7.532  0.0000E+00  0.7500E+01
      7.571  0.0000E+00  0.7500E+01
      7.610  0.0000E+00  0.7500E+01
      7.650  0.0000E+00  0.7500E+01
      7.689  0.0000E+00  0.7500E+01
      7.728  0.0000E+00  0.7500E+01
      7.768  0.0000E+00  0.7500E+01
      7.807  0.0000E+00  0.7500E+01
      7.846  0.0000E+00  0.7500E+01
      7.886  0.0000E+00  0.7500E+01
      7.925  0.0000E+00  0.7500E+01
      7.964  0.0000E+00  0.7500E+01
      8.004  0.0000E+00  0.7500E+01
      8.043  0.0000E+00  0.7500E+01
      8.082  0.0000E+00  0.7500E+01
      8.122  0.0000E+00  0.7500E+01
      8.161  0.0000E+00  0.7500E+01
      8.200  0.0000E+00  0.7500E+01
      8.240  0.0000E+00  0.7500E+01
      8.279  0.0000E+00  0.7500E+01
      8.318  0.0000E+00  0.7500E+01
      8.358 -0.2436E-30  0.7500E+01
      8.397 -0.9906E-25  0.7500E+01
      8.436 -0.1156E-19  0.7500E+01
      8.476 -0.3864E-15  0.7500E+01
      8.515 -0.3567E-11  0.7500E+01
      8.554 -0.9547E-08  0.7500E+01
      8.594 -0.7143E-05  0.7500E+01
      8.633 -0.1459E-02  0.7500E+01
      8.672 -0.7679E-01  0.7497E+01
      8.712 -0.8357E+00  0.7464E+01
      8.751  0.1356E+01  0.7517E+01
      8.790  0.1840E+02  0.8241E+01
      8.830  0.1870E+02  0.8977E+01
      8.869  0.1521E+01  0.9037E+01
      8.908 -0.8554E+00  0.9003E+01
      8.948 -0.8126E-01  0.9000E+01
      8.987 -0.1583E-02  0.9000E+01
      9.026 -0.7929E-05  0.9000E+01
      9.066 -0.1084E-07  0.9000E+01
      9.105 -0.4140E-11  0.9000E+01
      9.144  0.0000E+00  0.9000E+01
      9.184  0.0000E+00  0.9000E+01
      9.223  0.0000E+00  0.9000E+01
      9.263  0.0000E+00  0.9000E+01
      9.302  0.0000E+00  0.9000E+01
      9.341  0.0000E+00  0.9000E+01
      9.381  0.0000E+00  0.9000E+01
      9.420  0.0000E+00  0.9000E+01
      9.459  0.0000E+00  0.9000E+01
      9.499  0.0000E+00  0.9000E+01
      9.538  0.0000E+00  0.9000E+01
      9.577  0.0000E+00  0.9000E+01
      9.617  0.0000E+00  0.9000E+01
      9.656  0.0000E+00  0.9000E+01
      9.695  0.0000E+00  0.9000E+01
      9.735  0.0000E+00  0.9000E+01
      9.774  0.0000E+00  0.9000E+01
      9.813  0.0000E+00  0.9000E+01
      9.853  0.0000E+00  0.9000E+01
      9.892  0.0000E+00  0.9000E+01
      9.931  0.0000E+00  0.9000E+01
      9.971  0.0000E+00  0.9000E+01
     10.010  0.0000E+00  0.9000E+01
     10.049  0.0000E+00  0.9000E+01
     10.089  0.0000E+00  0.9000E+01
     10.128  0.0000E+00  0.9000E+01
     10.167  0.0000E+00  0.9000E+01
     10.207 -0.3527E-31  0.9000E+01
     10.246 -0.1712E-25  0.9000E+01
     10.285 -0.2385E-20  0.9000E+01
     10.325 -0.9519E-16  0.9000E+01
     10.364 -0.1051E-11  0.9000E+01
     10.403 -0.3368E-08  0.9000E+01
     10.443 -0.3023E-05  0.9000E+01
     10.482 -0.7450E-03  0.9000E+01
     10.521 -0.4809E-01  0.8998E+01
     10.561 -0.6961E+00  0.8971E+01
     10.600 -0.1376E+00  0.8965E+01
     10.639  0.1561E+02  0.9579E+01
     10.679  0.3033E+02  0.1077E+02
     10.718  0.1766E+02  0.1147E+02
     10.757  0.1771E+01  0.1154E+02
     10.797 -0.8311E+00  0.1150E+02
     10.836 -0.1089E+00  0.1150E+02
     10.875 -0.2849E-02  0.1150E+02
     10.915 -0.1901E-04  0.1150E+02
     10.954 -0.3445E-07  0.1150E+02
     10.993 -0.1740E-10  0.1150E+02
     11.033  0.0000E+00  0.1150E+02
     11.072  0.0000E+00  0.1150E+02
     11.111  0.0000E+00  0.1150E+02
     11.151  0.0000E+00  0.1150E+02
     11.190  0.0000E+00  0.1150E+02
     11.229  0.0000E+00  0.1150E+02
     11.269  0.0000E+00  0.1150E+02
     11.308  0.0000E+00  0.1150E+02
     11.348  0.0000E+00  0.1150E+02
     11.387  0.0000E+00  0.1150E+02
     11.426  0.0000E+00  0.1150E+02
     11.466  0.0000E+00  0.1150E+02
     11.505  0.0000E+00  0.1150E+02
     11.544  0.0000E+00  0.1150E+02
     11.584  0.0000E+00  0.1150E+02
     11.623  0.0000E+00  0.1150E+02
     11.662  0.0000E+00  0.1150E+02
     11.702  0.0000E+00  0.1150E+02
     11.741  0.0000E+00  0.1150E+02
     11.780  0.0000E+00  0.1150E+02
     11.820  0.0000E+00  0.1150E+02
     11.859  0.0000E+00  0.1150E+02
     11.898  0.0000E+00  0.1150E+02
     11.938  0.0000E+00  0.1150E+02
     11.977  0.0000E+00  0.1150E+02
     12.016  0.0000E+00  0.1150E+02
     12.056  0.0000E+00  0.1150E+02
     12.095  0.0000E+00  0.1150E+02
     12.134  0.0000E+00  0.1150E+02
     12.174  0.0000E+00  0.1150E+02
     12.213  0.0000E+00  0.1150E+02
     12.252  0.0000E+00  0.1150E+02
     12.292  0.0000E+00  0.1150E+02
     12.331 -0.3892E-27  0.1150E+02
     12.370 -0.7076E-22  0.1150E+02
     12.410 -0.3687E-17  0.1150E+02
     12.449 -0.5350E-13  0.1150E+02
     12.488 -0.2236E-09  0.1150E+02
     12.528 -0.2634E-06  0.1150E+02
     12.567 -0.8564E-04  0.1150E+02
     12.606 -0.7376E-02  0.1150E+02
     12.646 -0.1482E+00  0.1149E+02
     12.685 -0.2401E+00  0.1148E+02
     12.724  0.3808E+01  0.1163E+02
     12.764  0.7651E+01  0.1194E+02
     12.803  0.2090E+01  0.1202E+02
     12.842 -0.3642E+00  0.1200E+02
     12.882 -0.7682E-01  0.1200E+02
     12.921 -0.2507E-02  0.1200E+02
     12.960 -0.2013E-04  0.1200E+02
     13.000 -0.4346E-07  0.1200E+02
     13.039 -0.2605E-10  0.1200E+02
     13.078 -0.5644E-14  0.1200E+02
     13.118  0.0000E+00  0.1200E+02
     13.157  0.0000E+00  0.1200E+02
     13.196  0.0000E+00  0.1200E+02
     13.236  0.0000E+00  0.1200E+02
     13.275  0.0000E+00  0.1200E+02
