    1    1    1    2
  0.1813235E+02  0.2866544E-09  0.2866544E-09  0.2866544E-09  0.5000000E-15
  1.000000000000000E-004
  CAR 
 unknown system                          
    5    2    6
 
  0.2500000E+00  0.2500000E+00  0.2500000E+00  0.2500000E+00
   1        4.257245      4.661330
   2        4.257245      4.661330
   3        4.257247      4.661331
   4       10.608816     10.764672
   5       10.608816     10.764672
   6       12.492015     13.010435
 
 -0.2500000E+00  0.2500000E+00  0.2500000E+00  0.7500000E+00
   1        1.883994      2.143718
   2        4.727524      4.859015
   3        6.657532      7.146745
   4        6.657533      7.146746
   5        8.543219      9.055612
   6       10.532862     10.761414
