    1    1    1    1
  0.1813235E+02  0.2866544E-09  0.2866544E-09  0.2866544E-09  0.5000000E-15
  1.000000000000000E-004
  CAR 
 unknown system                          
    5    2    6
 
  0.2500000E+00  0.2500000E+00  0.2500000E+00  0.2500000E+00
   1        4.452592
   2        4.452592
   3        4.452592
   4       10.687740
   5       10.687740
   6       12.738711
 
 -0.2500000E+00  0.2500000E+00  0.2500000E+00  0.7500000E+00
   1        2.009677
   2        4.793436
   3        6.893405
   4        6.893405
   5        8.790771
   6       10.645320
