       N       E                     dE             d eps       ncg     rms          rms(c)
DAV:   1     0.381695017708E+01    0.38170E+01   -0.14426E+03    24   0.426E+02
DAV:   2    -0.100203484794E+02   -0.13837E+02   -0.12523E+02    36   0.812E+01
DAV:   3    -0.101295113167E+02   -0.10916E+00   -0.10567E+00    24   0.909E+00
DAV:   4    -0.101300476450E+02   -0.53633E-03   -0.53455E-03    30   0.500E-01
DAV:   5    -0.101300488573E+02   -0.12123E-05   -0.12113E-05    18   0.200E-02    0.367E+00
DAV:   6    -0.972138278000E+01    0.40867E+00   -0.24564E-01    24   0.358E+00    0.204E+00
DAV:   7    -0.951286083775E+01    0.20852E+00   -0.45265E-01    24   0.471E+00    0.121E-01
DAV:   8    -0.951183613159E+01    0.10247E-02   -0.40537E-03    24   0.543E-01    0.715E-02
DAV:   9    -0.951162610869E+01    0.21002E-03   -0.52660E-04    30   0.160E-01    0.746E-03
DAV:  10    -0.951160421639E+01    0.21892E-04   -0.63870E-06    12   0.216E-02
   1 F= -.95116042E+01 E0= -.95079982E+01  d E =-.108181E-01
