       N       E                     dE             d eps       ncg     rms          rms(c)
DAV:   1     0.151858668002E+02    0.15186E+02   -0.20855E+03    48   0.567E+02
DAV:   2    -0.750499314195E+00   -0.15936E+02   -0.14675E+02    84   0.801E+01
DAV:   3    -0.932089186349E+00   -0.18159E+00   -0.18159E+00    48   0.124E+01
DAV:   4    -0.933490807829E+00   -0.14016E-02   -0.14016E-02    60   0.800E-01
DAV:   5    -0.933492501918E+00   -0.16941E-05   -0.16936E-05    36   0.286E-02    0.585E+00
DAV:   6    -0.863536789297E+01   -0.77019E+01   -0.14215E+00    48   0.745E+00    0.766E+00
DAV:   7    -0.863911154920E+01   -0.37437E-02   -0.47736E-02    66   0.138E+00    0.727E+00
DAV:   8     0.544646973122E+01    0.14086E+02   -0.13028E+01    48   0.251E+01    0.696E+00
DAV:   9     0.919064840668E+01    0.37442E+01   -0.37290E-01    60   0.429E+00    0.628E+00
DAV:  10     0.585679259585E+01   -0.33339E+01   -0.38714E-02    60   0.180E+00    0.518E+00
DAV:  11     0.915418992314E+01    0.32974E+01   -0.16092E-02    60   0.132E+00    0.586E+00
DAV:  12     0.199622495185E+02    0.10808E+02   -0.24802E-02    48   0.138E+00    0.889E+00
DAV:  13     0.141315758931E+02   -0.58307E+01   -0.17218E-03    54   0.402E-01    0.720E+00
DAV:  14     0.867226451372E+01   -0.54593E+01   -0.13207E-03    60   0.384E-01    0.560E+00
DAV:  15     0.186356092265E+01   -0.68087E+01   -0.54597E-03    60   0.803E-01    0.324E+00
DAV:  16    -0.576893749917E+01   -0.76325E+01   -0.11934E-02    48   0.126E+00    0.771E+00
DAV:  17    -0.819749395118E+01   -0.24286E+01   -0.12091E+00    48   0.507E+00    0.707E+00
DAV:  18    -0.803294785296E+01    0.16455E+00   -0.19501E-02    42   0.936E-01    0.711E+00
DAV:  19    -0.790197954857E+01    0.13097E+00   -0.76660E-03    48   0.598E-01    0.719E+00
DAV:  20    -0.783441729318E+01    0.67562E-01   -0.24362E-02    48   0.119E+00    0.674E+00
DAV:  21    -0.778911674331E+01    0.45301E-01   -0.14057E-01    48   0.316E+00    0.540E+00
DAV:  22    -0.793781595783E+01   -0.14870E+00   -0.41914E-02    48   0.179E+00    0.454E+00
DAV:  23    -0.816913682941E+01   -0.23132E+00   -0.44867E-02    48   0.184E+00    0.449E+00
DAV:  24    -0.813193421422E+01    0.37203E-01   -0.78247E-04    48   0.242E-01    0.474E+00
DAV:  25    -0.820581766922E+01   -0.73883E-01   -0.22313E-03    48   0.413E-01    0.427E+00
DAV:  26    -0.867751405006E+01   -0.47170E+00   -0.57276E-02    48   0.198E+00    0.627E+00
DAV:  27    -0.899622894349E+01   -0.31871E+00   -0.21488E-02    48   0.119E+00    0.505E+00
DAV:  28    -0.929901550109E+01   -0.30279E+00   -0.27494E-02    48   0.131E+00    0.353E+00
DAV:  29    -0.943740343976E+01   -0.13839E+00   -0.11279E-02    48   0.834E-01    0.253E+00
DAV:  30    -0.946098934382E+01   -0.23586E-01   -0.14046E-03    48   0.300E-01    0.225E+00
DAV:  31    -0.948890031348E+01   -0.27911E-01   -0.52910E-03    48   0.550E-01    0.180E+00
DAV:  32    -0.955487897580E+01   -0.65979E-01   -0.17939E-02    48   0.102E+00    0.670E-01
DAV:  33    -0.956717479400E+01   -0.12296E-01   -0.77013E-03    48   0.681E-01    0.451E-01
DAV:  34    -0.956704316186E+01    0.13163E-03   -0.18134E-04    36   0.117E-01    0.512E-01
DAV:  35    -0.956758172462E+01   -0.53856E-03   -0.15383E-04    36   0.906E-02    0.488E-01
DAV:  36    -0.956745133720E+01    0.13039E-03   -0.20698E-04    36   0.118E-01    0.441E-01
DAV:  37    -0.956707186814E+01    0.37947E-03   -0.49558E-05    24   0.589E-02    0.417E-01
DAV:  38    -0.956634358784E+01    0.72828E-03   -0.17202E-04    30   0.996E-02    0.396E-01
DAV:  39    -0.956500331389E+01    0.13403E-02   -0.14044E-04    24   0.899E-02    0.410E-01
DAV:  40    -0.956477799775E+01    0.22532E-03   -0.10990E-05    24   0.288E-02    0.409E-01
DAV:  41    -0.956514278536E+01   -0.36479E-03   -0.10273E-05    24   0.259E-02    0.399E-01
DAV:  42    -0.956616920143E+01   -0.10264E-02   -0.63010E-05    24   0.639E-02    0.373E-01
DAV:  43    -0.956678514368E+01   -0.61594E-03   -0.26379E-05    24   0.414E-02    0.357E-01
DAV:  44    -0.956707326212E+01   -0.28812E-03   -0.77096E-06    24   0.224E-02    0.345E-01
DAV:  45    -0.956747420798E+01   -0.40095E-03   -0.14517E-05    24   0.312E-02    0.328E-01
DAV:  46    -0.956795098861E+01   -0.47678E-03   -0.19591E-05    24   0.364E-02    0.311E-01
DAV:  47    -0.956912516126E+01   -0.11742E-02   -0.17081E-04    30   0.107E-01    0.265E-01
DAV:  48    -0.957032328948E+01   -0.11981E-02   -0.33192E-04    48   0.149E-01    0.197E-01
DAV:  49    -0.957115079309E+01   -0.82750E-03   -0.47298E-04    48   0.179E-01    0.124E-01
DAV:  50    -0.957141004977E+01   -0.25926E-03   -0.10629E-04    24   0.875E-02    0.593E-02
DAV:  51    -0.957147384463E+01   -0.63795E-04   -0.46058E-05    24   0.580E-02
   1 F= -.95714738E+01 E0= -.95683625E+01  d E =-.933397E-02  mag=     0.4957
