 vasp.5.2.12 11Nov11 complex                                                    
  
 executed on             LinuxIFC date 2012.10.17  10:14:47
 running on    1 nodes
 distr:  one band on    1 nodes,    1 groups


--------------------------------------------------------------------------------------------------------


 INCAR:
 POTCAR:    PAW_PBE Ta 17Jan2003                  
 POTCAR:    PAW_PBE Ta 17Jan2003                  
   VRHFIN =Ta:  6s5d                                                            
   LEXCH  = PE                                                                  
   EATOM  =   130.6506 eV,    9.6025 Ry                                         
                                                                                
   TITEL  = PAW_PBE Ta 17Jan2003                                                
   LULTRA =        F    use ultrasoft PP ?                                      
   IUNSCR =        1    unscreen: 0-lin 1-nonlin 2-no                           
   RPACOR =    2.330    partial core radius                                     
   POMASS =  180.948; ZVAL   =    5.000    mass and valenz                      
   RCORE  =    2.900    outmost cutoff radius                                   
   RWIGS  =    2.840; RWIGS  =    1.503    wigner-seitz radius (au A)           
   ENMAX  =  223.667; ENMIN  =  167.750 eV                                      
   RCLOC  =    2.205    cutoff for local pot                                    
   LCOR   =        T    correct aug charges                                     
   LPAW   =        T    paw PP                                                  
   EAUG   =  332.075                                                            
   DEXC   =    -.049                                                            
   RMAX   =    3.083    core radius for proj-oper                               
   RAUG   =    1.300    factor for augmentation sphere                          
   RDEP   =    3.060    radius for radial grids                                 
   QCUT   =   -4.055; QGAM   =    8.109    optimization parameters              
                                                                                
   Description                                                                  
     l     E      TYP  RCUT    TYP  RCUT                                        
     2   .000     23  2.500                                                     
     2   .000     23  2.500                                                     
     0   .000     23  2.500                                                     
     0   .000     23  2.500                                                     
     1   .000     23  2.900                                                     
     1  2.000     23  2.900                                                     
     3   .000      7   .000                                                     
  local pseudopotential read in
  partial core-charges read in
  atomic valenz-charges read in
  non local Contribution for L=           2  read in
    real space projection operators read in
  non local Contribution for L=           2  read in
    real space projection operators read in
  non local Contribution for L=           0  read in
    real space projection operators read in
  non local Contribution for L=           0  read in
    real space projection operators read in
  non local Contribution for L=           1  read in
    real space projection operators read in
  non local Contribution for L=           1  read in
    real space projection operators read in
    PAW grid and wavefunctions read in
 
   number of l-projection  operators is LMAX  =           6
   number of lm-projection operators is LMMAX =          18
 
  PAW_PBE Ta 17Jan2003                  :
 energy of atom  1       EATOM= -130.6506
 kinetic energy error for atom=    0.0044 (will be added to EATOM!!)
 
 
 POSCAR: Ta                                      
  positions in cartesian coordinates
  No initial velocities read in
 exchange correlation table for  LEXCH =        8
   RHO(1)=    0.500       N(1)  =     2000
   RHO(2)=  100.500       N(2)  =     4000
 


--------------------------------------------------------------------------------------------------------


 ion  position               nearest neighbor table
   1  0.000  0.000  0.000-
 
  LATTYP: Found a body centered cubic cell.
 ALAT       =     3.3100000000
  
  Lattice vectors:
  
 A1 = (   2.8665440865,   0.0000000000,   0.0000000000)
 A2 = (  -0.9555146955,   2.7026036829,   0.0000000000)
 A3 = (  -0.9555146955,  -1.3513018414,   2.3405234457)
 Subroutine PRICEL returns:
 Original cell was already a primitive cell.
 

Analysis of symmetry for initial positions (statically):

 Routine SETGRP: Setting up the symmetry group for a 
 body centered cubic supercell.


 Subroutine GETGRP returns: Found 48 space group operations
 (whereof 48 operations were pure point group operations)
 out of a pool of 48 trial point group operations.


The static configuration has the point symmetry O_h .

Analysis of symmetry for dynamics (positions and initial velocities):

 Subroutine DYNSYM returns: Found 48 space group operations
 (whereof 48 operations were pure point group operations)
 out of a pool of 48 trial space group operations
 (whereof 48 operations were pure point group operations)
 and found also     1 'primitive' translations


The dynamic configuration has the point symmetry O_h .

Analysis of magnetic symmetry:

 Subroutine MAGSYM returns: Found 48 space group operations
 (whereof 48 operations were pure point group operations)
 out of a pool of 48 trial space group operations
 (whereof 48 operations were pure point group operations)
 and found also     1 'primitive' translations


The magnetic configuration has the point symmetry O_h .
 
 
 KPOINTS: KPOINTS created by Atomic Simulation Env

Automatic generation of k-mesh.
 
 Subroutine IBZKPT returns following result:
 ===========================================
 
 Found      2 irreducible k-points:
 
 Following reciprocal coordinates:
            Coordinates               Weight
  0.250000  0.250000  0.250000      2.000000
 -0.250000  0.250000  0.250000      6.000000
 
 Following cartesian coordinates:
            Coordinates               Weight
  0.087213  0.123338  0.213627      2.000000
 -0.087213  0.061669  0.106814      6.000000
 


--------------------------------------------------------------------------------------------------------




 Dimension of arrays:
   k-points           NKPTS =      2   k-points in BZ     NKDIM =      2   number of bands    NBANDS=      6
   number of dos      NEDOS =    301   number of ions     NIONS =      1
   non local maximal  LDIM  =      6   non local SUM 2l+1 LMDIM =     18
   total plane-waves  NPLWV =   5832
   max r-space proj   IRMAX =      1   max aug-charges    IRDMAX=  22091
   dimension x,y,z NGX =    18 NGY =   18 NGZ =   18
   dimension x,y,z NGXF=    36 NGYF=   36 NGZF=   36
   support grid    NGXF=    36 NGYF=   36 NGZF=   36
   ions per type =               1
 NGX,Y,Z   is equivalent  to a cutoff of  10.44, 10.44, 10.44 a.u.
 NGXF,Y,Z  is equivalent  to a cutoff of  20.88, 20.88, 20.88 a.u.


 I would recommend the setting:
   dimension x,y,z NGX =    17 NGY =   17 NGZ =   17
 SYSTEM =  unknown system                          
 POSCAR =  Ta                                      

 Startparameter for this run:
   NWRITE =      2    write-flag & timer
   PREC   = accura    normal or accurate (medium, high low for compatibility)
   ISTART =      0    job   : 0-new  1-cont  2-samecut
   ICHARG =      2    charge: 1-file 2-atom 10-const
   ISPIN  =      2    spin polarized calculation?
   LNONCOLLINEAR =      F non collinear calculations
   LSORBIT =      F    spin-orbit coupling
   INIWAV =      1    electr: 0-lowe 1-rand  2-diag
   LASPH  =      F    aspherical Exc in radial PAW
   METAGGA=      F    non-selfconsistent MetaGGA calc.

 Electronic Relaxation 1
   ENCUT  =  350.0 eV  25.72 Ry    5.07 a.u.   4.37  4.37  4.37*2*pi/ulx,y,z
   ENINI  =  350.0     initial cutoff
   ENAUG  =  332.1 eV  augmentation charge cutoff
   NELM   =     60;   NELMIN=  2; NELMDL= -5     # of ELM steps 
   EDIFF  = 0.1E-03   stopping-criterion for ELM
   LREAL  =      F    real-space projection
   NLSPLINE    = F    spline interpolate recip. space projectors
   LCOMPAT=      F    compatible to vasp.4.4
   GGA_COMPAT  = T    GGA compatible to vasp.4.4-vasp.4.6
   LMAXPAW     = -100 max onsite density
   LMAXMIX     =    2 max onsite mixed and CHGCAR
   VOSKOWN=      0    Vosko Wilk Nusair interpolation
   ROPT   =    0.00000
 Ionic relaxation
   EDIFFG = 0.1E-02   stopping-criterion for IOM
   NSW    =      0    number of steps for IOM
   NBLOCK =      1;   KBLOCK =      1    inner block; outer block 
   IBRION =     -1    ionic relax: 0-MD 1-quasi-New 2-CG
   NFREE  =      0    steps in history (QN), initial steepest desc. (CG)
   ISIF   =      2    stress and relaxation
   IWAVPR =     10    prediction:  0-non 1-charg 2-wave 3-comb
   ISYM   =      2    0-nonsym 1-usesym 2-fastsym
   LCORR  =      T    Harris-Foulkes like correction to forces

   POTIM  = 0.5000    time-step for ionic-motion
   TEIN   =    0.0    initial temperature
   TEBEG  =    0.0;   TEEND  =   0.0 temperature during run
   SMASS  =  -3.00    Nose mass-parameter (am)
   estimated Nose-frequenzy (Omega)   =  0.10E-29 period in steps =****** mass=  -0.188E-27a.u.
   SCALEE = 1.0000    scale energy and forces
   NPACO  =    256;   APACO  = 16.0  distance and # of slots for P.C.
   PSTRESS=    0.0 pullay stress

  Mass of Ions in am
   POMASS = 180.95
  Ionic Valenz
   ZVAL   =   5.00
  Atomic Wigner-Seitz radii
   RWIGS  =  -1.00
  virtual crystal weights 
   VCA    =   1.00
   NELECT =       5.0000    total number of electrons
   NUPDOWN=      -1.0000    fix difference up-down

 DOS related values:
   EMIN   =  10.00;   EMAX   =-10.00  energy-range for DOS
   EFERMI =   0.00
   ISMEAR =     1;   SIGMA  =   0.05  broadening in eV -4-tet -1-fermi 0-gaus

 Electronic relaxation 2 (details)
   IALGO  =     38    algorithm
   LDIAG  =      T    sub-space diagonalisation (order eigenvalues)
   LSUBROT=      T    optimize rotation matrix (better conditioning)
   TURBO    =      0    0=normal 1=particle mesh
   IRESTART =      0    0=no restart 2=restart with 2 vectors
   NREBOOT  =      0    no. of reboots
   NMIN     =      0    reboot dimension
   EREF     =   0.00    reference energy to select bands
   IMIX   =      4    mixing-type and parameters
     AMIX     =   0.40;   BMIX     =  1.00
     AMIX_MAG =   1.60;   BMIX_MAG =  1.00
     AMIN     =   0.10
     WC   =   100.;   INIMIX=   1;  MIXPRE=   1

 Intra band minimization:
   WEIMIN = 0.0000     energy-eigenvalue tresh-hold
   EBREAK =  0.42E-05  absolut break condition
   DEPER  =   0.30     relativ break condition  

   TIME   =   0.40     timestep for ELM

  volume/ion in A,a.u.               =      18.13       122.36
  Fermi-wavevector in a.u.,A,eV,Ry     =   1.065566  2.013627 15.448462  1.135430
  Thomas-Fermi vector in A             =   2.201121
 
 Write flags
   LWAVE  =      T    write WAVECAR
   LCHARG =      T    write CHGCAR
   LVTOT  =      F    write LOCPOT, total local potential
   LVHAR  =      F    write LOCPOT, Hartree potential only
   LELF   =      F    write electronic localiz. function (ELF)
   LORBIT =     11    0 simple, 1 ext, 2 COOP (PROOUT)


 Dipole corrections
   LMONO  =      F    monopole corrections only (constant potential shift)
   LDIPOL =      F    correct potential (dipole corrections)
   IDIPOL =      0    1-x, 2-y, 3-z, 4-all directions 
   EPSILON=  1.0000000 bulk dielectric constant

 Exchange correlation treatment:
   GGA     =    --    GGA type
   LEXCH   =     8    internal setting for exchange type
   VOSKOWN=      0    Vosko Wilk Nusair interpolation
   LHFCALC =     F    Hartree Fock is set to
   LHFONE  =     F    Hartree Fock one center treatment
   AEXX    =    0.0000 exact exchange contribution

 Linear response parameters
   LEPSILON=     F    determine dielectric tensor
   LRPA    =     F    only Hartree local field effects (RPA)
   LNABLA  =     F    use nabla operator in PAW spheres
   LVEL    =     F    velocity operator in full k-point grid
   LINTERFAST=   F  fast interpolation
   KINTER  =     0    interpolate to denser k-point grid
   CSHIFT  =0.1000    complex shift for real part using Kramers Kronig
   OMEGAMAX=  -1.0    maximum frequency
   RTIME   =    0.100 relaxation time in fs

 Orbital magnetization related:
   ORBITALMAG=     F  switch on orbital magnetization
   LCHIMAG   =     F  perturbation theory with respect to B field
   DQ        =  0.001000  dq finite difference perturbation B field



--------------------------------------------------------------------------------------------------------


 Static calculation
 charge density and potential will be updated during run
 spin polarized calculation
 Variant of blocked Davidson
 Davidson routine will perform the subspace rotation
 perform sub-space diagonalisation
    after iterative eigenvector-optimisation
 modified Broyden-mixing scheme, WC =      100.0
 initial mixing is a Kerker type mixing with AMIX =  0.4000 and BMIX =      1.0000
 Hartree-type preconditioning will be used
 using additional bands            3
 reciprocal scheme for non local part
 use partial core corrections
 calculate Harris-corrections to forces 
   (improved forces if not selfconsistent)
 use gradient corrections 
 use of overlap-Matrix (Vanderbilt PP)
 Methfessel and Paxton  Order N= 1 SIGMA  =   0.05


--------------------------------------------------------------------------------------------------------


  energy-cutoff  :      350.00
  volume of cell :       18.13
      direct lattice vectors                 reciprocal lattice vectors
     2.866544087  0.000000000  0.000000000     0.348852126  0.123337852  0.213627426
    -0.955514696  2.702603683  0.000000000     0.000000000  0.370013556  0.213627426
    -0.955514696 -1.351301841  2.340523446     0.000000000  0.000000000  0.427254853

  length of vectors
     2.866544087  2.866544087  2.866544087     0.427254853  0.427254853  0.427254853


 
 k-points in units of 2pi/SCALE and weight: KPOINTS created by Atomic Simulation Env
   0.08721303  0.12333785  0.21362743       0.250
  -0.08721303  0.06166893  0.10681371       0.750
 
 k-points in reciprocal lattice and weights: KPOINTS created by Atomic Simulation Env
   0.25000000  0.25000000  0.25000000       0.250
  -0.25000000  0.25000000  0.25000000       0.750
 
 position of ions in fractional coordinates (direct lattice) 
   0.00000000  0.00000000  0.00000000
 
 position of ions in cartesian coordinates  (Angst):
   0.00000000  0.00000000  0.00000000
 


--------------------------------------------------------------------------------------------------------


 k-point  1 :  0.25000.25000.2500  plane waves:     276
 k-point  2 :  -.25000.25000.2500  plane waves:     277

 maximum and minimum number of plane-waves per node :       277      276

 maximum number of plane-waves:       277
 maximum index in each direction: 
   IXMAX=    4   IYMAX=    4   IZMAX=    4
   IXMIN=   -4   IYMIN=   -4   IZMIN=   -4

 NGX is ok and might be reduce to  18
 NGY is ok and might be reduce to  18
 NGZ is ok and might be reduce to  18

 serial   3D FFT for wavefunctions
 parallel 3D FFT for charge:
    minimum data exchange during FFTs selected (reduces bandwidth)


 total amount of memory used by VASP on root node    35885. kBytes
========================================================================

   base      :      30000. kBytes
   nonl-proj :         84. kBytes
   fftplans  :       1676. kBytes
   grid      :       3981. kBytes
   one-center:         31. kBytes
   wavefun   :        113. kBytes
 
 Broyden mixing: mesh for mixing (old mesh)
   NGX =  9   NGY =  9   NGZ =  9
  (NGX  = 36   NGY  = 36   NGZ  = 36)
  gives a total of    729 points

 initial charge density was supplied:
 charge density of overlapping atoms calculated
 number of electron       5.0000000 magnetization       6.0000000
 keeping initial charge density in first step


--------------------------------------------------------------------------------------------------------


 Maximum index for augmentation-charges        21187 (set IRDMAX)


--------------------------------------------------------------------------------------------------------


 First call to EWALD:  gamma=   0.675
 Maximum number of real-space cells 3x 3x 3
 Maximum number of reciprocal cells 3x 3x 3

    FEWALD:  cpu time    0.00: real time    0.00


----------------------------------------- Iteration    1(   1)  ---------------------------------------


    POTLOK:  cpu time    0.14: real time    0.14
    SETDIJ:  cpu time    0.04: real time    0.04
     EDDAV:  cpu time    0.05: real time    0.05
       DOS:  cpu time    0.00: real time    0.00
    --------------------------------------------
      LOOP:  cpu time    0.23: real time    0.26

 eigenvalue-minimisations  :    48
 total energy-change (2. order) : 0.1518587E+02  (-0.2085519E+03)
 number of electron       5.0000000 magnetization       6.0000000
 augmentation part        5.0000000 magnetization       6.0000000

 Free energy of the ion-electron system (eV)
  ---------------------------------------------------
  alpha Z        PSCENC =        30.58334069
  Ewald energy   TEWEN  =      -197.90100875
  -1/2 Hartree   DENC   =        -2.50452612
  -exchange  EXHF       =         0.00000000
  -V(xc)+E(xc)   XCENC  =       -60.69825643
  PAW double counting   =       143.51874798      -69.33493833
  entropy T*S    EENTRO =        -0.00466699
  eigenvalues    EBANDS =        40.88095994
  atomic energy  EATOM  =       130.64621481
  ---------------------------------------------------
  free energy    TOTEN  =        15.18586680 eV

  energy without entropy =       15.19053379  energy(sigma->0) =       15.18742246


--------------------------------------------------------------------------------------------------------




----------------------------------------- Iteration    1(   2)  ---------------------------------------


     EDDAV:  cpu time    0.07: real time    0.07
       DOS:  cpu time    0.00: real time    0.00
    --------------------------------------------
      LOOP:  cpu time    0.08: real time    0.09

 eigenvalue-minimisations  :    84
 total energy-change (2. order) :-0.1593637E+02  (-0.1467488E+02)
 number of electron       5.0000000 magnetization       6.0000000
 augmentation part        5.0000000 magnetization       6.0000000

 Free energy of the ion-electron system (eV)
  ---------------------------------------------------
  alpha Z        PSCENC =        30.58334069
  Ewald energy   TEWEN  =      -197.90100875
  -1/2 Hartree   DENC   =        -2.50452612
  -exchange  EXHF       =         0.00000000
  -V(xc)+E(xc)   XCENC  =       -60.69825643
  PAW double counting   =       143.51874798      -69.33493833
  entropy T*S    EENTRO =        -0.00466699
  eigenvalues    EBANDS =        24.94459383
  atomic energy  EATOM  =       130.64621481
  ---------------------------------------------------
  free energy    TOTEN  =        -0.75049931 eV

  energy without entropy =       -0.74583233  energy(sigma->0) =       -0.74894365


--------------------------------------------------------------------------------------------------------




----------------------------------------- Iteration    1(   3)  ---------------------------------------


     EDDAV:  cpu time    0.05: real time    0.05
       DOS:  cpu time    0.00: real time    0.00
    --------------------------------------------
      LOOP:  cpu time    0.05: real time    0.07

 eigenvalue-minimisations  :    48
 total energy-change (2. order) :-0.1815899E+00  (-0.1815899E+00)
 number of electron       5.0000000 magnetization       6.0000000
 augmentation part        5.0000000 magnetization       6.0000000

 Free energy of the ion-electron system (eV)
  ---------------------------------------------------
  alpha Z        PSCENC =        30.58334069
  Ewald energy   TEWEN  =      -197.90100875
  -1/2 Hartree   DENC   =        -2.50452612
  -exchange  EXHF       =         0.00000000
  -V(xc)+E(xc)   XCENC  =       -60.69825643
  PAW double counting   =       143.51874798      -69.33493833
  entropy T*S    EENTRO =        -0.00466699
  eigenvalues    EBANDS =        24.76300396
  atomic energy  EATOM  =       130.64621481
  ---------------------------------------------------
  free energy    TOTEN  =        -0.93208919 eV

  energy without entropy =       -0.92742220  energy(sigma->0) =       -0.93053352


--------------------------------------------------------------------------------------------------------




----------------------------------------- Iteration    1(   4)  ---------------------------------------


     EDDAV:  cpu time    0.05: real time    0.05
       DOS:  cpu time    0.00: real time    0.00
    --------------------------------------------
      LOOP:  cpu time    0.06: real time    0.08

 eigenvalue-minimisations  :    60
 total energy-change (2. order) :-0.1401621E-02  (-0.1401622E-02)
 number of electron       5.0000000 magnetization       6.0000000
 augmentation part        5.0000000 magnetization       6.0000000

 Free energy of the ion-electron system (eV)
  ---------------------------------------------------
  alpha Z        PSCENC =        30.58334069
  Ewald energy   TEWEN  =      -197.90100875
  -1/2 Hartree   DENC   =        -2.50452612
  -exchange  EXHF       =         0.00000000
  -V(xc)+E(xc)   XCENC  =       -60.69825643
  PAW double counting   =       143.51874798      -69.33493833
  entropy T*S    EENTRO =        -0.00466699
  eigenvalues    EBANDS =        24.76160233
  atomic energy  EATOM  =       130.64621481
  ---------------------------------------------------
  free energy    TOTEN  =        -0.93349081 eV

  energy without entropy =       -0.92882382  energy(sigma->0) =       -0.93193515


--------------------------------------------------------------------------------------------------------




----------------------------------------- Iteration    1(   5)  ---------------------------------------


     EDDAV:  cpu time    0.04: real time    0.04
       DOS:  cpu time    0.00: real time    0.00
    CHARGE:  cpu time    0.04: real time    0.04
    MIXING:  cpu time    0.00: real time    0.00
    --------------------------------------------
      LOOP:  cpu time    0.08: real time    0.09

 eigenvalue-minimisations  :    36
 total energy-change (2. order) :-0.1694089E-05  (-0.1693577E-05)
 number of electron       5.0000001 magnetization       3.1899276
 augmentation part        0.4785170 magnetization      -0.3659662

 Broyden mixing:
  rms(total) = 0.58516E+00    rms(broyden)= 0.58515E+00
  rms(prec ) = 0.85231E+00
  weight for this iteration     100.00

 Free energy of the ion-electron system (eV)
  ---------------------------------------------------
  alpha Z        PSCENC =        30.58334069
  Ewald energy   TEWEN  =      -197.90100875
  -1/2 Hartree   DENC   =        -2.50452612
  -exchange  EXHF       =         0.00000000
  -V(xc)+E(xc)   XCENC  =       -60.69825643
  PAW double counting   =       143.51874798      -69.33493833
  entropy T*S    EENTRO =        -0.00466699
  eigenvalues    EBANDS =        24.76160064
  atomic energy  EATOM  =       130.64621481
  ---------------------------------------------------
  free energy    TOTEN  =        -0.93349250 eV

  energy without entropy =       -0.92882551  energy(sigma->0) =       -0.93193684


--------------------------------------------------------------------------------------------------------




----------------------------------------- Iteration    1(   6)  ---------------------------------------


    POTLOK:  cpu time    0.14: real time    0.14
    SETDIJ:  cpu time    0.04: real time    0.04
     EDDAV:  cpu time    0.04: real time    0.05
       DOS:  cpu time    0.00: real time    0.00
    CHARGE:  cpu time    0.04: real time    0.04
    MIXING:  cpu time    0.00: real time    0.00
    --------------------------------------------
      LOOP:  cpu time    0.27: real time    0.29

 eigenvalue-minimisations  :    48
 total energy-change (2. order) :-0.7701875E+01  (-0.1421537E+00)
 number of electron       5.0000001 magnetization       3.2557057
 augmentation part        0.3716704 magnetization       2.7040176

 Broyden mixing:
  rms(total) = 0.76594E+00    rms(broyden)= 0.76591E+00
  rms(prec ) = 0.15520E+01
  weight for this iteration     100.00

 eigenvalues of (default mixing * dielectric matrix)
  average eigenvalue GAMMA=   0.1286
  0.1286

 Free energy of the ion-electron system (eV)
  ---------------------------------------------------
  alpha Z        PSCENC =        30.58334069
  Ewald energy   TEWEN  =      -197.90100875
  -1/2 Hartree   DENC   =        -2.09627134
  -exchange  EXHF       =         0.00000000
  -V(xc)+E(xc)   XCENC  =       -65.31330566
  PAW double counting   =       161.73324648      -87.85708594
  entropy T*S    EENTRO =        -0.01071884
  eigenvalues    EBANDS =        21.58022065
  atomic energy  EATOM  =       130.64621481
  ---------------------------------------------------
  free energy    TOTEN  =        -8.63536789 eV

  energy without entropy =       -8.62464905  energy(sigma->0) =       -8.63179495


--------------------------------------------------------------------------------------------------------




----------------------------------------- Iteration    1(   7)  ---------------------------------------


    POTLOK:  cpu time    0.14: real time    0.14
    SETDIJ:  cpu time    0.04: real time    0.04
     EDDAV:  cpu time    0.06: real time    0.06
       DOS:  cpu time    0.00: real time    0.00
    CHARGE:  cpu time    0.04: real time    0.04
    MIXING:  cpu time    0.00: real time    0.00
    --------------------------------------------
      LOOP:  cpu time    0.28: real time    0.30

 eigenvalue-minimisations  :    66
 total energy-change (2. order) :-0.3743656E-02  (-0.4773584E-02)
 number of electron       5.0000001 magnetization       6.3912314
 augmentation part        0.3787588 magnetization       5.6425873

 Broyden mixing:
  rms(total) = 0.72726E+00    rms(broyden)= 0.72726E+00
  rms(prec ) = 0.15094E+01
  weight for this iteration     100.00

 eigenvalues of (default mixing * dielectric matrix)
  average eigenvalue GAMMA=   0.6041
  0.8759  0.3323

 Free energy of the ion-electron system (eV)
  ---------------------------------------------------
  alpha Z        PSCENC =        30.58334069
  Ewald energy   TEWEN  =      -197.90100875
  -1/2 Hartree   DENC   =        -2.11593475
  -exchange  EXHF       =         0.00000000
  -V(xc)+E(xc)   XCENC  =       -65.26190182
  PAW double counting   =       161.35340470      -87.47805780
  entropy T*S    EENTRO =        -0.01391175
  eigenvalues    EBANDS =        21.54874312
  atomic energy  EATOM  =       130.64621481
  ---------------------------------------------------
  free energy    TOTEN  =        -8.63911155 eV

  energy without entropy =       -8.62519980  energy(sigma->0) =       -8.63447430


--------------------------------------------------------------------------------------------------------




----------------------------------------- Iteration    1(   8)  ---------------------------------------


    POTLOK:  cpu time    0.14: real time    0.14
    SETDIJ:  cpu time    0.04: real time    0.04
     EDDAV:  cpu time    0.04: real time    0.05
       DOS:  cpu time    0.00: real time    0.00
    CHARGE:  cpu time    0.04: real time    0.04
    MIXING:  cpu time    0.00: real time    0.00
    --------------------------------------------
      LOOP:  cpu time    0.27: real time    0.29

 eigenvalue-minimisations  :    48
 total energy-change (2. order) : 0.1408558E+02  (-0.1302788E+01)
 number of electron       5.0000001 magnetization       7.1425133
 augmentation part        0.4956712 magnetization       3.5772812

 Broyden mixing:
  rms(total) = 0.69564E+00    rms(broyden)= 0.69560E+00
  rms(prec ) = 0.80423E+00
  weight for this iteration     100.00

 eigenvalues of (default mixing * dielectric matrix)
  average eigenvalue GAMMA=   0.5718
  0.5708  0.7940  0.3505

 Free energy of the ion-electron system (eV)
  ---------------------------------------------------
  alpha Z        PSCENC =        30.58334069
  Ewald energy   TEWEN  =      -197.90100875
  -1/2 Hartree   DENC   =        -2.31963377
  -exchange  EXHF       =         0.00000000
  -V(xc)+E(xc)   XCENC  =       -53.73687436
  PAW double counting   =       191.48950218     -117.79532653
  entropy T*S    EENTRO =        -0.00466699
  eigenvalues    EBANDS =        24.48492246
  atomic energy  EATOM  =       130.64621481
  ---------------------------------------------------
  free energy    TOTEN  =         5.44646973 eV

  energy without entropy =        5.45113672  energy(sigma->0) =        5.44802539


--------------------------------------------------------------------------------------------------------




----------------------------------------- Iteration    1(   9)  ---------------------------------------


    POTLOK:  cpu time    0.14: real time    0.14
    SETDIJ:  cpu time    0.04: real time    0.04
     EDDAV:  cpu time    0.05: real time    0.05
       DOS:  cpu time    0.00: real time    0.00
    CHARGE:  cpu time    0.04: real time    0.04
    MIXING:  cpu time    0.00: real time    0.00
    --------------------------------------------
      LOOP:  cpu time    0.27: real time    0.29

 eigenvalue-minimisations  :    60
 total energy-change (2. order) : 0.3744179E+01  (-0.3728969E-01)
 number of electron       5.0000001 magnetization       6.9034562
 augmentation part        0.5431591 magnetization       2.4466152

 Broyden mixing:
  rms(total) = 0.62848E+00    rms(broyden)= 0.62848E+00
  rms(prec ) = 0.63260E+00
  weight for this iteration     100.00

 eigenvalues of (default mixing * dielectric matrix)
  average eigenvalue GAMMA=   0.6739
  0.6480  0.7516  0.7516  0.5444

 Free energy of the ion-electron system (eV)
  ---------------------------------------------------
  alpha Z        PSCENC =        30.58334069
  Ewald energy   TEWEN  =      -197.90100875
  -1/2 Hartree   DENC   =        -2.51519597
  -exchange  EXHF       =         0.00000000
  -V(xc)+E(xc)   XCENC  =       -50.31954089
  PAW double counting   =       218.20466169     -144.51955867
  entropy T*S    EENTRO =        -0.00466699
  eigenvalues    EBANDS =        25.01640249
  atomic energy  EATOM  =       130.64621481
  ---------------------------------------------------
  free energy    TOTEN  =         9.19064841 eV

  energy without entropy =        9.19531539  energy(sigma->0) =        9.19220407


--------------------------------------------------------------------------------------------------------




----------------------------------------- Iteration    1(  10)  ---------------------------------------


    POTLOK:  cpu time    0.14: real time    0.14
    SETDIJ:  cpu time    0.04: real time    0.04
     EDDAV:  cpu time    0.05: real time    0.05
       DOS:  cpu time    0.00: real time    0.00
    CHARGE:  cpu time    0.04: real time    0.04
    MIXING:  cpu time    0.00: real time    0.00
    --------------------------------------------
      LOOP:  cpu time    0.28: real time    0.29

 eigenvalue-minimisations  :    60
 total energy-change (2. order) :-0.3333856E+01  (-0.3871354E-02)
 number of electron       5.0000001 magnetization       7.2119317
 augmentation part        0.5374814 magnetization       2.7494130

 Broyden mixing:
  rms(total) = 0.51807E+00    rms(broyden)= 0.51807E+00
  rms(prec ) = 0.54122E+00
  weight for this iteration     100.00

 eigenvalues of (default mixing * dielectric matrix)
  average eigenvalue GAMMA=   0.7865
  0.6624  0.9698  0.9698  0.8746  0.4559

 Free energy of the ion-electron system (eV)
  ---------------------------------------------------
  alpha Z        PSCENC =        30.58334069
  Ewald energy   TEWEN  =      -197.90100875
  -1/2 Hartree   DENC   =        -2.74606042
  -exchange  EXHF       =         0.00000000
  -V(xc)+E(xc)   XCENC  =       -53.76360815
  PAW double counting   =       219.62369880     -146.02007189
  entropy T*S    EENTRO =        -0.00466699
  eigenvalues    EBANDS =        25.43895450
  atomic energy  EATOM  =       130.64621481
  ---------------------------------------------------
  free energy    TOTEN  =         5.85679260 eV

  energy without entropy =        5.86145958  energy(sigma->0) =        5.85834826


--------------------------------------------------------------------------------------------------------




----------------------------------------- Iteration    1(  11)  ---------------------------------------


    POTLOK:  cpu time    0.14: real time    0.14
    SETDIJ:  cpu time    0.04: real time    0.04
     EDDAV:  cpu time    0.05: real time    0.05
       DOS:  cpu time    0.00: real time    0.00
    CHARGE:  cpu time    0.04: real time    0.04
    MIXING:  cpu time    0.00: real time    0.00
    --------------------------------------------
      LOOP:  cpu time    0.28: real time    0.30

 eigenvalue-minimisations  :    60
 total energy-change (2. order) : 0.3297397E+01  (-0.1609233E-02)
 number of electron       5.0000001 magnetization       8.3591922
 augmentation part        0.5323152 magnetization       3.8915073

 Broyden mixing:
  rms(total) = 0.58572E+00    rms(broyden)= 0.58572E+00
  rms(prec ) = 0.66808E+00
  weight for this iteration     100.00

 eigenvalues of (default mixing * dielectric matrix)
  average eigenvalue GAMMA=   1.0182
  2.3834  0.6721  1.0060  1.0060  0.5210  0.5210

 Free energy of the ion-electron system (eV)
  ---------------------------------------------------
  alpha Z        PSCENC =        30.58334069
  Ewald energy   TEWEN  =      -197.90100875
  -1/2 Hartree   DENC   =        -3.14101483
  -exchange  EXHF       =         0.00000000
  -V(xc)+E(xc)   XCENC  =       -50.42621625
  PAW double counting   =       233.50601736     -159.82657520
  entropy T*S    EENTRO =        -0.00466699
  eigenvalues    EBANDS =        25.71809907
  atomic energy  EATOM  =       130.64621481
  ---------------------------------------------------
  free energy    TOTEN  =         9.15418992 eV

  energy without entropy =        9.15885691  energy(sigma->0) =        9.15574559


--------------------------------------------------------------------------------------------------------




----------------------------------------- Iteration    1(  12)  ---------------------------------------


    POTLOK:  cpu time    0.14: real time    0.14
    SETDIJ:  cpu time    0.04: real time    0.04
     EDDAV:  cpu time    0.04: real time    0.05
       DOS:  cpu time    0.00: real time    0.00
    CHARGE:  cpu time    0.04: real time    0.04
    MIXING:  cpu time    0.00: real time    0.00
    --------------------------------------------
      LOOP:  cpu time    0.26: real time    0.29

 eigenvalue-minimisations  :    48
 total energy-change (2. order) : 0.1080806E+02  (-0.2480236E-02)
 number of electron       5.0000001 magnetization       7.7268730
 augmentation part        0.5270386 magnetization       3.2539116

 Broyden mixing:
  rms(total) = 0.88884E+00    rms(broyden)= 0.88884E+00
  rms(prec ) = 0.10907E+01
  weight for this iteration     100.00

 eigenvalues of (default mixing * dielectric matrix)
  average eigenvalue GAMMA=   0.8891
  1.8319  1.0166  1.0166  0.5375  0.5375  0.6417  0.6417

 Free energy of the ion-electron system (eV)
  ---------------------------------------------------
  alpha Z        PSCENC =        30.58334069
  Ewald energy   TEWEN  =      -197.90100875
  -1/2 Hartree   DENC   =        -3.95804270
  -exchange  EXHF       =         0.00000000
  -V(xc)+E(xc)   XCENC  =       -38.90870482
  PAW double counting   =       261.57887328     -188.19172078
  entropy T*S    EENTRO =        -0.00466699
  eigenvalues    EBANDS =        26.11796477
  atomic energy  EATOM  =       130.64621481
  ---------------------------------------------------
  free energy    TOTEN  =        19.96224952 eV

  energy without entropy =       19.96691651  energy(sigma->0) =       19.96380518


--------------------------------------------------------------------------------------------------------




----------------------------------------- Iteration    1(  13)  ---------------------------------------


    POTLOK:  cpu time    0.14: real time    0.14
    SETDIJ:  cpu time    0.03: real time    0.03
     EDDAV:  cpu time    0.05: real time    0.05
       DOS:  cpu time    0.00: real time    0.00
    CHARGE:  cpu time    0.03: real time    0.03
    MIXING:  cpu time    0.00: real time    0.00
    --------------------------------------------
      LOOP:  cpu time    0.26: real time    0.28

 eigenvalue-minimisations  :    54
 total energy-change (2. order) :-0.5830674E+01  (-0.1721849E-03)
 number of electron       5.0000001 magnetization       7.1286391
 augmentation part        0.5277014 magnetization       2.6563404

 Broyden mixing:
  rms(total) = 0.72043E+00    rms(broyden)= 0.72043E+00
  rms(prec ) = 0.89081E+00
  weight for this iteration     100.00

 eigenvalues of (default mixing * dielectric matrix)
  average eigenvalue GAMMA=   1.0419
  2.3363  1.5479  0.6838  0.9984  0.9984  0.4866  0.6421  0.6421

 Free energy of the ion-electron system (eV)
  ---------------------------------------------------
  alpha Z        PSCENC =        30.58334069
  Ewald energy   TEWEN  =      -197.90100875
  -1/2 Hartree   DENC   =        -3.63930967
  -exchange  EXHF       =         0.00000000
  -V(xc)+E(xc)   XCENC  =       -45.28614845
  PAW double counting   =       251.14328662     -177.50254642
  entropy T*S    EENTRO =        -0.00466699
  eigenvalues    EBANDS =        26.09241405
  atomic energy  EATOM  =       130.64621481
  ---------------------------------------------------
  free energy    TOTEN  =        14.13157589 eV

  energy without entropy =       14.13624288  energy(sigma->0) =       14.13313156


--------------------------------------------------------------------------------------------------------




----------------------------------------- Iteration    1(  14)  ---------------------------------------


    POTLOK:  cpu time    0.14: real time    0.14
    SETDIJ:  cpu time    0.04: real time    0.04
     EDDAV:  cpu time    0.05: real time    0.05
       DOS:  cpu time    0.00: real time    0.00
    CHARGE:  cpu time    0.04: real time    0.04
    MIXING:  cpu time    0.00: real time    0.00
    --------------------------------------------
      LOOP:  cpu time    0.29: real time    0.30

 eigenvalue-minimisations  :    60
 total energy-change (2. order) :-0.5459311E+01  (-0.1320666E-03)
 number of electron       5.0000001 magnetization       6.2240266
 augmentation part        0.5281581 magnetization       1.7521846

 Broyden mixing:
  rms(total) = 0.56044E+00    rms(broyden)= 0.56044E+00
  rms(prec ) = 0.70183E+00
  weight for this iteration     100.00

 eigenvalues of (default mixing * dielectric matrix)
  average eigenvalue GAMMA=   1.2133
  3.1660  2.1943  0.6821  1.0507  1.0507  0.8729  0.8049  0.4966  0.6012

 Free energy of the ion-electron system (eV)
  ---------------------------------------------------
  alpha Z        PSCENC =        30.58334069
  Ewald energy   TEWEN  =      -197.90100875
  -1/2 Hartree   DENC   =        -3.34023564
  -exchange  EXHF       =         0.00000000
  -V(xc)+E(xc)   XCENC  =       -50.95335245
  PAW double counting   =       240.79316914     -167.28115786
  entropy T*S    EENTRO =        -0.00466699
  eigenvalues    EBANDS =        26.12996156
  atomic energy  EATOM  =       130.64621481
  ---------------------------------------------------
  free energy    TOTEN  =         8.67226451 eV

  energy without entropy =        8.67693150  energy(sigma->0) =        8.67382018


--------------------------------------------------------------------------------------------------------




----------------------------------------- Iteration    1(  15)  ---------------------------------------


    POTLOK:  cpu time    0.15: real time    0.15
    SETDIJ:  cpu time    0.04: real time    0.04
     EDDAV:  cpu time    0.05: real time    0.05
       DOS:  cpu time    0.00: real time    0.00
    CHARGE:  cpu time    0.04: real time    0.04
    MIXING:  cpu time    0.00: real time    0.00
    --------------------------------------------
      LOOP:  cpu time    0.29: real time    0.31

 eigenvalue-minimisations  :    60
 total energy-change (2. order) :-0.6808704E+01  (-0.5459722E-03)
 number of electron       5.0000001 magnetization       5.3100793
 augmentation part        0.5302606 magnetization       0.8403397

 Broyden mixing:
  rms(total) = 0.32378E+00    rms(broyden)= 0.32378E+00
  rms(prec ) = 0.40137E+00
  weight for this iteration     100.00

 eigenvalues of (default mixing * dielectric matrix)
  average eigenvalue GAMMA=   1.2498
  2.4721  3.1474  0.6819  1.4802  1.0530  1.0530  0.7898  0.4951  0.7075  0.6180

 Free energy of the ion-electron system (eV)
  ---------------------------------------------------
  alpha Z        PSCENC =        30.58334069
  Ewald energy   TEWEN  =      -197.90100875
  -1/2 Hartree   DENC   =        -2.84283577
  -exchange  EXHF       =         0.00000000
  -V(xc)+E(xc)   XCENC  =       -58.22870783
  PAW double counting   =       221.91021126     -148.46315097
  entropy T*S    EENTRO =        -0.00466699
  eigenvalues    EBANDS =        26.16416446
  atomic energy  EATOM  =       130.64621481
  ---------------------------------------------------
  free energy    TOTEN  =         1.86356092 eV

  energy without entropy =        1.86822791  energy(sigma->0) =        1.86511659


--------------------------------------------------------------------------------------------------------




----------------------------------------- Iteration    1(  16)  ---------------------------------------


    POTLOK:  cpu time    0.14: real time    0.14
    SETDIJ:  cpu time    0.04: real time    0.04
     EDDAV:  cpu time    0.04: real time    0.05
       DOS:  cpu time    0.00: real time    0.00
    CHARGE:  cpu time    0.04: real time    0.04
    MIXING:  cpu time    0.00: real time    0.00
    --------------------------------------------
      LOOP:  cpu time    0.28: real time    0.30

 eigenvalue-minimisations  :    48
 total energy-change (2. order) :-0.7632498E+01  (-0.1193445E-02)
 number of electron       5.0000001 magnetization       5.1154936
 augmentation part        0.4008189 magnetization       2.8726290

 Broyden mixing:
  rms(total) = 0.77066E+00    rms(broyden)= 0.77066E+00
  rms(prec ) = 0.13375E+01
  weight for this iteration     100.00

 eigenvalues of (default mixing * dielectric matrix)
  average eigenvalue GAMMA=   1.1320
  2.4924  3.0762  0.6819  1.3684  1.0637  1.0637  0.9088  0.4952  0.6354  0.6181
  0.0485

 Free energy of the ion-electron system (eV)
  ---------------------------------------------------
  alpha Z        PSCENC =        30.58334069
  Ewald energy   TEWEN  =      -197.90100875
  -1/2 Hartree   DENC   =        -2.38857458
  -exchange  EXHF       =         0.00000000
  -V(xc)+E(xc)   XCENC  =       -63.16498491
  PAW double counting   =       202.48268826     -129.05848677
  entropy T*S    EENTRO =        -0.00300336
  eigenvalues    EBANDS =        23.03487711
  atomic energy  EATOM  =       130.64621481
  ---------------------------------------------------
  free energy    TOTEN  =        -5.76893750 eV

  energy without entropy =       -5.76593414  energy(sigma->0) =       -5.76793638


--------------------------------------------------------------------------------------------------------




----------------------------------------- Iteration    1(  17)  ---------------------------------------


    POTLOK:  cpu time    0.14: real time    0.14
    SETDIJ:  cpu time    0.04: real time    0.04
     EDDAV:  cpu time    0.04: real time    0.05
       DOS:  cpu time    0.00: real time    0.00
    CHARGE:  cpu time    0.04: real time    0.04
    MIXING:  cpu time    0.00: real time    0.00
    --------------------------------------------
      LOOP:  cpu time    0.28: real time    0.30

 eigenvalue-minimisations  :    48
 total energy-change (2. order) :-0.2428556E+01  (-0.1209110E+00)
 number of electron       5.0000001 magnetization       5.1302931
 augmentation part        0.3899139 magnetization       2.9017872

 Broyden mixing:
  rms(total) = 0.70749E+00    rms(broyden)= 0.70749E+00
  rms(prec ) = 0.13103E+01
  weight for this iteration     100.00

 eigenvalues of (default mixing * dielectric matrix)
  average eigenvalue GAMMA=   1.0301
  2.4959  2.8810  0.6819  1.4002  1.0588  1.0588  0.9510  0.4952  0.6327  0.6131
  0.0238  0.0685

 Free energy of the ion-electron system (eV)
  ---------------------------------------------------
  alpha Z        PSCENC =        30.58334069
  Ewald energy   TEWEN  =      -197.90100875
  -1/2 Hartree   DENC   =        -2.24293127
  -exchange  EXHF       =         0.00000000
  -V(xc)+E(xc)   XCENC  =       -63.64239286
  PAW double counting   =       199.66152097     -126.25708900
  entropy T*S    EENTRO =        -0.00509050
  eigenvalues    EBANDS =        20.95994195
  atomic energy  EATOM  =       130.64621481
  ---------------------------------------------------
  free energy    TOTEN  =        -8.19749395 eV

  energy without entropy =       -8.19240345  energy(sigma->0) =       -8.19579712


--------------------------------------------------------------------------------------------------------




----------------------------------------- Iteration    1(  18)  ---------------------------------------


    POTLOK:  cpu time    0.14: real time    0.14
    SETDIJ:  cpu time    0.04: real time    0.04
     EDDAV:  cpu time    0.04: real time    0.04
       DOS:  cpu time    0.00: real time    0.00
    CHARGE:  cpu time    0.04: real time    0.04
    MIXING:  cpu time    0.00: real time    0.01
    --------------------------------------------
      LOOP:  cpu time    0.28: real time    0.30

 eigenvalue-minimisations  :    42
 total energy-change (2. order) : 0.1645461E+00  (-0.1950133E-02)
 number of electron       5.0000001 magnetization       5.1621594
 augmentation part        0.3915352 magnetization       2.9317275

 Broyden mixing:
  rms(total) = 0.71142E+00    rms(broyden)= 0.71142E+00
  rms(prec ) = 0.13147E+01
  weight for this iteration     100.00

 eigenvalues of (default mixing * dielectric matrix)
  average eigenvalue GAMMA=   0.9900
  2.5035  2.8633  1.8141  0.6819  1.0444  1.0444  0.9598  0.6332  0.6234  0.4950
  0.1022  0.0939  0.0101

 Free energy of the ion-electron system (eV)
  ---------------------------------------------------
  alpha Z        PSCENC =        30.58334069
  Ewald energy   TEWEN  =      -197.90100875
  -1/2 Hartree   DENC   =        -2.24872396
  -exchange  EXHF       =         0.00000000
  -V(xc)+E(xc)   XCENC  =       -63.61749509
  PAW double counting   =       200.03223840     -126.62881835
  entropy T*S    EENTRO =        -0.00930770
  eigenvalues    EBANDS =        21.11061209
  atomic energy  EATOM  =       130.64621481
  ---------------------------------------------------
  free energy    TOTEN  =        -8.03294785 eV

  energy without entropy =       -8.02364015  energy(sigma->0) =       -8.02984529


--------------------------------------------------------------------------------------------------------




----------------------------------------- Iteration    1(  19)  ---------------------------------------


    POTLOK:  cpu time    0.15: real time    0.15
    SETDIJ:  cpu time    0.04: real time    0.04
     EDDAV:  cpu time    0.04: real time    0.05
       DOS:  cpu time    0.00: real time    0.00
    CHARGE:  cpu time    0.04: real time    0.04
    MIXING:  cpu time    0.01: real time    0.01
    --------------------------------------------
      LOOP:  cpu time    0.28: real time    0.30

 eigenvalue-minimisations  :    48
 total energy-change (2. order) : 0.1309683E+00  (-0.7665953E-03)
 number of electron       5.0000001 magnetization       4.9658731
 augmentation part        0.3925730 magnetization       2.7351518

 Broyden mixing:
  rms(total) = 0.71928E+00    rms(broyden)= 0.71928E+00
  rms(prec ) = 0.13068E+01
  weight for this iteration     100.00

 eigenvalues of (default mixing * dielectric matrix)
  average eigenvalue GAMMA=   0.9354
  2.4575  2.8670  1.7994  0.6820  1.0406  1.0406  0.9801  0.4950  0.6270  0.6270
  0.2161  0.1250  0.1250  0.0128

 Free energy of the ion-electron system (eV)
  ---------------------------------------------------
  alpha Z        PSCENC =        30.58334069
  Ewald energy   TEWEN  =      -197.90100875
  -1/2 Hartree   DENC   =        -2.23437228
  -exchange  EXHF       =         0.00000000
  -V(xc)+E(xc)   XCENC  =       -63.56940650
  PAW double counting   =       200.31732360     -126.90723915
  entropy T*S    EENTRO =        -0.00932002
  eigenvalues    EBANDS =        21.17248806
  atomic energy  EATOM  =       130.64621481
  ---------------------------------------------------
  free energy    TOTEN  =        -7.90197955 eV

  energy without entropy =       -7.89265953  energy(sigma->0) =       -7.89887287


--------------------------------------------------------------------------------------------------------




----------------------------------------- Iteration    1(  20)  ---------------------------------------


    POTLOK:  cpu time    0.14: real time    0.14
    SETDIJ:  cpu time    0.04: real time    0.04
     EDDAV:  cpu time    0.05: real time    0.05
       DOS:  cpu time    0.00: real time    0.00
    CHARGE:  cpu time    0.04: real time    0.04
    MIXING:  cpu time    0.01: real time    0.01
    --------------------------------------------
      LOOP:  cpu time    0.28: real time    0.30

 eigenvalue-minimisations  :    48
 total energy-change (2. order) : 0.6756226E-01  (-0.2436239E-02)
 number of electron       5.0000001 magnetization       4.4653613
 augmentation part        0.3969488 magnetization       2.2335584

 Broyden mixing:
  rms(total) = 0.67430E+00    rms(broyden)= 0.67430E+00
  rms(prec ) = 0.12412E+01
  weight for this iteration     100.00

 eigenvalues of (default mixing * dielectric matrix)
  average eigenvalue GAMMA=   0.8865
  2.5321  2.7191  1.7187  0.6819  1.0465  1.0465  0.9805  0.6256  0.6256  0.4950
  0.2489  0.2489  0.1576  0.1576  0.0127

 Free energy of the ion-electron system (eV)
  ---------------------------------------------------
  alpha Z        PSCENC =        30.58334069
  Ewald energy   TEWEN  =      -197.90100875
  -1/2 Hartree   DENC   =        -2.12750180
  -exchange  EXHF       =         0.00000000
  -V(xc)+E(xc)   XCENC  =       -63.81668379
  PAW double counting   =       197.17050082     -123.77123647
  entropy T*S    EENTRO =        -0.00509665
  eigenvalues    EBANDS =        21.38705386
  atomic energy  EATOM  =       130.64621481
  ---------------------------------------------------
  free energy    TOTEN  =        -7.83441729 eV

  energy without entropy =       -7.82932064  energy(sigma->0) =       -7.83271841


--------------------------------------------------------------------------------------------------------




----------------------------------------- Iteration    1(  21)  ---------------------------------------


    POTLOK:  cpu time    0.14: real time    0.14
    SETDIJ:  cpu time    0.04: real time    0.04
     EDDAV:  cpu time    0.05: real time    0.05
       DOS:  cpu time    0.00: real time    0.00
    CHARGE:  cpu time    0.04: real time    0.04
    MIXING:  cpu time    0.01: real time    0.01
    --------------------------------------------
      LOOP:  cpu time    0.28: real time    0.30

 eigenvalue-minimisations  :    48
 total energy-change (2. order) : 0.4530055E-01  (-0.1405739E-01)
 number of electron       5.0000001 magnetization       4.1574613
 augmentation part        0.4064810 magnetization       1.9291877

 Broyden mixing:
  rms(total) = 0.53996E+00    rms(broyden)= 0.53996E+00
  rms(prec ) = 0.97751E+00
  weight for this iteration     100.00

 eigenvalues of (default mixing * dielectric matrix)
  average eigenvalue GAMMA=   0.8532
  2.5001  2.7606  1.7642  0.6819  1.0450  1.0450  0.9678  0.6262  0.6262  0.4950
  0.2957  0.2418  0.2418  0.1735  0.1735  0.0127

 Free energy of the ion-electron system (eV)
  ---------------------------------------------------
  alpha Z        PSCENC =        30.58334069
  Ewald energy   TEWEN  =      -197.90100875
  -1/2 Hartree   DENC   =        -1.75417058
  -exchange  EXHF       =         0.00000000
  -V(xc)+E(xc)   XCENC  =       -64.31468413
  PAW double counting   =       190.91259455     -117.49800103
  entropy T*S    EENTRO =        -0.00466699
  eigenvalues    EBANDS =        21.54126469
  atomic energy  EATOM  =       130.64621481
  ---------------------------------------------------
  free energy    TOTEN  =        -7.78911674 eV

  energy without entropy =       -7.78444976  energy(sigma->0) =       -7.78756108


--------------------------------------------------------------------------------------------------------




----------------------------------------- Iteration    1(  22)  ---------------------------------------


    POTLOK:  cpu time    0.14: real time    0.14
    SETDIJ:  cpu time    0.04: real time    0.04
     EDDAV:  cpu time    0.05: real time    0.05
       DOS:  cpu time    0.00: real time    0.00
    CHARGE:  cpu time    0.04: real time    0.04
    MIXING:  cpu time    0.01: real time    0.02
    --------------------------------------------
      LOOP:  cpu time    0.28: real time    0.31

 eigenvalue-minimisations  :    48
 total energy-change (2. order) :-0.1486992E+00  (-0.4191361E-02)
 number of electron       5.0000001 magnetization       3.6326083
 augmentation part        0.4111754 magnetization       1.4086904

 Broyden mixing:
  rms(total) = 0.45372E+00    rms(broyden)= 0.45372E+00
  rms(prec ) = 0.80854E+00
  weight for this iteration     100.00

 eigenvalues of (default mixing * dielectric matrix)
  average eigenvalue GAMMA=   0.8959
  2.8832  2.6785  1.5899  1.0511  1.0511  0.9463  0.6816  0.6796  0.6796  0.6345
  0.6220  0.4949  0.3820  0.3820  0.2909  0.1700  0.0127

 Free energy of the ion-electron system (eV)
  ---------------------------------------------------
  alpha Z        PSCENC =        30.58334069
  Ewald energy   TEWEN  =      -197.90100875
  -1/2 Hartree   DENC   =        -1.52169379
  -exchange  EXHF       =         0.00000000
  -V(xc)+E(xc)   XCENC  =       -64.54087632
  PAW double counting   =       189.21697366     -115.81253135
  entropy T*S    EENTRO =        -0.00466697
  eigenvalues    EBANDS =        21.39643206
  atomic energy  EATOM  =       130.64621481
  ---------------------------------------------------
  free energy    TOTEN  =        -7.93781596 eV

  energy without entropy =       -7.93314899  energy(sigma->0) =       -7.93626030


--------------------------------------------------------------------------------------------------------




----------------------------------------- Iteration    1(  23)  ---------------------------------------


    POTLOK:  cpu time    0.14: real time    0.14
    SETDIJ:  cpu time    0.04: real time    0.04
     EDDAV:  cpu time    0.04: real time    0.05
       DOS:  cpu time    0.00: real time    0.00
    CHARGE:  cpu time    0.04: real time    0.04
    MIXING:  cpu time    0.01: real time    0.01
    --------------------------------------------
      LOOP:  cpu time    0.28: real time    0.30

 eigenvalue-minimisations  :    48
 total energy-change (2. order) :-0.2313209E+00  (-0.4486750E-02)
 number of electron       5.0000001 magnetization       3.7103213
 augmentation part        0.4103721 magnetization       1.9345464

 Broyden mixing:
  rms(total) = 0.44868E+00    rms(broyden)= 0.44868E+00
  rms(prec ) = 0.75118E+00
  weight for this iteration     100.00

 eigenvalues of (default mixing * dielectric matrix)
  average eigenvalue GAMMA=   0.8569
  2.8846  2.6832  1.5983  0.6816  1.0498  1.0498  0.7050  0.7050  0.9349  0.6396
  0.6198  0.4950  0.3892  0.3892  0.2160  0.2160  0.0127  0.1546

 Free energy of the ion-electron system (eV)
  ---------------------------------------------------
  alpha Z        PSCENC =        30.58334069
  Ewald energy   TEWEN  =      -197.90100875
  -1/2 Hartree   DENC   =        -1.23694682
  -exchange  EXHF       =         0.00000000
  -V(xc)+E(xc)   XCENC  =       -64.89789715
  PAW double counting   =       185.39330346     -112.01892563
  entropy T*S    EENTRO =        -0.00538736
  eigenvalues    EBANDS =        21.26816991
  atomic energy  EATOM  =       130.64621481
  ---------------------------------------------------
  free energy    TOTEN  =        -8.16913683 eV

  energy without entropy =       -8.16374947  energy(sigma->0) =       -8.16734104


--------------------------------------------------------------------------------------------------------




----------------------------------------- Iteration    1(  24)  ---------------------------------------


    POTLOK:  cpu time    0.15: real time    0.15
    SETDIJ:  cpu time    0.04: real time    0.04
     EDDAV:  cpu time    0.04: real time    0.05
       DOS:  cpu time    0.00: real time    0.00
    CHARGE:  cpu time    0.04: real time    0.04
    MIXING:  cpu time    0.01: real time    0.01
    --------------------------------------------
      LOOP:  cpu time    0.28: real time    0.30

 eigenvalue-minimisations  :    48
 total energy-change (2. order) : 0.3720262E-01  (-0.7824668E-04)
 number of electron       5.0000001 magnetization       3.5548742
 augmentation part        0.4096086 magnetization       1.7957058

 Broyden mixing:
  rms(total) = 0.47358E+00    rms(broyden)= 0.47358E+00
  rms(prec ) = 0.78314E+00
  weight for this iteration     100.00

 eigenvalues of (default mixing * dielectric matrix)
  average eigenvalue GAMMA=   0.8768
  2.6100  2.6078  1.7295  1.0319  0.6814  1.0562  1.0562  0.7250  0.7250  0.9205
  0.6560  0.6146  0.4951  0.4563  0.4563  0.3283  0.3283  0.1679  0.0127

 Free energy of the ion-electron system (eV)
  ---------------------------------------------------
  alpha Z        PSCENC =        30.58334069
  Ewald energy   TEWEN  =      -197.90100875
  -1/2 Hartree   DENC   =        -1.25733801
  -exchange  EXHF       =         0.00000000
  -V(xc)+E(xc)   XCENC  =       -64.83580565
  PAW double counting   =       185.75911544     -112.38151318
  entropy T*S    EENTRO =        -0.00459146
  eigenvalues    EBANDS =        21.25965189
  atomic energy  EATOM  =       130.64621481
  ---------------------------------------------------
  free energy    TOTEN  =        -8.13193421 eV

  energy without entropy =       -8.12734276  energy(sigma->0) =       -8.13040373


--------------------------------------------------------------------------------------------------------




----------------------------------------- Iteration    1(  25)  ---------------------------------------


    POTLOK:  cpu time    0.14: real time    0.15
    SETDIJ:  cpu time    0.04: real time    0.04
     EDDAV:  cpu time    0.05: real time    0.05
       DOS:  cpu time    0.00: real time    0.00
    CHARGE:  cpu time    0.04: real time    0.04
    MIXING:  cpu time    0.01: real time    0.01
    --------------------------------------------
      LOOP:  cpu time    0.29: real time    0.31

 eigenvalue-minimisations  :    48
 total energy-change (2. order) :-0.7388346E-01  (-0.2231303E-03)
 number of electron       5.0000001 magnetization       2.8411272
 augmentation part        0.4110301 magnetization       1.0638067

 Broyden mixing:
  rms(total) = 0.42707E+00    rms(broyden)= 0.42707E+00
  rms(prec ) = 0.71865E+00
  weight for this iteration     100.00

 eigenvalues of (default mixing * dielectric matrix)
  average eigenvalue GAMMA=   0.8387
  2.5627  2.6076  1.7341  1.1130  0.6814  1.0564  1.0564  0.9209  0.7372  0.7372
  0.6561  0.6148  0.4951  0.4587  0.4587  0.3232  0.3232  0.1679  0.0127  0.0560

 Free energy of the ion-electron system (eV)
  ---------------------------------------------------
  alpha Z        PSCENC =        30.58334069
  Ewald energy   TEWEN  =      -197.90100875
  -1/2 Hartree   DENC   =        -1.20752863
  -exchange  EXHF       =         0.00000000
  -V(xc)+E(xc)   XCENC  =       -64.94487865
  PAW double counting   =       186.15882406     -112.78878290
  entropy T*S    EENTRO =        -0.00520741
  eigenvalues    EBANDS =        21.25320910
  atomic energy  EATOM  =       130.64621481
  ---------------------------------------------------
  free energy    TOTEN  =        -8.20581767 eV

  energy without entropy =       -8.20061026  energy(sigma->0) =       -8.20408187


--------------------------------------------------------------------------------------------------------




----------------------------------------- Iteration    1(  26)  ---------------------------------------


    POTLOK:  cpu time    0.15: real time    0.15
    SETDIJ:  cpu time    0.04: real time    0.04
     EDDAV:  cpu time    0.05: real time    0.05
       DOS:  cpu time    0.00: real time    0.00
    CHARGE:  cpu time    0.04: real time    0.04
    MIXING:  cpu time    0.01: real time    0.01
    --------------------------------------------
      LOOP:  cpu time    0.29: real time    0.32

 eigenvalue-minimisations  :    48
 total energy-change (2. order) :-0.4716964E+00  (-0.5727646E-02)
 number of electron       5.0000001 magnetization       2.3885284
 augmentation part        0.3898574 magnetization       1.9483222

 Broyden mixing:
  rms(total) = 0.62710E+00    rms(broyden)= 0.62709E+00
  rms(prec ) = 0.88391E+00
  weight for this iteration     100.00

 eigenvalues of (default mixing * dielectric matrix)
  average eigenvalue GAMMA=   0.9231
  3.6448  2.5334  1.1737  1.1737  1.5719  0.6815  1.0677  1.0677  0.7533  0.7533
  0.9784  0.6617  0.6109  0.4881  0.4881  0.4951  0.3575  0.3520  0.3520  0.1681
  0.0127

 Free energy of the ion-electron system (eV)
  ---------------------------------------------------
  alpha Z        PSCENC =        30.58334069
  Ewald energy   TEWEN  =      -197.90100875
  -1/2 Hartree   DENC   =        -0.93195982
  -exchange  EXHF       =         0.00000000
  -V(xc)+E(xc)   XCENC  =       -65.31945680
  PAW double counting   =       185.29724139     -111.94374178
  entropy T*S    EENTRO =        -0.00933395
  eigenvalues    EBANDS =        20.90119015
  atomic energy  EATOM  =       130.64621481
  ---------------------------------------------------
  free energy    TOTEN  =        -8.67751405 eV

  energy without entropy =       -8.66818010  energy(sigma->0) =       -8.67440273


--------------------------------------------------------------------------------------------------------




----------------------------------------- Iteration    1(  27)  ---------------------------------------


    POTLOK:  cpu time    0.15: real time    0.15
    SETDIJ:  cpu time    0.04: real time    0.04
     EDDAV:  cpu time    0.05: real time    0.05
       DOS:  cpu time    0.00: real time    0.00
    CHARGE:  cpu time    0.04: real time    0.04
    MIXING:  cpu time    0.01: real time    0.01
    --------------------------------------------
      LOOP:  cpu time    0.29: real time    0.31

 eigenvalue-minimisations  :    48
 total energy-change (2. order) :-0.3187149E+00  (-0.2148776E-02)
 number of electron       5.0000001 magnetization       1.8153133
 augmentation part        0.3924596 magnetization       1.3774193

 Broyden mixing:
  rms(total) = 0.50451E+00    rms(broyden)= 0.50451E+00
  rms(prec ) = 0.71982E+00
  weight for this iteration     100.00

 eigenvalues of (default mixing * dielectric matrix)
  average eigenvalue GAMMA=   0.9711
  4.5517  2.5738  1.4134  1.4134  0.6815  0.8734  0.8734  1.2683  1.0707  1.0707
  1.0209  0.5308  0.5308  0.6495  0.6115  0.4948  0.4025  0.4025  0.3746  0.3746
  0.1681  0.0127

 Free energy of the ion-electron system (eV)
  ---------------------------------------------------
  alpha Z        PSCENC =        30.58334069
  Ewald energy   TEWEN  =      -197.90100875
  -1/2 Hartree   DENC   =        -0.82118937
  -exchange  EXHF       =         0.00000000
  -V(xc)+E(xc)   XCENC  =       -65.54496148
  PAW double counting   =       183.77226705     -110.44752892
  entropy T*S    EENTRO =        -0.00933393
  eigenvalues    EBANDS =        20.72597096
  atomic energy  EATOM  =       130.64621481
  ---------------------------------------------------
  free energy    TOTEN  =        -8.99622894 eV

  energy without entropy =       -8.98689501  energy(sigma->0) =       -8.99311763


--------------------------------------------------------------------------------------------------------




----------------------------------------- Iteration    1(  28)  ---------------------------------------


    POTLOK:  cpu time    0.15: real time    0.15
    SETDIJ:  cpu time    0.04: real time    0.04
     EDDAV:  cpu time    0.05: real time    0.05
       DOS:  cpu time    0.00: real time    0.00
    CHARGE:  cpu time    0.04: real time    0.04
    MIXING:  cpu time    0.01: real time    0.01
    --------------------------------------------
      LOOP:  cpu time    0.27: real time    0.29

 eigenvalue-minimisations  :    48
 total energy-change (2. order) :-0.3027866E+00  (-0.2749412E-02)
 number of electron       5.0000001 magnetization       1.4351600
 augmentation part        0.3956532 magnetization       1.0000768

 Broyden mixing:
  rms(total) = 0.35260E+00    rms(broyden)= 0.35260E+00
  rms(prec ) = 0.52287E+00
  weight for this iteration     100.00

 eigenvalues of (default mixing * dielectric matrix)
  average eigenvalue GAMMA=   1.0377
  5.4545  2.5318  1.6568  1.6568  0.6815  1.3670  1.0459  1.0459  1.0212  1.0212
  0.7295  0.7295  0.7080  0.7080  0.6134  0.4938  0.4586  0.4419  0.4419  0.4396
  0.4396  0.1681  0.0127

 Free energy of the ion-electron system (eV)
  ---------------------------------------------------
  alpha Z        PSCENC =        30.58334069
  Ewald energy   TEWEN  =      -197.90100875
  -1/2 Hartree   DENC   =        -0.71306180
  -exchange  EXHF       =         0.00000000
  -V(xc)+E(xc)   XCENC  =       -65.75632133
  PAW double counting   =       181.54045563     -108.23834626
  entropy T*S    EENTRO =        -0.00933395
  eigenvalues    EBANDS =        20.54904546
  atomic energy  EATOM  =       130.64621481
  ---------------------------------------------------
  free energy    TOTEN  =        -9.29901550 eV

  energy without entropy =       -9.28968155  energy(sigma->0) =       -9.29590419


--------------------------------------------------------------------------------------------------------




----------------------------------------- Iteration    1(  29)  ---------------------------------------


    POTLOK:  cpu time    0.14: real time    0.14
    SETDIJ:  cpu time    0.04: real time    0.04
     EDDAV:  cpu time    0.04: real time    0.05
       DOS:  cpu time    0.00: real time    0.00
    CHARGE:  cpu time    0.04: real time    0.04
    MIXING:  cpu time    0.01: real time    0.01
    --------------------------------------------
      LOOP:  cpu time    0.27: real time    0.30

 eigenvalue-minimisations  :    48
 total energy-change (2. order) :-0.1383879E+00  (-0.1127895E-02)
 number of electron       5.0000001 magnetization       1.3322899
 augmentation part        0.3979665 magnetization       0.8989774

 Broyden mixing:
  rms(total) = 0.25263E+00    rms(broyden)= 0.25263E+00
  rms(prec ) = 0.39523E+00
  weight for this iteration     100.00

 eigenvalues of (default mixing * dielectric matrix)
  average eigenvalue GAMMA=   1.0722
  6.3821  2.5237  1.7537  1.7537  0.6815  1.1362  1.1362  1.3144  1.0159  1.0159
  0.7730  0.7730  0.7131  0.7131  0.4694  0.4694  0.6100  0.4748  0.4748  0.4940
  0.4373  0.4373  0.1681  0.0127

 Free energy of the ion-electron system (eV)
  ---------------------------------------------------
  alpha Z        PSCENC =        30.58334069
  Ewald energy   TEWEN  =      -197.90100875
  -1/2 Hartree   DENC   =        -0.65747593
  -exchange  EXHF       =         0.00000000
  -V(xc)+E(xc)   XCENC  =       -65.85613028
  PAW double counting   =       181.87749271     -108.58191849
  entropy T*S    EENTRO =        -0.00933396
  eigenvalues    EBANDS =        20.46141576
  atomic energy  EATOM  =       130.64621481
  ---------------------------------------------------
  free energy    TOTEN  =        -9.43740344 eV

  energy without entropy =       -9.42806948  energy(sigma->0) =       -9.43429212


--------------------------------------------------------------------------------------------------------




----------------------------------------- Iteration    1(  30)  ---------------------------------------


    POTLOK:  cpu time    0.14: real time    0.14
    SETDIJ:  cpu time    0.04: real time    0.05
     EDDAV:  cpu time    0.05: real time    0.05
       DOS:  cpu time    0.00: real time    0.00
    CHARGE:  cpu time    0.04: real time    0.04
    MIXING:  cpu time    0.01: real time    0.01
    --------------------------------------------
      LOOP:  cpu time    0.27: real time    0.36

 eigenvalue-minimisations  :    48
 total energy-change (2. order) :-0.2358590E-01  (-0.1404563E-03)
 number of electron       5.0000001 magnetization       1.1624012
 augmentation part        0.3992880 magnetization       0.7294084

 Broyden mixing:
  rms(total) = 0.22539E+00    rms(broyden)= 0.22539E+00
  rms(prec ) = 0.34871E+00
  weight for this iteration     100.00

 eigenvalues of (default mixing * dielectric matrix)
  average eigenvalue GAMMA=   1.0977
  7.1391  2.5834  1.8007  1.8007  0.6815  1.1867  1.1867  1.2007  1.0369  1.0369
  0.7776  0.7776  0.8135  0.7010  0.5850  0.5850  0.6127  0.4624  0.4624  0.4940
  0.4566  0.4408  0.4408  0.1681  0.0127

 Free energy of the ion-electron system (eV)
  ---------------------------------------------------
  alpha Z        PSCENC =        30.58334069
  Ewald energy   TEWEN  =      -197.90100875
  -1/2 Hartree   DENC   =        -0.64005933
  -exchange  EXHF       =         0.00000000
  -V(xc)+E(xc)   XCENC  =       -65.86711854
  PAW double counting   =       186.11977265     -112.81198589
  entropy T*S    EENTRO =        -0.00933397
  eigenvalues    EBANDS =        20.41918898
  atomic energy  EATOM  =       130.64621481
  ---------------------------------------------------
  free energy    TOTEN  =        -9.46098934 eV

  energy without entropy =       -9.45165538  energy(sigma->0) =       -9.45787802


--------------------------------------------------------------------------------------------------------




----------------------------------------- Iteration    1(  31)  ---------------------------------------


    POTLOK:  cpu time    0.15: real time    0.15
    SETDIJ:  cpu time    0.04: real time    0.04
     EDDAV:  cpu time    0.04: real time    0.05
       DOS:  cpu time    0.00: real time    0.00
    CHARGE:  cpu time    0.04: real time    0.04
    MIXING:  cpu time    0.01: real time    0.01
    --------------------------------------------
      LOOP:  cpu time    0.28: real time    0.35

 eigenvalue-minimisations  :    48
 total energy-change (2. order) :-0.2791097E-01  (-0.5291017E-03)
 number of electron       5.0000001 magnetization       0.7111094
 augmentation part        0.4019093 magnetization       0.2788112

 Broyden mixing:
  rms(total) = 0.18048E+00    rms(broyden)= 0.18048E+00
  rms(prec ) = 0.25944E+00
  weight for this iteration     100.00

 eigenvalues of (default mixing * dielectric matrix)
  average eigenvalue GAMMA=   1.1335
  7.3470  2.5480  1.9048  1.9048  1.2426  1.2426  0.6815  1.3546  1.0715  1.0715
  0.9189  0.9189  0.7984  0.7984  0.7307  0.7307  0.4617  0.4617  0.6181  0.4934
  0.5144  0.5144  0.4811  0.4811  0.1681  0.0127

 Free energy of the ion-electron system (eV)
  ---------------------------------------------------
  alpha Z        PSCENC =        30.58334069
  Ewald energy   TEWEN  =      -197.90100875
  -1/2 Hartree   DENC   =        -0.58585985
  -exchange  EXHF       =         0.00000000
  -V(xc)+E(xc)   XCENC  =       -65.86659209
  PAW double counting   =       188.48046310     -115.17384910
  entropy T*S    EENTRO =        -0.00933397
  eigenvalues    EBANDS =        20.33772485
  atomic energy  EATOM  =       130.64621481
  ---------------------------------------------------
  free energy    TOTEN  =        -9.48890031 eV

  energy without entropy =       -9.47956634  energy(sigma->0) =       -9.48578899


--------------------------------------------------------------------------------------------------------




----------------------------------------- Iteration    1(  32)  ---------------------------------------


    POTLOK:  cpu time    0.14: real time    0.14
    SETDIJ:  cpu time    0.03: real time    0.03
     EDDAV:  cpu time    0.04: real time    0.04
       DOS:  cpu time    0.00: real time    0.00
    CHARGE:  cpu time    0.03: real time    0.04
    MIXING:  cpu time    0.01: real time    0.01
    --------------------------------------------
      LOOP:  cpu time    0.26: real time    0.35

 eigenvalue-minimisations  :    48
 total energy-change (2. order) :-0.6597866E-01  (-0.1793923E-02)
 number of electron       5.0000001 magnetization       0.4089155
 augmentation part        0.4060695 magnetization      -0.0214191

 Broyden mixing:
  rms(total) = 0.67044E-01    rms(broyden)= 0.67044E-01
  rms(prec ) = 0.10234E+00
  weight for this iteration     100.00

 eigenvalues of (default mixing * dielectric matrix)
  average eigenvalue GAMMA=   1.1664
  7.9271  2.5211  1.8573  1.8573  1.3108  1.3108  0.6815  1.2609  1.2609  1.4557
  0.8820  0.8820  0.9658  0.9658  0.7103  0.7103  0.4638  0.4638  0.6352  0.6352
  0.6050  0.4942  0.5047  0.4747  0.4747  0.1681  0.0127

 Free energy of the ion-electron system (eV)
  ---------------------------------------------------
  alpha Z        PSCENC =        30.58334069
  Ewald energy   TEWEN  =      -197.90100875
  -1/2 Hartree   DENC   =        -0.50434776
  -exchange  EXHF       =         0.00000000
  -V(xc)+E(xc)   XCENC  =       -65.89663892
  PAW double counting   =       185.35079249     -112.07180234
  entropy T*S    EENTRO =        -0.00933397
  eigenvalues    EBANDS =        20.24790477
  atomic energy  EATOM  =       130.64621481
  ---------------------------------------------------
  free energy    TOTEN  =        -9.55487898 eV

  energy without entropy =       -9.54554500  energy(sigma->0) =       -9.55176765


--------------------------------------------------------------------------------------------------------




----------------------------------------- Iteration    1(  33)  ---------------------------------------


    POTLOK:  cpu time    0.14: real time    0.14
    SETDIJ:  cpu time    0.03: real time    0.03
     EDDAV:  cpu time    0.04: real time    0.04
       DOS:  cpu time    0.00: real time    0.00
    CHARGE:  cpu time    0.03: real time    0.04
    MIXING:  cpu time    0.01: real time    0.01
    --------------------------------------------
      LOOP:  cpu time    0.26: real time    0.26

 eigenvalue-minimisations  :    48
 total energy-change (2. order) :-0.1229582E-01  (-0.7701344E-03)
 number of electron       5.0000001 magnetization       0.3822382
 augmentation part        0.4083989 magnetization      -0.0468456

 Broyden mixing:
  rms(total) = 0.45140E-01    rms(broyden)= 0.45140E-01
  rms(prec ) = 0.95554E-01
  weight for this iteration     100.00

 eigenvalues of (default mixing * dielectric matrix)
  average eigenvalue GAMMA=   1.1879
  8.2115  2.5324  1.7655  1.7655  1.6810  1.6810  1.3080  1.3080  0.6815  1.3941
  0.8712  0.8712  1.0022  1.0022  0.7542  0.7542  0.6932  0.6932  0.4634  0.4634
  0.6367  0.5945  0.5069  0.4929  0.4762  0.4762  0.1681  0.0127

 Free energy of the ion-electron system (eV)
  ---------------------------------------------------
  alpha Z        PSCENC =        30.58334069
  Ewald energy   TEWEN  =      -197.90100875
  -1/2 Hartree   DENC   =        -0.47266189
  -exchange  EXHF       =         0.00000000
  -V(xc)+E(xc)   XCENC  =       -65.90332423
  PAW double counting   =       184.20228720     -110.93570191
  entropy T*S    EENTRO =        -0.00933397
  eigenvalues    EBANDS =        20.22301326
  atomic energy  EATOM  =       130.64621481
  ---------------------------------------------------
  free energy    TOTEN  =        -9.56717479 eV

  energy without entropy =       -9.55784082  energy(sigma->0) =       -9.56406347


--------------------------------------------------------------------------------------------------------




----------------------------------------- Iteration    1(  34)  ---------------------------------------


    POTLOK:  cpu time    0.14: real time    0.14
    SETDIJ:  cpu time    0.04: real time    0.04
     EDDAV:  cpu time    0.04: real time    0.04
       DOS:  cpu time    0.00: real time    0.00
    CHARGE:  cpu time    0.04: real time    0.04
    MIXING:  cpu time    0.01: real time    0.01
    --------------------------------------------
      LOOP:  cpu time    0.26: real time    1.26

 eigenvalue-minimisations  :    36
 total energy-change (2. order) : 0.1316321E-03  (-0.1813357E-04)
 number of electron       5.0000001 magnetization       0.3990038
 augmentation part        0.4084951 magnetization      -0.0301433

 Broyden mixing:
  rms(total) = 0.51167E-01    rms(broyden)= 0.51167E-01
  rms(prec ) = 0.10612E+00
  weight for this iteration     100.00

 eigenvalues of (default mixing * dielectric matrix)
  average eigenvalue GAMMA=   1.1484
  8.2110  2.5336  1.7646  1.7646  1.6894  1.6894  1.3080  1.3080  0.6815  1.4021
  0.8711  0.8711  1.0015  1.0015  0.7520  0.7520  0.6921  0.6921  0.4634  0.4634
  0.6360  0.5932  0.5072  0.4929  0.4762  0.4762  0.0127  0.0285  0.1681

 Free energy of the ion-electron system (eV)
  ---------------------------------------------------
  alpha Z        PSCENC =        30.58334069
  Ewald energy   TEWEN  =      -197.90100875
  -1/2 Hartree   DENC   =        -0.47615952
  -exchange  EXHF       =         0.00000000
  -V(xc)+E(xc)   XCENC  =       -65.90485050
  PAW double counting   =       185.23199034     -111.96438140
  entropy T*S    EENTRO =        -0.00933397
  eigenvalues    EBANDS =        20.22714513
  atomic energy  EATOM  =       130.64621481
  ---------------------------------------------------
  free energy    TOTEN  =        -9.56704316 eV

  energy without entropy =       -9.55770919  energy(sigma->0) =       -9.56393184


--------------------------------------------------------------------------------------------------------




----------------------------------------- Iteration    1(  35)  ---------------------------------------


    POTLOK:  cpu time    0.14: real time    0.14
    SETDIJ:  cpu time    0.04: real time    0.04
     EDDAV:  cpu time    0.04: real time    0.04
       DOS:  cpu time    0.00: real time    0.00
    CHARGE:  cpu time    0.04: real time    0.04
    MIXING:  cpu time    0.01: real time    0.01
    --------------------------------------------
      LOOP:  cpu time    0.26: real time    0.28

 eigenvalue-minimisations  :    36
 total energy-change (2. order) :-0.5385628E-03  (-0.1538286E-04)
 number of electron       5.0000001 magnetization       0.4421017
 augmentation part        0.4080928 magnetization       0.0126664

 Broyden mixing:
  rms(total) = 0.48781E-01    rms(broyden)= 0.48781E-01
  rms(prec ) = 0.10328E+00
  weight for this iteration     100.00

[...]
 total energy-change (2. order) :-0.8275036E-03  (-0.4729840E-04)
 number of electron       5.0000001 magnetization       0.4900829
 augmentation part        0.4078862 magnetization       0.0605864

 Broyden mixing:
  rms(total) = 0.12357E-01    rms(broyden)= 0.12357E-01
  rms(prec ) = 0.24647E-01
  weight for this iteration     100.00

 eigenvalues of (default mixing * dielectric matrix)
  average eigenvalue GAMMA=   2.5698
 48.1058 12.7420  8.6835  4.2307  2.5863  2.5863  2.5326  1.7397  1.7397  1.2899
  1.2899  0.6815  1.5105  1.4546  1.4546  1.1704  1.1704  0.8699  0.8699  1.1901
  1.1901  0.8319  0.8319  0.8826  0.8826  0.0127  0.4633  0.4633  0.1681  0.8165
  0.8165  0.4765  0.4765  0.7086  0.7086  0.6612  0.6612  0.4928  0.5032  0.6582
  0.6424  0.6128  0.6128  0.5992

 Free energy of the ion-electron system (eV)
  ---------------------------------------------------
  alpha Z        PSCENC =        30.58334069
  Ewald energy   TEWEN  =      -197.90100875
  -1/2 Hartree   DENC   =        -0.44429424
  -exchange  EXHF       =         0.00000000
  -V(xc)+E(xc)   XCENC  =       -65.90101469
  PAW double counting   =       186.35079914     -113.12473871
  entropy T*S    EENTRO =        -0.00933397
  eigenvalues    EBANDS =        20.22888492
  atomic energy  EATOM  =       130.64621481
  ---------------------------------------------------
  free energy    TOTEN  =        -9.57115079 eV

  energy without entropy =       -9.56181682  energy(sigma->0) =       -9.56803947


--------------------------------------------------------------------------------------------------------




----------------------------------------- Iteration    1(  50)  ---------------------------------------


    POTLOK:  cpu time    0.14: real time    0.14
    SETDIJ:  cpu time    0.04: real time    0.04
     EDDAV:  cpu time    0.03: real time    0.03
       DOS:  cpu time    0.00: real time    0.00
    CHARGE:  cpu time    0.04: real time    0.04
    MIXING:  cpu time    0.02: real time    0.02
    --------------------------------------------
      LOOP:  cpu time    0.26: real time    0.28

 eigenvalue-minimisations  :    24
 total energy-change (2. order) :-0.2592567E-03  (-0.1062883E-04)
 number of electron       5.0000001 magnetization       0.4924788
 augmentation part        0.4078707 magnetization       0.0630251

 Broyden mixing:
  rms(total) = 0.59300E-02    rms(broyden)= 0.59300E-02
  rms(prec ) = 0.11968E-01
  weight for this iteration     100.00

 eigenvalues of (default mixing * dielectric matrix)
  average eigenvalue GAMMA=   5.0013
135.4538  8.6938  8.6938  7.2065  4.4446  2.8034  2.7178  2.4843  2.4843  2.2443
  2.2443  1.4429  1.4429  1.4665  1.4665  0.2450  0.8157  0.8157  0.9603  0.9603
  0.0131  0.2304  0.2304  0.1807  0.8413  0.8413  0.3365  0.4045  0.8259  0.7258
  0.7258  0.5101  0.6168  0.6168  0.6763  0.6763  0.6340  0.6340  0.6219  0.6219

 Free energy of the ion-electron system (eV)
  ---------------------------------------------------
  alpha Z        PSCENC =        30.58334069
  Ewald energy   TEWEN  =      -197.90100875
  -1/2 Hartree   DENC   =        -0.43998668
  -exchange  EXHF       =         0.00000000
  -V(xc)+E(xc)   XCENC  =       -65.90095573
  PAW double counting   =       186.49430739     -113.27308312
  entropy T*S    EENTRO =        -0.00933397
  eigenvalues    EBANDS =        20.22909531
  atomic energy  EATOM  =       130.64621481
  ---------------------------------------------------
  free energy    TOTEN  =        -9.57141005 eV

  energy without entropy =       -9.56207607  energy(sigma->0) =       -9.56829872


--------------------------------------------------------------------------------------------------------




----------------------------------------- Iteration    1(  51)  ---------------------------------------


    POTLOK:  cpu time    0.14: real time    0.14
    SETDIJ:  cpu time    0.03: real time    0.04
     EDDAV:  cpu time    0.03: real time    0.03
       DOS:  cpu time    0.00: real time    0.00
    --------------------------------------------
      LOOP:  cpu time    0.21: real time    0.22

 eigenvalue-minimisations  :    24
 total energy-change (2. order) :-0.6379486E-04  (-0.4605848E-05)
 number of electron       5.0000001 magnetization       0.4924788
 augmentation part        0.4078707 magnetization       0.0630251

 Free energy of the ion-electron system (eV)
  ---------------------------------------------------
  alpha Z        PSCENC =        30.58334069
  Ewald energy   TEWEN  =      -197.90100875
  -1/2 Hartree   DENC   =        -0.43678935
  -exchange  EXHF       =         0.00000000
  -V(xc)+E(xc)   XCENC  =       -65.90064179
  PAW double counting   =       186.53320788     -113.31485009
  entropy T*S    EENTRO =        -0.00933397
  eigenvalues    EBANDS =        20.22838672
  atomic energy  EATOM  =       130.64621481
  ---------------------------------------------------
  free energy    TOTEN  =        -9.57147384 eV

  energy without entropy =       -9.56213987  energy(sigma->0) =       -9.56836252


--------------------------------------------------------------------------------------------------------




 average (electrostatic) potential at core
  the test charge radii are     1.2538
  (the norm of the test charge is              1.0000)
       1 -35.1282
 
 
 
 E-fermi :   6.6475     XC(G=0): -12.3815     alpha+bet :-13.5035


 spin component 1

 k-point   1 :       0.2500    0.2500    0.2500
  band No.  band energies     occupation 
      1       4.2572      1.00000
      2       4.2572      1.00000
      3       4.2572      1.00000
      4      10.6088      0.00000
      5      10.6088      0.00000
      6      12.4920      0.00000

 k-point   2 :      -0.2500    0.2500    0.2500
  band No.  band energies     occupation 
      1       1.8840      1.00000
      2       4.7275      1.00000
      3       6.6575      0.33334
      4       6.6575      0.33333
      5       8.5432      0.00000
      6      10.5329      0.00000

 spin component 2

 k-point   1 :       0.2500    0.2500    0.2500
  band No.  band energies     occupation 
      1       4.6613      1.00000
      2       4.6613      1.00000
      3       4.6613      1.00000
      4      10.7647      0.00000
      5      10.7647      0.00000
      6      13.0104      0.00000

 k-point   2 :      -0.2500    0.2500    0.2500
  band No.  band energies     occupation 
      1       2.1437      1.00000
      2       4.8590      1.00000
      3       7.1467      0.00000
      4       7.1467      0.00000
      5       9.0556      0.00000
      6      10.7614      0.00000


--------------------------------------------------------------------------------------------------------


 soft charge-density along one line, spin component           1
         0         1         2         3         4         5         6         7         8         9
 total charge-density along one line
 
 soft charge-density along one line, spin component           2
         0         1         2         3         4         5         6         7         8         9
 total charge-density along one line
 
 pseudopotential strength for first ion, spin component:           1
 -6.553   0.000  -0.013   0.000  -0.007   0.087   0.000  -0.001
  0.000  -6.563   0.000  -0.015   0.000   0.000   0.086   0.000
 -0.013   0.000  -6.566   0.000   0.005  -0.001   0.000   0.086
  0.000  -0.015   0.000  -6.553   0.000   0.000  -0.001   0.000
 -0.007   0.000   0.005   0.000  -6.571  -0.001   0.000   0.000
  0.087   0.000  -0.001   0.000  -0.001   0.071   0.000   0.000
  0.000   0.086   0.000  -0.001   0.000   0.000   0.071   0.000
 -0.001   0.000   0.086   0.000   0.000   0.000   0.000   0.071
  0.000  -0.001   0.000   0.087   0.000   0.000   0.000   0.000
 -0.001   0.000   0.000   0.000   0.086   0.000   0.000   0.000
  0.000   0.000   0.000   0.000   0.000   0.000   0.000   0.000
  0.000   0.000   0.000   0.000   0.000   0.000   0.000   0.000
  0.000   0.000   0.000   0.000   0.000   0.000   0.000   0.000
  0.000   0.000   0.000   0.000   0.000   0.000   0.000   0.000
  0.000   0.000   0.000   0.000   0.000   0.000   0.000   0.000
  0.000   0.000   0.000   0.000   0.000   0.000   0.000   0.000
  0.000   0.000   0.000   0.000   0.000   0.000   0.000   0.000
  0.000   0.000   0.000   0.000   0.000   0.000   0.000   0.000
 pseudopotential strength for first ion, spin component:           2
 -6.546   0.000  -0.006   0.000  -0.004   0.090   0.000   0.000
  0.000  -6.551   0.000  -0.007   0.000   0.000   0.090   0.000
 -0.006   0.000  -6.552   0.000   0.002   0.000   0.000   0.089
  0.000  -0.007   0.000  -6.546   0.000   0.000   0.000   0.000
 -0.004   0.000   0.002   0.000  -6.555   0.000   0.000   0.000
  0.090   0.000   0.000   0.000   0.000   0.071   0.000   0.000
  0.000   0.090   0.000   0.000   0.000   0.000   0.071   0.000
  0.000   0.000   0.089   0.000   0.000   0.000   0.000   0.071
  0.000   0.000   0.000   0.090   0.000   0.000   0.000   0.000
  0.000   0.000   0.000   0.000   0.089   0.000   0.000   0.000
  0.000   0.000   0.000   0.000   0.000   0.000   0.000   0.000
  0.000   0.000   0.000   0.000   0.000   0.000   0.000   0.000
  0.000   0.000   0.000   0.000   0.000   0.000   0.000   0.000
  0.000   0.000   0.000   0.000   0.000   0.000   0.000   0.000
  0.000   0.000   0.000   0.000   0.000   0.000   0.000   0.000
  0.000   0.000   0.000   0.000   0.000   0.000   0.000   0.000
  0.000   0.000   0.000   0.000   0.000   0.000   0.000   0.000
  0.000   0.000   0.000   0.000   0.000   0.000   0.000   0.000
 total augmentation occupancy for first ion, spin component:           1
  0.724   0.000  -0.105   0.000  -0.061  -0.474   0.000   0.126   0.000   0.073   0.000   0.000   0.000   0.000   0.000   0.000
  0.000   0.638   0.000  -0.121   0.000   0.000  -0.371   0.000   0.146   0.000   0.000   0.000   0.000   0.000   0.000   0.000
 -0.105   0.000   0.617   0.000   0.037   0.126   0.000  -0.345   0.000  -0.045   0.000   0.000   0.000   0.000   0.000   0.000
  0.000  -0.121   0.000   0.724   0.000   0.000   0.146   0.000  -0.474   0.000   0.000   0.000   0.000   0.000   0.000   0.000
 -0.061   0.000   0.037   0.000   0.574   0.073   0.000  -0.045   0.000  -0.294   0.000   0.000   0.000   0.000   0.000   0.000
 -0.474   0.000   0.126   0.000   0.073   0.354   0.000  -0.116   0.000  -0.067   0.000   0.000   0.000   0.000   0.000   0.000
  0.000  -0.371   0.000   0.146   0.000   0.000   0.259   0.000  -0.134   0.000   0.000   0.000   0.000   0.000   0.000   0.000
  0.126   0.000  -0.345   0.000  -0.045  -0.116   0.000   0.236   0.000   0.041   0.000   0.000   0.000   0.000   0.000   0.000
  0.000   0.146   0.000  -0.474   0.000   0.000  -0.134   0.000   0.354   0.000   0.000   0.000   0.000   0.000   0.000   0.000
  0.073   0.000  -0.045   0.000  -0.294  -0.067   0.000   0.041   0.000   0.189   0.000   0.000   0.000   0.000   0.000   0.000
  0.000   0.000   0.000   0.000   0.000   0.000   0.000   0.000   0.000   0.000   1.340  -0.281   0.000   0.000   0.000   0.000
  0.000   0.000   0.000   0.000   0.000   0.000   0.000   0.000   0.000   0.000  -0.281   0.059   0.000   0.000   0.000   0.000
  0.000   0.000   0.000   0.000   0.000   0.000   0.000   0.000   0.000   0.000   0.000   0.000   0.397   0.000   0.000   0.017
  0.000   0.000   0.000   0.000   0.000   0.000   0.000   0.000   0.000   0.000   0.000   0.000   0.000   0.397   0.000   0.000
  0.000   0.000   0.000   0.000   0.000   0.000   0.000   0.000   0.000   0.000   0.000   0.000   0.000   0.000   0.397   0.000
  0.000   0.000   0.000   0.000   0.000   0.000   0.000   0.000   0.000   0.000   0.000   0.000   0.017   0.000   0.000   0.001
  0.000   0.000   0.000   0.000   0.000   0.000   0.000   0.000   0.000   0.000   0.000   0.000   0.000   0.017   0.000   0.000
  0.000   0.000   0.000   0.000   0.000   0.000   0.000   0.000   0.000   0.000   0.000   0.000   0.000   0.000   0.017   0.000
 total augmentation occupancy for first ion, spin component:           2
  0.059   0.000   0.076   0.000   0.044  -0.007   0.000  -0.010   0.000  -0.006   0.000   0.000   0.000   0.000   0.000   0.000
  0.000   0.121   0.000   0.088   0.000   0.000  -0.015   0.000  -0.012   0.000   0.000   0.000   0.000   0.000   0.000   0.000
  0.076   0.000   0.136   0.000  -0.027  -0.010   0.000  -0.017   0.000   0.004   0.000   0.000   0.000   0.000   0.000   0.000
  0.000   0.088   0.000   0.059   0.000   0.000  -0.012   0.000  -0.007   0.000   0.000   0.000   0.000   0.000   0.000   0.000
  0.044   0.000  -0.027   0.000   0.168  -0.006   0.000   0.004   0.000  -0.021   0.000   0.000   0.000   0.000   0.000   0.000
 -0.007   0.000  -0.010   0.000  -0.006   0.001   0.000   0.001   0.000   0.001   0.000   0.000   0.000   0.000   0.000   0.000
  0.000  -0.015   0.000  -0.012   0.000   0.000   0.002   0.000   0.001   0.000   0.000   0.000   0.000   0.000   0.000   0.000
 -0.010   0.000  -0.017   0.000   0.004   0.001   0.000   0.002   0.000   0.000   0.000   0.000   0.000   0.000   0.000   0.000
  0.000  -0.012   0.000  -0.007   0.000   0.000   0.001   0.000   0.001   0.000   0.000   0.000   0.000   0.000   0.000   0.000
 -0.006   0.000   0.004   0.000  -0.021   0.001   0.000   0.000   0.000   0.003   0.000   0.000   0.000   0.000   0.000   0.000
  0.000   0.000   0.000   0.000   0.000   0.000   0.000   0.000   0.000   0.000   0.014  -0.008   0.000   0.000   0.000   0.000
  0.000   0.000   0.000   0.000   0.000   0.000   0.000   0.000   0.000   0.000  -0.008   0.003   0.000   0.000   0.000   0.000
  0.000   0.000   0.000   0.000   0.000   0.000   0.000   0.000   0.000   0.000   0.000   0.000   0.026   0.000   0.000   0.000
  0.000   0.000   0.000   0.000   0.000   0.000   0.000   0.000   0.000   0.000   0.000   0.000   0.000   0.026   0.000   0.000
  0.000   0.000   0.000   0.000   0.000   0.000   0.000   0.000   0.000   0.000   0.000   0.000   0.000   0.000   0.026   0.000
  0.000   0.000   0.000   0.000   0.000   0.000   0.000   0.000   0.000   0.000   0.000   0.000   0.000   0.000   0.000   0.000
  0.000   0.000   0.000   0.000   0.000   0.000   0.000   0.000   0.000   0.000   0.000   0.000   0.000   0.000   0.000   0.000
  0.000   0.000   0.000   0.000   0.000   0.000   0.000   0.000   0.000   0.000   0.000   0.000   0.000   0.000   0.000   0.000


------------------------ aborting loop because EDIFF is reached ----------------------------------------


 


 total charge     
 
# of ion     s       p       d       tot
----------------------------------------
  1        0.682   0.925   3.013   4.619
 


 magnetization (x)
 
# of ion     s       p       d       tot
----------------------------------------
  1        0.008   0.058   0.432   0.498
 
    CHARGE:  cpu time    0.04: real time    0.04
    FORLOC:  cpu time    0.00: real time    0.00
    FORNL :  cpu time    0.14: real time    0.14
    STRESS:  cpu time    0.24: real time    0.24
    FORCOR:  cpu time    0.14: real time    0.14
    FORHAR:  cpu time    0.01: real time    0.02
    MIXING:  cpu time    0.01: real time    0.01

  FORCE on cell =-STRESS in cart. coord.  units (eV):
  Direction    XX          YY          ZZ          XY          YZ          ZX
  --------------------------------------------------------------------------------------
  Alpha Z    30.58334    30.58334    30.58334
  Ewald     -65.96700   -65.96700   -65.96700     0.00000     0.00000     0.00000
  Hartree     0.14502     0.14502     0.14502     0.00000     0.00000     0.00000
  E(xc)     -22.24839   -22.24839   -22.24839     0.00000     0.00000     0.00000
  Local       3.78475     3.78475     3.78475     0.00000     0.00000     0.00000
  n-local    -2.56101    -2.98787    -2.13419    -0.60365     0.73931    -1.04555
  augment     2.97875     2.97875     2.97875     0.00000     0.00000     0.00000
  Kinetic    56.84464    58.08328    55.60617     1.75153    -2.14524     3.03373
  Fock        0.00000     0.00000     0.00000     0.00000     0.00000     0.00000
  -------------------------------------------------------------------------------------
  Total       3.56014     3.56014     3.56014     0.00000     0.00000     0.00000
  in kB     314.57476   314.57476   314.57476     0.00000     0.00000     0.00000
  external pressure =      314.57 kB  Pullay stress =        0.00 kB


 VOLUME and BASIS-vectors are now :
 -----------------------------------------------------------------------------
  energy-cutoff  :      350.00
  volume of cell :       18.13
      direct lattice vectors                 reciprocal lattice vectors
     2.866544087  0.000000000  0.000000000     0.348852126  0.123337852  0.213627426
    -0.955514696  2.702603683  0.000000000     0.000000000  0.370013556  0.213627426
    -0.955514696 -1.351301841  2.340523446     0.000000000  0.000000000  0.427254853

  length of vectors
     2.866544087  2.866544087  2.866544087     0.427254853  0.427254853  0.427254853


 FORCES acting on ions
    electron-ion (+dipol)            ewald-force                    non-local-force                 convergence-correction
 -----------------------------------------------------------------------------------------------
   0.224E-15 -.340E-15 0.301E-14   -.279E-15 -.214E-15 0.640E-15   -.121E-26 0.000E+00 0.000E+00   -.529E-15 -.189E-15 -.105E-15
 -----------------------------------------------------------------------------------------------
   0.224E-15 -.340E-15 0.301E-14   -.279E-15 -.214E-15 0.640E-15   -.121E-26 0.000E+00 0.000E+00   -.529E-15 -.189E-15 -.105E-15
 
 
 POSITION                                       TOTAL-FORCE (eV/Angst)
 -----------------------------------------------------------------------------------
      0.00000      0.00000      0.00000         0.000000      0.000000      0.000000
 -----------------------------------------------------------------------------------
    total drift:                                0.000000      0.000000      0.000000


--------------------------------------------------------------------------------------------------------



  FREE ENERGIE OF THE ION-ELECTRON SYSTEM (eV)
  ---------------------------------------------------
  free  energy   TOTEN  =        -9.571474 eV

  energy  without entropy=       -9.562140  energy(sigma->0) =       -9.568363
 


--------------------------------------------------------------------------------------------------------


    POTLOK:  cpu time    0.17: real time    0.18


--------------------------------------------------------------------------------------------------------


 writing wavefunctions
     LOOP+:  cpu time   13.91: real time   16.12
    4ORBIT:  cpu time    0.00: real time    0.00
 


 total charge     
 
# of ion     s       p       d       tot
----------------------------------------
  1        0.682   0.925   3.013   4.619
 


 magnetization (x)
 
# of ion     s       p       d       tot
----------------------------------------
  1        0.008   0.058   0.432   0.498
 

 total amount of memory used by VASP on root node    35885. kBytes
========================================================================

   base      :      30000. kBytes
   nonl-proj :         84. kBytes
   fftplans  :       1676. kBytes
   grid      :       3981. kBytes
   one-center:         31. kBytes
   wavefun   :        113. kBytes
 
  
  
 General timing and accounting informations for this job:
 ========================================================
  
                  Total CPU time used (sec):       14.579
                            User time (sec):       14.073
                          System time (sec):        0.506
                         Elapsed time (sec):       16.937
  
                   Maximum memory used (kb):           0.
                   Average memory used (kb):           0.
  
                          Minor page faults:         8024
                          Major page faults:            1
                 Voluntary context switches:        10812
