PROCAR lm decomposed
# of k-points:    2         # of bands:   6         # of ions:   1

 k-point    1 :    0.25000000 0.25000000 0.25000000     weight = 0.25000000

band   1 # energy    4.25724464 # occ.  1.00000000
 
ion      s     py     pz     px    dxy    dyz    dz2    dxz    dx2    tot
  1  0.000  0.143  0.004  0.141  0.116  0.007  0.015  0.003  0.558  0.988
 
band   2 # energy    4.25724464 # occ.  1.00000000
 
ion      s     py     pz     px    dxy    dyz    dz2    dxz    dx2    tot
  1  0.000  0.081  0.092  0.115  0.066  0.149  0.335  0.074  0.077  0.988
 
band   3 # energy    4.25724666 # occ.  1.00000000
 
ion      s     py     pz     px    dxy    dyz    dz2    dxz    dx2    tot
  1  0.000  0.064  0.192  0.032  0.052  0.311  0.175  0.156  0.006  0.988
 
band   4 # energy   10.60881578 # occ.  0.00000000
 
ion      s     py     pz     px    dxy    dyz    dz2    dxz    dx2    tot
  1  0.000  0.000  0.000  0.000  0.000  0.331  0.000  0.662  0.000  0.994
 
band   5 # energy   10.60881578 # occ.  0.00000000
 
ion      s     py     pz     px    dxy    dyz    dz2    dxz    dx2    tot
  1  0.000  0.000  0.000  0.000  0.662  0.000  0.248  0.000  0.083  0.994
 
band   6 # energy   12.49201541 # occ.  0.00000000
 
ion      s     py     pz     px    dxy    dyz    dz2    dxz    dx2    tot
  1  0.983  0.000  0.000  0.000  0.000  0.000  0.000  0.000  0.000  0.983
 

 k-point    2 :   -0.25000000 0.25000000 0.25000000     weight = 0.75000000

band   1 # energy    1.88399444 # occ.  1.00000000
 
ion      s     py     pz     px    dxy    dyz    dz2    dxz    dx2    tot
  1  0.460  0.048  0.145  0.097  0.029  0.043  0.011  0.086  0.004  0.923
 
band   2 # energy    4.72752448 # occ.  1.00000000
 
ion      s     py     pz     px    dxy    dyz    dz2    dxz    dx2    tot
  1  0.000  0.000  0.000  0.000  0.425  0.071  0.159  0.142  0.053  0.850
 
band   3 # energy    6.65753244 # occ.  0.33334075
 
ion      s     py     pz     px    dxy    dyz    dz2    dxz    dx2    tot
  1  0.000  0.086  0.029  0.000  0.215  0.143  0.323  0.072  0.108  0.976
 
band   4 # energy    6.65753338 # occ.  0.33332592
 
ion      s     py     pz     px    dxy    dyz    dz2    dxz    dx2    tot
  1  0.000  0.010  0.029  0.077  0.024  0.143  0.323  0.072  0.299  0.976
 
band   5 # energy    8.54321891 # occ.  0.00000000
 
ion      s     py     pz     px    dxy    dyz    dz2    dxz    dx2    tot
  1  0.000  0.000  0.000  0.000  0.054  0.322  0.000  0.161  0.429  0.965
 
band   6 # energy   10.53286236 # occ.  0.00000000
 
ion      s     py     pz     px    dxy    dyz    dz2    dxz    dx2    tot
  1  0.178  0.005  0.014  0.009  0.130  0.195  0.049  0.391  0.016  0.987
 
# of k-points:    2         # of bands:   6         # of ions:   1

 k-point    1 :    0.25000000 0.25000000 0.25000000     weight = 0.25000000

band   1 # energy    4.66132966 # occ.  1.00000000
 
ion      s     py     pz     px    dxy    dyz    dz2    dxz    dx2    tot
  1  0.000  0.150  0.005  0.136  0.119  0.009  0.019  0.004  0.540  0.982
 
band   2 # energy    4.66132966 # occ.  1.00000000
 
ion      s     py     pz     px    dxy    dyz    dz2    dxz    dx2    tot
  1  0.000  0.076  0.092  0.123  0.060  0.145  0.326  0.072  0.087  0.982
 
band   3 # energy    4.66133051 # occ.  1.00000000
 
ion      s     py     pz     px    dxy    dyz    dz2    dxz    dx2    tot
  1  0.000  0.065  0.194  0.032  0.051  0.307  0.173  0.153  0.006  0.982
 
band   4 # energy   10.76467189 # occ.  0.00000000
 
ion      s     py     pz     px    dxy    dyz    dz2    dxz    dx2    tot
  1  0.000  0.000  0.000  0.000  0.000  0.331  0.000  0.663  0.000  0.995
 
band   5 # energy   10.76467189 # occ.  0.00000000
 
ion      s     py     pz     px    dxy    dyz    dz2    dxz    dx2    tot
  1  0.000  0.000  0.000  0.000  0.663  0.000  0.249  0.000  0.083  0.995
 
band   6 # energy   13.01043528 # occ.  0.00000000
 
ion      s     py     pz     px    dxy    dyz    dz2    dxz    dx2    tot
  1  0.976  0.000  0.000  0.000  0.000  0.000  0.000  0.000  0.000  0.976
 

 k-point    2 :   -0.25000000 0.25000000 0.25000000     weight = 0.75000000

band   1 # energy    2.14371755 # occ.  1.00000000
 
ion      s     py     pz     px    dxy    dyz    dz2    dxz    dx2    tot
  1  0.449  0.048  0.143  0.096  0.030  0.045  0.011  0.090  0.004  0.915
 
band   2 # energy    4.85901531 # occ.  1.00000000
 
ion      s     py     pz     px    dxy    dyz    dz2    dxz    dx2    tot
  1  0.000  0.000  0.000  0.000  0.425  0.071  0.159  0.142  0.053  0.850
 
band   3 # energy    7.14674498 # occ.  0.00000000
 
ion      s     py     pz     px    dxy    dyz    dz2    dxz    dx2    tot
  1  0.000  0.085  0.028  0.000  0.215  0.143  0.322  0.072  0.107  0.973
 
band   4 # energy    7.14674554 # occ.  0.00000000
 
ion      s     py     pz     px    dxy    dyz    dz2    dxz    dx2    tot
  1  0.000  0.009  0.028  0.076  0.024  0.143  0.322  0.072  0.298  0.973
 
band   5 # energy    9.05561216 # occ.  0.00000000
 
ion      s     py     pz     px    dxy    dyz    dz2    dxz    dx2    tot
  1  0.000  0.000  0.000  0.000  0.054  0.322  0.000  0.161  0.430  0.967
 
band   6 # energy   10.76141365 # occ.  0.00000000
 
ion      s     py     pz     px    dxy    dyz    dz2    dxz    dx2    tot
  1  0.182  0.005  0.015  0.010  0.130  0.194  0.049  0.389  0.016  0.990
 
