<?xml version="1.0" encoding="ISO-8859-1"?>
<modeling>
 <generator>
  <i name="program" type="string">vasp </i>
  <i name="version" type="string">5.2.12  </i>
  <i name="subversion" type="string">11Nov11 complex                                                      parallel </i>
  <i name="platform" type="string">LinuxIFC </i>
  <i name="date" type="string">2012 10 14 </i>
  <i name="time" type="string">15:40:34 </i>
 </generator>
 <incar>
  <i type="string" name="PREC">accurate</i>
  <i name="ENCUT">    350.00000000</i>
  <i type="logical" name="LREAL"> F  </i>
  <i type="int" name="ISMEAR">     1</i>
  <i name="SIGMA">      0.05000000</i>
 </incar>
 <kpoints>
  <generation param="Monkhorst-Pack">
   <v type="int" name="divisions">       2        2        2 </v>
   <v name="usershift">      0.00000000       0.00000000       0.00000000 </v>
   <v name="genvec1">      0.50000000       0.00000000       0.00000000 </v>
   <v name="genvec2">      0.00000000       0.50000000       0.00000000 </v>
   <v name="genvec3">      0.00000000       0.00000000       0.50000000 </v>
   <v name="shift">      0.50000000       0.50000000       0.50000000 </v>
  </generation>
  <varray name="kpointlist" >
   <v>       0.25000000       0.25000000       0.25000000 </v>
   <v>      -0.25000000       0.25000000       0.25000000 </v>
  </varray>
  <varray name="weights" >
   <v>       0.25000000 </v>
   <v>       0.75000000 </v>
  </varray>
 </kpoints>
 <parameters>
  <separator name="general" >
   <i type="string" name="SYSTEM">unknown system</i>
   <i type="logical" name="LCOMPAT"> F  </i>
  </separator>
  <separator name="electronic" >
   <i type="string" name="PREC">accura</i>
   <i name="ENMAX">    350.00000000</i>
   <i name="ENAUG">    332.07500000</i>
   <i name="EDIFF">      0.00010000</i>
   <i type="int" name="IALGO">    38</i>
   <i type="int" name="IWAVPR">    10</i>
   <i type="int" name="NBANDS">     6</i>
   <i name="NELECT">      5.00000000</i>
   <i type="int" name="TURBO">     0</i>
   <i type="int" name="IRESTART">     0</i>
   <i type="int" name="NREBOOT">     0</i>
   <i type="int" name="NMIN">     0</i>
   <i name="EREF">      0.00000000</i>
   <separator name="electronic smearing" >
    <i type="int" name="ISMEAR">     1</i>
    <i name="SIGMA">      0.05000000</i>
    <i name="KSPACING">      0.50000000</i>
    <i type="logical" name="KGAMMA"> T  </i>
   </separator>
   <separator name="electronic projectors" >
    <i type="logical" name="LREAL"> F  </i>
    <v name="ROPT">      0.00000000</v>
    <i type="int" name="LMAXPAW">  -100</i>
    <i type="int" name="LMAXMIX">     2</i>
    <i type="logical" name="NLSPLINE"> F  </i>
   </separator>
   <separator name="electronic startup" >
    <i type="int" name="ISTART">     0</i>
    <i type="int" name="ICHARG">     2</i>
    <i type="int" name="INIWAV">     1</i>
   </separator>
   <separator name="electronic spin" >
    <i type="int" name="ISPIN">     1</i>
    <i type="logical" name="LNONCOLLINEAR"> F  </i>
    <v name="MAGMOM">      1.00000000</v>
    <i name="NUPDOWN">     -1.00000000</i>
    <i type="logical" name="LSORBIT"> F  </i>
    <v name="SAXIS">      0.00000000      0.00000000      1.00000000</v>
    <i type="logical" name="LSPIRAL"> F  </i>
    <v name="QSPIRAL">      0.00000000      0.00000000      0.00000000</v>
    <i type="logical" name="LZEROZ"> F  </i>
   </separator>
   <separator name="electronic exchange-correlation" >
    <i type="logical" name="LASPH"> F  </i>
    <i type="logical" name="LMETAGGA"> F  </i>
   </separator>
   <separator name="electronic convergence" >
    <i type="int" name="NELM">    60</i>
    <i type="int" name="NELMDL">    -5</i>
    <i type="int" name="NELMIN">     2</i>
    <i name="ENINI">    350.00000000</i>
    <separator name="electronic convergence detail" >
     <i type="logical" name="LDIAG"> T  </i>
     <i type="logical" name="LSUBROT"> T  </i>
     <i name="WEIMIN">      0.00000000</i>
     <i name="EBREAK">      0.00000417</i>
     <i name="DEPER">      0.30000000</i>
     <i type="int" name="NRMM">     4</i>
     <i name="TIME">      0.40000000</i>
    </separator>
   </separator>
   <separator name="electronic mixer" >
    <i name="AMIX">      0.40000000</i>
    <i name="BMIX">      1.00000000</i>
    <i name="AMIN">      0.10000000</i>
    <i name="AMIX_MAG">      1.60000000</i>
    <i name="BMIX_MAG">      1.00000000</i>
    <separator name="electronic mixer details" >
     <i type="int" name="IMIX">     4</i>
     <i type="int" name="MAXMIX">   -45</i>
     <i name="WC">    100.00000000</i>
     <i type="int" name="INIMIX">     1</i>
     <i type="int" name="MIXPRE">     1</i>
     <i type="int" name="MREMOVE">     5</i>
    </separator>
   </separator>
   <separator name="electronic dipolcorrection" >
    <i type="logical" name="LDIPOL"> F  </i>
    <i type="logical" name="LMONO"> F  </i>
    <i type="int" name="IDIPOL">     0</i>
    <i name="EPSILON">      1.00000000</i>
    <v name="DIPOL">   -100.00000000   -100.00000000   -100.00000000</v>
    <i name="EFIELD">      0.00000000</i>
   </separator>
  </separator>
  <separator name="grids" >
   <i type="int" name="NGX">    18</i>
   <i type="int" name="NGY">    18</i>
   <i type="int" name="NGZ">    18</i>
   <i type="int" name="NGXF">    36</i>
   <i type="int" name="NGYF">    36</i>
   <i type="int" name="NGZF">    36</i>
   <i type="logical" name="ADDGRID"> F  </i>
  </separator>
  <separator name="ionic" >
   <i type="int" name="NSW">     0</i>
   <i type="int" name="IBRION">    -1</i>
   <i type="int" name="ISIF">     2</i>
   <i name="PSTRESS">      0.00000000</i>
   <i name="EDIFFG">      0.00100000</i>
   <i type="int" name="NFREE">     0</i>
   <i name="POTIM">      0.50000000</i>
   <i name="SMASS">     -3.00000000</i>
   <i name="SCALEE">      1.00000000</i>
  </separator>
  <separator name="ionic md" >
   <i name="TEBEG">      0.00010000</i>
   <i name="TEEND">      0.00010000</i>
   <i type="int" name="NBLOCK">     1</i>
   <i type="int" name="KBLOCK">     1</i>
   <i type="int" name="NPACO">   256</i>
   <i name="APACO">     16.00000000</i>
  </separator>
  <separator name="symmetry" >
   <i type="int" name="ISYM">     2</i>
   <i name="SYMPREC">      0.00001000</i>
  </separator>
  <separator name="dos" >
   <i type="logical" name="LORBIT"> F  </i>
   <v name="RWIGS">     -1.00000000</v>
   <i type="int" name="NEDOS">   301</i>
   <i name="EMIN">     10.00000000</i>
   <i name="EMAX">    -10.00000000</i>
   <i name="EFERMI">      0.00000000</i>
  </separator>
  <separator name="writing" >
   <i type="int" name="NWRITE">     2</i>
   <i type="logical" name="LWAVE"> T  </i>
   <i type="logical" name="LCHARG"> T  </i>
   <i type="logical" name="LPARD"> F  </i>
   <i type="logical" name="LVTOT"> F  </i>
   <i type="logical" name="LVHAR"> F  </i>
   <i type="logical" name="LELF"> F  </i>
   <i type="logical" name="LOPTICS"> F  </i>
   <v name="STM">      0.00000000      0.00000000      0.00000000      0.00000000      0.00000000      0.00000000      0.00000000</v>
  </separator>
  <separator name="performance" >
   <i type="int" name="NPAR">     1</i>
   <i type="int" name="NSIM">     4</i>
   <i type="int" name="NBLK">    -1</i>
   <i type="logical" name="LPLANE"> T  </i>
   <i type="logical" name="LSCALAPACK"> F  </i>
   <i type="logical" name="LSCAAWARE"> F  </i>
   <i type="logical" name="LSCALU"> F  </i>
   <i type="logical" name="LASYNC"> F  </i>
   <i type="logical" name="LORBITALREAL"> F  </i>
  </separator>
  <separator name="miscellaneous" >
   <i type="int" name="IDIOT">     3</i>
   <i type="logical" name="LMUSIC"> F  </i>
   <v name="POMASS">    180.94800000</v>
   <v name="DARWINR">      0.00000000</v>
   <v name="DARWINV">      1.00000000</v>
   <i type="logical" name="LCORR"> T  </i>
  </separator>
  <i type="logical" name="GGA_COMPAT"> T  </i>
  <i type="logical" name="LBERRY"> F  </i>
  <i type="int" name="ICORELEVEL">     0</i>
  <i type="logical" name="LDAU"> F  </i>
  <i type="int" name="I_CONSTRAINED_M">     0</i>
  <separator name="electronic exchange-correlation" >
   <i type="string" name="GGA">--</i>
   <i type="int" name="VOSKOWN">     0</i>
   <i type="logical" name="LHFCALC"> F  </i>
   <i type="string" name="PRECFOCK"></i>
   <i type="logical" name="LHFONE"> F  </i>
   <i type="logical" name="LRHFCALC"> F  </i>
   <i type="logical" name="LTHOMAS"> F  </i>
   <i type="logical" name="LMODELHF"> F  </i>
   <i name="ENCUT4O">     -1.00000000</i>
   <i type="int" name="EXXOEP">     0</i>
   <i type="int" name="FOURORBIT">     0</i>
   <i name="AEXX">      0.00000000</i>
   <i name="HFALPHA">      0.00000000</i>
   <i name="ALDAX">      1.00000000</i>
   <i name="AGGAX">      1.00000000</i>
   <i name="ALDAC">      1.00000000</i>
   <i name="AGGAC">      1.00000000</i>
   <i type="int" name="NKREDX">     1</i>
   <i type="int" name="NKREDY">     1</i>
   <i type="int" name="NKREDZ">     1</i>
   <i type="logical" name="SHIFTRED"> F  </i>
   <i type="logical" name="ODDONLY"> F  </i>
   <i type="logical" name="EVENONLY"> F  </i>
   <i type="int" name="LMAXFOCK">     0</i>
   <i type="int" name="NMAXFOCKAE">     0</i>
   <i type="logical" name="LFOCKAEDFT"> F  </i>
   <i name="HFSCREEN">      0.00000000</i>
   <i name="HFSCREENC">      0.00000000</i>
  </separator>
  <separator name="vdW DFT" >
   <i type="logical" name="LUSE_VDW"> F  </i>
   <i name="Zab_VDW">     -0.84910000</i>
   <i name="PARAM1">      0.12340000</i>
   <i name="PARAM2">      1.00000000</i>
   <i name="PARAM3">      0.00000000</i>
  </separator>
  <separator name="model GW" >
   <i type="int" name="MODEL_GW">     0</i>
   <i name="MODEL_EPS0">     10.87940730</i>
   <i name="MODEL_ALPHA">      1.00000000</i>
  </separator>
  <separator name="linear response parameters" >
   <i type="logical" name="LEPSILON"> F  </i>
   <i type="logical" name="LRPA"> F  </i>
   <i type="logical" name="LNABLA"> F  </i>
   <i type="logical" name="LVEL"> F  </i>
   <i type="int" name="KINTER">     0</i>
   <i name="CSHIFT">      0.10000000</i>
   <i name="OMEGAMAX">     -1.00000000</i>
  </separator>
  <separator name="orbital magnetization" >
   <i type="logical" name="NUCIND"> F  </i>
   <v name="MAGPOS">      0.00000000      0.00000000      0.00000000</v>
   <i type="logical" name="LNICSALL"> T  </i>
   <i type="logical" name="ORBITALMAG"> F  </i>
   <i type="logical" name="LMAGBLOCH"> F  </i>
   <i type="logical" name="LCHIMAG"> F  </i>
   <i type="logical" name="LGAUGE"> T  </i>
   <i type="int" name="MAGATOM">     0</i>
   <v name="MAGDIPOL">      0.00000000      0.00000000      0.00000000</v>
   <v name="AVECCONST">      0.00000000      0.00000000      0.00000000</v>
  </separator>
  <separator name="response functions" >
   <i type="logical" name="LADDER"> F  </i>
   <i type="logical" name="LHARTREE"> T  </i>
   <i type="int" name="IBSE">     0</i>
   <i type="logical" name="LTCTE"> F  </i>
   <i type="logical" name="LTETE"> F  </i>
   <i type="logical" name="LFXCEPS"> F  </i>
   <i type="logical" name="L2ORDER"> F  </i>
   <i type="logical" name="LUSEW"> F  </i>
   <i name="ENCUTGW">     -2.00000000</i>
   <i name="ENCUTGWSOFT">     -2.00000000</i>
   <i name="ENCUTLF">     -1.00000000</i>
   <i type="int" name="LMAXMP2">    -1</i>
   <i name="SCISSOR">      0.00000000</i>
   <i type="int" name="NOMEGA">     0</i>
   <i type="int" name="NOMEGAR">     0</i>
   <i type="int" name="NBANDSGW">    -1</i>
   <i type="int" name="NBANDSO">    -1</i>
   <i type="int" name="NBANDSV">    -1</i>
   <i name="OPTEMAX">      0.00000000</i>
   <i type="int" name="NELM">     1</i>
   <i type="int" name="DIM">     3</i>
   <i type="int" name="ANTIRES">     0</i>
   <i name="OMEGAMAX">    -30.00000000</i>
   <i name="OMEGATL">   -200.00000000</i>
   <i type="int" name="OMEGAGRID">     0</i>
   <i name="CSHIFT">     -0.10000000</i>
   <i type="logical" name="SELFENERGY"> F  </i>
   <i type="logical" name="LSPECTRAL"> F  </i>
   <i type="logical" name="ODDONLYGW"> F  </i>
   <i type="logical" name="EVENONLYGW"> F  </i>
   <i type="int" name="NKREDLFX">     1</i>
   <i type="int" name="NKREDLFY">     1</i>
   <i type="int" name="NKREDLFZ">     1</i>
   <i type="int" name="MAXMEM">  1800</i>
   <i type="int" name="TELESCOPE">     0</i>
  </separator>
 </parameters>
 <atominfo>
  <atoms>       1 </atoms>
  <types>       1 </types>
  <array name="atoms" >
   <dimension dim="1">ion</dimension>
   <field type="string">element</field>
   <field type="int">atomtype</field>
   <set>
    <rc><c>Ta</c><c>   1</c></rc>
   </set>
  </array>
  <array name="atomtypes" >
   <dimension dim="1">type</dimension>
   <field type="int">atomspertype</field>
   <field type="string">element</field>
   <field>mass</field>
   <field>valence</field>
   <field type="string">pseudopotential</field>
   <set>
    <rc><c>   1</c><c>Ta</c><c>    180.94800000</c><c>      5.00000000</c><c>  PAW_PBE Ta 17Jan2003                  </c></rc>
   </set>
  </array>
 </atominfo>
 <structure name="initialpos" >
  <crystal>
   <varray name="basis" >
    <v>       2.86654409       0.00000000       0.00000000 </v>
    <v>      -0.95551470       2.70260368       0.00000000 </v>
    <v>      -0.95551470      -1.35130184       2.34052345 </v>
   </varray>
   <i name="volume">     18.13234550 </i>
   <varray name="rec_basis" >
    <v>       0.34885213       0.12333785       0.21362743 </v>
    <v>       0.00000000       0.37001356       0.21362743 </v>
    <v>       0.00000000       0.00000000       0.42725485 </v>
   </varray>
  </crystal>
  <varray name="positions" >
   <v>       0.00000000       0.00000000       0.00000000 </v>
  </varray>
 </structure>
 <calculation>
  <scstep>
   <time name="dav">    0.04    0.10</time>
   <time name="total">    0.13    0.19</time>
   <energy>
    <i name="alphaZ">     30.58334069 </i>
    <i name="ewald">   -197.90100875 </i>
    <i name="hartreedc">     -2.50452612 </i>
    <i name="XCdc">    -66.68582567 </i>
    <i name="pawpsdc">    148.27821850 </i>
    <i name="pawaedc">    -73.99089003 </i>
    <i name="eentropy">     -0.00933397 </i>
    <i name="bandstr">     35.40076072 </i>
    <i name="atom">    130.64621481 </i>
    <i name="e_fr_energy">      3.81695018 </i>
    <i name="e_wo_entrp">      3.82628415 </i>
    <i name="e_0_energy">      3.82006150 </i>
   </energy>
  </scstep>
  <scstep>
   <time name="dav">    0.04    0.04</time>
   <time name="total">    0.04    0.07</time>
   <energy>
    <i name="e_fr_energy">    -10.02034848 </i>
    <i name="e_wo_entrp">    -10.01319074 </i>
    <i name="e_0_energy">    -10.01796257 </i>
   </energy>
  </scstep>
  <scstep>
   <time name="dav">    0.03    0.04</time>
   <time name="total">    0.03    0.08</time>
   <energy>
    <i name="e_fr_energy">    -10.12951132 </i>
    <i name="e_wo_entrp">    -10.11869500 </i>
    <i name="e_0_energy">    -10.12590588 </i>
   </energy>
  </scstep>
  <scstep>
   <time name="dav">    0.03    0.03</time>
   <time name="total">    0.03    1.06</time>
   <energy>
    <i name="e_fr_energy">    -10.13004764 </i>
    <i name="e_wo_entrp">    -10.11922954 </i>
    <i name="e_0_energy">    -10.12644161 </i>
   </energy>
  </scstep>
  <scstep>
   <time name="dav">    0.02    0.06</time>
   <time name="total">    0.05    0.25</time>
   <energy>
    <i name="e_fr_energy">    -10.13004886 </i>
    <i name="e_wo_entrp">    -10.11923076 </i>
    <i name="e_0_energy">    -10.12644282 </i>
   </energy>
  </scstep>
  <scstep>
   <time name="dav">    0.03    0.03</time>
   <time name="total">    0.15    0.29</time>
   <energy>
    <i name="e_fr_energy">     -9.72138278 </i>
    <i name="e_wo_entrp">     -9.71056470 </i>
    <i name="e_0_energy">     -9.71777675 </i>
   </energy>
  </scstep>
  <scstep>
   <time name="dav">    0.02    0.02</time>
   <time name="total">    0.13    0.23</time>
   <energy>
    <i name="e_fr_energy">     -9.51286084 </i>
    <i name="e_wo_entrp">     -9.50204274 </i>
    <i name="e_0_energy">     -9.50925480 </i>
   </energy>
  </scstep>
  <scstep>
   <time name="dav">    0.03    0.03</time>
   <time name="total">    0.14    0.15</time>
   <energy>
    <i name="e_fr_energy">     -9.51183613 </i>
    <i name="e_wo_entrp">     -9.50101803 </i>
    <i name="e_0_energy">     -9.50823010 </i>
   </energy>
  </scstep>
  <scstep>
   <time name="dav">    0.04    0.04</time>
   <time name="total">    0.17    0.22</time>
   <energy>
    <i name="e_fr_energy">     -9.51162611 </i>
    <i name="e_wo_entrp">     -9.50080801 </i>
    <i name="e_0_energy">     -9.50802008 </i>
   </energy>
  </scstep>
  <scstep>
   <time name="dav">    0.02    0.02</time>
   <time name="total">    0.11    0.20</time>
   <energy>
    <i name="alphaZ">     30.58334069 </i>
    <i name="ewald">   -197.90100875 </i>
    <i name="hartreedc">     -0.43606419 </i>
    <i name="XCdc">    -65.93901491 </i>
    <i name="pawpsdc">    186.57827963 </i>
    <i name="pawaedc">   -113.36279331 </i>
    <i name="eentropy">     -0.01081810 </i>
    <i name="bandstr">     20.33025991 </i>
    <i name="atom">    130.64621481 </i>
    <i name="e_fr_energy">     -9.51160422 </i>
    <i name="e_wo_entrp">     -9.50078612 </i>
    <i name="e_0_energy">     -9.50799818 </i>
   </energy>
  </scstep>
  <parameters_embedded>
   <separator name="dft+d2" >
    <i type="logical" name="LVDW"> F  </i>
   </separator>
  </parameters_embedded>
  <structure>
   <crystal>
    <varray name="basis" >
     <v>       2.86654409       0.00000000       0.00000000 </v>
     <v>      -0.95551470       2.70260368       0.00000000 </v>
     <v>      -0.95551470      -1.35130184       2.34052345 </v>
    </varray>
    <i name="volume">     18.13234550 </i>
    <varray name="rec_basis" >
     <v>       0.34885213       0.12333785       0.21362743 </v>
     <v>       0.00000000       0.37001356       0.21362743 </v>
     <v>       0.00000000       0.00000000       0.42725485 </v>
    </varray>
   </crystal>
   <varray name="positions" >
    <v>       0.00000000       0.00000000       0.00000000 </v>
   </varray>
  </structure>
  <varray name="forces" >
   <v>       0.00000000       0.00000000       0.00000000 </v>
  </varray>
  <varray name="stress" >
   <v>     315.79580685       0.00000000       0.00000000 </v>
   <v>       0.00000000     315.79580685       0.00000000 </v>
   <v>       0.00000000       0.00000000     315.79580685 </v>
  </varray>
  <energy>
   <i name="e_fr_energy">     -9.51160422 </i>
   <i name="e_wo_entrp">     -9.50799818 </i>
   <i name="e_0_energy">     -0.01081810 </i>
  </energy>
  <time name="totalsc">    1.67    4.29</time>
  <eigenvalues>
   <array>
    <dimension dim="1">band</dimension>
    <dimension dim="2">kpoint</dimension>
    <dimension dim="3">spin</dimension>
    <field>eigene</field>
    <field>occ</field>
    <set>
     <set comment="spin 1">
      <set comment="kpoint 1">
       <r>    4.4526    1.0000 </r>
       <r>    4.4526    1.0000 </r>
       <r>    4.4526    1.0000 </r>
       <r>   10.6877    0.0000 </r>
       <r>   10.6877    0.0000 </r>
       <r>   12.7387    0.0000 </r>
      </set>
      <set comment="kpoint 2">
       <r>    2.0097    1.0000 </r>
       <r>    4.7934    1.0000 </r>
       <r>    6.8934    0.1667 </r>
       <r>    6.8934    0.1667 </r>
       <r>    8.7908    0.0000 </r>
       <r>   10.6453    0.0000 </r>
      </set>
     </set>
    </set>
   </array>
  </eigenvalues>
  <separator name="orbital magnetization" >
   <v name="MAGDIPOLOUT">      0.00000000      0.00000000      0.00000000</v>
  </separator>
  <dos>
   <i name="efermi">      6.87157398 </i>
   <total>
    <array>
     <dimension dim="1">gridpoints</dimension>
     <dimension dim="2">spin</dimension>
     <field>energy</field>
     <field>total</field>
     <field>integrated</field>
     <set>
      <set comment="spin 1">
       <r>     1.4732     0.0000     0.0000 </r>
       <r>     1.5126     0.0000     0.0000 </r>
       <r>     1.5519     0.0000     0.0000 </r>
       <r>     1.5912     0.0000     0.0000 </r>
       <r>     1.6306     0.0000     0.0000 </r>
       <r>     1.6699     0.0000     0.0000 </r>
       <r>     1.7093     0.0000     0.0000 </r>
       <r>     1.7486     0.0000     0.0000 </r>
       <r>     1.7879     0.0000     0.0000 </r>
       <r>     1.8273    -0.0001     0.0000 </r>
       <r>     1.8666    -0.0075    -0.0003 </r>
       <r>     1.9060    -0.2304    -0.0094 </r>
       <r>     1.9453    -1.0927    -0.0524 </r>
       <r>     1.9846     6.2695     0.1943 </r>
       <r>     2.0240    22.9524     1.0972 </r>
       <r>     2.0633    11.4253     1.5467 </r>
       <r>     2.1027    -0.7202     1.5184 </r>
       <r>     2.1420    -0.4445     1.5009 </r>
       <r>     2.1813    -0.0221     1.5000 </r>
       <r>     2.2207    -0.0003     1.5000 </r>
       <r>     2.2600     0.0000     1.5000 </r>
       <r>     2.2994     0.0000     1.5000 </r>
       <r>     2.3387     0.0000     1.5000 </r>
       <r>     2.3780     0.0000     1.5000 </r>
       <r>     2.4174     0.0000     1.5000 </r>
       <r>     2.4567     0.0000     1.5000 </r>
       <r>     2.4961     0.0000     1.5000 </r>
       <r>     2.5354     0.0000     1.5000 </r>
       <r>     2.5747     0.0000     1.5000 </r>
       <r>     2.6141     0.0000     1.5000 </r>
       <r>     2.6534     0.0000     1.5000 </r>
       <r>     2.6928     0.0000     1.5000 </r>
       <r>     2.7321     0.0000     1.5000 </r>
       <r>     2.7714     0.0000     1.5000 </r>
       <r>     2.8108     0.0000     1.5000 </r>
       <r>     2.8501     0.0000     1.5000 </r>
       <r>     2.8895     0.0000     1.5000 </r>
       <r>     2.9288     0.0000     1.5000 </r>
       <r>     2.9681     0.0000     1.5000 </r>
       <r>     3.0075     0.0000     1.5000 </r>
       <r>     3.0468     0.0000     1.5000 </r>
       <r>     3.0862     0.0000     1.5000 </r>
       <r>     3.1255     0.0000     1.5000 </r>
       <r>     3.1648     0.0000     1.5000 </r>
       <r>     3.2042     0.0000     1.5000 </r>
       <r>     3.2435     0.0000     1.5000 </r>
       <r>     3.2829     0.0000     1.5000 </r>
       <r>     3.3222     0.0000     1.5000 </r>
       <r>     3.3615     0.0000     1.5000 </r>
       <r>     3.4009     0.0000     1.5000 </r>
       <r>     3.4402     0.0000     1.5000 </r>
       <r>     3.4796     0.0000     1.5000 </r>
       <r>     3.5189     0.0000     1.5000 </r>
       <r>     3.5582     0.0000     1.5000 </r>
       <r>     3.5976     0.0000     1.5000 </r>
       <r>     3.6369     0.0000     1.5000 </r>
       <r>     3.6763     0.0000     1.5000 </r>
       <r>     3.7156     0.0000     1.5000 </r>
       <r>     3.7549     0.0000     1.5000 </r>
       <r>     3.7943     0.0000     1.5000 </r>
       <r>     3.8336     0.0000     1.5000 </r>
       <r>     3.8730     0.0000     1.5000 </r>
       <r>     3.9123     0.0000     1.5000 </r>
       <r>     3.9516     0.0000     1.5000 </r>
       <r>     3.9910     0.0000     1.5000 </r>
       <r>     4.0303     0.0000     1.5000 </r>
       <r>     4.0697     0.0000     1.5000 </r>
       <r>     4.1090     0.0000     1.5000 </r>
       <r>     4.1483     0.0000     1.5000 </r>
       <r>     4.1877     0.0000     1.5000 </r>
       <r>     4.2270     0.0000     1.5000 </r>
       <r>     4.2664     0.0000     1.5000 </r>
       <r>     4.3057    -0.0050     1.4998 </r>
       <r>     4.3450    -0.1764     1.4929 </r>
       <r>     4.3844    -1.0764     1.4505 </r>
       <r>     4.4237     4.6997     1.6354 </r>
       <r>     4.4630    22.2106     2.5092 </r>
       <r>     4.5024    13.4188     3.0371 </r>
       <r>     4.5417    -0.3659     3.0227 </r>
       <r>     4.5811    -0.5437     3.0013 </r>
       <r>     4.6204    -0.0320     3.0000 </r>
       <r>     4.6597    -0.0198     2.9992 </r>
       <r>     4.6991    -0.4120     2.9830 </r>
       <r>     4.7384    -0.8130     2.9510 </r>
       <r>     4.7778    10.7273     3.3730 </r>
       <r>     4.8171    23.1241     4.2827 </r>
       <r>     4.8564     6.8675     4.5529 </r>
       <r>     4.8958    -1.0839     4.5103 </r>
       <r>     4.9351    -0.2523     4.5003 </r>
       <r>     4.9745    -0.0087     4.5000 </r>
       <r>     5.0138    -0.0001     4.5000 </r>
       <r>     5.0531     0.0000     4.5000 </r>
       <r>     5.0925     0.0000     4.5000 </r>
       <r>     5.1318     0.0000     4.5000 </r>
       <r>     5.1712     0.0000     4.5000 </r>
       <r>     5.2105     0.0000     4.5000 </r>
       <r>     5.2498     0.0000     4.5000 </r>
       <r>     5.2892     0.0000     4.5000 </r>
       <r>     5.3285     0.0000     4.5000 </r>
       <r>     5.3679     0.0000     4.5000 </r>
       <r>     5.4072     0.0000     4.5000 </r>
       <r>     5.4465     0.0000     4.5000 </r>
       <r>     5.4859     0.0000     4.5000 </r>
       <r>     5.5252     0.0000     4.5000 </r>
       <r>     5.5646     0.0000     4.5000 </r>
       <r>     5.6039     0.0000     4.5000 </r>
       <r>     5.6432     0.0000     4.5000 </r>
       <r>     5.6826     0.0000     4.5000 </r>
       <r>     5.7219     0.0000     4.5000 </r>
       <r>     5.7613     0.0000     4.5000 </r>
       <r>     5.8006     0.0000     4.5000 </r>
       <r>     5.8399     0.0000     4.5000 </r>
       <r>     5.8793     0.0000     4.5000 </r>
       <r>     5.9186     0.0000     4.5000 </r>
       <r>     5.9580     0.0000     4.5000 </r>
       <r>     5.9973     0.0000     4.5000 </r>
       <r>     6.0366     0.0000     4.5000 </r>
       <r>     6.0760     0.0000     4.5000 </r>
       <r>     6.1153     0.0000     4.5000 </r>
       <r>     6.1547     0.0000     4.5000 </r>
       <r>     6.1940     0.0000     4.5000 </r>
       <r>     6.2333     0.0000     4.5000 </r>
       <r>     6.2727     0.0000     4.5000 </r>
       <r>     6.3120     0.0000     4.5000 </r>
       <r>     6.3514     0.0000     4.5000 </r>
       <r>     6.3907     0.0000     4.5000 </r>
       <r>     6.4300     0.0000     4.5000 </r>
       <r>     6.4694     0.0000     4.5000 </r>
       <r>     6.5087     0.0000     4.5000 </r>
       <r>     6.5481     0.0000     4.5000 </r>
       <r>     6.5874     0.0000     4.5000 </r>
       <r>     6.6267     0.0000     4.5000 </r>
       <r>     6.6661     0.0000     4.5000 </r>
       <r>     6.7054    -0.0001     4.5000 </r>
       <r>     6.7448    -0.0082     4.4997 </r>
       <r>     6.7841    -0.3110     4.4874 </r>
       <r>     6.8234    -2.1054     4.4046 </r>
       <r>     6.8628     8.1002     4.7233 </r>
       <r>     6.9021    43.5105     6.4350 </r>
       <r>     6.9415    28.6431     7.5618 </r>
       <r>     6.9808    -0.3111     7.5495 </r>
       <r>     7.0201    -1.1839     7.5030 </r>
       <r>     7.0595    -0.0745     7.5000 </r>
       <r>     7.0988    -0.0011     7.5000 </r>
       <r>     7.1382     0.0000     7.5000 </r>
       <r>     7.1775     0.0000     7.5000 </r>
       <r>     7.2168     0.0000     7.5000 </r>
       <r>     7.2562     0.0000     7.5000 </r>
       <r>     7.2955     0.0000     7.5000 </r>
       <r>     7.3349     0.0000     7.5000 </r>
       <r>     7.3742     0.0000     7.5000 </r>
       <r>     7.4135     0.0000     7.5000 </r>
       <r>     7.4529     0.0000     7.5000 </r>
       <r>     7.4922     0.0000     7.5000 </r>
       <r>     7.5316     0.0000     7.5000 </r>
       <r>     7.5709     0.0000     7.5000 </r>
       <r>     7.6102     0.0000     7.5000 </r>
       <r>     7.6496     0.0000     7.5000 </r>
       <r>     7.6889     0.0000     7.5000 </r>
       <r>     7.7283     0.0000     7.5000 </r>
       <r>     7.7676     0.0000     7.5000 </r>
       <r>     7.8069     0.0000     7.5000 </r>
       <r>     7.8463     0.0000     7.5000 </r>
       <r>     7.8856     0.0000     7.5000 </r>
       <r>     7.9250     0.0000     7.5000 </r>
       <r>     7.9643     0.0000     7.5000 </r>
       <r>     8.0036     0.0000     7.5000 </r>
       <r>     8.0430     0.0000     7.5000 </r>
       <r>     8.0823     0.0000     7.5000 </r>
       <r>     8.1217     0.0000     7.5000 </r>
       <r>     8.1610     0.0000     7.5000 </r>
       <r>     8.2003     0.0000     7.5000 </r>
       <r>     8.2397     0.0000     7.5000 </r>
       <r>     8.2790     0.0000     7.5000 </r>
       <r>     8.3183     0.0000     7.5000 </r>
       <r>     8.3577     0.0000     7.5000 </r>
       <r>     8.3970     0.0000     7.5000 </r>
       <r>     8.4364     0.0000     7.5000 </r>
       <r>     8.4757     0.0000     7.5000 </r>
       <r>     8.5150     0.0000     7.5000 </r>
       <r>     8.5544     0.0000     7.5000 </r>
       <r>     8.5937     0.0000     7.5000 </r>
       <r>     8.6331    -0.0015     7.4999 </r>
       <r>     8.6724    -0.0768     7.4969 </r>
       <r>     8.7117    -0.8357     7.4640 </r>
       <r>     8.7511     1.3557     7.5174 </r>
       <r>     8.7904    18.4006     8.2413 </r>
       <r>     8.8298    18.7046     8.9771 </r>
       <r>     8.8691     1.5206     9.0369 </r>
       <r>     8.9084    -0.8554     9.0033 </r>
       <r>     8.9478    -0.0813     9.0001 </r>
       <r>     8.9871    -0.0016     9.0000 </r>
       <r>     9.0265     0.0000     9.0000 </r>
       <r>     9.0658     0.0000     9.0000 </r>
       <r>     9.1051     0.0000     9.0000 </r>
       <r>     9.1445     0.0000     9.0000 </r>
       <r>     9.1838     0.0000     9.0000 </r>
       <r>     9.2232     0.0000     9.0000 </r>
       <r>     9.2625     0.0000     9.0000 </r>
       <r>     9.3018     0.0000     9.0000 </r>
       <r>     9.3412     0.0000     9.0000 </r>
       <r>     9.3805     0.0000     9.0000 </r>
       <r>     9.4199     0.0000     9.0000 </r>
       <r>     9.4592     0.0000     9.0000 </r>
       <r>     9.4985     0.0000     9.0000 </r>
       <r>     9.5379     0.0000     9.0000 </r>
       <r>     9.5772     0.0000     9.0000 </r>
       <r>     9.6166     0.0000     9.0000 </r>
       <r>     9.6559     0.0000     9.0000 </r>
       <r>     9.6952     0.0000     9.0000 </r>
       <r>     9.7346     0.0000     9.0000 </r>
       <r>     9.7739     0.0000     9.0000 </r>
       <r>     9.8133     0.0000     9.0000 </r>
       <r>     9.8526     0.0000     9.0000 </r>
       <r>     9.8919     0.0000     9.0000 </r>
       <r>     9.9313     0.0000     9.0000 </r>
       <r>     9.9706     0.0000     9.0000 </r>
       <r>    10.0100     0.0000     9.0000 </r>
       <r>    10.0493     0.0000     9.0000 </r>
       <r>    10.0886     0.0000     9.0000 </r>
       <r>    10.1280     0.0000     9.0000 </r>
       <r>    10.1673     0.0000     9.0000 </r>
       <r>    10.2067     0.0000     9.0000 </r>
       <r>    10.2460     0.0000     9.0000 </r>
       <r>    10.2853     0.0000     9.0000 </r>
       <r>    10.3247     0.0000     9.0000 </r>
       <r>    10.3640     0.0000     9.0000 </r>
       <r>    10.4034     0.0000     9.0000 </r>
       <r>    10.4427     0.0000     9.0000 </r>
       <r>    10.4820    -0.0007     9.0000 </r>
       <r>    10.5214    -0.0481     8.9981 </r>
       <r>    10.5607    -0.6961     8.9707 </r>
       <r>    10.6001    -0.1376     8.9653 </r>
       <r>    10.6394    15.6119     9.5794 </r>
       <r>    10.6787    30.3348    10.7728 </r>
       <r>    10.7181    17.6563    11.4674 </r>
       <r>    10.7574     1.7713    11.5371 </r>
       <r>    10.7968    -0.8311    11.5044 </r>
       <r>    10.8361    -0.1089    11.5001 </r>
       <r>    10.8754    -0.0028    11.5000 </r>
       <r>    10.9148     0.0000    11.5000 </r>
       <r>    10.9541     0.0000    11.5000 </r>
       <r>    10.9935     0.0000    11.5000 </r>
       <r>    11.0328     0.0000    11.5000 </r>
       <r>    11.0721     0.0000    11.5000 </r>
       <r>    11.1115     0.0000    11.5000 </r>
       <r>    11.1508     0.0000    11.5000 </r>
       <r>    11.1902     0.0000    11.5000 </r>
       <r>    11.2295     0.0000    11.5000 </r>
       <r>    11.2688     0.0000    11.5000 </r>
       <r>    11.3082     0.0000    11.5000 </r>
       <r>    11.3475     0.0000    11.5000 </r>
       <r>    11.3869     0.0000    11.5000 </r>
       <r>    11.4262     0.0000    11.5000 </r>
       <r>    11.4655     0.0000    11.5000 </r>
       <r>    11.5049     0.0000    11.5000 </r>
       <r>    11.5442     0.0000    11.5000 </r>
       <r>    11.5836     0.0000    11.5000 </r>
       <r>    11.6229     0.0000    11.5000 </r>
       <r>    11.6622     0.0000    11.5000 </r>
       <r>    11.7016     0.0000    11.5000 </r>
       <r>    11.7409     0.0000    11.5000 </r>
       <r>    11.7803     0.0000    11.5000 </r>
       <r>    11.8196     0.0000    11.5000 </r>
       <r>    11.8589     0.0000    11.5000 </r>
       <r>    11.8983     0.0000    11.5000 </r>
       <r>    11.9376     0.0000    11.5000 </r>
       <r>    11.9769     0.0000    11.5000 </r>
       <r>    12.0163     0.0000    11.5000 </r>
       <r>    12.0556     0.0000    11.5000 </r>
       <r>    12.0950     0.0000    11.5000 </r>
       <r>    12.1343     0.0000    11.5000 </r>
       <r>    12.1736     0.0000    11.5000 </r>
       <r>    12.2130     0.0000    11.5000 </r>
       <r>    12.2523     0.0000    11.5000 </r>
       <r>    12.2917     0.0000    11.5000 </r>
       <r>    12.3310     0.0000    11.5000 </r>
       <r>    12.3703     0.0000    11.5000 </r>
       <r>    12.4097     0.0000    11.5000 </r>
       <r>    12.4490     0.0000    11.5000 </r>
       <r>    12.4884     0.0000    11.5000 </r>
       <r>    12.5277     0.0000    11.5000 </r>
       <r>    12.5670    -0.0001    11.5000 </r>
       <r>    12.6064    -0.0074    11.4997 </r>
       <r>    12.6457    -0.1482    11.4939 </r>
       <r>    12.6851    -0.2401    11.4844 </r>
       <r>    12.7244     3.8084    11.6343 </r>
       <r>    12.7637     7.6508    11.9352 </r>
       <r>    12.8031     2.0898    12.0175 </r>
       <r>    12.8424    -0.3642    12.0031 </r>
       <r>    12.8818    -0.0768    12.0001 </r>
       <r>    12.9211    -0.0025    12.0000 </r>
       <r>    12.9604     0.0000    12.0000 </r>
       <r>    12.9998     0.0000    12.0000 </r>
       <r>    13.0391     0.0000    12.0000 </r>
       <r>    13.0785     0.0000    12.0000 </r>
       <r>    13.1178     0.0000    12.0000 </r>
       <r>    13.1571     0.0000    12.0000 </r>
       <r>    13.1965     0.0000    12.0000 </r>
       <r>    13.2358     0.0000    12.0000 </r>
       <r>    13.2752     0.0000    12.0000 </r>
      </set>
     </set>
    </array>
   </total>
  </dos>
 </calculation>
 <structure name="finalpos" >
  <crystal>
   <varray name="basis" >
    <v>       2.86654409       0.00000000       0.00000000 </v>
    <v>      -0.95551470       2.70260368       0.00000000 </v>
    <v>      -0.95551470      -1.35130184       2.34052345 </v>
   </varray>
   <i name="volume">     18.13234550 </i>
   <varray name="rec_basis" >
    <v>       0.34885213       0.12333785       0.21362743 </v>
    <v>       0.00000000       0.37001356       0.21362743 </v>
    <v>       0.00000000       0.00000000       0.42725485 </v>
   </varray>
  </crystal>
  <varray name="positions" >
   <v>       0.00000000       0.00000000       0.00000000 </v>
  </varray>
 </structure>
</modeling>
