<?xml version="1.0" encoding="ISO-8859-1"?>
<modeling>
 <generator>
  <i name="program" type="string">vasp </i>
  <i name="version" type="string">5.2.12  </i>
  <i name="subversion" type="string">11Nov11 complex                                                      parallel </i>
  <i name="platform" type="string">LinuxIFC </i>
  <i name="date" type="string">2012 10 17 </i>
  <i name="time" type="string">10:14:47 </i>
 </generator>
 <incar>
  <i type="int" name="ISTART">     0</i>
  <i type="string" name="PREC">accurate</i>
  <i type="int" name="ISPIN">     2</i>
  <i name="ENCUT">    350.00000000</i>
  <i type="int" name="NBANDS">     6</i>
  <v name="MAGMOM">      6.00000000</v>
  <i type="logical" name="LREAL"> F  </i>
  <i type="int" name="ISMEAR">     1</i>
  <i name="SIGMA">      0.05000000</i>
  <i type="logical" name="LORBIT"> F  </i>
 </incar>
 <kpoints>
  <generation param="Monkhorst-Pack">
   <v type="int" name="divisions">       2        2        2 </v>
   <v name="usershift">      0.00000000       0.00000000       0.00000000 </v>
   <v name="genvec1">      0.50000000       0.00000000       0.00000000 </v>
   <v name="genvec2">      0.00000000       0.50000000       0.00000000 </v>
   <v name="genvec3">      0.00000000       0.00000000       0.50000000 </v>
   <v name="shift">      0.50000000       0.50000000       0.50000000 </v>
  </generation>
  <varray name="kpointlist" >
   <v>       0.25000000       0.25000000       0.25000000 </v>
   <v>      -0.25000000       0.25000000       0.25000000 </v>
  </varray>
  <varray name="weights" >
   <v>       0.25000000 </v>
   <v>       0.75000000 </v>
  </varray>
 </kpoints>
 <parameters>
  <separator name="general" >
   <i type="string" name="SYSTEM">unknown system</i>
   <i type="logical" name="LCOMPAT"> F  </i>
  </separator>
  <separator name="electronic" >
   <i type="string" name="PREC">accura</i>
   <i name="ENMAX">    350.00000000</i>
   <i name="ENAUG">    332.07500000</i>
   <i name="EDIFF">      0.00010000</i>
   <i type="int" name="IALGO">    38</i>
   <i type="int" name="IWAVPR">    10</i>
   <i type="int" name="NBANDS">     6</i>
   <i name="NELECT">      5.00000000</i>
   <i type="int" name="TURBO">     0</i>
   <i type="int" name="IRESTART">     0</i>
   <i type="int" name="NREBOOT">     0</i>
   <i type="int" name="NMIN">     0</i>
   <i name="EREF">      0.00000000</i>
   <separator name="electronic smearing" >
    <i type="int" name="ISMEAR">     1</i>
    <i name="SIGMA">      0.05000000</i>
    <i name="KSPACING">      0.50000000</i>
    <i type="logical" name="KGAMMA"> T  </i>
   </separator>
   <separator name="electronic projectors" >
    <i type="logical" name="LREAL"> F  </i>
    <v name="ROPT">      0.00000000</v>
    <i type="int" name="LMAXPAW">  -100</i>
    <i type="int" name="LMAXMIX">     2</i>
    <i type="logical" name="NLSPLINE"> F  </i>
   </separator>
   <separator name="electronic startup" >
    <i type="int" name="ISTART">     0</i>
    <i type="int" name="ICHARG">     2</i>
    <i type="int" name="INIWAV">     1</i>
   </separator>
   <separator name="electronic spin" >
    <i type="int" name="ISPIN">     2</i>
    <i type="logical" name="LNONCOLLINEAR"> F  </i>
    <v name="MAGMOM">      6.00000000</v>
    <i name="NUPDOWN">     -1.00000000</i>
    <i type="logical" name="LSORBIT"> F  </i>
    <v name="SAXIS">      0.00000000      0.00000000      1.00000000</v>
    <i type="logical" name="LSPIRAL"> F  </i>
    <v name="QSPIRAL">      0.00000000      0.00000000      0.00000000</v>
    <i type="logical" name="LZEROZ"> F  </i>
   </separator>
   <separator name="electronic exchange-correlation" >
    <i type="logical" name="LASPH"> F  </i>
    <i type="logical" name="LMETAGGA"> F  </i>
   </separator>
   <separator name="electronic convergence" >
    <i type="int" name="NELM">    60</i>
    <i type="int" name="NELMDL">    -5</i>
    <i type="int" name="NELMIN">     2</i>
    <i name="ENINI">    350.00000000</i>
    <separator name="electronic convergence detail" >
     <i type="logical" name="LDIAG"> T  </i>
     <i type="logical" name="LSUBROT"> T  </i>
     <i name="WEIMIN">      0.00000000</i>
     <i name="EBREAK">      0.00000417</i>
     <i name="DEPER">      0.30000000</i>
     <i type="int" name="NRMM">     4</i>
     <i name="TIME">      0.40000000</i>
    </separator>
   </separator>
   <separator name="electronic mixer" >
    <i name="AMIX">      0.40000000</i>
    <i name="BMIX">      1.00000000</i>
    <i name="AMIN">      0.10000000</i>
    <i name="AMIX_MAG">      1.60000000</i>
    <i name="BMIX_MAG">      1.00000000</i>
    <separator name="electronic mixer details" >
     <i type="int" name="IMIX">     4</i>
     <i type="int" name="MAXMIX">   -45</i>
     <i name="WC">    100.00000000</i>
     <i type="int" name="INIMIX">     1</i>
     <i type="int" name="MIXPRE">     1</i>
     <i type="int" name="MREMOVE">     5</i>
    </separator>
   </separator>
   <separator name="electronic dipolcorrection" >
    <i type="logical" name="LDIPOL"> F  </i>
    <i type="logical" name="LMONO"> F  </i>
    <i type="int" name="IDIPOL">     0</i>
    <i name="EPSILON">      1.00000000</i>
    <v name="DIPOL">   -100.00000000   -100.00000000   -100.00000000</v>
    <i name="EFIELD">      0.00000000</i>
   </separator>
  </separator>
  <separator name="grids" >
   <i type="int" name="NGX">    18</i>
   <i type="int" name="NGY">    18</i>
   <i type="int" name="NGZ">    18</i>
   <i type="int" name="NGXF">    36</i>
   <i type="int" name="NGYF">    36</i>
   <i type="int" name="NGZF">    36</i>
   <i type="logical" name="ADDGRID"> F  </i>
  </separator>
  <separator name="ionic" >
   <i type="int" name="NSW">     0</i>
   <i type="int" name="IBRION">    -1</i>
   <i type="int" name="ISIF">     2</i>
   <i name="PSTRESS">      0.00000000</i>
   <i name="EDIFFG">      0.00100000</i>
   <i type="int" name="NFREE">     0</i>
   <i name="POTIM">      0.50000000</i>
   <i name="SMASS">     -3.00000000</i>
   <i name="SCALEE">      1.00000000</i>
  </separator>
  <separator name="ionic md" >
   <i name="TEBEG">      0.00010000</i>
   <i name="TEEND">      0.00010000</i>
   <i type="int" name="NBLOCK">     1</i>
   <i type="int" name="KBLOCK">     1</i>
   <i type="int" name="NPACO">   256</i>
   <i name="APACO">     16.00000000</i>
  </separator>
  <separator name="symmetry" >
   <i type="int" name="ISYM">     2</i>
   <i name="SYMPREC">      0.00001000</i>
  </separator>
  <separator name="dos" >
   <i type="logical" name="LORBIT"> F  </i>
   <v name="RWIGS">     -1.00000000</v>
   <i type="int" name="NEDOS">   301</i>
   <i name="EMIN">     10.00000000</i>
   <i name="EMAX">    -10.00000000</i>
   <i name="EFERMI">      0.00000000</i>
  </separator>
  <separator name="writing" >
   <i type="int" name="NWRITE">     2</i>
   <i type="logical" name="LWAVE"> T  </i>
   <i type="logical" name="LCHARG"> T  </i>
   <i type="logical" name="LPARD"> F  </i>
   <i type="logical" name="LVTOT"> F  </i>
   <i type="logical" name="LVHAR"> F  </i>
   <i type="logical" name="LELF"> F  </i>
   <i type="logical" name="LOPTICS"> F  </i>
   <v name="STM">      0.00000000      0.00000000      0.00000000      0.00000000      0.00000000      0.00000000      0.00000000</v>
  </separator>
  <separator name="performance" >
   <i type="int" name="NPAR">     1</i>
   <i type="int" name="NSIM">     4</i>
   <i type="int" name="NBLK">    -1</i>
   <i type="logical" name="LPLANE"> T  </i>
   <i type="logical" name="LSCALAPACK"> F  </i>
   <i type="logical" name="LSCAAWARE"> F  </i>
   <i type="logical" name="LSCALU"> F  </i>
   <i type="logical" name="LASYNC"> F  </i>
   <i type="logical" name="LORBITALREAL"> F  </i>
  </separator>
  <separator name="miscellaneous" >
   <i type="int" name="IDIOT">     3</i>
   <i type="logical" name="LMUSIC"> F  </i>
   <v name="POMASS">    180.94800000</v>
   <v name="DARWINR">      0.00000000</v>
   <v name="DARWINV">      1.00000000</v>
   <i type="logical" name="LCORR"> T  </i>
  </separator>
  <i type="logical" name="GGA_COMPAT"> T  </i>
  <i type="logical" name="LBERRY"> F  </i>
  <i type="int" name="ICORELEVEL">     0</i>
  <i type="logical" name="LDAU"> F  </i>
  <i type="int" name="I_CONSTRAINED_M">     0</i>
  <separator name="electronic exchange-correlation" >
   <i type="string" name="GGA">--</i>
   <i type="int" name="VOSKOWN">     0</i>
   <i type="logical" name="LHFCALC"> F  </i>
   <i type="string" name="PRECFOCK"></i>
   <i type="logical" name="LHFONE"> F  </i>
   <i type="logical" name="LRHFCALC"> F  </i>
   <i type="logical" name="LTHOMAS"> F  </i>
   <i type="logical" name="LMODELHF"> F  </i>
   <i name="ENCUT4O">     -1.00000000</i>
   <i type="int" name="EXXOEP">     0</i>
   <i type="int" name="FOURORBIT">     0</i>
   <i name="AEXX">      0.00000000</i>
   <i name="HFALPHA">      0.00000000</i>
   <i name="ALDAX">      1.00000000</i>
   <i name="AGGAX">      1.00000000</i>
   <i name="ALDAC">      1.00000000</i>
   <i name="AGGAC">      1.00000000</i>
   <i type="int" name="NKREDX">     1</i>
   <i type="int" name="NKREDY">     1</i>
   <i type="int" name="NKREDZ">     1</i>
   <i type="logical" name="SHIFTRED"> F  </i>
   <i type="logical" name="ODDONLY"> F  </i>
   <i type="logical" name="EVENONLY"> F  </i>
   <i type="int" name="LMAXFOCK">     0</i>
   <i type="int" name="NMAXFOCKAE">     0</i>
   <i type="logical" name="LFOCKAEDFT"> F  </i>
   <i name="HFSCREEN">      0.00000000</i>
   <i name="HFSCREENC">      0.00000000</i>
  </separator>
  <separator name="vdW DFT" >
   <i type="logical" name="LUSE_VDW"> F  </i>
   <i name="Zab_VDW">     -0.84910000</i>
   <i name="PARAM1">      0.12340000</i>
   <i name="PARAM2">      1.00000000</i>
   <i name="PARAM3">      0.00000000</i>
  </separator>
  <separator name="model GW" >
   <i type="int" name="MODEL_GW">     0</i>
   <i name="MODEL_EPS0">     10.87940730</i>
   <i name="MODEL_ALPHA">      1.00000000</i>
  </separator>
  <separator name="linear response parameters" >
   <i type="logical" name="LEPSILON"> F  </i>
   <i type="logical" name="LRPA"> F  </i>
   <i type="logical" name="LNABLA"> F  </i>
   <i type="logical" name="LVEL"> F  </i>
   <i type="int" name="KINTER">     0</i>
   <i name="CSHIFT">      0.10000000</i>
   <i name="OMEGAMAX">     -1.00000000</i>
  </separator>
  <separator name="orbital magnetization" >
   <i type="logical" name="NUCIND"> F  </i>
   <v name="MAGPOS">      0.00000000      0.00000000      0.00000000</v>
   <i type="logical" name="LNICSALL"> T  </i>
   <i type="logical" name="ORBITALMAG"> F  </i>
   <i type="logical" name="LMAGBLOCH"> F  </i>
   <i type="logical" name="LCHIMAG"> F  </i>
   <i type="logical" name="LGAUGE"> T  </i>
   <i type="int" name="MAGATOM">     0</i>
   <v name="MAGDIPOL">      0.00000000      0.00000000      0.00000000</v>
   <v name="AVECCONST">      0.00000000      0.00000000      0.00000000</v>
  </separator>
  <separator name="response functions" >
   <i type="logical" name="LADDER"> F  </i>
   <i type="logical" name="LHARTREE"> T  </i>
   <i type="int" name="IBSE">     0</i>
   <i type="logical" name="LTCTE"> F  </i>
   <i type="logical" name="LTETE"> F  </i>
   <i type="logical" name="LFXCEPS"> F  </i>
   <i type="logical" name="L2ORDER"> F  </i>
   <i type="logical" name="LUSEW"> F  </i>
   <i name="ENCUTGW">     -2.00000000</i>
   <i name="ENCUTGWSOFT">     -2.00000000</i>
   <i name="ENCUTLF">     -1.00000000</i>
   <i type="int" name="LMAXMP2">    -1</i>
   <i name="SCISSOR">      0.00000000</i>
   <i type="int" name="NOMEGA">     0</i>
   <i type="int" name="NOMEGAR">     0</i>
   <i type="int" name="NBANDSGW">    -1</i>
   <i type="int" name="NBANDSO">    -1</i>
   <i type="int" name="NBANDSV">    -1</i>
   <i name="OPTEMAX">      0.00000000</i>
   <i type="int" name="NELM">     1</i>
   <i type="int" name="DIM">     3</i>
   <i type="int" name="ANTIRES">     0</i>
   <i name="OMEGAMAX">    -30.00000000</i>
   <i name="OMEGATL">   -200.00000000</i>
   <i type="int" name="OMEGAGRID">     0</i>
   <i name="CSHIFT">     -0.10000000</i>
   <i type="logical" name="SELFENERGY"> F  </i>
   <i type="logical" name="LSPECTRAL"> F  </i>
   <i type="logical" name="ODDONLYGW"> F  </i>
   <i type="logical" name="EVENONLYGW"> F  </i>
   <i type="int" name="NKREDLFX">     1</i>
   <i type="int" name="NKREDLFY">     1</i>
   <i type="int" name="NKREDLFZ">     1</i>
   <i type="int" name="MAXMEM">  1800</i>
   <i type="int" name="TELESCOPE">     0</i>
  </separator>
 </parameters>
 <atominfo>
  <atoms>       1 </atoms>
  <types>       1 </types>
  <array name="atoms" >
   <dimension dim="1">ion</dimension>
   <field type="string">element</field>
   <field type="int">atomtype</field>
   <set>
    <rc><c>Ta</c><c>   1</c></rc>
   </set>
  </array>
  <array name="atomtypes" >
   <dimension dim="1">type</dimension>
   <field type="int">atomspertype</field>
   <field type="string">element</field>
   <field>mass</field>
   <field>valence</field>
   <field type="string">pseudopotential</field>
   <set>
    <rc><c>   1</c><c>Ta</c><c>    180.94800000</c><c>      5.00000000</c><c>  PAW_PBE Ta 17Jan2003                  </c></rc>
   </set>
  </array>
 </atominfo>
 <structure name="initialpos" >
  <crystal>
   <varray name="basis" >
    <v>       2.86654409       0.00000000       0.00000000 </v>
    <v>      -0.95551470       2.70260368       0.00000000 </v>
    <v>      -0.95551470      -1.35130184       2.34052345 </v>
   </varray>
   <i name="volume">     18.13234550 </i>
   <varray name="rec_basis" >
    <v>       0.34885213       0.12333785       0.21362743 </v>
    <v>       0.00000000       0.37001356       0.21362743 </v>
    <v>       0.00000000       0.00000000       0.42725485 </v>
   </varray>
  </crystal>
  <varray name="positions" >
   <v>       0.00000000       0.00000000       0.00000000 </v>
  </varray>
 </structure>
 <calculation>
  <scstep>
   <time name="dav">    0.05    0.05</time>
   <time name="total">    0.23    0.26</time>
   <energy>
    <i name="alphaZ">     30.58334069 </i>
    <i name="ewald">   -197.90100875 </i>
    <i name="hartreedc">     -2.50452612 </i>
    <i name="XCdc">    -60.69825643 </i>
    <i name="pawpsdc">    143.51874798 </i>
    <i name="pawaedc">    -69.33493833 </i>
    <i name="eentropy">     -0.00466699 </i>
    <i name="bandstr">     40.88095994 </i>
    <i name="atom">    130.64621481 </i>
    <i name="e_fr_energy">     15.18586680 </i>
    <i name="e_wo_entrp">     15.19053379 </i>
    <i name="e_0_energy">     15.18742246 </i>
   </energy>
  </scstep>
  <scstep>
   <time name="dav">    0.07    0.07</time>
   <time name="total">    0.08    0.09</time>
   <energy>
    <i name="e_fr_energy">     -0.75049931 </i>
    <i name="e_wo_entrp">     -0.74583233 </i>
    <i name="e_0_energy">     -0.74894365 </i>
   </energy>
  </scstep>
  <scstep>
   <time name="dav">    0.05    0.05</time>
   <time name="total">    0.05    0.07</time>
   <energy>
    <i name="e_fr_energy">     -0.93208919 </i>
    <i name="e_wo_entrp">     -0.92742220 </i>
    <i name="e_0_energy">     -0.93053352 </i>
   </energy>
  </scstep>
  <scstep>
   <time name="dav">    0.05    0.05</time>
   <time name="total">    0.06    0.08</time>
   <energy>
    <i name="e_fr_energy">     -0.93349081 </i>
    <i name="e_wo_entrp">     -0.92882382 </i>
    <i name="e_0_energy">     -0.93193515 </i>
   </energy>
  </scstep>
  <scstep>
   <time name="dav">    0.04    0.04</time>
   <time name="total">    0.08    0.09</time>
   <energy>
    <i name="e_fr_energy">     -0.93349250 </i>
    <i name="e_wo_entrp">     -0.92882551 </i>
    <i name="e_0_energy">     -0.93193684 </i>
   </energy>
  </scstep>
  <scstep>
   <time name="dav">    0.04    0.05</time>
   <time name="total">    0.27    0.29</time>
   <energy>
    <i name="e_fr_energy">     -8.63536789 </i>
    <i name="e_wo_entrp">     -8.62464905 </i>
    <i name="e_0_energy">     -8.63179495 </i>
   </energy>
  </scstep>
  <scstep>
   <time name="dav">    0.06    0.06</time>
   <time name="total">    0.28    0.30</time>
   <energy>
    <i name="e_fr_energy">     -8.63911155 </i>
    <i name="e_wo_entrp">     -8.62519980 </i>
    <i name="e_0_energy">     -8.63447430 </i>
   </energy>
  </scstep>
  <scstep>
   <time name="dav">    0.04    0.05</time>
   <time name="total">    0.27    0.29</time>
   <energy>
    <i name="e_fr_energy">      5.44646973 </i>
    <i name="e_wo_entrp">      5.45113672 </i>
    <i name="e_0_energy">      5.44802539 </i>
   </energy>
  </scstep>
  <scstep>
   <time name="dav">    0.05    0.05</time>
   <time name="total">    0.27    0.29</time>
   <energy>
    <i name="e_fr_energy">      9.19064841 </i>
    <i name="e_wo_entrp">      9.19531539 </i>
    <i name="e_0_energy">      9.19220407 </i>
   </energy>
  </scstep>
  <scstep>
   <time name="dav">    0.05    0.05</time>
   <time name="total">    0.28    0.29</time>
   <energy>
    <i name="e_fr_energy">      5.85679260 </i>
    <i name="e_wo_entrp">      5.86145958 </i>
    <i name="e_0_energy">      5.85834826 </i>
   </energy>
  </scstep>
  <scstep>
   <time name="dav">    0.05    0.05</time>
   <time name="total">    0.28    0.30</time>
   <energy>
    <i name="e_fr_energy">      9.15418992 </i>
    <i name="e_wo_entrp">      9.15885691 </i>
    <i name="e_0_energy">      9.15574559 </i>
   </energy>
  </scstep>
  <scstep>
   <time name="dav">    0.04    0.05</time>
   <time name="total">    0.26    0.29</time>
   <energy>
    <i name="e_fr_energy">     19.96224952 </i>
    <i name="e_wo_entrp">     19.96691651 </i>
    <i name="e_0_energy">     19.96380518 </i>
   </energy>
  </scstep>
  <scstep>
   <time name="dav">    0.05    0.05</time>
   <time name="total">    0.26    0.28</time>
   <energy>
    <i name="e_fr_energy">     14.13157589 </i>
    <i name="e_wo_entrp">     14.13624288 </i>
    <i name="e_0_energy">     14.13313156 </i>
   </energy>
  </scstep>
  <scstep>
   <time name="dav">    0.05    0.05</time>
   <time name="total">    0.29    0.30</time>
   <energy>
    <i name="e_fr_energy">      8.67226451 </i>
    <i name="e_wo_entrp">      8.67693150 </i>
    <i name="e_0_energy">      8.67382018 </i>
   </energy>
  </scstep>
  <scstep>
   <time name="dav">    0.05    0.05</time>
   <time name="total">    0.29    0.31</time>
   <energy>
    <i name="e_fr_energy">      1.86356092 </i>
    <i name="e_wo_entrp">      1.86822791 </i>
    <i name="e_0_energy">      1.86511659 </i>
   </energy>
  </scstep>
  <scstep>
   <time name="dav">    0.04    0.05</time>
   <time name="total">    0.28    0.30</time>
   <energy>
    <i name="e_fr_energy">     -5.76893750 </i>
    <i name="e_wo_entrp">     -5.76593414 </i>
    <i name="e_0_energy">     -5.76793638 </i>
   </energy>
  </scstep>
  <scstep>
   <time name="dav">    0.04    0.05</time>
   <time name="total">    0.28    0.30</time>
   <energy>
    <i name="e_fr_energy">     -8.19749395 </i>
    <i name="e_wo_entrp">     -8.19240345 </i>
    <i name="e_0_energy">     -8.19579712 </i>
   </energy>
  </scstep>
  <scstep>
   <time name="dav">    0.04    0.04</time>
   <time name="total">    0.28    0.30</time>
   <energy>
    <i name="e_fr_energy">     -8.03294785 </i>
    <i name="e_wo_entrp">     -8.02364015 </i>
    <i name="e_0_energy">     -8.02984529 </i>
   </energy>
  </scstep>
  <scstep>
   <time name="dav">    0.04    0.05</time>
   <time name="total">    0.28    0.30</time>
   <energy>
    <i name="e_fr_energy">     -7.90197955 </i>
    <i name="e_wo_entrp">     -7.89265953 </i>
    <i name="e_0_energy">     -7.89887287 </i>
   </energy>
  </scstep>
  <scstep>
   <time name="dav">    0.05    0.05</time>
   <time name="total">    0.28    0.30</time>
   <energy>
    <i name="e_fr_energy">     -7.83441729 </i>
    <i name="e_wo_entrp">     -7.82932064 </i>
    <i name="e_0_energy">     -7.83271841 </i>
   </energy>
  </scstep>
  <scstep>
   <time name="dav">    0.05    0.05</time>
   <time name="total">    0.28    0.30</time>
   <energy>
    <i name="e_fr_energy">     -7.78911674 </i>
    <i name="e_wo_entrp">     -7.78444976 </i>
    <i name="e_0_energy">     -7.78756108 </i>
   </energy>
  </scstep>
  <scstep>
   <time name="dav">    0.05    0.05</time>
   <time name="total">    0.28    0.31</time>
   <energy>
    <i name="e_fr_energy">     -7.93781596 </i>
    <i name="e_wo_entrp">     -7.93314899 </i>
    <i name="e_0_energy">     -7.93626030 </i>
   </energy>
  </scstep>
  <scstep>
   <time name="dav">    0.04    0.05</time>
   <time name="total">    0.28    0.30</time>
   <energy>
    <i name="e_fr_energy">     -8.16913683 </i>
    <i name="e_wo_entrp">     -8.16374947 </i>
    <i name="e_0_energy">     -8.16734104 </i>
   </energy>
  </scstep>
  <scstep>
   <time name="dav">    0.04    0.05</time>
   <time name="total">    0.28    0.30</time>
   <energy>
    <i name="e_fr_energy">     -8.13193421 </i>
    <i name="e_wo_entrp">     -8.12734276 </i>
    <i name="e_0_energy">     -8.13040373 </i>
   </energy>
  </scstep>
  <scstep>
   <time name="dav">    0.05    0.05</time>
   <time name="total">    0.29    0.31</time>
   <energy>
    <i name="e_fr_energy">     -8.20581767 </i>
    <i name="e_wo_entrp">     -8.20061026 </i>
    <i name="e_0_energy">     -8.20408187 </i>
   </energy>
  </scstep>
  <scstep>
   <time name="dav">    0.05    0.05</time>
   <time name="total">    0.29    0.32</time>
   <energy>
    <i name="e_fr_energy">     -8.67751405 </i>
    <i name="e_wo_entrp">     -8.66818010 </i>
    <i name="e_0_energy">     -8.67440273 </i>
   </energy>
  </scstep>
  <scstep>
   <time name="dav">    0.05    0.05</time>
   <time name="total">    0.29    0.31</time>
   <energy>
    <i name="e_fr_energy">     -8.99622894 </i>
    <i name="e_wo_entrp">     -8.98689501 </i>
    <i name="e_0_energy">     -8.99311763 </i>
   </energy>
  </scstep>
  <scstep>
   <time name="dav">    0.05    0.05</time>
   <time name="total">    0.27    0.29</time>
   <energy>
    <i name="e_fr_energy">     -9.29901550 </i>
    <i name="e_wo_entrp">     -9.28968155 </i>
    <i name="e_0_energy">     -9.29590419 </i>
   </energy>
  </scstep>
  <scstep>
   <time name="dav">    0.04    0.05</time>
   <time name="total">    0.27    0.30</time>
   <energy>
    <i name="e_fr_energy">     -9.43740344 </i>
    <i name="e_wo_entrp">     -9.42806948 </i>
    <i name="e_0_energy">     -9.43429212 </i>
   </energy>
  </scstep>
  <scstep>
   <time name="dav">    0.05    0.05</time>
   <time name="total">    0.27    0.36</time>
   <energy>
    <i name="e_fr_energy">     -9.46098934 </i>
    <i name="e_wo_entrp">     -9.45165538 </i>
    <i name="e_0_energy">     -9.45787802 </i>
   </energy>
  </scstep>
  <scstep>
   <time name="dav">    0.04    0.05</time>
   <time name="total">    0.28    0.35</time>
   <energy>
    <i name="e_fr_energy">     -9.48890031 </i>
    <i name="e_wo_entrp">     -9.47956634 </i>
    <i name="e_0_energy">     -9.48578899 </i>
   </energy>
  </scstep>
  <scstep>
   <time name="dav">    0.04    0.04</time>
   <time name="total">    0.26    0.35</time>
   <energy>
    <i name="e_fr_energy">     -9.55487898 </i>
    <i name="e_wo_entrp">     -9.54554500 </i>
    <i name="e_0_energy">     -9.55176765 </i>
   </energy>
  </scstep>
  <scstep>
   <time name="dav">    0.04    0.04</time>
   <time name="total">    0.26    0.26</time>
   <energy>
    <i name="e_fr_energy">     -9.56717479 </i>
    <i name="e_wo_entrp">     -9.55784082 </i>
    <i name="e_0_energy">     -9.56406347 </i>
   </energy>
  </scstep>
  <scstep>
   <time name="dav">    0.04    0.04</time>
   <time name="total">    0.26    1.26</time>
   <energy>
    <i name="e_fr_energy">     -9.56704316 </i>
    <i name="e_wo_entrp">     -9.55770919 </i>
    <i name="e_0_energy">     -9.56393184 </i>
   </energy>
  </scstep>
  <scstep>
   <time name="dav">    0.04    0.04</time>
   <time name="total">    0.26    0.28</time>
   <energy>
    <i name="e_fr_energy">     -9.56758172 </i>
    <i name="e_wo_entrp">     -9.55824775 </i>
    <i name="e_0_energy">     -9.56447040 </i>
   </energy>
  </scstep>
  <scstep>
   <time name="dav">    0.04    0.04</time>
   <time name="total">    0.26    0.27</time>
   <energy>
    <i name="e_fr_energy">     -9.56745134 </i>
    <i name="e_wo_entrp">     -9.55811736 </i>
    <i name="e_0_energy">     -9.56434001 </i>
   </energy>
  </scstep>
  <scstep>
   <time name="dav">    0.03    0.03</time>
   <time name="total">    0.26    0.28</time>
   <energy>
    <i name="e_fr_energy">     -9.56707187 </i>
    <i name="e_wo_entrp">     -9.55773789 </i>
    <i name="e_0_energy">     -9.56396054 </i>
   </energy>
  </scstep>
  <scstep>
   <time name="dav">    0.03    0.03</time>
   <time name="total">    0.26    0.27</time>
   <energy>
    <i name="e_fr_energy">     -9.56634359 </i>
    <i name="e_wo_entrp">     -9.55700961 </i>
    <i name="e_0_energy">     -9.56323226 </i>
   </energy>
  </scstep>
  <scstep>
   <time name="dav">    0.03    0.03</time>
   <time name="total">    0.25    0.27</time>
   <energy>
    <i name="e_fr_energy">     -9.56500331 </i>
    <i name="e_wo_entrp">     -9.55566934 </i>
    <i name="e_0_energy">     -9.56189199 </i>
   </energy>
  </scstep>
  <scstep>
   <time name="dav">    0.03    0.03</time>
   <time name="total">    0.25    0.27</time>
   <energy>
    <i name="e_fr_energy">     -9.56477800 </i>
    <i name="e_wo_entrp">     -9.55544402 </i>
    <i name="e_0_energy">     -9.56166667 </i>
   </energy>
  </scstep>
  <scstep>
   <time name="dav">    0.03    0.03</time>
   <time name="total">    0.26    0.27</time>
   <energy>
    <i name="e_fr_energy">     -9.56514279 </i>
    <i name="e_wo_entrp">     -9.55580881 </i>
    <i name="e_0_energy">     -9.56203146 </i>
   </energy>
  </scstep>
  <scstep>
   <time name="dav">    0.03    0.03</time>
   <time name="total">    0.26    0.27</time>
   <energy>
    <i name="e_fr_energy">     -9.56616920 </i>
    <i name="e_wo_entrp">     -9.55683523 </i>
    <i name="e_0_energy">     -9.56305788 </i>
   </energy>
  </scstep>
  <scstep>
   <time name="dav">    0.03    0.03</time>
   <time name="total">    0.26    0.27</time>
   <energy>
    <i name="e_fr_energy">     -9.56678514 </i>
    <i name="e_wo_entrp">     -9.55745117 </i>
    <i name="e_0_energy">     -9.56367382 </i>
   </energy>
  </scstep>
  <scstep>
   <time name="dav">    0.03    0.03</time>
   <time name="total">    0.26    0.27</time>
   <energy>
    <i name="e_fr_energy">     -9.56707326 </i>
    <i name="e_wo_entrp">     -9.55773929 </i>
    <i name="e_0_energy">     -9.56396194 </i>
   </energy>
  </scstep>
  <scstep>
   <time name="dav">    0.03    0.03</time>
   <time name="total">    0.26    0.29</time>
   <energy>
    <i name="e_fr_energy">     -9.56747421 </i>
    <i name="e_wo_entrp">     -9.55814023 </i>
    <i name="e_0_energy">     -9.56436288 </i>
   </energy>
  </scstep>
  <scstep>
   <time name="dav">    0.03    0.03</time>
   <time name="total">    0.26    0.27</time>
   <energy>
    <i name="e_fr_energy">     -9.56795099 </i>
    <i name="e_wo_entrp">     -9.55861701 </i>
    <i name="e_0_energy">     -9.56483966 </i>
   </energy>
  </scstep>
  <scstep>
   <time name="dav">    0.03    0.03</time>
   <time name="total">    0.26    0.28</time>
   <energy>
    <i name="e_fr_energy">     -9.56912516 </i>
    <i name="e_wo_entrp">     -9.55979119 </i>
    <i name="e_0_energy">     -9.56601384 </i>
   </energy>
  </scstep>
  <scstep>
   <time name="dav">    0.04    0.05</time>
   <time name="total">    0.28    0.29</time>
   <energy>
    <i name="e_fr_energy">     -9.57032329 </i>
    <i name="e_wo_entrp">     -9.56098931 </i>
    <i name="e_0_energy">     -9.56721196 </i>
   </energy>
  </scstep>
  <scstep>
   <time name="dav">    0.05    0.05</time>
   <time name="total">    0.28    0.29</time>
   <energy>
    <i name="e_fr_energy">     -9.57115079 </i>
    <i name="e_wo_entrp">     -9.56181682 </i>
    <i name="e_0_energy">     -9.56803947 </i>
   </energy>
  </scstep>
  <scstep>
   <time name="dav">    0.03    0.03</time>
   <time name="total">    0.26    0.28</time>
   <energy>
    <i name="e_fr_energy">     -9.57141005 </i>
    <i name="e_wo_entrp">     -9.56207607 </i>
    <i name="e_0_energy">     -9.56829872 </i>
   </energy>
  </scstep>
  <scstep>
   <time name="dav">    0.03    0.03</time>
   <time name="total">    0.21    0.22</time>
   <energy>
    <i name="alphaZ">     30.58334069 </i>
    <i name="ewald">   -197.90100875 </i>
    <i name="hartreedc">     -0.43678935 </i>
    <i name="XCdc">    -65.90064179 </i>
    <i name="pawpsdc">    186.53320788 </i>
    <i name="pawaedc">   -113.31485009 </i>
    <i name="eentropy">     -0.00933397 </i>
    <i name="bandstr">     20.22838672 </i>
    <i name="atom">    130.64621481 </i>
    <i name="e_fr_energy">     -9.57147384 </i>
    <i name="e_wo_entrp">     -9.56213987 </i>
    <i name="e_0_energy">     -9.56836252 </i>
   </energy>
  </scstep>
  <parameters_embedded>
   <separator name="dft+d2" >
    <i type="logical" name="LVDW"> F  </i>
   </separator>
  </parameters_embedded>
  <structure>
   <crystal>
    <varray name="basis" >
     <v>       2.86654409       0.00000000       0.00000000 </v>
     <v>      -0.95551470       2.70260368       0.00000000 </v>
     <v>      -0.95551470      -1.35130184       2.34052345 </v>
    </varray>
    <i name="volume">     18.13234550 </i>
    <varray name="rec_basis" >
     <v>       0.34885213       0.12333785       0.21362743 </v>
     <v>       0.00000000       0.37001356       0.21362743 </v>
     <v>       0.00000000       0.00000000       0.42725485 </v>
    </varray>
   </crystal>
   <varray name="positions" >
    <v>       0.00000000       0.00000000       0.00000000 </v>
   </varray>
  </structure>
  <varray name="forces" >
   <v>       0.00000000       0.00000000       0.00000000 </v>
  </varray>
  <varray name="stress" >
   <v>     314.57475969       0.00000000       0.00000000 </v>
   <v>       0.00000000     314.57475969       0.00000000 </v>
   <v>       0.00000000       0.00000000     314.57475969 </v>
  </varray>
  <energy>
   <i name="e_fr_energy">     -9.57147384 </i>
   <i name="e_wo_entrp">     -9.56836252 </i>
   <i name="e_0_energy">     -0.00933397 </i>
  </energy>
  <time name="totalsc">   13.91   16.12</time>
  <eigenvalues>
   <array>
    <dimension dim="1">band</dimension>
    <dimension dim="2">kpoint</dimension>
    <dimension dim="3">spin</dimension>
    <field>eigene</field>
    <field>occ</field>
    <set>
     <set comment="spin 1">
      <set comment="kpoint 1">
       <r>    4.2572    1.0000 </r>
       <r>    4.2572    1.0000 </r>
       <r>    4.2572    1.0000 </r>
       <r>   10.6088    0.0000 </r>
       <r>   10.6088    0.0000 </r>
       <r>   12.4920    0.0000 </r>
      </set>
      <set comment="kpoint 2">
       <r>    1.8840    1.0000 </r>
       <r>    4.7275    1.0000 </r>
       <r>    6.6575    0.3333 </r>
       <r>    6.6575    0.3333 </r>
       <r>    8.5432    0.0000 </r>
       <r>   10.5329    0.0000 </r>
      </set>
     </set>
     <set comment="spin 2">
      <set comment="kpoint 1">
       <r>    4.6613    1.0000 </r>
       <r>    4.6613    1.0000 </r>
       <r>    4.6613    1.0000 </r>
       <r>   10.7647    0.0000 </r>
       <r>   10.7647    0.0000 </r>
       <r>   13.0104    0.0000 </r>
      </set>
      <set comment="kpoint 2">
       <r>    2.1437    1.0000 </r>
       <r>    4.8590    1.0000 </r>
       <r>    7.1467    0.0000 </r>
       <r>    7.1467    0.0000 </r>
       <r>    9.0556    0.0000 </r>
       <r>   10.7614    0.0000 </r>
      </set>
     </set>
    </set>
   </array>
  </eigenvalues>
  <separator name="orbital magnetization" >
   <v name="MAGDIPOLOUT">      0.00000000      0.00000000      0.00000000</v>
  </separator>
  <dos>
   <i name="efermi">      6.64746284 </i>
   <total>
    <array>
     <dimension dim="1">gridpoints</dimension>
     <dimension dim="2">spin</dimension>
     <field>energy</field>
     <field>total</field>
     <field>integrated</field>
     <set>
      <set comment="spin 1">
       <r>     1.3277     0.0000     0.0000 </r>
       <r>     1.3685     0.0000     0.0000 </r>
       <r>     1.4093     0.0000     0.0000 </r>
       <r>     1.4501     0.0000     0.0000 </r>
       <r>     1.4909     0.0000     0.0000 </r>
       <r>     1.5317     0.0000     0.0000 </r>
       <r>     1.5725     0.0000     0.0000 </r>
       <r>     1.6133     0.0000     0.0000 </r>
       <r>     1.6540     0.0000     0.0000 </r>
       <r>     1.6948     0.0000     0.0000 </r>
       <r>     1.7356    -0.0021    -0.0001 </r>
       <r>     1.7764    -0.0855    -0.0036 </r>
       <r>     1.8172    -0.5347    -0.0254 </r>
       <r>     1.8580     2.8195     0.0896 </r>
       <r>     1.8988    11.3931     0.5544 </r>
       <r>     1.9396     5.4040     0.7749 </r>
       <r>     1.9804    -0.4267     0.7575 </r>
       <r>     2.0212    -0.1772     0.7503 </r>
       <r>     2.0620    -0.0066     0.7500 </r>
       <r>     2.1028    -0.0001     0.7500 </r>
       <r>     2.1436     0.0000     0.7500 </r>
       <r>     2.1844     0.0000     0.7500 </r>
       <r>     2.2252     0.0000     0.7500 </r>
       <r>     2.2660     0.0000     0.7500 </r>
       <r>     2.3068     0.0000     0.7500 </r>
       <r>     2.3476     0.0000     0.7500 </r>
       <r>     2.3884     0.0000     0.7500 </r>
       <r>     2.4292     0.0000     0.7500 </r>
       <r>     2.4700     0.0000     0.7500 </r>
       <r>     2.5108     0.0000     0.7500 </r>
       <r>     2.5516     0.0000     0.7500 </r>
       <r>     2.5924     0.0000     0.7500 </r>
       <r>     2.6332     0.0000     0.7500 </r>
       <r>     2.6740     0.0000     0.7500 </r>
       <r>     2.7148     0.0000     0.7500 </r>
       <r>     2.7556     0.0000     0.7500 </r>
       <r>     2.7964     0.0000     0.7500 </r>
       <r>     2.8372     0.0000     0.7500 </r>
       <r>     2.8780     0.0000     0.7500 </r>
       <r>     2.9188     0.0000     0.7500 </r>
       <r>     2.9596     0.0000     0.7500 </r>
       <r>     3.0003     0.0000     0.7500 </r>
       <r>     3.0411     0.0000     0.7500 </r>
       <r>     3.0819     0.0000     0.7500 </r>
       <r>     3.1227     0.0000     0.7500 </r>
       <r>     3.1635     0.0000     0.7500 </r>
       <r>     3.2043     0.0000     0.7500 </r>
       <r>     3.2451     0.0000     0.7500 </r>
       <r>     3.2859     0.0000     0.7500 </r>
       <r>     3.3267     0.0000     0.7500 </r>
       <r>     3.3675     0.0000     0.7500 </r>
       <r>     3.4083     0.0000     0.7500 </r>
       <r>     3.4491     0.0000     0.7500 </r>
       <r>     3.4899     0.0000     0.7500 </r>
       <r>     3.5307     0.0000     0.7500 </r>
       <r>     3.5715     0.0000     0.7500 </r>
       <r>     3.6123     0.0000     0.7500 </r>
       <r>     3.6531     0.0000     0.7500 </r>
       <r>     3.6939     0.0000     0.7500 </r>
       <r>     3.7347     0.0000     0.7500 </r>
       <r>     3.7755     0.0000     0.7500 </r>
       <r>     3.8163     0.0000     0.7500 </r>
       <r>     3.8571     0.0000     0.7500 </r>
       <r>     3.8979     0.0000     0.7500 </r>
       <r>     3.9387     0.0000     0.7500 </r>
       <r>     3.9795     0.0000     0.7500 </r>
       <r>     4.0203     0.0000     0.7500 </r>
       <r>     4.0611     0.0000     0.7500 </r>
       <r>     4.1019    -0.0009     0.7500 </r>
       <r>     4.1427    -0.0504     0.7479 </r>
       <r>     4.1835    -0.4767     0.7285 </r>
       <r>     4.2243     1.5383     0.7912 </r>
       <r>     4.2651    10.5783     1.2228 </r>
       <r>     4.3058     7.1992     1.5165 </r>
       <r>     4.3466    -0.1303     1.5112 </r>
       <r>     4.3874    -0.2606     1.5005 </r>
       <r>     4.4282    -0.0131     1.5000 </r>
       <r>     4.4690    -0.0001     1.5000 </r>
       <r>     4.5098     0.0000     1.5000 </r>
       <r>     4.5506    -0.0001     1.5000 </r>
       <r>     4.5914    -0.0074     1.4997 </r>
       <r>     4.6322    -0.1893     1.4920 </r>
       <r>     4.6730    -0.3938     1.4759 </r>
       <r>     4.7138     5.6905     1.7081 </r>
       <r>     4.7546    11.3021     2.1692 </r>
       <r>     4.7954     2.5920     2.2749 </r>
       <r>     4.8362    -0.5297     2.2533 </r>
       <r>     4.8770    -0.0788     2.2501 </r>
       <r>     4.9178    -0.0018     2.2500 </r>
       <r>     4.9586     0.0000     2.2500 </r>
       <r>     4.9994     0.0000     2.2500 </r>
       <r>     5.0402     0.0000     2.2500 </r>
       <r>     5.0810     0.0000     2.2500 </r>
       <r>     5.1218     0.0000     2.2500 </r>
       <r>     5.1626     0.0000     2.2500 </r>
       <r>     5.2034     0.0000     2.2500 </r>
       <r>     5.2442     0.0000     2.2500 </r>
       <r>     5.2850     0.0000     2.2500 </r>
       <r>     5.3258     0.0000     2.2500 </r>
       <r>     5.3666     0.0000     2.2500 </r>
       <r>     5.4074     0.0000     2.2500 </r>
       <r>     5.4482     0.0000     2.2500 </r>
       <r>     5.4890     0.0000     2.2500 </r>
       <r>     5.5298     0.0000     2.2500 </r>
       <r>     5.5706     0.0000     2.2500 </r>
       <r>     5.6114     0.0000     2.2500 </r>
       <r>     5.6521     0.0000     2.2500 </r>
       <r>     5.6929     0.0000     2.2500 </r>
       <r>     5.7337     0.0000     2.2500 </r>
       <r>     5.7745     0.0000     2.2500 </r>
       <r>     5.8153     0.0000     2.2500 </r>
       <r>     5.8561     0.0000     2.2500 </r>
       <r>     5.8969     0.0000     2.2500 </r>
       <r>     5.9377     0.0000     2.2500 </r>
       <r>     5.9785     0.0000     2.2500 </r>
       <r>     6.0193     0.0000     2.2500 </r>
       <r>     6.0601     0.0000     2.2500 </r>
       <r>     6.1009     0.0000     2.2500 </r>
       <r>     6.1417     0.0000     2.2500 </r>
       <r>     6.1825     0.0000     2.2500 </r>
       <r>     6.2233     0.0000     2.2500 </r>
       <r>     6.2641     0.0000     2.2500 </r>
       <r>     6.3049     0.0000     2.2500 </r>
       <r>     6.3457     0.0000     2.2500 </r>
       <r>     6.3865     0.0000     2.2500 </r>
       <r>     6.4273     0.0000     2.2500 </r>
       <r>     6.4681     0.0000     2.2500 </r>
       <r>     6.5089    -0.0040     2.2498 </r>
       <r>     6.5497    -0.1673     2.2430 </r>
       <r>     6.5905    -1.0672     2.1995 </r>
       <r>     6.6313     5.5186     2.4246 </r>
       <r>     6.6721    22.7417     3.3524 </r>
       <r>     6.7129    10.9573     3.7994 </r>
       <r>     6.7537    -0.8373     3.7653 </r>
       <r>     6.7945    -0.3606     3.7506 </r>
       <r>     6.8353    -0.0136     3.7500 </r>
       <r>     6.8761    -0.0001     3.7500 </r>
       <r>     6.9169     0.0000     3.7500 </r>
       <r>     6.9577     0.0000     3.7500 </r>
       <r>     6.9984     0.0000     3.7500 </r>
       <r>     7.0392     0.0000     3.7500 </r>
       <r>     7.0800     0.0000     3.7500 </r>
       <r>     7.1208     0.0000     3.7500 </r>
       <r>     7.1616     0.0000     3.7500 </r>
       <r>     7.2024     0.0000     3.7500 </r>
       <r>     7.2432     0.0000     3.7500 </r>
       <r>     7.2840     0.0000     3.7500 </r>
       <r>     7.3248     0.0000     3.7500 </r>
       <r>     7.3656     0.0000     3.7500 </r>
       <r>     7.4064     0.0000     3.7500 </r>
       <r>     7.4472     0.0000     3.7500 </r>
       <r>     7.4880     0.0000     3.7500 </r>
       <r>     7.5288     0.0000     3.7500 </r>
       <r>     7.5696     0.0000     3.7500 </r>
       <r>     7.6104     0.0000     3.7500 </r>
       <r>     7.6512     0.0000     3.7500 </r>
       <r>     7.6920     0.0000     3.7500 </r>
       <r>     7.7328     0.0000     3.7500 </r>
       <r>     7.7736     0.0000     3.7500 </r>
       <r>     7.8144     0.0000     3.7500 </r>
       <r>     7.8552     0.0000     3.7500 </r>
       <r>     7.8960     0.0000     3.7500 </r>
       <r>     7.9368     0.0000     3.7500 </r>
       <r>     7.9776     0.0000     3.7500 </r>
       <r>     8.0184     0.0000     3.7500 </r>
       <r>     8.0592     0.0000     3.7500 </r>
       <r>     8.1000     0.0000     3.7500 </r>
       <r>     8.1408     0.0000     3.7500 </r>
       <r>     8.1816     0.0000     3.7500 </r>
       <r>     8.2224     0.0000     3.7500 </r>
       <r>     8.2632     0.0000     3.7500 </r>
       <r>     8.3040     0.0000     3.7500 </r>
       <r>     8.3447     0.0000     3.7500 </r>
       <r>     8.3855    -0.0007     3.7500 </r>
       <r>     8.4263    -0.0419     3.7483 </r>
       <r>     8.4671    -0.4478     3.7300 </r>
       <r>     8.5079     1.1920     3.7786 </r>
       <r>     8.5487    10.1943     4.1945 </r>
       <r>     8.5895     7.7760     4.5118 </r>
       <r>     8.6303     0.0197     4.5126 </r>
       <r>     8.6711    -0.2916     4.5007 </r>
       <r>     8.7119    -0.0162     4.5000 </r>
       <r>     8.7527    -0.0002     4.5000 </r>
       <r>     8.7935     0.0000     4.5000 </r>
       <r>     8.8343     0.0000     4.5000 </r>
       <r>     8.8751     0.0000     4.5000 </r>
       <r>     8.9159     0.0000     4.5000 </r>
       <r>     8.9567     0.0000     4.5000 </r>
       <r>     8.9975     0.0000     4.5000 </r>
       <r>     9.0383     0.0000     4.5000 </r>
       <r>     9.0791     0.0000     4.5000 </r>
       <r>     9.1199     0.0000     4.5000 </r>
       <r>     9.1607     0.0000     4.5000 </r>
       <r>     9.2015     0.0000     4.5000 </r>
       <r>     9.2423     0.0000     4.5000 </r>
       <r>     9.2831     0.0000     4.5000 </r>
       <r>     9.3239     0.0000     4.5000 </r>
       <r>     9.3647     0.0000     4.5000 </r>
       <r>     9.4055     0.0000     4.5000 </r>
       <r>     9.4463     0.0000     4.5000 </r>
       <r>     9.4871     0.0000     4.5000 </r>
       <r>     9.5279     0.0000     4.5000 </r>
       <r>     9.5687     0.0000     4.5000 </r>
       <r>     9.6095     0.0000     4.5000 </r>
       <r>     9.6503     0.0000     4.5000 </r>
       <r>     9.6910     0.0000     4.5000 </r>
       <r>     9.7318     0.0000     4.5000 </r>
       <r>     9.7726     0.0000     4.5000 </r>
       <r>     9.8134     0.0000     4.5000 </r>
       <r>     9.8542     0.0000     4.5000 </r>
       <r>     9.8950     0.0000     4.5000 </r>
       <r>     9.9358     0.0000     4.5000 </r>
       <r>     9.9766     0.0000     4.5000 </r>
       <r>    10.0174     0.0000     4.5000 </r>
       <r>    10.0582     0.0000     4.5000 </r>
       <r>    10.0990     0.0000     4.5000 </r>
       <r>    10.1398     0.0000     4.5000 </r>
       <r>    10.1806     0.0000     4.5000 </r>
       <r>    10.2214     0.0000     4.5000 </r>
       <r>    10.2622     0.0000     4.5000 </r>
       <r>    10.3030     0.0000     4.5000 </r>
       <r>    10.3438     0.0000     4.5000 </r>
       <r>    10.3846    -0.0021     4.4999 </r>
       <r>    10.4254    -0.0860     4.4964 </r>
       <r>    10.4662    -0.5376     4.4745 </r>
       <r>    10.5070     2.7527     4.5868 </r>
       <r>    10.5478    11.0516     5.0377 </r>
       <r>    10.5886     8.1042     5.3683 </r>
       <r>    10.6294     7.3032     5.6662 </r>
       <r>    10.6702     2.4947     5.7680 </r>
       <r>    10.7110    -0.3561     5.7535 </r>
       <r>    10.7518    -0.0826     5.7501 </r>
       <r>    10.7926    -0.0024     5.7500 </r>
       <r>    10.8334     0.0000     5.7500 </r>
       <r>    10.8742     0.0000     5.7500 </r>
       <r>    10.9150     0.0000     5.7500 </r>
       <r>    10.9558     0.0000     5.7500 </r>
       <r>    10.9965     0.0000     5.7500 </r>
       <r>    11.0373     0.0000     5.7500 </r>
       <r>    11.0781     0.0000     5.7500 </r>
       <r>    11.1189     0.0000     5.7500 </r>
       <r>    11.1597     0.0000     5.7500 </r>
       <r>    11.2005     0.0000     5.7500 </r>
       <r>    11.2413     0.0000     5.7500 </r>
       <r>    11.2821     0.0000     5.7500 </r>
       <r>    11.3229     0.0000     5.7500 </r>
       <r>    11.3637     0.0000     5.7500 </r>
       <r>    11.4045     0.0000     5.7500 </r>
       <r>    11.4453     0.0000     5.7500 </r>
       <r>    11.4861     0.0000     5.7500 </r>
       <r>    11.5269     0.0000     5.7500 </r>
       <r>    11.5677     0.0000     5.7500 </r>
       <r>    11.6085     0.0000     5.7500 </r>
       <r>    11.6493     0.0000     5.7500 </r>
       <r>    11.6901     0.0000     5.7500 </r>
       <r>    11.7309     0.0000     5.7500 </r>
       <r>    11.7717     0.0000     5.7500 </r>
       <r>    11.8125     0.0000     5.7500 </r>
       <r>    11.8533     0.0000     5.7500 </r>
       <r>    11.8941     0.0000     5.7500 </r>
       <r>    11.9349     0.0000     5.7500 </r>
       <r>    11.9757     0.0000     5.7500 </r>
       <r>    12.0165     0.0000     5.7500 </r>
       <r>    12.0573     0.0000     5.7500 </r>
       <r>    12.0981     0.0000     5.7500 </r>
       <r>    12.1389     0.0000     5.7500 </r>
       <r>    12.1797     0.0000     5.7500 </r>
       <r>    12.2205     0.0000     5.7500 </r>
       <r>    12.2613     0.0000     5.7500 </r>
       <r>    12.3021     0.0000     5.7500 </r>
       <r>    12.3428    -0.0006     5.7500 </r>
       <r>    12.3836    -0.0269     5.7489 </r>
       <r>    12.4244    -0.1771     5.7417 </r>
       <r>    12.4652     0.8849     5.7778 </r>
       <r>    12.5060     3.7764     5.9318 </r>
       <r>    12.5468     1.8700     6.0081 </r>
       <r>    12.5876    -0.1345     6.0026 </r>
       <r>    12.6284    -0.0620     6.0001 </r>
       <r>    12.6692    -0.0024     6.0000 </r>
       <r>    12.7100     0.0000     6.0000 </r>
       <r>    12.7508     0.0000     6.0000 </r>
       <r>    12.7916     0.0000     6.0000 </r>
       <r>    12.8324     0.0000     6.0000 </r>
       <r>    12.8732     0.0000     6.0000 </r>
       <r>    12.9140     0.0000     6.0000 </r>
       <r>    12.9548     0.0000     6.0000 </r>
       <r>    12.9956     0.0000     6.0000 </r>
       <r>    13.0364     0.0000     6.0000 </r>
       <r>    13.0772     0.0000     6.0000 </r>
       <r>    13.1180     0.0000     6.0000 </r>
       <r>    13.1588     0.0000     6.0000 </r>
       <r>    13.1996     0.0000     6.0000 </r>
       <r>    13.2404     0.0000     6.0000 </r>
       <r>    13.2812     0.0000     6.0000 </r>
       <r>    13.3220     0.0000     6.0000 </r>
       <r>    13.3628     0.0000     6.0000 </r>
       <r>    13.4036     0.0000     6.0000 </r>
       <r>    13.4444     0.0000     6.0000 </r>
       <r>    13.4852     0.0000     6.0000 </r>
       <r>    13.5260     0.0000     6.0000 </r>
       <r>    13.5668     0.0000     6.0000 </r>
      </set>
      <set comment="spin 2">
       <r>     1.3277     0.0000     0.0000 </r>
       <r>     1.3685     0.0000     0.0000 </r>
       <r>     1.4093     0.0000     0.0000 </r>
       <r>     1.4501     0.0000     0.0000 </r>
       <r>     1.4909     0.0000     0.0000 </r>
       <r>     1.5317     0.0000     0.0000 </r>
       <r>     1.5725     0.0000     0.0000 </r>
       <r>     1.6133     0.0000     0.0000 </r>
       <r>     1.6540     0.0000     0.0000 </r>
       <r>     1.6948     0.0000     0.0000 </r>
       <r>     1.7356     0.0000     0.0000 </r>
       <r>     1.7764     0.0000     0.0000 </r>
       <r>     1.8172     0.0000     0.0000 </r>
       <r>     1.8580     0.0000     0.0000 </r>
       <r>     1.8988     0.0000     0.0000 </r>
       <r>     1.9396     0.0000     0.0000 </r>
       <r>     1.9804    -0.0004     0.0000 </r>
       <r>     2.0212    -0.0262    -0.0011 </r>
       <r>     2.0620    -0.3687    -0.0161 </r>
       <r>     2.1028     0.4959     0.0041 </r>
       <r>     2.1436     9.0582     0.3737 </r>
       <r>     2.1844     9.1054     0.7451 </r>
       <r>     2.2252     0.5184     0.7663 </r>
       <r>     2.2660    -0.3718     0.7511 </r>
       <r>     2.3068    -0.0267     0.7500 </r>
       <r>     2.3476    -0.0004     0.7500 </r>
       <r>     2.3884     0.0000     0.7500 </r>
       <r>     2.4292     0.0000     0.7500 </r>
       <r>     2.4700     0.0000     0.7500 </r>
       <r>     2.5108     0.0000     0.7500 </r>
       <r>     2.5516     0.0000     0.7500 </r>
       <r>     2.5924     0.0000     0.7500 </r>
       <r>     2.6332     0.0000     0.7500 </r>
       <r>     2.6740     0.0000     0.7500 </r>
       <r>     2.7148     0.0000     0.7500 </r>
       <r>     2.7556     0.0000     0.7500 </r>
       <r>     2.7964     0.0000     0.7500 </r>
       <r>     2.8372     0.0000     0.7500 </r>
       <r>     2.8780     0.0000     0.7500 </r>
       <r>     2.9188     0.0000     0.7500 </r>
       <r>     2.9596     0.0000     0.7500 </r>
       <r>     3.0003     0.0000     0.7500 </r>
       <r>     3.0411     0.0000     0.7500 </r>
       <r>     3.0819     0.0000     0.7500 </r>
       <r>     3.1227     0.0000     0.7500 </r>
       <r>     3.1635     0.0000     0.7500 </r>
       <r>     3.2043     0.0000     0.7500 </r>
       <r>     3.2451     0.0000     0.7500 </r>
       <r>     3.2859     0.0000     0.7500 </r>
       <r>     3.3267     0.0000     0.7500 </r>
       <r>     3.3675     0.0000     0.7500 </r>
       <r>     3.4083     0.0000     0.7500 </r>
       <r>     3.4491     0.0000     0.7500 </r>
       <r>     3.4899     0.0000     0.7500 </r>
       <r>     3.5307     0.0000     0.7500 </r>
       <r>     3.5715     0.0000     0.7500 </r>
       <r>     3.6123     0.0000     0.7500 </r>
       <r>     3.6531     0.0000     0.7500 </r>
       <r>     3.6939     0.0000     0.7500 </r>
       <r>     3.7347     0.0000     0.7500 </r>
       <r>     3.7755     0.0000     0.7500 </r>
       <r>     3.8163     0.0000     0.7500 </r>
       <r>     3.8571     0.0000     0.7500 </r>
       <r>     3.8979     0.0000     0.7500 </r>
       <r>     3.9387     0.0000     0.7500 </r>
       <r>     3.9795     0.0000     0.7500 </r>
       <r>     4.0203     0.0000     0.7500 </r>
       <r>     4.0611     0.0000     0.7500 </r>
       <r>     4.1019     0.0000     0.7500 </r>
       <r>     4.1427     0.0000     0.7500 </r>
       <r>     4.1835     0.0000     0.7500 </r>
       <r>     4.2243     0.0000     0.7500 </r>
       <r>     4.2651     0.0000     0.7500 </r>
       <r>     4.3058     0.0000     0.7500 </r>
       <r>     4.3466     0.0000     0.7500 </r>
       <r>     4.3874     0.0000     0.7500 </r>
       <r>     4.4282     0.0000     0.7500 </r>
       <r>     4.4690     0.0000     0.7500 </r>
       <r>     4.5098    -0.0014     0.7499 </r>
       <r>     4.5506    -0.0679     0.7472 </r>
       <r>     4.5914    -0.5161     0.7261 </r>
       <r>     4.6322     2.2065     0.8161 </r>
       <r>     4.6730    11.1008     1.2690 </r>
       <r>     4.7138     6.2021     1.5220 </r>
       <r>     4.7546    -0.4286     1.5046 </r>
       <r>     4.7954    -0.7486     1.4740 </r>
       <r>     4.8362     3.4855     1.6162 </r>
       <r>     4.8770    11.5597     2.0878 </r>
       <r>     4.9178     4.6198     2.2763 </r>
       <r>     4.9586    -0.4936     2.2562 </r>
       <r>     4.9994    -0.1461     2.2502 </r>
       <r>     5.0402    -0.0048     2.2500 </r>
       <r>     5.0810     0.0000     2.2500 </r>
       <r>     5.1218     0.0000     2.2500 </r>
       <r>     5.1626     0.0000     2.2500 </r>
       <r>     5.2034     0.0000     2.2500 </r>
       <r>     5.2442     0.0000     2.2500 </r>
       <r>     5.2850     0.0000     2.2500 </r>
       <r>     5.3258     0.0000     2.2500 </r>
       <r>     5.3666     0.0000     2.2500 </r>
       <r>     5.4074     0.0000     2.2500 </r>
       <r>     5.4482     0.0000     2.2500 </r>
       <r>     5.4890     0.0000     2.2500 </r>
       <r>     5.5298     0.0000     2.2500 </r>
       <r>     5.5706     0.0000     2.2500 </r>
       <r>     5.6114     0.0000     2.2500 </r>
       <r>     5.6521     0.0000     2.2500 </r>
       <r>     5.6929     0.0000     2.2500 </r>
       <r>     5.7337     0.0000     2.2500 </r>
       <r>     5.7745     0.0000     2.2500 </r>
       <r>     5.8153     0.0000     2.2500 </r>
       <r>     5.8561     0.0000     2.2500 </r>
       <r>     5.8969     0.0000     2.2500 </r>
       <r>     5.9377     0.0000     2.2500 </r>
       <r>     5.9785     0.0000     2.2500 </r>
       <r>     6.0193     0.0000     2.2500 </r>
       <r>     6.0601     0.0000     2.2500 </r>
       <r>     6.1009     0.0000     2.2500 </r>
       <r>     6.1417     0.0000     2.2500 </r>
       <r>     6.1825     0.0000     2.2500 </r>
       <r>     6.2233     0.0000     2.2500 </r>
       <r>     6.2641     0.0000     2.2500 </r>
       <r>     6.3049     0.0000     2.2500 </r>
       <r>     6.3457     0.0000     2.2500 </r>
       <r>     6.3865     0.0000     2.2500 </r>
       <r>     6.4273     0.0000     2.2500 </r>
       <r>     6.4681     0.0000     2.2500 </r>
       <r>     6.5089     0.0000     2.2500 </r>
       <r>     6.5497     0.0000     2.2500 </r>
       <r>     6.5905     0.0000     2.2500 </r>
       <r>     6.6313     0.0000     2.2500 </r>
       <r>     6.6721     0.0000     2.2500 </r>
       <r>     6.7129     0.0000     2.2500 </r>
       <r>     6.7537     0.0000     2.2500 </r>
       <r>     6.7945     0.0000     2.2500 </r>
       <r>     6.8353     0.0000     2.2500 </r>
       <r>     6.8761     0.0000     2.2500 </r>
       <r>     6.9169     0.0000     2.2500 </r>
       <r>     6.9577     0.0000     2.2500 </r>
       <r>     6.9984    -0.0041     2.2498 </r>
       <r>     7.0392    -0.1716     2.2428 </r>
       <r>     7.0800    -1.0698     2.1992 </r>
       <r>     7.1208     5.6618     2.4302 </r>
       <r>     7.1616    22.7943     3.3601 </r>
       <r>     7.2024    10.7799     3.7999 </r>
       <r>     7.2432    -0.8565     3.7649 </r>
       <r>     7.2840    -0.3532     3.7505 </r>
       <r>     7.3248    -0.0132     3.7500 </r>
       <r>     7.3656    -0.0001     3.7500 </r>
       <r>     7.4064     0.0000     3.7500 </r>
       <r>     7.4472     0.0000     3.7500 </r>
       <r>     7.4880     0.0000     3.7500 </r>
       <r>     7.5288     0.0000     3.7500 </r>
       <r>     7.5696     0.0000     3.7500 </r>
       <r>     7.6104     0.0000     3.7500 </r>
       <r>     7.6512     0.0000     3.7500 </r>
       <r>     7.6920     0.0000     3.7500 </r>
       <r>     7.7328     0.0000     3.7500 </r>
       <r>     7.7736     0.0000     3.7500 </r>
       <r>     7.8144     0.0000     3.7500 </r>
       <r>     7.8552     0.0000     3.7500 </r>
       <r>     7.8960     0.0000     3.7500 </r>
       <r>     7.9368     0.0000     3.7500 </r>
       <r>     7.9776     0.0000     3.7500 </r>
       <r>     8.0184     0.0000     3.7500 </r>
       <r>     8.0592     0.0000     3.7500 </r>
       <r>     8.1000     0.0000     3.7500 </r>
       <r>     8.1408     0.0000     3.7500 </r>
       <r>     8.1816     0.0000     3.7500 </r>
       <r>     8.2224     0.0000     3.7500 </r>
       <r>     8.2632     0.0000     3.7500 </r>
       <r>     8.3040     0.0000     3.7500 </r>
       <r>     8.3447     0.0000     3.7500 </r>
       <r>     8.3855     0.0000     3.7500 </r>
       <r>     8.4263     0.0000     3.7500 </r>
       <r>     8.4671     0.0000     3.7500 </r>
       <r>     8.5079     0.0000     3.7500 </r>
       <r>     8.5487     0.0000     3.7500 </r>
       <r>     8.5895     0.0000     3.7500 </r>
       <r>     8.6303     0.0000     3.7500 </r>
       <r>     8.6711     0.0000     3.7500 </r>
       <r>     8.7119     0.0000     3.7500 </r>
       <r>     8.7527     0.0000     3.7500 </r>
       <r>     8.7935     0.0000     3.7500 </r>
       <r>     8.8343     0.0000     3.7500 </r>
       <r>     8.8751     0.0000     3.7500 </r>
       <r>     8.9159    -0.0051     3.7498 </r>
       <r>     8.9567    -0.1524     3.7436 </r>
       <r>     8.9975    -0.4822     3.7239 </r>
       <r>     9.0383     4.7852     3.9191 </r>
       <r>     9.0791    11.5351     4.3897 </r>
       <r>     9.1199     3.3455     4.5262 </r>
       <r>     9.1607    -0.5378     4.5043 </r>
       <r>     9.2015    -0.1017     4.5001 </r>
       <r>     9.2423    -0.0027     4.5000 </r>
       <r>     9.2831     0.0000     4.5000 </r>
       <r>     9.3239     0.0000     4.5000 </r>
       <r>     9.3647     0.0000     4.5000 </r>
       <r>     9.4055     0.0000     4.5000 </r>
       <r>     9.4463     0.0000     4.5000 </r>
       <r>     9.4871     0.0000     4.5000 </r>
       <r>     9.5279     0.0000     4.5000 </r>
       <r>     9.5687     0.0000     4.5000 </r>
       <r>     9.6095     0.0000     4.5000 </r>
       <r>     9.6503     0.0000     4.5000 </r>
       <r>     9.6910     0.0000     4.5000 </r>
       <r>     9.7318     0.0000     4.5000 </r>
       <r>     9.7726     0.0000     4.5000 </r>
       <r>     9.8134     0.0000     4.5000 </r>
       <r>     9.8542     0.0000     4.5000 </r>
       <r>     9.8950     0.0000     4.5000 </r>
       <r>     9.9358     0.0000     4.5000 </r>
       <r>     9.9766     0.0000     4.5000 </r>
       <r>    10.0174     0.0000     4.5000 </r>
       <r>    10.0582     0.0000     4.5000 </r>
       <r>    10.0990     0.0000     4.5000 </r>
       <r>    10.1398     0.0000     4.5000 </r>
       <r>    10.1806     0.0000     4.5000 </r>
       <r>    10.2214     0.0000     4.5000 </r>
       <r>    10.2622     0.0000     4.5000 </r>
       <r>    10.3030     0.0000     4.5000 </r>
       <r>    10.3438     0.0000     4.5000 </r>
       <r>    10.3846     0.0000     4.5000 </r>
       <r>    10.4254     0.0000     4.5000 </r>
       <r>    10.4662     0.0000     4.5000 </r>
       <r>    10.5070     0.0000     4.5000 </r>
       <r>    10.5478     0.0000     4.5000 </r>
       <r>    10.5886    -0.0002     4.5000 </r>
       <r>    10.6294    -0.0163     4.4993 </r>
       <r>    10.6702    -0.3692     4.4843 </r>
       <r>    10.7110    -0.4751     4.4649 </r>
       <r>    10.7518    10.6598     4.8998 </r>
       <r>    10.7926    18.3320     5.6477 </r>
       <r>    10.8334     3.4655     5.7890 </r>
       <r>    10.8742    -0.8471     5.7545 </r>
       <r>    10.9150    -0.1076     5.7501 </r>
       <r>    10.9558    -0.0022     5.7500 </r>
       <r>    10.9965     0.0000     5.7500 </r>
       <r>    11.0373     0.0000     5.7500 </r>
       <r>    11.0781     0.0000     5.7500 </r>
       <r>    11.1189     0.0000     5.7500 </r>
       <r>    11.1597     0.0000     5.7500 </r>
       <r>    11.2005     0.0000     5.7500 </r>
       <r>    11.2413     0.0000     5.7500 </r>
       <r>    11.2821     0.0000     5.7500 </r>
       <r>    11.3229     0.0000     5.7500 </r>
       <r>    11.3637     0.0000     5.7500 </r>
       <r>    11.4045     0.0000     5.7500 </r>
       <r>    11.4453     0.0000     5.7500 </r>
       <r>    11.4861     0.0000     5.7500 </r>
       <r>    11.5269     0.0000     5.7500 </r>
       <r>    11.5677     0.0000     5.7500 </r>
       <r>    11.6085     0.0000     5.7500 </r>
       <r>    11.6493     0.0000     5.7500 </r>
       <r>    11.6901     0.0000     5.7500 </r>
       <r>    11.7309     0.0000     5.7500 </r>
       <r>    11.7717     0.0000     5.7500 </r>
       <r>    11.8125     0.0000     5.7500 </r>
       <r>    11.8533     0.0000     5.7500 </r>
       <r>    11.8941     0.0000     5.7500 </r>
       <r>    11.9349     0.0000     5.7500 </r>
       <r>    11.9757     0.0000     5.7500 </r>
       <r>    12.0165     0.0000     5.7500 </r>
       <r>    12.0573     0.0000     5.7500 </r>
       <r>    12.0981     0.0000     5.7500 </r>
       <r>    12.1389     0.0000     5.7500 </r>
       <r>    12.1797     0.0000     5.7500 </r>
       <r>    12.2205     0.0000     5.7500 </r>
       <r>    12.2613     0.0000     5.7500 </r>
       <r>    12.3021     0.0000     5.7500 </r>
       <r>    12.3428     0.0000     5.7500 </r>
       <r>    12.3836     0.0000     5.7500 </r>
       <r>    12.4244     0.0000     5.7500 </r>
       <r>    12.4652     0.0000     5.7500 </r>
       <r>    12.5060     0.0000     5.7500 </r>
       <r>    12.5468     0.0000     5.7500 </r>
       <r>    12.5876     0.0000     5.7500 </r>
       <r>    12.6284     0.0000     5.7500 </r>
       <r>    12.6692     0.0000     5.7500 </r>
       <r>    12.7100     0.0000     5.7500 </r>
       <r>    12.7508     0.0000     5.7500 </r>
       <r>    12.7916     0.0000     5.7500 </r>
       <r>    12.8324     0.0000     5.7500 </r>
       <r>    12.8732    -0.0022     5.7499 </r>
       <r>    12.9140    -0.0591     5.7475 </r>
       <r>    12.9548    -0.1422     5.7417 </r>
       <r>    12.9956     1.8013     5.8152 </r>
       <r>    13.0364     3.7977     5.9701 </r>
       <r>    13.0772     0.9398     6.0085 </r>
       <r>    13.1180    -0.1782     6.0012 </r>
       <r>    13.1588    -0.0285     6.0000 </r>
       <r>    13.1996    -0.0007     6.0000 </r>
       <r>    13.2404     0.0000     6.0000 </r>
       <r>    13.2812     0.0000     6.0000 </r>
       <r>    13.3220     0.0000     6.0000 </r>
       <r>    13.3628     0.0000     6.0000 </r>
       <r>    13.4036     0.0000     6.0000 </r>
       <r>    13.4444     0.0000     6.0000 </r>
       <r>    13.4852     0.0000     6.0000 </r>
       <r>    13.5260     0.0000     6.0000 </r>
       <r>    13.5668     0.0000     6.0000 </r>
      </set>
     </set>
    </array>
   </total>
   <partial>
    <array>
     <dimension dim="1">gridpoints</dimension>
     <dimension dim="2">spin</dimension>
     <dimension dim="3">ion</dimension>
     <field>energy</field>
     <field>  s</field>
     <field> py</field>
     <field> pz</field>
     <field> px</field>
     <field>dxy</field>
     <field>dyz</field>
     <field>dz2</field>
     <field>dxz</field>
     <field>dx2</field>
     <set>
      <set comment="ion 1">
       <set comment="spin 1">
        <r>     1.3277     0.0000     0.0000     0.0000     0.0000     0.0000     0.0000     0.0000     0.0000     0.0000 </r>
        <r>     1.3685     0.0000     0.0000     0.0000     0.0000     0.0000     0.0000     0.0000     0.0000     0.0000 </r>
        <r>     1.4093     0.0000     0.0000     0.0000     0.0000     0.0000     0.0000     0.0000     0.0000     0.0000 </r>
        <r>     1.4501     0.0000     0.0000     0.0000     0.0000     0.0000     0.0000     0.0000     0.0000     0.0000 </r>
        <r>     1.4909     0.0000     0.0000     0.0000     0.0000     0.0000     0.0000     0.0000     0.0000     0.0000 </r>
        <r>     1.5317     0.0000     0.0000     0.0000     0.0000     0.0000     0.0000     0.0000     0.0000     0.0000 </r>
        <r>     1.5725     0.0000     0.0000     0.0000     0.0000     0.0000     0.0000     0.0000     0.0000     0.0000 </r>
        <r>     1.6133     0.0000     0.0000     0.0000     0.0000     0.0000     0.0000     0.0000     0.0000     0.0000 </r>
        <r>     1.6540     0.0000     0.0000     0.0000     0.0000     0.0000     0.0000     0.0000     0.0000     0.0000 </r>
        <r>     1.6948     0.0000     0.0000     0.0000     0.0000     0.0000     0.0000     0.0000     0.0000     0.0000 </r>
        <r>     1.7356    -0.0009    -0.0001    -0.0003    -0.0002    -0.0001    -0.0001     0.0000    -0.0002     0.0000 </r>
        <r>     1.7764    -0.0393    -0.0041    -0.0124    -0.0083    -0.0025    -0.0037    -0.0009    -0.0074    -0.0003 </r>
        <r>     1.8172    -0.2459    -0.0259    -0.0776    -0.0517    -0.0154    -0.0231    -0.0058    -0.0462    -0.0019 </r>
        <r>     1.8580     1.2966     0.1364     0.4092     0.2728     0.0812     0.1219     0.0305     0.2437     0.0102 </r>
        <r>     1.8988     5.2392     0.5512     1.6537     1.1025     0.3283     0.4924     0.1231     0.9848     0.0410 </r>
        <r>     1.9396     2.4851     0.2615     0.7844     0.5229     0.1557     0.2336     0.0584     0.4671     0.0195 </r>
        <r>     1.9804    -0.1962    -0.0206    -0.0619    -0.0413    -0.0123    -0.0184    -0.0046    -0.0369    -0.0015 </r>
        <r>     2.0212    -0.0815    -0.0086    -0.0257    -0.0171    -0.0051    -0.0077    -0.0019    -0.0153    -0.0006 </r>
        <r>     2.0620    -0.0030    -0.0003    -0.0010    -0.0006    -0.0002    -0.0003    -0.0001    -0.0006     0.0000 </r>
        <r>     2.1028     0.0000     0.0000     0.0000     0.0000     0.0000     0.0000     0.0000     0.0000     0.0000 </r>
        <r>     2.1436     0.0000     0.0000     0.0000     0.0000     0.0000     0.0000     0.0000     0.0000     0.0000 </r>
        <r>     2.1844     0.0000     0.0000     0.0000     0.0000     0.0000     0.0000     0.0000     0.0000     0.0000 </r>
        <r>     2.2252     0.0000     0.0000     0.0000     0.0000     0.0000     0.0000     0.0000     0.0000     0.0000 </r>
        <r>     2.2660     0.0000     0.0000     0.0000     0.0000     0.0000     0.0000     0.0000     0.0000     0.0000 </r>
        <r>     2.3068     0.0000     0.0000     0.0000     0.0000     0.0000     0.0000     0.0000     0.0000     0.0000 </r>
        <r>     2.3476     0.0000     0.0000     0.0000     0.0000     0.0000     0.0000     0.0000     0.0000     0.0000 </r>
        <r>     2.3884     0.0000     0.0000     0.0000     0.0000     0.0000     0.0000     0.0000     0.0000     0.0000 </r>
        <r>     2.4292     0.0000     0.0000     0.0000     0.0000     0.0000     0.0000     0.0000     0.0000     0.0000 </r>
        <r>     2.4700     0.0000     0.0000     0.0000     0.0000     0.0000     0.0000     0.0000     0.0000     0.0000 </r>
        <r>     2.5108     0.0000     0.0000     0.0000     0.0000     0.0000     0.0000     0.0000     0.0000     0.0000 </r>
        <r>     2.5516     0.0000     0.0000     0.0000     0.0000     0.0000     0.0000     0.0000     0.0000     0.0000 </r>
        <r>     2.5924     0.0000     0.0000     0.0000     0.0000     0.0000     0.0000     0.0000     0.0000     0.0000 </r>
        <r>     2.6332     0.0000     0.0000     0.0000     0.0000     0.0000     0.0000     0.0000     0.0000     0.0000 </r>
        <r>     2.6740     0.0000     0.0000     0.0000     0.0000     0.0000     0.0000     0.0000     0.0000     0.0000 </r>
        <r>     2.7148     0.0000     0.0000     0.0000     0.0000     0.0000     0.0000     0.0000     0.0000     0.0000 </r>
        <r>     2.7556     0.0000     0.0000     0.0000     0.0000     0.0000     0.0000     0.0000     0.0000     0.0000 </r>
        <r>     2.7964     0.0000     0.0000     0.0000     0.0000     0.0000     0.0000     0.0000     0.0000     0.0000 </r>
        <r>     2.8372     0.0000     0.0000     0.0000     0.0000     0.0000     0.0000     0.0000     0.0000     0.0000 </r>
        <r>     2.8780     0.0000     0.0000     0.0000     0.0000     0.0000     0.0000     0.0000     0.0000     0.0000 </r>
        <r>     2.9188     0.0000     0.0000     0.0000     0.0000     0.0000     0.0000     0.0000     0.0000     0.0000 </r>
        <r>     2.9596     0.0000     0.0000     0.0000     0.0000     0.0000     0.0000     0.0000     0.0000     0.0000 </r>
        <r>     3.0003     0.0000     0.0000     0.0000     0.0000     0.0000     0.0000     0.0000     0.0000     0.0000 </r>
        <r>     3.0411     0.0000     0.0000     0.0000     0.0000     0.0000     0.0000     0.0000     0.0000     0.0000 </r>
        <r>     3.0819     0.0000     0.0000     0.0000     0.0000     0.0000     0.0000     0.0000     0.0000     0.0000 </r>
        <r>     3.1227     0.0000     0.0000     0.0000     0.0000     0.0000     0.0000     0.0000     0.0000     0.0000 </r>
        <r>     3.1635     0.0000     0.0000     0.0000     0.0000     0.0000     0.0000     0.0000     0.0000     0.0000 </r>
        <r>     3.2043     0.0000     0.0000     0.0000     0.0000     0.0000     0.0000     0.0000     0.0000     0.0000 </r>
        <r>     3.2451     0.0000     0.0000     0.0000     0.0000     0.0000     0.0000     0.0000     0.0000     0.0000 </r>
        <r>     3.2859     0.0000     0.0000     0.0000     0.0000     0.0000     0.0000     0.0000     0.0000     0.0000 </r>
        <r>     3.3267     0.0000     0.0000     0.0000     0.0000     0.0000     0.0000     0.0000     0.0000     0.0000 </r>
        <r>     3.3675     0.0000     0.0000     0.0000     0.0000     0.0000     0.0000     0.0000     0.0000     0.0000 </r>
        <r>     3.4083     0.0000     0.0000     0.0000     0.0000     0.0000     0.0000     0.0000     0.0000     0.0000 </r>
        <r>     3.4491     0.0000     0.0000     0.0000     0.0000     0.0000     0.0000     0.0000     0.0000     0.0000 </r>
        <r>     3.4899     0.0000     0.0000     0.0000     0.0000     0.0000     0.0000     0.0000     0.0000     0.0000 </r>
        <r>     3.5307     0.0000     0.0000     0.0000     0.0000     0.0000     0.0000     0.0000     0.0000     0.0000 </r>
        <r>     3.5715     0.0000     0.0000     0.0000     0.0000     0.0000     0.0000     0.0000     0.0000     0.0000 </r>
        <r>     3.6123     0.0000     0.0000     0.0000     0.0000     0.0000     0.0000     0.0000     0.0000     0.0000 </r>
        <r>     3.6531     0.0000     0.0000     0.0000     0.0000     0.0000     0.0000     0.0000     0.0000     0.0000 </r>
        <r>     3.6939     0.0000     0.0000     0.0000     0.0000     0.0000     0.0000     0.0000     0.0000     0.0000 </r>
        <r>     3.7347     0.0000     0.0000     0.0000     0.0000     0.0000     0.0000     0.0000     0.0000     0.0000 </r>
        <r>     3.7755     0.0000     0.0000     0.0000     0.0000     0.0000     0.0000     0.0000     0.0000     0.0000 </r>
        <r>     3.8163     0.0000     0.0000     0.0000     0.0000     0.0000     0.0000     0.0000     0.0000     0.0000 </r>
        <r>     3.8571     0.0000     0.0000     0.0000     0.0000     0.0000     0.0000     0.0000     0.0000     0.0000 </r>
        <r>     3.8979     0.0000     0.0000     0.0000     0.0000     0.0000     0.0000     0.0000     0.0000     0.0000 </r>
        <r>     3.9387     0.0000     0.0000     0.0000     0.0000     0.0000     0.0000     0.0000     0.0000     0.0000 </r>
        <r>     3.9795     0.0000     0.0000     0.0000     0.0000     0.0000     0.0000     0.0000     0.0000     0.0000 </r>
        <r>     4.0203     0.0000     0.0000     0.0000     0.0000     0.0000     0.0000     0.0000     0.0000     0.0000 </r>
        <r>     4.0611     0.0000     0.0000     0.0000     0.0000     0.0000     0.0000     0.0000     0.0000     0.0000 </r>
        <r>     4.1019     0.0000    -0.0001    -0.0001    -0.0001    -0.0001    -0.0001    -0.0002    -0.0001    -0.0002 </r>
        <r>     4.1427     0.0000    -0.0048    -0.0048    -0.0048    -0.0039    -0.0078    -0.0088    -0.0039    -0.0108 </r>
        <r>     4.1835     0.0000    -0.0458    -0.0458    -0.0458    -0.0371    -0.0741    -0.0834    -0.0371    -0.1019 </r>
        <r>     4.2243     0.0000     0.1477     0.1477     0.1477     0.1196     0.2392     0.2691     0.1196     0.3289 </r>
        <r>     4.2651     0.0000     1.0156     1.0155     1.0156     0.8225     1.6450     1.8507     0.8225     2.2619 </r>
        <r>     4.3058     0.0000     0.6911     0.6912     0.6911     0.5598     1.1196     1.2595     0.5598     1.5393 </r>
        <r>     4.3466     0.0000    -0.0125    -0.0125    -0.0125    -0.0101    -0.0203    -0.0228    -0.0101    -0.0279 </r>
        <r>     4.3874     0.0000    -0.0250    -0.0250    -0.0250    -0.0203    -0.0405    -0.0456    -0.0203    -0.0557 </r>
        <r>     4.4282     0.0000    -0.0013    -0.0013    -0.0013    -0.0010    -0.0020    -0.0023    -0.0010    -0.0028 </r>
        <r>     4.4690     0.0000     0.0000     0.0000     0.0000     0.0000     0.0000     0.0000     0.0000     0.0000 </r>
        <r>     4.5098     0.0000     0.0000     0.0000     0.0000     0.0000     0.0000     0.0000     0.0000     0.0000 </r>
        <r>     4.5506     0.0000     0.0000     0.0000     0.0000     0.0000     0.0000     0.0000     0.0000     0.0000 </r>
        <r>     4.5914     0.0000     0.0000     0.0000     0.0000    -0.0031    -0.0005    -0.0012    -0.0010    -0.0004 </r>
        <r>     4.6322     0.0000     0.0000     0.0000     0.0000    -0.0804    -0.0134    -0.0302    -0.0268    -0.0101 </r>
        <r>     4.6730     0.0000     0.0000     0.0000     0.0000    -0.1673    -0.0279    -0.0627    -0.0558    -0.0209 </r>
        <r>     4.7138     0.0000     0.0000     0.0000     0.0000     2.4178     0.4030     0.9067     0.8059     0.3022 </r>
        <r>     4.7546     0.0000     0.0000     0.0000     0.0000     4.8022     0.8004     1.8008     1.6007     0.6003 </r>
        <r>     4.7954     0.0000     0.0000     0.0000     0.0000     1.1013     0.1836     0.4130     0.3671     0.1377 </r>
        <r>     4.8362     0.0000     0.0000     0.0000     0.0000    -0.2251    -0.0375    -0.0844    -0.0750    -0.0281 </r>
        <r>     4.8770     0.0000     0.0000     0.0000     0.0000    -0.0335    -0.0056    -0.0126    -0.0112    -0.0042 </r>
        <r>     4.9178     0.0000     0.0000     0.0000     0.0000    -0.0008    -0.0001    -0.0003    -0.0003    -0.0001 </r>
        <r>     4.9586     0.0000     0.0000     0.0000     0.0000     0.0000     0.0000     0.0000     0.0000     0.0000 </r>
        <r>     4.9994     0.0000     0.0000     0.0000     0.0000     0.0000     0.0000     0.0000     0.0000     0.0000 </r>
        <r>     5.0402     0.0000     0.0000     0.0000     0.0000     0.0000     0.0000     0.0000     0.0000     0.0000 </r>
        <r>     5.0810     0.0000     0.0000     0.0000     0.0000     0.0000     0.0000     0.0000     0.0000     0.0000 </r>
        <r>     5.1218     0.0000     0.0000     0.0000     0.0000     0.0000     0.0000     0.0000     0.0000     0.0000 </r>
        <r>     5.1626     0.0000     0.0000     0.0000     0.0000     0.0000     0.0000     0.0000     0.0000     0.0000 </r>
        <r>     5.2034     0.0000     0.0000     0.0000     0.0000     0.0000     0.0000     0.0000     0.0000     0.0000 </r>
        <r>     5.2442     0.0000     0.0000     0.0000     0.0000     0.0000     0.0000     0.0000     0.0000     0.0000 </r>
        <r>     5.2850     0.0000     0.0000     0.0000     0.0000     0.0000     0.0000     0.0000     0.0000     0.0000 </r>
        <r>     5.3258     0.0000     0.0000     0.0000     0.0000     0.0000     0.0000     0.0000     0.0000     0.0000 </r>
        <r>     5.3666     0.0000     0.0000     0.0000     0.0000     0.0000     0.0000     0.0000     0.0000     0.0000 </r>
        <r>     5.4074     0.0000     0.0000     0.0000     0.0000     0.0000     0.0000     0.0000     0.0000     0.0000 </r>
        <r>     5.4482     0.0000     0.0000     0.0000     0.0000     0.0000     0.0000     0.0000     0.0000     0.0000 </r>
        <r>     5.4890     0.0000     0.0000     0.0000     0.0000     0.0000     0.0000     0.0000     0.0000     0.0000 </r>
        <r>     5.5298     0.0000     0.0000     0.0000     0.0000     0.0000     0.0000     0.0000     0.0000     0.0000 </r>
        <r>     5.5706     0.0000     0.0000     0.0000     0.0000     0.0000     0.0000     0.0000     0.0000     0.0000 </r>
        <r>     5.6114     0.0000     0.0000     0.0000     0.0000     0.0000     0.0000     0.0000     0.0000     0.0000 </r>
        <r>     5.6521     0.0000     0.0000     0.0000     0.0000     0.0000     0.0000     0.0000     0.0000     0.0000 </r>
        <r>     5.6929     0.0000     0.0000     0.0000     0.0000     0.0000     0.0000     0.0000     0.0000     0.0000 </r>
        <r>     5.7337     0.0000     0.0000     0.0000     0.0000     0.0000     0.0000     0.0000     0.0000     0.0000 </r>
        <r>     5.7745     0.0000     0.0000     0.0000     0.0000     0.0000     0.0000     0.0000     0.0000     0.0000 </r>
        <r>     5.8153     0.0000     0.0000     0.0000     0.0000     0.0000     0.0000     0.0000     0.0000     0.0000 </r>
        <r>     5.8561     0.0000     0.0000     0.0000     0.0000     0.0000     0.0000     0.0000     0.0000     0.0000 </r>
        <r>     5.8969     0.0000     0.0000     0.0000     0.0000     0.0000     0.0000     0.0000     0.0000     0.0000 </r>
        <r>     5.9377     0.0000     0.0000     0.0000     0.0000     0.0000     0.0000     0.0000     0.0000     0.0000 </r>
        <r>     5.9785     0.0000     0.0000     0.0000     0.0000     0.0000     0.0000     0.0000     0.0000     0.0000 </r>
        <r>     6.0193     0.0000     0.0000     0.0000     0.0000     0.0000     0.0000     0.0000     0.0000     0.0000 </r>
        <r>     6.0601     0.0000     0.0000     0.0000     0.0000     0.0000     0.0000     0.0000     0.0000     0.0000 </r>
        <r>     6.1009     0.0000     0.0000     0.0000     0.0000     0.0000     0.0000     0.0000     0.0000     0.0000 </r>
        <r>     6.1417     0.0000     0.0000     0.0000     0.0000     0.0000     0.0000     0.0000     0.0000     0.0000 </r>
        <r>     6.1825     0.0000     0.0000     0.0000     0.0000     0.0000     0.0000     0.0000     0.0000     0.0000 </r>
        <r>     6.2233     0.0000     0.0000     0.0000     0.0000     0.0000     0.0000     0.0000     0.0000     0.0000 </r>
        <r>     6.2641     0.0000     0.0000     0.0000     0.0000     0.0000     0.0000     0.0000     0.0000     0.0000 </r>
        <r>     6.3049     0.0000     0.0000     0.0000     0.0000     0.0000     0.0000     0.0000     0.0000     0.0000 </r>
        <r>     6.3457     0.0000     0.0000     0.0000     0.0000     0.0000     0.0000     0.0000     0.0000     0.0000 </r>
        <r>     6.3865     0.0000     0.0000     0.0000     0.0000     0.0000     0.0000     0.0000     0.0000     0.0000 </r>
        <r>     6.4273     0.0000     0.0000     0.0000     0.0000     0.0000     0.0000     0.0000     0.0000     0.0000 </r>
        <r>     6.4681     0.0000     0.0000     0.0000     0.0000     0.0000     0.0000     0.0000     0.0000     0.0000 </r>
        <r>     6.5089     0.0000    -0.0002    -0.0001    -0.0002    -0.0005    -0.0006    -0.0013    -0.0003    -0.0008 </r>
        <r>     6.5497     0.0000    -0.0080    -0.0048    -0.0064    -0.0200    -0.0240    -0.0540    -0.0120    -0.0340 </r>
        <r>     6.5905     0.0000    -0.0512    -0.0307    -0.0409    -0.1275    -0.1531    -0.3444    -0.0765    -0.2168 </r>
        <r>     6.6313     0.0000     0.2646     0.1588     0.2117     0.6595     0.7914     1.7807     0.3957     1.1212 </r>
        <r>     6.6721     0.0000     1.0904     0.6542     0.8723     2.7178     3.2614     7.3382     1.6307     4.6203 </r>
        <r>     6.7129     0.0000     0.5254     0.3152     0.4203     1.3095     1.5714     3.5356     0.7857     2.2262 </r>
        <r>     6.7537     0.0000    -0.0401    -0.0241    -0.0321    -0.1001    -0.1201    -0.2702    -0.0600    -0.1701 </r>
        <r>     6.7945     0.0000    -0.0173    -0.0104    -0.0138    -0.0431    -0.0517    -0.1164    -0.0259    -0.0733 </r>
        <r>     6.8353     0.0000    -0.0007    -0.0004    -0.0005    -0.0016    -0.0020    -0.0044    -0.0010    -0.0028 </r>
        <r>     6.8761     0.0000     0.0000     0.0000     0.0000     0.0000     0.0000     0.0000     0.0000     0.0000 </r>
        <r>     6.9169     0.0000     0.0000     0.0000     0.0000     0.0000     0.0000     0.0000     0.0000     0.0000 </r>
        <r>     6.9577     0.0000     0.0000     0.0000     0.0000     0.0000     0.0000     0.0000     0.0000     0.0000 </r>
        <r>     6.9984     0.0000     0.0000     0.0000     0.0000     0.0000     0.0000     0.0000     0.0000     0.0000 </r>
[...]
        <r>     8.5895     0.0000     0.0000     0.0000     0.0000     0.0000     0.0000     0.0000     0.0000     0.0000 </r>
        <r>     8.6303     0.0000     0.0000     0.0000     0.0000     0.0000     0.0000     0.0000     0.0000     0.0000 </r>
        <r>     8.6711     0.0000     0.0000     0.0000     0.0000     0.0000     0.0000     0.0000     0.0000     0.0000 </r>
        <r>     8.7119     0.0000     0.0000     0.0000     0.0000     0.0000     0.0000     0.0000     0.0000     0.0000 </r>
        <r>     8.7527     0.0000     0.0000     0.0000     0.0000     0.0000     0.0000     0.0000     0.0000     0.0000 </r>
        <r>     8.7935     0.0000     0.0000     0.0000     0.0000     0.0000     0.0000     0.0000     0.0000     0.0000 </r>
        <r>     8.8343     0.0000     0.0000     0.0000     0.0000     0.0000     0.0000     0.0000     0.0000     0.0000 </r>
        <r>     8.8751     0.0000     0.0000     0.0000     0.0000     0.0000     0.0000     0.0000     0.0000     0.0000 </r>
        <r>     8.9159     0.0000     0.0000     0.0000     0.0000    -0.0003    -0.0017     0.0000    -0.0008    -0.0022 </r>
        <r>     8.9567     0.0000     0.0000     0.0000     0.0000    -0.0082    -0.0491     0.0000    -0.0246    -0.0655 </r>
        <r>     8.9975     0.0000     0.0000     0.0000     0.0000    -0.0259    -0.1554     0.0000    -0.0777    -0.2071 </r>
        <r>     9.0383     0.0000     0.0000     0.0000     0.0000     0.2569     1.5417     0.0000     0.7708     2.0556 </r>
        <r>     9.0791     0.0000     0.0000     0.0000     0.0000     0.6194     3.7163     0.0000     1.8582     4.9551 </r>
        <r>     9.1199     0.0000     0.0000     0.0000     0.0000     0.1796     1.0778     0.0000     0.5389     1.4371 </r>
        <r>     9.1607     0.0000     0.0000     0.0000     0.0000    -0.0289    -0.1733     0.0000    -0.0866    -0.2310 </r>
        <r>     9.2015     0.0000     0.0000     0.0000     0.0000    -0.0055    -0.0328     0.0000    -0.0164    -0.0437 </r>
        <r>     9.2423     0.0000     0.0000     0.0000     0.0000    -0.0001    -0.0009     0.0000    -0.0004    -0.0012 </r>
        <r>     9.2831     0.0000     0.0000     0.0000     0.0000     0.0000     0.0000     0.0000     0.0000     0.0000 </r>
        <r>     9.3239     0.0000     0.0000     0.0000     0.0000     0.0000     0.0000     0.0000     0.0000     0.0000 </r>
        <r>     9.3647     0.0000     0.0000     0.0000     0.0000     0.0000     0.0000     0.0000     0.0000     0.0000 </r>
        <r>     9.4055     0.0000     0.0000     0.0000     0.0000     0.0000     0.0000     0.0000     0.0000     0.0000 </r>
        <r>     9.4463     0.0000     0.0000     0.0000     0.0000     0.0000     0.0000     0.0000     0.0000     0.0000 </r>
        <r>     9.4871     0.0000     0.0000     0.0000     0.0000     0.0000     0.0000     0.0000     0.0000     0.0000 </r>
        <r>     9.5279     0.0000     0.0000     0.0000     0.0000     0.0000     0.0000     0.0000     0.0000     0.0000 </r>
        <r>     9.5687     0.0000     0.0000     0.0000     0.0000     0.0000     0.0000     0.0000     0.0000     0.0000 </r>
        <r>     9.6095     0.0000     0.0000     0.0000     0.0000     0.0000     0.0000     0.0000     0.0000     0.0000 </r>
        <r>     9.6503     0.0000     0.0000     0.0000     0.0000     0.0000     0.0000     0.0000     0.0000     0.0000 </r>
        <r>     9.6910     0.0000     0.0000     0.0000     0.0000     0.0000     0.0000     0.0000     0.0000     0.0000 </r>
        <r>     9.7318     0.0000     0.0000     0.0000     0.0000     0.0000     0.0000     0.0000     0.0000     0.0000 </r>
        <r>     9.7726     0.0000     0.0000     0.0000     0.0000     0.0000     0.0000     0.0000     0.0000     0.0000 </r>
        <r>     9.8134     0.0000     0.0000     0.0000     0.0000     0.0000     0.0000     0.0000     0.0000     0.0000 </r>
        <r>     9.8542     0.0000     0.0000     0.0000     0.0000     0.0000     0.0000     0.0000     0.0000     0.0000 </r>
        <r>     9.8950     0.0000     0.0000     0.0000     0.0000     0.0000     0.0000     0.0000     0.0000     0.0000 </r>
        <r>     9.9358     0.0000     0.0000     0.0000     0.0000     0.0000     0.0000     0.0000     0.0000     0.0000 </r>
        <r>     9.9766     0.0000     0.0000     0.0000     0.0000     0.0000     0.0000     0.0000     0.0000     0.0000 </r>
        <r>    10.0174     0.0000     0.0000     0.0000     0.0000     0.0000     0.0000     0.0000     0.0000     0.0000 </r>
        <r>    10.0582     0.0000     0.0000     0.0000     0.0000     0.0000     0.0000     0.0000     0.0000     0.0000 </r>
        <r>    10.0990     0.0000     0.0000     0.0000     0.0000     0.0000     0.0000     0.0000     0.0000     0.0000 </r>
        <r>    10.1398     0.0000     0.0000     0.0000     0.0000     0.0000     0.0000     0.0000     0.0000     0.0000 </r>
        <r>    10.1806     0.0000     0.0000     0.0000     0.0000     0.0000     0.0000     0.0000     0.0000     0.0000 </r>
        <r>    10.2214     0.0000     0.0000     0.0000     0.0000     0.0000     0.0000     0.0000     0.0000     0.0000 </r>
        <r>    10.2622     0.0000     0.0000     0.0000     0.0000     0.0000     0.0000     0.0000     0.0000     0.0000 </r>
        <r>    10.3030     0.0000     0.0000     0.0000     0.0000     0.0000     0.0000     0.0000     0.0000     0.0000 </r>
        <r>    10.3438     0.0000     0.0000     0.0000     0.0000     0.0000     0.0000     0.0000     0.0000     0.0000 </r>
        <r>    10.3846     0.0000     0.0000     0.0000     0.0000     0.0000     0.0000     0.0000     0.0000     0.0000 </r>
        <r>    10.4254     0.0000     0.0000     0.0000     0.0000     0.0000     0.0000     0.0000     0.0000     0.0000 </r>
        <r>    10.4662     0.0000     0.0000     0.0000     0.0000     0.0000     0.0000     0.0000     0.0000     0.0000 </r>
        <r>    10.5070     0.0000     0.0000     0.0000     0.0000     0.0000     0.0000     0.0000     0.0000     0.0000 </r>
        <r>    10.5478     0.0000     0.0000     0.0000     0.0000     0.0000     0.0000     0.0000     0.0000     0.0000 </r>
        <r>    10.5886     0.0000     0.0000     0.0000     0.0000     0.0000     0.0000     0.0000    -0.0001     0.0000 </r>
        <r>    10.6294    -0.0020    -0.0001    -0.0002    -0.0001    -0.0032    -0.0030    -0.0012    -0.0060    -0.0004 </r>
        <r>    10.6702    -0.0431    -0.0012    -0.0036    -0.0024    -0.0745    -0.0680    -0.0280    -0.1360    -0.0093 </r>
        <r>    10.7110    -0.0419    -0.0012    -0.0035    -0.0023    -0.1111    -0.0854    -0.0416    -0.1708    -0.0139 </r>
        <r>    10.7518     1.2246     0.0340     0.1021     0.0681     2.1758     1.9603     0.8159     3.9206     0.2720 </r>
        <r>    10.7926     1.9737     0.0549     0.1646     0.1097     3.8887     3.3504     1.4582     6.7008     0.4861 </r>
        <r>    10.8334     0.3351     0.0093     0.0280     0.0186     0.7773     0.6274     0.2915     1.2548     0.0972 </r>
        <r>    10.8742    -0.0905    -0.0025    -0.0075    -0.0050    -0.1805    -0.1547    -0.0677    -0.3094    -0.0226 </r>
        <r>    10.9150    -0.0106    -0.0003    -0.0009    -0.0006    -0.0240    -0.0195    -0.0090    -0.0390    -0.0030 </r>
        <r>    10.9558    -0.0002     0.0000     0.0000     0.0000    -0.0005    -0.0004    -0.0002    -0.0008    -0.0001 </r>
        <r>    10.9965     0.0000     0.0000     0.0000     0.0000     0.0000     0.0000     0.0000     0.0000     0.0000 </r>
        <r>    11.0373     0.0000     0.0000     0.0000     0.0000     0.0000     0.0000     0.0000     0.0000     0.0000 </r>
        <r>    11.0781     0.0000     0.0000     0.0000     0.0000     0.0000     0.0000     0.0000     0.0000     0.0000 </r>
        <r>    11.1189     0.0000     0.0000     0.0000     0.0000     0.0000     0.0000     0.0000     0.0000     0.0000 </r>
        <r>    11.1597     0.0000     0.0000     0.0000     0.0000     0.0000     0.0000     0.0000     0.0000     0.0000 </r>
        <r>    11.2005     0.0000     0.0000     0.0000     0.0000     0.0000     0.0000     0.0000     0.0000     0.0000 </r>
        <r>    11.2413     0.0000     0.0000     0.0000     0.0000     0.0000     0.0000     0.0000     0.0000     0.0000 </r>
        <r>    11.2821     0.0000     0.0000     0.0000     0.0000     0.0000     0.0000     0.0000     0.0000     0.0000 </r>
        <r>    11.3229     0.0000     0.0000     0.0000     0.0000     0.0000     0.0000     0.0000     0.0000     0.0000 </r>
        <r>    11.3637     0.0000     0.0000     0.0000     0.0000     0.0000     0.0000     0.0000     0.0000     0.0000 </r>
        <r>    11.4045     0.0000     0.0000     0.0000     0.0000     0.0000     0.0000     0.0000     0.0000     0.0000 </r>
        <r>    11.4453     0.0000     0.0000     0.0000     0.0000     0.0000     0.0000     0.0000     0.0000     0.0000 </r>
        <r>    11.4861     0.0000     0.0000     0.0000     0.0000     0.0000     0.0000     0.0000     0.0000     0.0000 </r>
        <r>    11.5269     0.0000     0.0000     0.0000     0.0000     0.0000     0.0000     0.0000     0.0000     0.0000 </r>
        <r>    11.5677     0.0000     0.0000     0.0000     0.0000     0.0000     0.0000     0.0000     0.0000     0.0000 </r>
        <r>    11.6085     0.0000     0.0000     0.0000     0.0000     0.0000     0.0000     0.0000     0.0000     0.0000 </r>
        <r>    11.6493     0.0000     0.0000     0.0000     0.0000     0.0000     0.0000     0.0000     0.0000     0.0000 </r>
        <r>    11.6901     0.0000     0.0000     0.0000     0.0000     0.0000     0.0000     0.0000     0.0000     0.0000 </r>
        <r>    11.7309     0.0000     0.0000     0.0000     0.0000     0.0000     0.0000     0.0000     0.0000     0.0000 </r>
        <r>    11.7717     0.0000     0.0000     0.0000     0.0000     0.0000     0.0000     0.0000     0.0000     0.0000 </r>
        <r>    11.8125     0.0000     0.0000     0.0000     0.0000     0.0000     0.0000     0.0000     0.0000     0.0000 </r>
        <r>    11.8533     0.0000     0.0000     0.0000     0.0000     0.0000     0.0000     0.0000     0.0000     0.0000 </r>
        <r>    11.8941     0.0000     0.0000     0.0000     0.0000     0.0000     0.0000     0.0000     0.0000     0.0000 </r>
        <r>    11.9349     0.0000     0.0000     0.0000     0.0000     0.0000     0.0000     0.0000     0.0000     0.0000 </r>
        <r>    11.9757     0.0000     0.0000     0.0000     0.0000     0.0000     0.0000     0.0000     0.0000     0.0000 </r>
        <r>    12.0165     0.0000     0.0000     0.0000     0.0000     0.0000     0.0000     0.0000     0.0000     0.0000 </r>
        <r>    12.0573     0.0000     0.0000     0.0000     0.0000     0.0000     0.0000     0.0000     0.0000     0.0000 </r>
        <r>    12.0981     0.0000     0.0000     0.0000     0.0000     0.0000     0.0000     0.0000     0.0000     0.0000 </r>
        <r>    12.1389     0.0000     0.0000     0.0000     0.0000     0.0000     0.0000     0.0000     0.0000     0.0000 </r>
        <r>    12.1797     0.0000     0.0000     0.0000     0.0000     0.0000     0.0000     0.0000     0.0000     0.0000 </r>
        <r>    12.2205     0.0000     0.0000     0.0000     0.0000     0.0000     0.0000     0.0000     0.0000     0.0000 </r>
        <r>    12.2613     0.0000     0.0000     0.0000     0.0000     0.0000     0.0000     0.0000     0.0000     0.0000 </r>
        <r>    12.3021     0.0000     0.0000     0.0000     0.0000     0.0000     0.0000     0.0000     0.0000     0.0000 </r>
        <r>    12.3428     0.0000     0.0000     0.0000     0.0000     0.0000     0.0000     0.0000     0.0000     0.0000 </r>
        <r>    12.3836     0.0000     0.0000     0.0000     0.0000     0.0000     0.0000     0.0000     0.0000     0.0000 </r>
        <r>    12.4244     0.0000     0.0000     0.0000     0.0000     0.0000     0.0000     0.0000     0.0000     0.0000 </r>
        <r>    12.4652     0.0000     0.0000     0.0000     0.0000     0.0000     0.0000     0.0000     0.0000     0.0000 </r>
        <r>    12.5060     0.0000     0.0000     0.0000     0.0000     0.0000     0.0000     0.0000     0.0000     0.0000 </r>
        <r>    12.5468     0.0000     0.0000     0.0000     0.0000     0.0000     0.0000     0.0000     0.0000     0.0000 </r>
        <r>    12.5876     0.0000     0.0000     0.0000     0.0000     0.0000     0.0000     0.0000     0.0000     0.0000 </r>
        <r>    12.6284     0.0000     0.0000     0.0000     0.0000     0.0000     0.0000     0.0000     0.0000     0.0000 </r>
        <r>    12.6692     0.0000     0.0000     0.0000     0.0000     0.0000     0.0000     0.0000     0.0000     0.0000 </r>
        <r>    12.7100     0.0000     0.0000     0.0000     0.0000     0.0000     0.0000     0.0000     0.0000     0.0000 </r>
        <r>    12.7508     0.0000     0.0000     0.0000     0.0000     0.0000     0.0000     0.0000     0.0000     0.0000 </r>
        <r>    12.7916     0.0000     0.0000     0.0000     0.0000     0.0000     0.0000     0.0000     0.0000     0.0000 </r>
        <r>    12.8324     0.0000     0.0000     0.0000     0.0000     0.0000     0.0000     0.0000     0.0000     0.0000 </r>
        <r>    12.8732    -0.0022     0.0000     0.0000     0.0000     0.0000     0.0000     0.0000     0.0000     0.0000 </r>
        <r>    12.9140    -0.0577     0.0000     0.0000     0.0000     0.0000     0.0000     0.0000     0.0000     0.0000 </r>
        <r>    12.9548    -0.1389     0.0000     0.0000     0.0000     0.0000     0.0000     0.0000     0.0000     0.0000 </r>
        <r>    12.9956     1.7588     0.0000     0.0000     0.0000     0.0000     0.0000     0.0000     0.0000     0.0000 </r>
        <r>    13.0364     3.7080     0.0000     0.0000     0.0000     0.0000     0.0000     0.0000     0.0000     0.0000 </r>
        <r>    13.0772     0.9176     0.0000     0.0000     0.0000     0.0000     0.0000     0.0000     0.0000     0.0000 </r>
        <r>    13.1180    -0.1740     0.0000     0.0000     0.0000     0.0000     0.0000     0.0000     0.0000     0.0000 </r>
        <r>    13.1588    -0.0278     0.0000     0.0000     0.0000     0.0000     0.0000     0.0000     0.0000     0.0000 </r>
        <r>    13.1996    -0.0007     0.0000     0.0000     0.0000     0.0000     0.0000     0.0000     0.0000     0.0000 </r>
        <r>    13.2404     0.0000     0.0000     0.0000     0.0000     0.0000     0.0000     0.0000     0.0000     0.0000 </r>
        <r>    13.2812     0.0000     0.0000     0.0000     0.0000     0.0000     0.0000     0.0000     0.0000     0.0000 </r>
        <r>    13.3220     0.0000     0.0000     0.0000     0.0000     0.0000     0.0000     0.0000     0.0000     0.0000 </r>
        <r>    13.3628     0.0000     0.0000     0.0000     0.0000     0.0000     0.0000     0.0000     0.0000     0.0000 </r>
        <r>    13.4036     0.0000     0.0000     0.0000     0.0000     0.0000     0.0000     0.0000     0.0000     0.0000 </r>
        <r>    13.4444     0.0000     0.0000     0.0000     0.0000     0.0000     0.0000     0.0000     0.0000     0.0000 </r>
        <r>    13.4852     0.0000     0.0000     0.0000     0.0000     0.0000     0.0000     0.0000     0.0000     0.0000 </r>
        <r>    13.5260     0.0000     0.0000     0.0000     0.0000     0.0000     0.0000     0.0000     0.0000     0.0000 </r>
        <r>    13.5668     0.0000     0.0000     0.0000     0.0000     0.0000     0.0000     0.0000     0.0000     0.0000 </r>
       </set>
      </set>
     </set>
    </array>
   </partial>
  </dos>
  <projected>
   <eigenvalues>
    <array>
     <dimension dim="1">band</dimension>
     <dimension dim="2">kpoint</dimension>
     <dimension dim="3">spin</dimension>
     <field>eigene</field>
     <field>occ</field>
     <set>
      <set comment="spin 1">
       <set comment="kpoint 1">
        <r>    4.2572    1.0000 </r>
        <r>    4.2572    1.0000 </r>
        <r>    4.2572    1.0000 </r>
        <r>   10.6088    0.0000 </r>
        <r>   10.6088    0.0000 </r>
        <r>   12.4920    0.0000 </r>
       </set>
       <set comment="kpoint 2">
        <r>    1.8840    1.0000 </r>
        <r>    4.7275    1.0000 </r>
        <r>    6.6575    0.3333 </r>
        <r>    6.6575    0.3333 </r>
        <r>    8.5432    0.0000 </r>
        <r>   10.5329    0.0000 </r>
       </set>
      </set>
      <set comment="spin 2">
       <set comment="kpoint 1">
        <r>    4.6613    1.0000 </r>
        <r>    4.6613    1.0000 </r>
        <r>    4.6613    1.0000 </r>
        <r>   10.7647    0.0000 </r>
        <r>   10.7647    0.0000 </r>
        <r>   13.0104    0.0000 </r>
       </set>
       <set comment="kpoint 2">
        <r>    2.1437    1.0000 </r>
        <r>    4.8590    1.0000 </r>
        <r>    7.1467    0.0000 </r>
        <r>    7.1467    0.0000 </r>
        <r>    9.0556    0.0000 </r>
        <r>   10.7614    0.0000 </r>
       </set>
      </set>
     </set>
    </array>
   </eigenvalues>
   <array>
    <dimension dim="1">ion</dimension>
    <dimension dim="2">band</dimension>
    <dimension dim="3">kpoint</dimension>
    <dimension dim="4">spin</dimension>
    <field>  s</field>
    <set>
     <set comment="spin1">
      <set comment="kpoint 1">
       <set comment="band 1">
        <r>  0.0000 </r>
       </set>
       <set comment="band 2">
        <r>  0.0000 </r>
       </set>
       <set comment="band 3">
        <r>  0.0000 </r>
       </set>
       <set comment="band 4">
        <r>  0.0000 </r>
       </set>
       <set comment="band 5">
        <r>  0.0000 </r>
       </set>
       <set comment="band 6">
        <r>  0.9828 </r>
       </set>
      </set>
      <set comment="kpoint 2">
       <set comment="band 1">
        <r>  0.4599 </r>
       </set>
       <set comment="band 2">
        <r>  0.0000 </r>
       </set>
       <set comment="band 3">
        <r>  0.0000 </r>
       </set>
       <set comment="band 4">
        <r>  0.0000 </r>
       </set>
       <set comment="band 5">
        <r>  0.0000 </r>
       </set>
       <set comment="band 6">
        <r>  0.1784 </r>
       </set>
      </set>
     </set>
     <set comment="spin2">
      <set comment="kpoint 1">
       <set comment="band 1">
        <r>  0.0000 </r>
       </set>
       <set comment="band 2">
        <r>  0.0000 </r>
       </set>
       <set comment="band 3">
        <r>  0.0000 </r>
       </set>
       <set comment="band 4">
        <r>  0.0000 </r>
       </set>
       <set comment="band 5">
        <r>  0.0000 </r>
       </set>
       <set comment="band 6">
        <r>  0.9764 </r>
       </set>
      </set>
      <set comment="kpoint 2">
       <set comment="band 1">
        <r>  0.4488 </r>
       </set>
       <set comment="band 2">
        <r>  0.0000 </r>
       </set>
       <set comment="band 3">
        <r>  0.0000 </r>
       </set>
       <set comment="band 4">
        <r>  0.0000 </r>
       </set>
       <set comment="band 5">
        <r>  0.0000 </r>
       </set>
       <set comment="band 6">
        <r>  0.1820 </r>
       </set>
      </set>
     </set>
    </set>
   </array>
  </projected>
 </calculation>
 <structure name="finalpos" >
  <crystal>
   <varray name="basis" >
    <v>       2.86654409       0.00000000       0.00000000 </v>
    <v>      -0.95551470       2.70260368       0.00000000 </v>
    <v>      -0.95551470      -1.35130184       2.34052345 </v>
   </varray>
   <i name="volume">     18.13234550 </i>
   <varray name="rec_basis" >
    <v>       0.34885213       0.12333785       0.21362743 </v>
    <v>       0.00000000       0.37001356       0.21362743 </v>
    <v>       0.00000000       0.00000000       0.42725485 </v>
   </varray>
  </crystal>
  <varray name="positions" >
   <v>       0.00000000       0.00000000       0.00000000 </v>
  </varray>
 </structure>
</modeling>
