   1   1   1   0
  0.1780564E+02  0.2849224E-09  0.2849224E-09  0.2849224E-09  0.5000000E-15
  1.000000000000000E-004
  CAR 
 unknown system                          
     26.82963465     -2.89732169  301      5.79155072      1.00000000
     -2.897  0.0000E+00  0.0000E+00  0.0000E+00  0.0000E+00
     -2.798  0.0000E+00  0.0000E+00  0.0000E+00  0.0000E+00
     -2.699  0.0000E+00  0.0000E+00  0.0000E+00  0.0000E+00
     -2.600  0.0000E+00  0.0000E+00  0.0000E+00  0.0000E+00
     -2.501  0.0000E+00  0.0000E+00  0.0000E+00  0.0000E+00
     -2.402  0.0000E+00  0.0000E+00  0.0000E+00  0.0000E+00
     -2.303  0.0000E+00  0.0000E+00  0.0000E+00  0.0000E+00
     -2.204  0.0000E+00  0.0000E+00  0.0000E+00  0.0000E+00
     -2.105  0.0000E+00  0.0000E+00  0.0000E+00  0.0000E+00
     -2.006  0.0000E+00 -0.1570E-36  0.0000E+00 -0.1555E-37
     -1.906 -0.2581E-39 -0.1589E-22 -0.2557E-40 -0.1574E-23
     -1.807 -0.1033E-24 -0.5558E-12 -0.1024E-25 -0.5507E-13
     -1.708 -0.1447E-13 -0.6312E-05 -0.1433E-14 -0.6255E-06
     -1.609 -0.6762E-06 -0.9879E-02 -0.6701E-07 -0.9795E-03
     -1.510 -0.6394E-02  0.2809E+00 -0.6336E-03  0.2686E-01
     -1.411  0.2292E+00  0.9411E-02  0.2208E-01  0.2779E-01
     -1.312  0.5812E-01 -0.1253E-03  0.2784E-01  0.2778E-01
     -1.213 -0.5977E-03 -0.1046E-09  0.2778E-01  0.2778E-01
     -1.114 -0.2152E-08  0.0000E+00  0.2778E-01  0.2778E-01
     -1.015  0.0000E+00  0.0000E+00  0.2778E-01  0.2778E-01
     -0.916  0.0000E+00 -0.2996E-34  0.2778E-01  0.2778E-01
     -0.816 -0.6953E-37 -0.1007E-20  0.2778E-01  0.2778E-01
     -0.717 -0.8948E-23 -0.1158E-10  0.2778E-01  0.2778E-01
     -0.618 -0.3988E-12 -0.4193E-04  0.2778E-01  0.2777E-01
     -0.519 -0.5804E-05 -0.8751E-02  0.2778E-01  0.2691E-01
     -0.420 -0.1278E-01  0.3918E+00  0.2651E-01  0.6573E-01
     -0.321  0.3661E+00 -0.9219E-02  0.6279E-01  0.6482E-01
     -0.222  0.2066E-01 -0.3937E-04  0.6484E-01  0.6481E-01
     -0.123 -0.2239E-03 -0.1037E-10  0.6481E-01  0.6481E-01
     -0.024 -0.2406E-09 -0.8436E-33  0.6481E-01  0.6481E-01
      0.075 -0.3130E-35 -0.1705E-19  0.6481E-01  0.6481E-01
      0.174 -0.2226E-21 -0.1171E-09  0.6481E-01  0.6481E-01
      0.274 -0.5453E-11 -0.2495E-03  0.6481E-01  0.6479E-01
      0.373 -0.4299E-04 -0.3573E-02  0.6481E-01  0.6444E-01
      0.472 -0.3922E-01  0.1163E+01  0.6092E-01  0.1797E+00
      0.571  0.1152E+01 -0.3770E-01  0.1751E+00  0.1759E+00
      0.670  0.8931E-02 -0.5729E-04  0.1760E+00  0.1759E+00
      0.769 -0.3214E-03 -0.8894E-11  0.1759E+00  0.1759E+00
      0.868 -0.1851E-09  0.0000E+00  0.1759E+00  0.1759E+00
      0.967  0.0000E+00  0.0000E+00  0.1759E+00  0.1759E+00
      1.066  0.0000E+00  0.0000E+00  0.1759E+00  0.1759E+00
      1.165  0.0000E+00 -0.7020E-40  0.1759E+00  0.1759E+00
      1.264 -0.4801E-42 -0.4961E-25  0.1759E+00  0.1759E+00
      1.364 -0.9365E-27 -0.1246E-13  0.1759E+00  0.1759E+00
      1.463 -0.6682E-15 -0.1102E-05  0.1759E+00  0.1759E+00
      1.562 -0.1588E-06 -0.2577E-01  0.1759E+00  0.1734E+00
      1.661 -0.1110E-01  0.1284E+01  0.1748E+00  0.3006E+00
      1.760  0.7669E+00  0.1001E+01  0.2508E+00  0.3998E+00
      1.859  0.1524E+01 -0.1651E-01  0.4018E+00  0.3981E+00
      1.958 -0.3682E-01 -0.2036E-01  0.3981E+00  0.3961E+00
      2.057 -0.1328E-01  0.6541E+00  0.3968E+00  0.4609E+00
      2.156  0.5210E+00  0.2109E+00  0.4485E+00  0.4818E+00
      2.255  0.3399E+00 -0.1854E-01  0.4821E+00  0.4800E+00
      2.354  0.7908E-02  0.1400E+01  0.4829E+00  0.6187E+00
      2.454  0.1248E+01  0.3074E+00  0.6066E+00  0.6492E+00
      2.553  0.4312E+00 -0.1014E-01  0.6493E+00  0.6481E+00
      2.652 -0.1136E-01 -0.1183E-04  0.6481E+00  0.6481E+00
      2.751 -0.5727E-05 -0.9914E-03  0.6481E+00  0.6480E+00
      2.850 -0.3761E-03  0.8856E-01  0.6481E+00  0.6568E+00
      2.949  0.4296E-02  0.1741E+01  0.6485E+00  0.8293E+00
      3.048  0.1830E+01  0.4756E+00  0.8299E+00  0.8765E+00
      3.147  0.5146E+00  0.7063E+00  0.8809E+00  0.9464E+00
      3.246  0.6616E+00  0.3374E+00  0.9464E+00  0.9799E+00
      3.345  0.8968E-01  0.7816E+00  0.9553E+00  0.1057E+01
      3.444  0.1046E+01 -0.1786E-01  0.1059E+01  0.1056E+01
      3.544 -0.3478E-01 -0.9020E-06  0.1056E+01  0.1056E+01
      3.643 -0.9304E-05 -0.1028E-03  0.1056E+01  0.1056E+01
      3.742 -0.1839E-03 -0.3043E-01  0.1056E+01  0.1053E+01
      3.841 -0.1549E-01  0.1175E+01  0.1054E+01  0.1169E+01
      3.940  0.1171E+01 -0.2283E-01  0.1170E+01  0.1167E+01
      4.039 -0.3436E-01 -0.1893E-03  0.1167E+01  0.1167E+01
      4.138 -0.8464E-04 -0.1633E-01  0.1167E+01  0.1165E+01
      4.237 -0.1753E-01  0.5867E+00  0.1165E+01  0.1223E+01
      4.336  0.5251E+00 -0.3157E-01  0.1217E+01  0.1220E+01
      4.435  0.4034E-01  0.9941E+00  0.1221E+01  0.1319E+01
      4.534  0.7913E+00  0.1370E+01  0.1299E+01  0.1454E+01
      4.634  0.1469E+01  0.1297E+01  0.1445E+01  0.1583E+01
      4.733  0.1370E+01  0.1523E+01  0.1581E+01  0.1734E+01
      4.832  0.1170E+01  0.7824E+00  0.1697E+01  0.1811E+01
      4.931  0.1212E+01  0.2303E+00  0.1817E+01  0.1834E+01
      5.030  0.1737E+00 -0.3670E-01  0.1834E+01  0.1830E+01
      5.129 -0.6021E-01  0.1885E+01  0.1828E+01  0.2017E+01
      5.228  0.1864E+01  0.1550E+01  0.2013E+01  0.2171E+01
      5.327  0.1571E+01 -0.4139E-01  0.2168E+01  0.2167E+01
      5.426 -0.1548E-01 -0.2107E-02  0.2167E+01  0.2166E+01
      5.525 -0.6050E-03  0.1877E+00  0.2167E+01  0.2185E+01
      5.624  0.1319E-01  0.1484E+01  0.2168E+01  0.2332E+01
      5.723  0.1499E+01  0.2186E+01  0.2317E+01  0.2549E+01
      5.823  0.2131E+01  0.2587E+00  0.2528E+01  0.2574E+01
      5.922  0.4738E+00 -0.3006E-02  0.2575E+01  0.2574E+01
      6.021 -0.5465E-02 -0.8825E-03  0.2574E+01  0.2574E+01
      6.120 -0.7329E-03  0.8918E-01  0.2574E+01  0.2583E+01
      6.219  0.7017E-01  0.1069E+01  0.2581E+01  0.2689E+01
      6.318  0.1090E+01 -0.3644E-01  0.2689E+01  0.2685E+01
      6.417 -0.3781E-01 -0.6143E-02  0.2685E+01  0.2685E+01
      6.516 -0.1971E-02  0.3220E+00  0.2685E+01  0.2716E+01
      6.615  0.1654E+00  0.4495E+00  0.2701E+01  0.2761E+01
      6.714  0.5074E+00  0.2120E+00  0.2752E+01  0.2782E+01
      6.813  0.2733E+00  0.5298E+00  0.2779E+01  0.2835E+01
      6.913  0.5608E+00  0.2749E+00  0.2834E+01  0.2862E+01
      7.012  0.2574E+00  0.7600E-02  0.2860E+01  0.2863E+01
      7.111 -0.2401E-01  0.1500E+01  0.2857E+01  0.3011E+01
      7.210  0.1388E+01  0.1700E+00  0.2995E+01  0.3028E+01
      7.309  0.3390E+00 -0.2825E-02  0.3029E+01  0.3028E+01
      7.408 -0.7466E-02 -0.2601E-07  0.3028E+01  0.3028E+01
      7.507 -0.2586E-06 -0.3010E-09  0.3028E+01  0.3028E+01
      7.606 -0.5957E-10 -0.4194E-03  0.3028E+01  0.3028E+01
      7.705 -0.1708E-03  0.2499E-01  0.3028E+01  0.3030E+01
      7.804 -0.1791E-01  0.1137E+01  0.3026E+01  0.3143E+01
      7.903  0.1173E+01 -0.3973E-01  0.3142E+01  0.3139E+01
      8.003 -0.3329E-01 -0.3141E-04  0.3139E+01  0.3139E+01
      8.102 -0.8626E-04 -0.3744E-10  0.3139E+01  0.3139E+01
      8.201 -0.1602E-09 -0.1248E-03  0.3139E+01  0.3139E+01
      8.300 -0.2778E-03 -0.2656E-01  0.3139E+01  0.3136E+01
      8.399  0.1308E-02  0.1148E+01  0.3139E+01  0.3250E+01
      8.498  0.1131E+01  0.1148E+01  0.3251E+01  0.3364E+01
      8.597  0.1137E+01 -0.2706E-01  0.3364E+01  0.3361E+01
      8.696 -0.2633E-01  0.1857E-02  0.3361E+01  0.3361E+01
      8.795 -0.1157E-01  0.3841E+00  0.3360E+01  0.3399E+01
      8.894  0.3867E+00  0.5871E-01  0.3398E+01  0.3405E+01
      8.993  0.1745E+00  0.1973E+00  0.3416E+01  0.3425E+01
      9.093  0.9985E-01  0.1652E+01  0.3425E+01  0.3588E+01
      9.192  0.1434E+01  0.1361E+01  0.3568E+01  0.3723E+01
      9.291  0.1716E+01  0.6572E+00  0.3738E+01  0.3788E+01
      9.390  0.5072E+00 -0.1336E-01  0.3788E+01  0.3787E+01
      9.489 -0.8682E-02 -0.2389E-04  0.3787E+01  0.3787E+01
      9.588 -0.2796E-03 -0.2644E-01  0.3787E+01  0.3784E+01
      9.687  0.1664E-01  0.7617E+00  0.3789E+01  0.3860E+01
      9.786  0.7575E+00 -0.2680E-01  0.3864E+01  0.3857E+01
      9.885 -0.3284E-01  0.1150E+01  0.3860E+01  0.3971E+01
      9.984  0.1165E+01 -0.5765E-02  0.3976E+01  0.3971E+01
     10.083 -0.5593E-01  0.5178E+00  0.3970E+01  0.4022E+01
     10.183  0.5816E+00  0.5233E-01  0.4028E+01  0.4027E+01
     10.282 -0.5593E-02  0.2242E+00  0.4027E+01  0.4049E+01
     10.381  0.2530E+00  0.9320E+00  0.4053E+01  0.4142E+01
     10.480  0.1081E+01  0.8779E+00  0.4160E+01  0.4229E+01
     10.579  0.1081E+01  0.8967E+00  0.4267E+01  0.4317E+01
     10.678  0.4590E+00  0.1281E+01  0.4312E+01  0.4444E+01
     10.777  0.1632E+01  0.1124E+01  0.4474E+01  0.4556E+01
     10.876  0.8181E+00  0.1098E+01  0.4555E+01  0.4664E+01
     10.975  0.1462E+01  0.1639E+01  0.4700E+01  0.4827E+01
     11.074  0.1283E+01  0.9527E-01  0.4827E+01  0.4836E+01
     11.173  0.1499E+00  0.1090E+00  0.4842E+01  0.4847E+01
     11.273  0.2860E+00  0.1076E+01  0.4870E+01  0.4954E+01
     11.372  0.8350E+00  0.1120E+01  0.4953E+01  0.5065E+01
     11.471  0.1153E+01  0.7951E-03  0.5067E+01  0.5065E+01
     11.570 -0.2358E-01 -0.2744E-03  0.5065E+01  0.5065E+01
     11.669 -0.1403E-03 -0.1390E-09  0.5065E+01  0.5065E+01
     11.768 -0.4205E-10 -0.8598E-25  0.5065E+01  0.5065E+01
     11.867 -0.1455E-24 -0.1263E-13  0.5065E+01  0.5065E+01
     11.966 -0.1857E-13 -0.6217E-06  0.5065E+01  0.5065E+01
     12.065 -0.7906E-06 -0.6269E-02  0.5065E+01  0.5064E+01
     12.164 -0.6713E-02  0.1677E+00  0.5064E+01  0.5081E+01
     12.263  0.1749E+00  0.1934E+01  0.5081E+01  0.5272E+01
     12.363  0.1904E+01  0.2604E+01  0.5270E+01  0.5530E+01
     12.462  0.2620E+01  0.6720E-01  0.5530E+01  0.5537E+01
     12.561  0.7430E-01 -0.1039E-02  0.5537E+01  0.5537E+01
     12.660 -0.1041E-02 -0.2410E-02  0.5537E+01  0.5537E+01
     12.759 -0.2842E-02  0.2337E+00  0.5537E+01  0.5560E+01
     12.858  0.2653E+00  0.9409E+00  0.5563E+01  0.5653E+01
     12.957  0.8757E+00  0.2363E+00  0.5650E+01  0.5677E+01
     13.056  0.2701E+00  0.6526E-01  0.5677E+01  0.5683E+01
     13.155  0.2331E-01  0.2154E-01  0.5679E+01  0.5685E+01
     13.254  0.6505E-01 -0.2287E-03  0.5685E+01  0.5685E+01
     13.353 -0.1486E-02 -0.9513E-09  0.5685E+01  0.5685E+01
     13.453 -0.7477E-07  0.0000E+00  0.5685E+01  0.5685E+01
     13.552 -0.8507E-15  0.0000E+00  0.5685E+01  0.5685E+01
     13.651  0.0000E+00  0.0000E+00  0.5685E+01  0.5685E+01
     13.750  0.0000E+00  0.0000E+00  0.5685E+01  0.5685E+01
     13.849  0.0000E+00  0.0000E+00  0.5685E+01  0.5685E+01
     13.948  0.0000E+00  0.0000E+00  0.5685E+01  0.5685E+01
     14.047  0.0000E+00  0.0000E+00  0.5685E+01  0.5685E+01
     14.146  0.0000E+00  0.0000E+00  0.5685E+01  0.5685E+01
     14.245  0.0000E+00  0.0000E+00  0.5685E+01  0.5685E+01
     14.344  0.0000E+00 -0.6142E-30  0.5685E+01  0.5685E+01
     14.443 -0.1127E-28 -0.2244E-17  0.5685E+01  0.5685E+01
     14.542 -0.2025E-16 -0.2726E-08  0.5685E+01  0.5685E+01
     14.642 -0.1198E-07 -0.9537E-03  0.5685E+01  0.5685E+01
     14.741 -0.1955E-02  0.9665E-01  0.5685E+01  0.5695E+01
     14.840  0.1665E+00  0.4791E+00  0.5701E+01  0.5742E+01
     14.939  0.4059E+00 -0.1418E-01  0.5742E+01  0.5741E+01
     15.038 -0.9701E-02 -0.1950E-05  0.5741E+01  0.5741E+01
     15.137 -0.5713E-06 -0.3811E-08  0.5741E+01  0.5741E+01
     15.236 -0.1161E-09 -0.1593E-02  0.5741E+01  0.5741E+01
     15.335 -0.2482E-03  0.1650E+00  0.5741E+01  0.5757E+01
     15.434 -0.3799E-02  0.9884E+00  0.5740E+01  0.5855E+01
     15.533  0.1163E+01 -0.3174E-01  0.5856E+01  0.5852E+01
     15.632 -0.4017E-01  0.1292E+00  0.5852E+01  0.5865E+01
     15.732  0.2417E+00  0.1027E+01  0.5876E+01  0.5966E+01
     15.831  0.9070E+00 -0.3336E-01  0.5965E+01  0.5963E+01
     15.930 -0.2497E-01 -0.2973E-01  0.5963E+01  0.5960E+01
     16.029 -0.4418E-01  0.1257E+01  0.5959E+01  0.6085E+01
     16.128  0.1390E+01  0.6510E+00  0.6096E+01  0.6149E+01
     16.227  0.4036E+00  0.7549E+00  0.6136E+01  0.6224E+01
     16.326  0.8910E+00 -0.1673E-01  0.6225E+01  0.6222E+01
     16.425 -0.2403E-01 -0.7972E-03  0.6222E+01  0.6222E+01
     16.524 -0.3937E-03  0.8250E-01  0.6222E+01  0.6230E+01
     16.623  0.3834E-01  0.4942E+00  0.6226E+01  0.6279E+01
     16.722  0.5414E+00 -0.1525E-01  0.6280E+01  0.6278E+01
     16.822 -0.1868E-01 -0.2579E-05  0.6278E+01  0.6278E+01
     16.921 -0.7110E-05 -0.8762E-05  0.6278E+01  0.6278E+01
     17.020 -0.3762E-05 -0.2462E-01  0.6278E+01  0.6275E+01
     17.119 -0.2079E-01  0.7176E+00  0.6276E+01  0.6346E+01
     17.218  0.6652E+00  0.5512E-01  0.6342E+01  0.6352E+01
     17.317  0.1042E+00 -0.7408E-02  0.6352E+01  0.6351E+01
     17.416 -0.3874E-02  0.3444E+00  0.6352E+01  0.6385E+01
     17.515  0.2134E+00  0.2263E+00  0.6373E+01  0.6408E+01
     17.614  0.3575E+00 -0.3164E-02  0.6408E+01  0.6407E+01
     17.713 -0.7400E-02 -0.3439E-07  0.6407E+01  0.6407E+01
     17.812 -0.2697E-06 -0.2644E-33  0.6407E+01  0.6407E+01
     17.912 -0.2241E-14 -0.6962E-20  0.6407E+01  0.6407E+01
     18.011 -0.2021E-19 -0.6251E-10  0.6407E+01  0.6407E+01
     18.110 -0.1319E-09 -0.1755E-03  0.6407E+01  0.6407E+01
     18.209 -0.2665E-03 -0.1704E-01  0.6407E+01  0.6406E+01
     18.308 -0.5560E-03  0.1172E+01  0.6407E+01  0.6522E+01
     18.407  0.1160E+01 -0.3978E-01  0.6522E+01  0.6518E+01
     18.506 -0.4261E-01  0.3243E+00  0.6518E+01  0.6550E+01
     18.605  0.2738E+00  0.2460E+00  0.6545E+01  0.6574E+01
     18.704  0.2963E+00 -0.2415E-01  0.6575E+01  0.6572E+01
     18.803 -0.2919E-01  0.8202E+00  0.6572E+01  0.6653E+01
     18.902  0.8835E+00  0.7767E+00  0.6659E+01  0.6730E+01
     19.002  0.7509E+00  0.9761E+00  0.6734E+01  0.6827E+01
     19.101  0.9404E+00 -0.2960E-01  0.6827E+01  0.6824E+01
     19.200 -0.2777E-01 -0.4521E-05  0.6824E+01  0.6824E+01
     19.299 -0.3592E-05 -0.1330E-12  0.6824E+01  0.6824E+01
     19.398 -0.9199E-13 -0.2020E-06  0.6824E+01  0.6824E+01
     19.497 -0.1805E-06 -0.1004E-01  0.6824E+01  0.6823E+01
     19.596 -0.9584E-02  0.5872E+00  0.6823E+01  0.6881E+01
     19.695  0.5728E+00  0.5419E+00  0.6880E+01  0.6935E+01
     19.794  0.5481E+00  0.6097E+00  0.6934E+01  0.6995E+01
     19.893  0.7965E+00  0.8507E+00  0.7013E+01  0.7080E+01
     19.992  0.8244E+00  0.9435E+00  0.7095E+01  0.7173E+01
     20.092  0.8239E+00  0.8556E+00  0.7176E+01  0.7258E+01
     20.191  0.1029E+01  0.6097E+01  0.7278E+01  0.7862E+01
     20.290  0.9627E+01  0.5242E+01  0.8232E+01  0.8382E+01
     20.389  0.1441E+01 -0.1124E+00  0.8375E+01  0.8370E+01
     20.488 -0.4779E-01 -0.4297E-02  0.8370E+01  0.8370E+01
     20.587 -0.5854E-02  0.1909E+00  0.8370E+01  0.8389E+01
     20.686  0.2205E+00  0.9491E-01  0.8392E+01  0.8398E+01
     20.785  0.6643E-01 -0.1192E-02  0.8398E+01  0.8398E+01
     20.884 -0.7118E-03 -0.3582E-03  0.8398E+01  0.8398E+01
     20.983 -0.2009E-03  0.1503E-01  0.8398E+01  0.8400E+01
     21.082 -0.1238E-01  0.1109E+01  0.8397E+01  0.8509E+01
     21.182  0.1137E+01  0.1124E+01  0.8510E+01  0.8621E+01
     21.281  0.9732E+00 -0.4091E-02  0.8606E+01  0.8620E+01
     21.380  0.1460E+00 -0.2468E-03  0.8621E+01  0.8620E+01
     21.479 -0.1398E-02 -0.1149E-09  0.8620E+01  0.8620E+01
     21.578 -0.2944E-08 -0.7968E-22  0.8620E+01  0.8620E+01
     21.677 -0.1814E-24 -0.1768E-11  0.8620E+01  0.8620E+01
     21.776 -0.2627E-13 -0.1294E-04  0.8620E+01  0.8620E+01
     21.875 -0.1274E-05 -0.1578E-01  0.8620E+01  0.8619E+01
     21.974 -0.1261E-01  0.5592E+00  0.8619E+01  0.8674E+01
     22.073  0.4467E+00  0.4022E+00  0.8663E+01  0.8714E+01
     22.172  0.5113E+00 -0.1117E-01  0.8714E+01  0.8713E+01
     22.272 -0.1095E-01 -0.1847E-05  0.8713E+01  0.8713E+01
     22.371 -0.3668E-04 -0.6092E-13  0.8713E+01  0.8713E+01
     22.470 -0.9160E-11 -0.1168E-11  0.8713E+01  0.8713E+01
     22.569 -0.6990E-11 -0.1716E-04  0.8713E+01  0.8713E+01
     22.668 -0.4975E-04 -0.3827E-01  0.8713E+01  0.8709E+01
     22.767 -0.3858E-01  0.1097E+01  0.8709E+01  0.8818E+01
     22.866  0.1158E+01  0.6298E-01  0.8824E+01  0.8824E+01
     22.965  0.2315E-02 -0.6791E-03  0.8824E+01  0.8824E+01
     23.064 -0.2829E-03 -0.2898E-02  0.8824E+01  0.8824E+01
     23.163 -0.2694E-02  0.2851E+00  0.8824E+01  0.8852E+01
     23.262  0.2628E+00  0.1249E+01  0.8850E+01  0.8976E+01
     23.361  0.1273E+01 -0.3592E-01  0.8976E+01  0.8972E+01
     23.461 -0.3768E-01 -0.4556E-05  0.8972E+01  0.8972E+01
     23.560 -0.6758E-05 -0.1193E-12  0.8972E+01  0.8972E+01
     23.659 -0.2793E-12  0.0000E+00  0.8972E+01  0.8972E+01
     23.758  0.0000E+00  0.0000E+00  0.8972E+01  0.8972E+01
     23.857  0.0000E+00  0.0000E+00  0.8972E+01  0.8972E+01
     23.956  0.0000E+00  0.0000E+00  0.8972E+01  0.8972E+01
     24.055  0.0000E+00  0.0000E+00  0.8972E+01  0.8972E+01
     24.154  0.0000E+00  0.0000E+00  0.8972E+01  0.8972E+01
     24.253  0.0000E+00  0.0000E+00  0.8972E+01  0.8972E+01
     24.352  0.0000E+00  0.0000E+00  0.8972E+01  0.8972E+01
     24.451  0.0000E+00  0.0000E+00  0.8972E+01  0.8972E+01
     24.551  0.0000E+00  0.0000E+00  0.8972E+01  0.8972E+01
     24.650  0.0000E+00  0.0000E+00  0.8972E+01  0.8972E+01
     24.749  0.0000E+00  0.0000E+00  0.8972E+01  0.8972E+01
     24.848  0.0000E+00  0.0000E+00  0.8972E+01  0.8972E+01
     24.947  0.0000E+00 -0.1188E-31  0.8972E+01  0.8972E+01
     25.046 -0.2271E-32 -0.9421E-19  0.8972E+01  0.8972E+01
     25.145 -0.2652E-19 -0.2510E-09  0.8972E+01  0.8972E+01
     25.244 -0.1046E-09 -0.2000E-03  0.8972E+01  0.8972E+01
     25.343 -0.1253E-03  0.1971E-01  0.8972E+01  0.8974E+01
     25.442  0.9411E-02  0.2701E+00  0.8973E+01  0.9001E+01
     25.541  0.2809E+00 -0.9301E-02  0.9001E+01  0.9000E+01
     25.641 -0.9879E-02 -0.3454E-05  0.9000E+01  0.9000E+01
     25.740 -0.6312E-05 -0.2040E-12  0.9000E+01  0.9000E+01
     25.839 -0.5557E-12  0.0000E+00  0.9000E+01  0.9000E+01
     25.938  0.0000E+00  0.0000E+00  0.9000E+01  0.9000E+01
     26.037  0.0000E+00  0.0000E+00  0.9000E+01  0.9000E+01
     26.136  0.0000E+00  0.0000E+00  0.9000E+01  0.9000E+01
     26.235  0.0000E+00  0.0000E+00  0.9000E+01  0.9000E+01
     26.334  0.0000E+00  0.0000E+00  0.9000E+01  0.9000E+01
     26.433  0.0000E+00  0.0000E+00  0.9000E+01  0.9000E+01
     26.532  0.0000E+00  0.0000E+00  0.9000E+01  0.9000E+01
     26.631  0.0000E+00  0.0000E+00  0.9000E+01  0.9000E+01
     26.731  0.0000E+00  0.0000E+00  0.9000E+01  0.9000E+01
     26.830  0.0000E+00  0.0000E+00  0.9000E+01  0.9000E+01
     26.82963465     -2.89732169  301      5.79155072      1.00000000
     -2.897  0.0000E+00  0.0000E+00  0.0000E+00  0.0000E+00  0.0000E+00  0.0000E+00  0.0000E+00  0.0000E+00  0.0000E+00  0.0000E+00  0.0000E+00  0.0000E+00  0.0000E+00  0.0000E+00  0.0000E+00  0.0000E+00  0.0000E+00  0.0000E+00
     -2.798  0.0000E+00  0.0000E+00  0.0000E+00  0.0000E+00  0.0000E+00  0.0000E+00  0.0000E+00  0.0000E+00  0.0000E+00  0.0000E+00  0.0000E+00  0.0000E+00  0.0000E+00  0.0000E+00  0.0000E+00  0.0000E+00  0.0000E+00  0.0000E+00
     -2.699  0.0000E+00  0.0000E+00  0.0000E+00  0.0000E+00  0.0000E+00  0.0000E+00  0.0000E+00  0.0000E+00  0.0000E+00  0.0000E+00  0.0000E+00  0.0000E+00  0.0000E+00  0.0000E+00  0.0000E+00  0.0000E+00  0.0000E+00  0.0000E+00
     -2.600  0.0000E+00  0.0000E+00  0.0000E+00  0.0000E+00  0.0000E+00  0.0000E+00  0.0000E+00  0.0000E+00  0.0000E+00  0.0000E+00  0.0000E+00  0.0000E+00  0.0000E+00  0.0000E+00  0.0000E+00  0.0000E+00  0.0000E+00  0.0000E+00
     -2.501  0.0000E+00  0.0000E+00  0.0000E+00  0.0000E+00  0.0000E+00  0.0000E+00  0.0000E+00  0.0000E+00  0.0000E+00  0.0000E+00  0.0000E+00  0.0000E+00  0.0000E+00  0.0000E+00  0.0000E+00  0.0000E+00  0.0000E+00  0.0000E+00
     -2.402  0.0000E+00  0.0000E+00  0.0000E+00  0.0000E+00  0.0000E+00  0.0000E+00  0.0000E+00  0.0000E+00  0.0000E+00  0.0000E+00  0.0000E+00  0.0000E+00  0.0000E+00  0.0000E+00  0.0000E+00  0.0000E+00  0.0000E+00  0.0000E+00
     -2.303  0.0000E+00  0.0000E+00  0.0000E+00  0.0000E+00  0.0000E+00  0.0000E+00  0.0000E+00  0.0000E+00  0.0000E+00  0.0000E+00  0.0000E+00  0.0000E+00  0.0000E+00  0.0000E+00  0.0000E+00  0.0000E+00  0.0000E+00  0.0000E+00
     -2.204  0.0000E+00  0.0000E+00  0.0000E+00  0.0000E+00  0.0000E+00  0.0000E+00  0.0000E+00  0.0000E+00  0.0000E+00  0.0000E+00  0.0000E+00  0.0000E+00  0.0000E+00  0.0000E+00  0.0000E+00  0.0000E+00  0.0000E+00  0.0000E+00
     -2.105  0.0000E+00  0.0000E+00  0.0000E+00  0.0000E+00  0.0000E+00  0.0000E+00  0.0000E+00  0.0000E+00  0.0000E+00  0.0000E+00  0.0000E+00  0.0000E+00  0.0000E+00  0.0000E+00  0.0000E+00  0.0000E+00  0.0000E+00  0.0000E+00
     -2.006  0.0000E+00 -0.1317E-36  0.0000E+00 -0.1548E-50  0.0000E+00 -0.1720E-50  0.0000E+00 -0.7461E-38  0.0000E+00 -0.5117E-49  0.0000E+00 -0.6171E-49  0.0000E+00 -0.7426E-40  0.0000E+00 -0.5354E-49  0.0000E+00 -0.2228E-39
     -1.906 -0.2162E-39 -0.1333E-22 -0.2492E-51 -0.1567E-36 -0.9729E-52 -0.1741E-36 -0.1227E-40 -0.7553E-24 -0.1147E-51 -0.5179E-35 -0.1204E-51 -0.6246E-35 -0.1227E-42 -0.7517E-26 -0.1148E-51 -0.5419E-35 -0.3681E-42 -0.2255E-25
     -1.807 -0.8653E-25 -0.4664E-12 -0.9977E-37 -0.5481E-26 -0.3894E-37 -0.6091E-26 -0.4911E-26 -0.2642E-13 -0.4591E-37 -0.1812E-24 -0.4818E-37 -0.2185E-24 -0.4911E-28 -0.2629E-15 -0.4597E-37 -0.1896E-24 -0.1473E-27 -0.7888E-15
     -1.708 -0.1212E-13 -0.5297E-05 -0.1397E-25 -0.6225E-19 -0.5453E-26 -0.6918E-19 -0.6876E-15 -0.3001E-06 -0.6429E-26 -0.2058E-17 -0.6747E-26 -0.2482E-17 -0.6877E-17 -0.2987E-08 -0.6437E-26 -0.2153E-17 -0.2063E-16 -0.8960E-08
     -1.609 -0.5663E-06 -0.8290E-02 -0.6530E-18 -0.9743E-16 -0.2549E-18 -0.1083E-15 -0.3214E-07 -0.4696E-03 -0.3005E-18 -0.3220E-14 -0.3154E-18 -0.3884E-14 -0.3215E-09 -0.4674E-05 -0.3009E-18 -0.3370E-14 -0.9644E-09 -0.1402E-04
     -1.510 -0.5355E-02  0.2357E+00 -0.6174E-14  0.2770E-14 -0.2410E-14  0.3079E-14 -0.3039E-03  0.1335E-01 -0.2841E-14  0.9158E-13 -0.2982E-14  0.1104E-12 -0.3039E-05  0.1329E-03 -0.2845E-14  0.9582E-13 -0.9118E-05  0.3988E-03
     -1.411  0.1920E+00  0.7897E-02  0.2213E-12  0.9281E-16  0.8639E-13  0.1031E-15  0.1089E-01  0.4473E-03  0.1019E-12  0.3068E-14  0.1069E-12  0.3700E-14  0.1090E-03  0.4452E-05  0.1020E-12  0.3210E-14  0.3269E-03  0.1336E-04
     -1.312  0.4867E-01 -0.1052E-03  0.5612E-13 -0.1236E-17  0.2191E-13 -0.1374E-17  0.2762E-02 -0.5958E-05  0.2583E-13 -0.4086E-16  0.2710E-13 -0.4927E-16  0.2763E-04 -0.5930E-07  0.2586E-13 -0.4275E-16  0.8288E-04 -0.1779E-06
     -1.213 -0.5006E-03 -0.8777E-10 -0.5772E-15 -0.1032E-23 -0.2253E-15 -0.1146E-23 -0.2841E-04 -0.4972E-11 -0.2656E-15 -0.3410E-22 -0.2788E-15 -0.4112E-22 -0.2841E-06 -0.4949E-13 -0.2659E-15 -0.3568E-22 -0.8524E-06 -0.1485E-12
     -1.114 -0.1802E-08  0.0000E+00 -0.2078E-20  0.0000E+00 -0.8110E-21  0.0000E+00 -0.1023E-09  0.0000E+00 -0.9562E-21  0.0000E+00 -0.1003E-20  0.0000E+00 -0.1023E-11  0.0000E+00 -0.9573E-21  0.0000E+00 -0.3068E-11  0.0000E+00
     -1.015  0.0000E+00  0.0000E+00  0.0000E+00  0.0000E+00  0.0000E+00  0.0000E+00  0.0000E+00  0.0000E+00  0.0000E+00  0.0000E+00  0.0000E+00  0.0000E+00  0.0000E+00  0.0000E+00  0.0000E+00  0.0000E+00  0.0000E+00  0.0000E+00
     -0.916  0.0000E+00 -0.2286E-34  0.0000E+00 -0.1193E-35  0.0000E+00 -0.1193E-35  0.0000E+00 -0.1193E-35  0.0000E+00 -0.2762E-36  0.0000E+00 -0.2762E-36  0.0000E+00 -0.5629E-55  0.0000E+00 -0.2762E-36  0.0000E+00 -0.9194E-55
     -0.816 -0.5294E-37 -0.7686E-21 -0.2769E-38 -0.4011E-22 -0.2769E-38 -0.4011E-22 -0.2769E-38 -0.4011E-22 -0.6394E-39 -0.9287E-23 -0.6394E-39 -0.9287E-23 -0.4178E-54 -0.1893E-41 -0.6394E-39 -0.9287E-23 -0.1338E-53 -0.3091E-41
     -0.717 -0.6813E-23 -0.8833E-11 -0.3564E-24 -0.4609E-12 -0.3564E-24 -0.4609E-12 -0.3564E-24 -0.4609E-12 -0.8228E-25 -0.1067E-12 -0.8228E-25 -0.1067E-12 -0.5376E-40 -0.2175E-31 -0.8228E-25 -0.1067E-12 -0.1722E-39 -0.3552E-31
     -0.618 -0.3036E-12 -0.3199E-04 -0.1588E-13 -0.1669E-05 -0.1588E-13 -0.1669E-05 -0.1588E-13 -0.1669E-05 -0.3667E-14 -0.3865E-06 -0.3667E-14 -0.3865E-06 -0.2396E-29 -0.7877E-25 -0.3667E-14 -0.3865E-06 -0.7674E-29 -0.1287E-24
     -0.519 -0.4419E-05 -0.6677E-02 -0.2311E-06 -0.3484E-03 -0.2311E-06 -0.3484E-03 -0.2311E-06 -0.3484E-03 -0.5337E-07 -0.8067E-04 -0.5337E-07 -0.8067E-04 -0.3487E-22 -0.1644E-22 -0.5337E-07 -0.8067E-04 -0.1117E-21 -0.2685E-22
     -0.420 -0.9729E-02  0.2990E+00 -0.5089E-03  0.1560E-01 -0.5089E-03  0.1560E-01 -0.5089E-03  0.1560E-01 -0.1175E-03  0.3612E-02 -0.1175E-03  0.3612E-02 -0.7678E-19  0.7361E-21 -0.1175E-03  0.3612E-02 -0.2459E-18  0.1202E-20
     -0.321  0.2788E+00 -0.7034E-02  0.1458E-01 -0.3670E-03  0.1458E-01 -0.3670E-03  0.1458E-01 -0.3670E-03  0.3367E-02 -0.8498E-04  0.3367E-02 -0.8498E-04  0.2200E-17 -0.1732E-22  0.3367E-02 -0.8498E-04  0.7045E-17 -0.2829E-22
     -0.222  0.1573E-01 -0.3004E-04  0.8227E-03 -0.1568E-05  0.8227E-03 -0.1568E-05  0.8227E-03 -0.1568E-05  0.1900E-03 -0.3630E-06  0.1900E-03 -0.3630E-06  0.1241E-18 -0.7397E-25  0.1900E-03 -0.3630E-06  0.3975E-18 -0.1208E-24
     -0.123 -0.1704E-03 -0.7911E-11 -0.8916E-05 -0.4128E-12 -0.8916E-05 -0.4128E-12 -0.8916E-05 -0.4128E-12 -0.2059E-05 -0.9559E-13 -0.2059E-05 -0.9559E-13 -0.1345E-20 -0.1948E-31 -0.2059E-05 -0.9559E-13 -0.4308E-20 -0.3182E-31
     -0.024 -0.1832E-09 -0.5617E-33 -0.9584E-11 -0.2056E-34 -0.9584E-11 -0.3156E-46 -0.9584E-11 -0.1183E-33 -0.2213E-11 -0.5462E-34 -0.2213E-11 -0.1606E-45 -0.1446E-26 -0.1947E-34 -0.2213E-11 -0.1687E-45 -0.4631E-26 -0.9128E-35
      0.075 -0.2079E-35 -0.1135E-19 -0.7640E-37 -0.4156E-21 -0.3320E-48 -0.6380E-33 -0.4390E-36 -0.2391E-20 -0.2021E-36 -0.1104E-20 -0.1938E-47 -0.3247E-32 -0.7267E-37 -0.3935E-21 -0.1861E-47 -0.3411E-32 -0.3406E-37 -0.1845E-21
      0.174 -0.1479E-21 -0.7800E-10 -0.5434E-23 -0.2856E-11 -0.2361E-34 -0.4383E-23 -0.3122E-22 -0.1643E-10 -0.1437E-22 -0.7584E-11 -0.1379E-33 -0.2231E-22 -0.5168E-23 -0.2704E-11 -0.1323E-33 -0.2343E-22 -0.2422E-23 -0.1268E-11
      0.274 -0.3622E-11 -0.1661E-03 -0.1331E-12 -0.6082E-05 -0.5783E-24 -0.9336E-17 -0.7648E-12 -0.3499E-04 -0.3521E-12 -0.1615E-04 -0.3377E-23 -0.4751E-16 -0.1266E-12 -0.5759E-05 -0.3242E-23 -0.4991E-16 -0.5933E-13 -0.2700E-05
      0.373 -0.2856E-04 -0.2379E-02 -0.1049E-05 -0.8710E-04 -0.4560E-17 -0.1337E-15 -0.6030E-05 -0.5011E-03 -0.2776E-05 -0.2313E-03 -0.2662E-16 -0.6803E-15 -0.9981E-06 -0.8246E-04 -0.2556E-16 -0.7147E-15 -0.4678E-06 -0.3866E-04
      0.472 -0.2605E-01  0.7743E+00 -0.9571E-03  0.2835E-01 -0.4159E-14  0.4351E-13 -0.5500E-02  0.1631E+00 -0.2532E-02  0.7529E-01 -0.2428E-13  0.2214E-12 -0.9104E-03  0.2684E-01 -0.2331E-13  0.2326E-12 -0.4266E-03  0.1258E-01
      0.571  0.7651E+00 -0.2510E-01  0.2812E-01 -0.9189E-03  0.1222E-12 -0.1410E-14  0.1616E+00 -0.5286E-02  0.7438E-01 -0.2440E-02  0.7133E-12 -0.7177E-14  0.2674E-01 -0.8700E-03  0.6848E-12 -0.7540E-14  0.1253E-01 -0.4079E-03
      0.670  0.5932E-02 -0.3814E-04  0.2180E-03 -0.1396E-05  0.9472E-15 -0.2143E-17  0.1253E-02 -0.8034E-05  0.5766E-03 -0.3709E-05  0.5530E-14 -0.1091E-16  0.2073E-03 -0.1322E-05  0.5309E-14 -0.1146E-16  0.9717E-04 -0.6199E-06
      0.769 -0.2135E-03 -0.5922E-11 -0.7845E-05 -0.2168E-12 -0.3409E-16 -0.3328E-24 -0.4508E-04 -0.1247E-11 -0.2075E-04 -0.5758E-12 -0.1990E-15 -0.1693E-23 -0.7461E-05 -0.2053E-12 -0.1911E-15 -0.1779E-23 -0.3497E-05 -0.9624E-13
      0.868 -0.1230E-09  0.0000E+00 -0.4518E-11  0.0000E+00 -0.1963E-22  0.0000E+00 -0.2596E-10  0.0000E+00 -0.1195E-10  0.0000E+00 -0.1146E-21  0.0000E+00 -0.4298E-11  0.0000E+00 -0.1101E-21  0.0000E+00 -0.2014E-11  0.0000E+00
      0.967  0.0000E+00  0.0000E+00  0.0000E+00  0.0000E+00  0.0000E+00  0.0000E+00  0.0000E+00  0.0000E+00  0.0000E+00  0.0000E+00  0.0000E+00  0.0000E+00  0.0000E+00  0.0000E+00  0.0000E+00  0.0000E+00  0.0000E+00  0.0000E+00
      1.066  0.0000E+00  0.0000E+00  0.0000E+00  0.0000E+00  0.0000E+00  0.0000E+00  0.0000E+00  0.0000E+00  0.0000E+00  0.0000E+00  0.0000E+00  0.0000E+00  0.0000E+00  0.0000E+00  0.0000E+00  0.0000E+00  0.0000E+00  0.0000E+00
      1.165  0.0000E+00 -0.2272E-40  0.0000E+00 -0.2152E-43  0.0000E+00 -0.5626E-53  0.0000E+00 -0.3368E-41  0.0000E+00 -0.2737E-40  0.0000E+00 -0.3828E-52  0.0000E+00 -0.1565E-40  0.0000E+00 -0.2990E-52  0.0000E+00 -0.1586E-42
      1.264 -0.1547E-42 -0.1611E-25 -0.1476E-45 -0.3499E-28 -0.8277E-55 -0.1988E-28 -0.2299E-43 -0.2378E-26 -0.1867E-42 -0.1921E-25 -0.4779E-54 -0.8193E-28 -0.1077E-42 -0.1099E-25 -0.4599E-54 -0.1568E-29 -0.1086E-44 -0.1270E-27
      1.364 -0.3021E-27 -0.4082E-14 -0.4116E-30 -0.2196E-16 -0.1243E-30 -0.1824E-16 -0.4484E-28 -0.5960E-15 -0.3633E-27 -0.4738E-14 -0.5113E-30 -0.7516E-16 -0.2097E-27 -0.2714E-14 -0.9785E-32 -0.1438E-17 -0.2213E-29 -0.4183E-16
      1.463 -0.2164E-15 -0.3716E-06 -0.6025E-18 -0.5754E-08 -0.3992E-18 -0.5445E-08 -0.3196E-16 -0.5238E-07 -0.2572E-15 -0.3941E-06 -0.1642E-17 -0.2244E-07 -0.1485E-15 -0.2266E-06 -0.3142E-19 -0.4294E-09 -0.1813E-17 -0.6575E-08
      1.562 -0.5234E-07 -0.9519E-02 -0.4722E-09 -0.4319E-03 -0.4256E-09 -0.4262E-03 -0.7570E-08 -0.1200E-02 -0.5899E-07 -0.7281E-02 -0.1750E-08 -0.1756E-02 -0.3414E-07 -0.4257E-02 -0.3350E-10 -0.3361E-04 -0.6809E-09 -0.3781E-03
      1.661 -0.3932E-02  0.4953E+00 -0.1324E-03  0.2917E-01 -0.1297E-03  0.2893E-01 -0.5204E-03  0.5909E-01 -0.3474E-02  0.3126E+00 -0.5334E-03  0.1192E+00 -0.2034E-02  0.1851E+00 -0.1021E-04  0.2281E-02 -0.1231E-03  0.2461E-01
      1.760  0.2825E+00  0.4310E+00  0.1301E-01  0.3885E-01  0.1284E-01  0.3875E-01  0.3564E-01  0.4469E-01  0.2151E+00  0.1387E+00  0.5282E-01  0.1597E+00  0.1269E+00  0.8779E-01  0.1011E-02  0.3055E-02  0.1144E-01  0.3134E-01
      1.859  0.6438E+00 -0.7362E-02  0.5559E-01 -0.7325E-03  0.5541E-01 -0.7312E-03  0.6828E-01 -0.7290E-03  0.2337E+00 -0.1686E-02  0.2279E+00 -0.3017E-02  0.1470E+00 -0.1124E-02  0.4362E-02 -0.5766E-04  0.4532E-01 -0.5871E-03
      1.958 -0.1623E-01 -0.5585E-02 -0.1587E-02 -0.1993E-07 -0.1584E-02 -0.1992E-07 -0.1629E-02 -0.1396E-02 -0.4062E-02 -0.1233E-07 -0.6516E-02 -0.9239E-02 -0.2691E-02 -0.9902E-03 -0.1247E-03 -0.1571E-08 -0.1281E-02 -0.2970E-02
      2.057 -0.3571E-02  0.1915E+00 -0.1860E-06  0.1537E-13 -0.1860E-06  0.5154E-13 -0.8399E-03  0.6005E-01 -0.9481E-07 -0.2934E-12 -0.6149E-02  0.2666E+00 -0.6507E-03  0.3160E-01 -0.1464E-07 -0.2921E-12 -0.1952E-02  0.9481E-01