    1    1    1    2
  0.1780564E+02  0.2849224E-09  0.2849224E-09  0.2849224E-09  0.5000000E-15
  1.000000000000000E-004
  CAR 
 unknown system                          
    5   14    9
 
  0.8333333E-01  0.8333333E-01  0.8333333E-01  0.3703704E-01
   1       -0.354012     -0.469905
   2        5.721178      5.606604
   3        5.721178      5.606604
   4        8.848584      8.737188
   5        9.724924      9.648311
   6        9.724924      9.648311
   7       20.224621     20.173035
   8       22.121944     21.998350
   9       23.292622     23.187471
 
  0.2500000E+00  0.8333333E-01  0.8333333E-01  0.1111111E+00
   1        1.779794      1.665055
   2        4.682470      4.565931
   3        5.282759      5.173672
   4        9.928775      9.845226
   5       10.550275     10.475905
   6       12.327794     12.225369
   7       19.996307     19.905916
   8       20.294494     20.214824
   9       20.317491     20.231534
 
  0.4166667E+00  0.8333333E-01  0.8333333E-01  0.5555556E-01
   1        2.137862      2.025224
   2        4.307816      4.190318
   3        6.854525      6.745316
   4       10.139531     10.056203
   5       10.971738     10.899501
   6       14.852405     14.762176
   7       16.654795     16.547884
   8       18.606322     18.502074
   9       20.234890     20.182938
 
 -0.8333333E-01  0.8333333E-01  0.8333333E-01  0.2777778E-01
   1       -1.429787     -1.546096
   2        6.627941      6.512061
   3        6.627944      6.512064
   4        6.977564      6.862341
   5        8.985757      8.909689
   6       10.327017     10.257322
   7       20.226058     20.174483
   8       22.054943     21.932507
   9       22.054945     21.958381
 
  0.2500000E+00  0.2500000E+00  0.8333333E-01  0.1111111E+00
   1        3.373433      3.257237
   2        4.530958      4.421647
   3        5.187267      5.075146
   4       10.443659     10.362630
   5       10.924185     10.848673
   6       15.477244     15.358804
   7       16.103137     16.012838
   8       19.880615     19.791578
   9       20.232527     20.180643
 
 -0.2500000E+00  0.2500000E+00  0.8333333E-01  0.1111111E+00
   1        0.530372      0.415537
   2        5.662920      5.546057
   3        5.811042      5.706220
   4        8.440785      8.349167
   5        9.217880      9.107532
   6       10.794081     10.721917
   7       20.220977     20.169275
   8       21.127369     21.022724
   9       23.281155     23.182115
 
 -0.4166667E+00  0.4166667E+00  0.8333333E-01  0.1111111E+00
   1        1.760907      1.649035
   2        4.809361      4.691797
   3        6.251057      6.149994
   4        9.289314      9.197261
   5       11.288206     11.208415
   6       12.874663     12.777591
   7       18.350169     18.255022
   8       19.695033     19.595206
   9       20.242737     20.189984
 
 -0.2500000E+00  0.4166667E+00  0.8333333E-01  0.1111111E+00
   1        2.429477      2.316948
   2        4.558866      4.458946
   3        5.795932      5.682188
   4        8.547840      8.448516
   5       10.721159     10.634518
   6       12.428685     12.331784
   7       19.022432     18.925052
   8       20.236609     20.184352
   9       22.824352     22.734039
 
 -0.4166667E+00 -0.4166667E+00  0.8333333E-01  0.1111111E+00
   1        2.987901      2.878778
   2        4.852431      4.741019
   3        5.218929      5.120949
   4        9.135032      9.037645
   5       11.422437     11.329633
   6       15.749774     15.658954
   7       16.244336     16.137645
   8       20.113650     20.017921
   9       20.234538     20.182540
 
  0.2500000E+00  0.2500000E+00  0.2500000E+00  0.9259259E-02
   1        4.703562      4.589964
   2        4.703562      4.589968
   3        4.703566      4.589968
   4       11.135815     11.064416
   5       11.135815     11.064416
   6       13.166186     13.039015
   7       18.953012     18.864028
   8       18.953012     18.864030
   9       18.953012     18.864030
 
 -0.2500000E+00  0.2500000E+00  0.2500000E+00  0.2777778E-01
   1        2.173060      2.063896
   2        4.943450      4.855087
   3        7.216999      7.102912
   4        7.217003      7.102915
   5        9.189561      9.079794
   6       11.023962     10.940325
   7       20.214049     20.161597
   8       20.669389     20.576966
   9       25.478409     25.374475
 
 -0.4166667E+00  0.4166667E+00  0.2500000E+00  0.1111111E+00
   1        3.042052      2.943056
   2        3.886558      3.792779
   3        7.164007      7.049898
   4        7.850839      7.743121
   5       12.349681     12.251000
   6       12.422337     12.317739
   7       18.885107     18.789583
   8       20.239108     20.186981
   9       21.255520     21.138516
 
 -0.4166667E+00 -0.4166667E+00  0.2500000E+00  0.3703704E-01
   1        3.171867      3.078793
   2        3.171867      3.078794
   3        6.728655      6.612988
   4       11.018154     10.913066
   5       11.018157     10.913069
   6       16.084743     15.977183
   7       17.193640     17.088030
   8       17.193654     17.088041
   9       20.234124     20.182365
 
 -0.4166667E+00  0.4166667E+00  0.4166667E+00  0.2777778E-01
   1        2.376581      2.284374
   2        2.488765      2.395698
   3       10.670054     10.562033
   4       10.670058     10.562037
   5       12.243468     12.146136
   6       13.006320     12.886801
   7       17.522627     17.410013
   8       17.522639     17.410024
   9       20.225684     20.174246
