       N       E                     dE             d eps       ncg     rms          rms(c)
DAV:   1     0.225740710148E+01    0.22574E+01   -0.13899E+03   619   0.219E+02
DAV:   2    -0.148635237914E+01   -0.37438E+01   -0.33551E+01   601   0.303E+01
DAV:   3    -0.153586021062E+01   -0.49508E-01   -0.49399E-01   618   0.293E+00
DAV:   4    -0.153591858777E+01   -0.58377E-04   -0.58375E-04   653   0.977E-02
DAV:   5    -0.153591860150E+01   -0.13727E-07   -0.13002E-07   556   0.129E-03    0.838E+00
DAV:   6    -0.118247113192E+02   -0.10289E+02   -0.35586E+00   532   0.555E+00    0.346E+00
DAV:   7    -0.119166173641E+02   -0.91906E-01   -0.66394E-02   571   0.145E+00    0.265E+00
DAV:   8    -0.118424166904E+02    0.74201E-01   -0.47720E-01   561   0.345E+00    0.107E+00
DAV:   9    -0.118789994251E+02   -0.36583E-01   -0.38106E-02   571   0.951E-01    0.418E-01
DAV:  10    -0.118808723963E+02   -0.18730E-02   -0.14560E-03   607   0.170E-01    0.347E-01
DAV:  11    -0.118827306961E+02   -0.18583E-02   -0.45271E-03   558   0.303E-01    0.206E-01
DAV:  12    -0.118811954832E+02    0.15352E-02   -0.10135E-03   568   0.181E-01    0.393E-01
DAV:  13    -0.118845858034E+02   -0.33903E-02   -0.22527E-03   551   0.228E-01    0.444E-02
DAV:  14    -0.118846192145E+02   -0.33411E-04   -0.19505E-05   260   0.261E-02
   1 F= -.11884619E+02 E0= -.11884370E+02  d E =-.746364E-03  mag=    -0.1548
