 vasp.5.2.12 11Nov11 complex                                                    
  
 executed on             LinuxIFC date 2012.10.17  10:22:30
 running on    1 nodes
 distr:  one band on    1 nodes,    1 groups


--------------------------------------------------------------------------------------------------------


 INCAR:
 POTCAR:    PAW_PBE Ta 17Jan2003                  
 POTCAR:    PAW_PBE Ta 17Jan2003                  
   VRHFIN =Ta:  6s5d                                                            
   LEXCH  = PE                                                                  
   EATOM  =   130.6506 eV,    9.6025 Ry                                         
                                                                                
   TITEL  = PAW_PBE Ta 17Jan2003                                                
   LULTRA =        F    use ultrasoft PP ?                                      
   IUNSCR =        1    unscreen: 0-lin 1-nonlin 2-no                           
   RPACOR =    2.330    partial core radius                                     
   POMASS =  180.948; ZVAL   =    5.000    mass and valenz                      
   RCORE  =    2.900    outmost cutoff radius                                   
   RWIGS  =    2.840; RWIGS  =    1.503    wigner-seitz radius (au A)           
   ENMAX  =  223.667; ENMIN  =  167.750 eV                                      
   RCLOC  =    2.205    cutoff for local pot                                    
   LCOR   =        T    correct aug charges                                     
   LPAW   =        T    paw PP                                                  
   EAUG   =  332.075                                                            
   DEXC   =    -.049                                                            
   RMAX   =    3.083    core radius for proj-oper                               
   RAUG   =    1.300    factor for augmentation sphere                          
   RDEP   =    3.060    radius for radial grids                                 
   QCUT   =   -4.055; QGAM   =    8.109    optimization parameters              
                                                                                
   Description                                                                  
     l     E      TYP  RCUT    TYP  RCUT                                        
     2   .000     23  2.500                                                     
     2   .000     23  2.500                                                     
     0   .000     23  2.500                                                     
     0   .000     23  2.500                                                     
     1   .000     23  2.900                                                     
     1  2.000     23  2.900                                                     
     3   .000      7   .000                                                     
  local pseudopotential read in
  partial core-charges read in
  atomic valenz-charges read in
  non local Contribution for L=           2  read in
    real space projection operators read in
  non local Contribution for L=           2  read in
    real space projection operators read in
  non local Contribution for L=           0  read in
    real space projection operators read in
  non local Contribution for L=           0  read in
    real space projection operators read in
  non local Contribution for L=           1  read in
    real space projection operators read in
  non local Contribution for L=           1  read in
    real space projection operators read in
    PAW grid and wavefunctions read in
 
   number of l-projection  operators is LMAX  =           6
   number of lm-projection operators is LMMAX =          18
 
  PAW_PBE Ta 17Jan2003                  :
 energy of atom  1       EATOM= -130.6506
 kinetic energy error for atom=    0.0711 (will be added to EATOM!!)
 
 
 POSCAR: Ta                                      
  positions in cartesian coordinates
  No initial velocities read in
 exchange correlation table for  LEXCH =        8
   RHO(1)=    0.500       N(1)  =     2000
   RHO(2)=  100.500       N(2)  =     4000
 


--------------------------------------------------------------------------------------------------------


 ion  position               nearest neighbor table
   1  0.000  0.000  0.000-
 
  LATTYP: Found a body centered cubic cell.
 ALAT       =     3.2900000000
  
  Lattice vectors:
  
 A1 = (  -1.6450000000,   1.6450000000,   1.6450000000)
 A2 = (   1.6450000000,  -1.6450000000,   1.6450000000)
 A3 = (   1.6450000000,   1.6450000000,  -1.6450000000)
 Subroutine PRICEL returns:
 Original cell was already a primitive cell.
 

Analysis of symmetry for initial positions (statically):

 Routine SETGRP: Setting up the symmetry group for a 
 body centered cubic supercell.


 Subroutine GETGRP returns: Found 48 space group operations
 (whereof 48 operations were pure point group operations)
 out of a pool of 48 trial point group operations.


The static configuration has the point symmetry O_h .

Analysis of symmetry for dynamics (positions and initial velocities):

 Subroutine DYNSYM returns: Found 48 space group operations
 (whereof 48 operations were pure point group operations)
 out of a pool of 48 trial space group operations
 (whereof 48 operations were pure point group operations)
 and found also     1 'primitive' translations


The dynamic configuration has the point symmetry O_h .

Analysis of magnetic symmetry:

 Subroutine MAGSYM returns: Found 48 space group operations
 (whereof 48 operations were pure point group operations)
 out of a pool of 48 trial space group operations
 (whereof 48 operations were pure point group operations)
 and found also     1 'primitive' translations


The magnetic configuration has the point symmetry O_h .
 
 
 KPOINTS: KPOINTS created by Atomic Simulation Env

Automatic generation of k-mesh.
 
 Subroutine IBZKPT returns following result:
 ===========================================
 
 Found     14 irreducible k-points:
 
 Following reciprocal coordinates:
            Coordinates               Weight
  0.083333  0.083333  0.083333      8.000000
  0.250000  0.083333  0.083333     24.000000
  0.416667  0.083333  0.083333     12.000000
 -0.083333  0.083333  0.083333      6.000000
  0.250000  0.250000  0.083333     24.000000
 -0.250000  0.250000  0.083333     24.000000
 -0.416667  0.416667  0.083333     24.000000
 -0.250000  0.416667  0.083333     24.000000
 -0.416667 -0.416667  0.083333     24.000000
  0.250000  0.250000  0.250000      2.000000
 -0.250000  0.250000  0.250000      6.000000
 -0.416667  0.416667  0.250000     24.000000
 -0.416667 -0.416667  0.250000      8.000000
 -0.416667  0.416667  0.416667      6.000000
 
 Following cartesian coordinates:
            Coordinates               Weight
  0.050659  0.050659  0.050659      8.000000
  0.050659  0.101317  0.101317     24.000000
  0.050659  0.151976  0.151976     12.000000
  0.050659  0.000000  0.000000      6.000000
  0.101317  0.101317  0.151976     24.000000
  0.101317 -0.050659  0.000000     24.000000
  0.151976 -0.101317  0.000000     24.000000
  0.151976 -0.050659  0.050659     24.000000
 -0.101317 -0.101317 -0.253293     24.000000
  0.151976  0.151976  0.151976      2.000000
  0.151976  0.000000  0.000000      6.000000
  0.202634 -0.050659  0.000000     24.000000
 -0.050659 -0.050659 -0.253293      8.000000
  0.253293  0.000000  0.000000      6.000000
 


--------------------------------------------------------------------------------------------------------




 Dimension of arrays:
   k-points           NKPTS =     14   k-points in BZ     NKDIM =     14   number of bands    NBANDS=      9
   number of dos      NEDOS =    301   number of ions     NIONS =      1
   non local maximal  LDIM  =      6   non local SUM 2l+1 LMDIM =     18
   total plane-waves  NPLWV =   2744
   max r-space proj   IRMAX =      1   max aug-charges    IRDMAX=  10689
   dimension x,y,z NGX =    14 NGY =   14 NGZ =   14
   dimension x,y,z NGXF=    28 NGYF=   28 NGZF=   28
   support grid    NGXF=    28 NGYF=   28 NGZF=   28
   ions per type =               1
 NGX,Y,Z   is equivalent  to a cutoff of   8.17,  8.17,  8.17 a.u.
 NGXF,Y,Z  is equivalent  to a cutoff of  16.34, 16.34, 16.34 a.u.


 I would recommend the setting:
   dimension x,y,z NGX =    13 NGY =   13 NGZ =   13
 SYSTEM =  unknown system                          
 POSCAR =  Ta                                      

 Startparameter for this run:
   NWRITE =      2    write-flag & timer
   PREC   = accura    normal or accurate (medium, high low for compatibility)
   ISTART =      0    job   : 0-new  1-cont  2-samecut
   ICHARG =      2    charge: 1-file 2-atom 10-const
   ISPIN  =      2    spin polarized calculation?
   LNONCOLLINEAR =      F non collinear calculations
   LSORBIT =      F    spin-orbit coupling
   INIWAV =      1    electr: 0-lowe 1-rand  2-diag
   LASPH  =      F    aspherical Exc in radial PAW
   METAGGA=      F    non-selfconsistent MetaGGA calc.

 Electronic Relaxation 1
   ENCUT  =  200.0 eV  14.70 Ry    3.83 a.u.   3.29  3.29  3.29*2*pi/ulx,y,z
   ENINI  =  200.0     initial cutoff
   ENAUG  =  332.1 eV  augmentation charge cutoff
   NELM   =     60;   NELMIN=  2; NELMDL= -5     # of ELM steps 
   EDIFF  = 0.1E-03   stopping-criterion for ELM
   LREAL  =      F    real-space projection
   NLSPLINE    = F    spline interpolate recip. space projectors
   LCOMPAT=      F    compatible to vasp.4.4
   GGA_COMPAT  = T    GGA compatible to vasp.4.4-vasp.4.6
   LMAXPAW     = -100 max onsite density
   LMAXMIX     =    2 max onsite mixed and CHGCAR
   VOSKOWN=      0    Vosko Wilk Nusair interpolation
   ROPT   =    0.00000
 Ionic relaxation
   EDIFFG = 0.1E-02   stopping-criterion for IOM
   NSW    =      0    number of steps for IOM
   NBLOCK =      1;   KBLOCK =      1    inner block; outer block 
   IBRION =     -1    ionic relax: 0-MD 1-quasi-New 2-CG
   NFREE  =      0    steps in history (QN), initial steepest desc. (CG)
   ISIF   =      2    stress and relaxation
   IWAVPR =     10    prediction:  0-non 1-charg 2-wave 3-comb
   ISYM   =      2    0-nonsym 1-usesym 2-fastsym
   LCORR  =      T    Harris-Foulkes like correction to forces

   POTIM  = 0.5000    time-step for ionic-motion
   TEIN   =    0.0    initial temperature
   TEBEG  =    0.0;   TEEND  =   0.0 temperature during run
   SMASS  =  -3.00    Nose mass-parameter (am)
   estimated Nose-frequenzy (Omega)   =  0.10E-29 period in steps =****** mass=  -0.186E-27a.u.
   SCALEE = 1.0000    scale energy and forces
   NPACO  =    256;   APACO  = 16.0  distance and # of slots for P.C.
   PSTRESS=    0.0 pullay stress

  Mass of Ions in am
   POMASS = 180.95
  Ionic Valenz
   ZVAL   =   5.00
  Atomic Wigner-Seitz radii
   RWIGS  =  -1.00
  virtual crystal weights 
   VCA    =   1.00
   NELECT =       5.0000    total number of electrons
   NUPDOWN=      -1.0000    fix difference up-down

 DOS related values:
   EMIN   =  10.00;   EMAX   =-10.00  energy-range for DOS
   EFERMI =   0.00
   ISMEAR =     1;   SIGMA  =   0.05  broadening in eV -4-tet -1-fermi 0-gaus

 Electronic relaxation 2 (details)
   IALGO  =     38    algorithm
   LDIAG  =      T    sub-space diagonalisation (order eigenvalues)
   LSUBROT=      T    optimize rotation matrix (better conditioning)
   TURBO    =      0    0=normal 1=particle mesh
   IRESTART =      0    0=no restart 2=restart with 2 vectors
   NREBOOT  =      0    no. of reboots
   NMIN     =      0    reboot dimension
   EREF     =   0.00    reference energy to select bands
   IMIX   =      4    mixing-type and parameters
     AMIX     =   0.40;   BMIX     =  1.00
     AMIX_MAG =   1.60;   BMIX_MAG =  1.00
     AMIN     =   0.10
     WC   =   100.;   INIMIX=   1;  MIXPRE=   1

 Intra band minimization:
   WEIMIN = 0.0000     energy-eigenvalue tresh-hold
   EBREAK =  0.28E-05  absolut break condition
   DEPER  =   0.30     relativ break condition  

   TIME   =   0.40     timestep for ELM

  volume/ion in A,a.u.               =      17.81       120.16
  Fermi-wavevector in a.u.,A,eV,Ry     =   1.072043  2.025868 15.636856  1.149277
  Thomas-Fermi vector in A             =   2.207802
 
 Write flags
   LWAVE  =      T    write WAVECAR
   LCHARG =      T    write CHGCAR
   LVTOT  =      F    write LOCPOT, total local potential
   LVHAR  =      F    write LOCPOT, Hartree potential only
   LELF   =      F    write electronic localiz. function (ELF)
   LORBIT =     11    0 simple, 1 ext, 2 COOP (PROOUT)


 Dipole corrections
   LMONO  =      F    monopole corrections only (constant potential shift)
   LDIPOL =      F    correct potential (dipole corrections)
   IDIPOL =      0    1-x, 2-y, 3-z, 4-all directions 
   EPSILON=  1.0000000 bulk dielectric constant

 Exchange correlation treatment:
   GGA     =    --    GGA type
   LEXCH   =     8    internal setting for exchange type
   VOSKOWN=      0    Vosko Wilk Nusair interpolation
   LHFCALC =     F    Hartree Fock is set to
   LHFONE  =     F    Hartree Fock one center treatment
   AEXX    =    0.0000 exact exchange contribution

 Linear response parameters
   LEPSILON=     F    determine dielectric tensor
   LRPA    =     F    only Hartree local field effects (RPA)
   LNABLA  =     F    use nabla operator in PAW spheres
   LVEL    =     F    velocity operator in full k-point grid
   LINTERFAST=   F  fast interpolation
   KINTER  =     0    interpolate to denser k-point grid
   CSHIFT  =0.1000    complex shift for real part using Kramers Kronig
   OMEGAMAX=  -1.0    maximum frequency
   RTIME   =    0.100 relaxation time in fs

 Orbital magnetization related:
   ORBITALMAG=     F  switch on orbital magnetization
   LCHIMAG   =     F  perturbation theory with respect to B field
   DQ        =  0.001000  dq finite difference perturbation B field



--------------------------------------------------------------------------------------------------------


 Static calculation
 charge density and potential will be updated during run
 spin polarized calculation
 Variant of blocked Davidson
 Davidson routine will perform the subspace rotation
 perform sub-space diagonalisation
    after iterative eigenvector-optimisation
 modified Broyden-mixing scheme, WC =      100.0
 initial mixing is a Kerker type mixing with AMIX =  0.4000 and BMIX =      1.0000
 Hartree-type preconditioning will be used
 using additional bands            6
 reciprocal scheme for non local part
 use partial core corrections
 calculate Harris-corrections to forces 
   (improved forces if not selfconsistent)
 use gradient corrections 
 use of overlap-Matrix (Vanderbilt PP)
 Methfessel and Paxton  Order N= 1 SIGMA  =   0.05


--------------------------------------------------------------------------------------------------------


  energy-cutoff  :      200.00
  volume of cell :       17.81
      direct lattice vectors                 reciprocal lattice vectors
    -1.645000000  1.645000000  1.645000000     0.000000000  0.303951368  0.303951368
     1.645000000 -1.645000000  1.645000000     0.303951368  0.000000000  0.303951368
     1.645000000  1.645000000 -1.645000000     0.303951368  0.303951368  0.000000000

  length of vectors
     2.849223578  2.849223578  2.849223578     0.429852147  0.429852147  0.429852147


 
 k-points in units of 2pi/SCALE and weight: KPOINTS created by Atomic Simulation Env
   0.05065856  0.05065856  0.05065856       0.037
   0.05065856  0.10131712  0.10131712       0.111
   0.05065856  0.15197568  0.15197568       0.056
   0.05065856  0.00000000  0.00000000       0.028
   0.10131712  0.10131712  0.15197568       0.111
   0.10131712 -0.05065856  0.00000000       0.111
   0.15197568 -0.10131712  0.00000000       0.111
   0.15197568 -0.05065856  0.05065856       0.111
  -0.10131712 -0.10131712 -0.25329281       0.111
   0.15197568  0.15197568  0.15197568       0.009
   0.15197568  0.00000000  0.00000000       0.028
   0.20263425 -0.05065856  0.00000000       0.111
  -0.05065856 -0.05065856 -0.25329281       0.037
   0.25329281  0.00000000  0.00000000       0.028
 
 k-points in reciprocal lattice and weights: KPOINTS created by Atomic Simulation Env
   0.08333333  0.08333333  0.08333333       0.037
   0.25000000  0.08333333  0.08333333       0.111
   0.41666667  0.08333333  0.08333333       0.056
  -0.08333333  0.08333333  0.08333333       0.028
   0.25000000  0.25000000  0.08333333       0.111
  -0.25000000  0.25000000  0.08333333       0.111
  -0.41666667  0.41666667  0.08333333       0.111
  -0.25000000  0.41666667  0.08333333       0.111
  -0.41666667 -0.41666667  0.08333333       0.111
   0.25000000  0.25000000  0.25000000       0.009
  -0.25000000  0.25000000  0.25000000       0.028
  -0.41666667  0.41666667  0.25000000       0.111
  -0.41666667 -0.41666667  0.25000000       0.037
  -0.41666667  0.41666667  0.41666667       0.028
 
 position of ions in fractional coordinates (direct lattice) 
   0.00000000  0.00000000  0.00000000
 
 position of ions in cartesian coordinates  (Angst):
   0.00000000  0.00000000  0.00000000
 


--------------------------------------------------------------------------------------------------------


 k-point  1 :  0.08330.08330.0833  plane waves:     117
 k-point  2 :  0.25000.08330.0833  plane waves:     113
 k-point  3 :  0.41670.08330.0833  plane waves:     112
 k-point  4 :  -.08330.08330.0833  plane waves:     119
 k-point  5 :  0.25000.25000.0833  plane waves:     116
 k-point  6 :  -.25000.25000.0833  plane waves:     114
 k-point  7 :  -.41670.41670.0833  plane waves:     116
 k-point  8 :  -.25000.41670.0833  plane waves:     116
 k-point  9 :  -.4167-.41670.0833  plane waves:     115
 k-point 10 :  0.25000.25000.2500  plane waves:     104
 k-point 11 :  -.25000.25000.2500  plane waves:     116
 k-point 12 :  -.41670.41670.2500  plane waves:     110
 k-point 13 :  -.4167-.41670.2500  plane waves:     110
 k-point 14 :  -.41670.41670.4167  plane waves:     116

 maximum and minimum number of plane-waves per node :       119      104

 maximum number of plane-waves:       119
 maximum index in each direction: 
   IXMAX=    3   IYMAX=    3   IZMAX=    3
   IXMIN=   -3   IYMIN=   -3   IZMIN=   -3

 NGX is ok and might be reduce to  14
 NGY is ok and might be reduce to  14
 NGZ is ok and might be reduce to  14

 serial   3D FFT for wavefunctions
 parallel 3D FFT for charge:
    minimum data exchange during FFTs selected (reduces bandwidth)


 total amount of memory used by VASP on root node    33518. kBytes
========================================================================

   base      :      30000. kBytes
   nonl-proj :        241. kBytes
   fftplans  :        800. kBytes
   grid      :       1894. kBytes
   one-center:         31. kBytes
   wavefun   :        552. kBytes
 
 Broyden mixing: mesh for mixing (old mesh)
   NGX =  7   NGY =  7   NGZ =  7
  (NGX  = 28   NGY  = 28   NGZ  = 28)
  gives a total of    343 points

 initial charge density was supplied:
 charge density of overlapping atoms calculated
 number of electron       5.0000000 magnetization       6.0000000
 keeping initial charge density in first step


--------------------------------------------------------------------------------------------------------


 Maximum index for augmentation-charges        10081 (set IRDMAX)


--------------------------------------------------------------------------------------------------------


 First call to EWALD:  gamma=   0.679
 Maximum number of real-space cells 3x 3x 3
 Maximum number of reciprocal cells 3x 3x 3

    FEWALD:  cpu time    0.00: real time    0.00


----------------------------------------- Iteration    1(   1)  ---------------------------------------


    POTLOK:  cpu time    0.07: real time    0.07
    SETDIJ:  cpu time    0.02: real time    0.02
     EDDAV:  cpu time    0.30: real time    0.31
       DOS:  cpu time    0.00: real time    0.00
    --------------------------------------------
      LOOP:  cpu time    0.40: real time    0.41

 eigenvalue-minimisations  :   619
 total energy-change (2. order) : 0.2257407E+01  (-0.1389855E+03)
 number of electron       5.0000000 magnetization       6.0000000
 augmentation part        5.0000000 magnetization       6.0000000

 Free energy of the ion-electron system (eV)
  ---------------------------------------------------
  alpha Z        PSCENC =        31.14448904
  Ewald energy   TEWEN  =      -199.10405440
  -1/2 Hartree   DENC   =        -2.40103824
  -exchange  EXHF       =         0.00000000
  -V(xc)+E(xc)   XCENC  =       -60.72720174
  PAW double counting   =       143.51874798      -69.33493833
  entropy T*S    EENTRO =        -0.00070458
  eigenvalues    EBANDS =        28.58260705
  atomic energy  EATOM  =       130.57950032
  ---------------------------------------------------
  free energy    TOTEN  =         2.25740710 eV

  energy without entropy =        2.25811168  energy(sigma->0) =        2.25764196


--------------------------------------------------------------------------------------------------------




----------------------------------------- Iteration    1(   2)  ---------------------------------------


     EDDAV:  cpu time    0.30: real time    0.30
       DOS:  cpu time    0.00: real time    0.00
    --------------------------------------------
      LOOP:  cpu time    0.30: real time    0.30

 eigenvalue-minimisations  :   601
 total energy-change (2. order) :-0.3743759E+01  (-0.3355076E+01)
 number of electron       5.0000000 magnetization       6.0000000
 augmentation part        5.0000000 magnetization       6.0000000

 Free energy of the ion-electron system (eV)
  ---------------------------------------------------
  alpha Z        PSCENC =        31.14448904
  Ewald energy   TEWEN  =      -199.10405440
  -1/2 Hartree   DENC   =        -2.40103824
  -exchange  EXHF       =         0.00000000
  -V(xc)+E(xc)   XCENC  =       -60.72720174
  PAW double counting   =       143.51874798      -69.33493833
  entropy T*S    EENTRO =        -0.00056619
  eigenvalues    EBANDS =        24.83870918
  atomic energy  EATOM  =       130.57950032
  ---------------------------------------------------
  free energy    TOTEN  =        -1.48635238 eV

  energy without entropy =       -1.48578619  energy(sigma->0) =       -1.48616365


--------------------------------------------------------------------------------------------------------




----------------------------------------- Iteration    1(   3)  ---------------------------------------


     EDDAV:  cpu time    0.30: real time    0.30
       DOS:  cpu time    0.00: real time    0.00
    --------------------------------------------
      LOOP:  cpu time    0.30: real time    1.28

 eigenvalue-minimisations  :   618
 total energy-change (2. order) :-0.4950783E-01  (-0.4939948E-01)
 number of electron       5.0000000 magnetization       6.0000000
 augmentation part        5.0000000 magnetization       6.0000000

 Free energy of the ion-electron system (eV)
  ---------------------------------------------------
  alpha Z        PSCENC =        31.14448904
  Ewald energy   TEWEN  =      -199.10405440
  -1/2 Hartree   DENC   =        -2.40103824
  -exchange  EXHF       =         0.00000000
  -V(xc)+E(xc)   XCENC  =       -60.72720174
  PAW double counting   =       143.51874798      -69.33493833
  entropy T*S    EENTRO =        -0.00039349
  eigenvalues    EBANDS =        24.78902865
  atomic energy  EATOM  =       130.57950032
  ---------------------------------------------------
  free energy    TOTEN  =        -1.53586021 eV

  energy without entropy =       -1.53546672  energy(sigma->0) =       -1.53572905


--------------------------------------------------------------------------------------------------------




----------------------------------------- Iteration    1(   4)  ---------------------------------------


     EDDAV:  cpu time    0.32: real time    0.32
       DOS:  cpu time    0.00: real time    0.00
    --------------------------------------------
      LOOP:  cpu time    0.32: real time    0.34

 eigenvalue-minimisations  :   653
 total energy-change (2. order) :-0.5837715E-04  (-0.5837511E-04)
 number of electron       5.0000000 magnetization       6.0000000
 augmentation part        5.0000000 magnetization       6.0000000

 Free energy of the ion-electron system (eV)
  ---------------------------------------------------
  alpha Z        PSCENC =        31.14448904
  Ewald energy   TEWEN  =      -199.10405440
  -1/2 Hartree   DENC   =        -2.40103824
  -exchange  EXHF       =         0.00000000
  -V(xc)+E(xc)   XCENC  =       -60.72720174
  PAW double counting   =       143.51874798      -69.33493833
  entropy T*S    EENTRO =        -0.00039338
  eigenvalues    EBANDS =        24.78897016
  atomic energy  EATOM  =       130.57950032
  ---------------------------------------------------
  free energy    TOTEN  =        -1.53591859 eV

  energy without entropy =       -1.53552521  energy(sigma->0) =       -1.53578746


--------------------------------------------------------------------------------------------------------




----------------------------------------- Iteration    1(   5)  ---------------------------------------


     EDDAV:  cpu time    0.28: real time    0.28
       DOS:  cpu time    0.00: real time    0.00
    CHARGE:  cpu time    0.03: real time    0.03
    MIXING:  cpu time    0.00: real time    0.00
    --------------------------------------------
      LOOP:  cpu time    0.31: real time    0.33

 eigenvalue-minimisations  :   556
 total energy-change (2. order) :-0.1372715E-07  (-0.1300196E-07)
 number of electron       5.0000002 magnetization       1.6167673
 augmentation part        0.4469223 magnetization      -0.9779941

 Broyden mixing:
  rms(total) = 0.83764E+00    rms(broyden)= 0.83749E+00
  rms(prec ) = 0.10661E+01
  weight for this iteration     100.00

 Free energy of the ion-electron system (eV)
  ---------------------------------------------------
  alpha Z        PSCENC =        31.14448904
  Ewald energy   TEWEN  =      -199.10405440
  -1/2 Hartree   DENC   =        -2.40103824
  -exchange  EXHF       =         0.00000000
  -V(xc)+E(xc)   XCENC  =       -60.72720174
  PAW double counting   =       143.51874798      -69.33493833
  entropy T*S    EENTRO =        -0.00039338
  eigenvalues    EBANDS =        24.78897014
  atomic energy  EATOM  =       130.57950032
  ---------------------------------------------------
  free energy    TOTEN  =        -1.53591860 eV

  energy without entropy =       -1.53552522  energy(sigma->0) =       -1.53578748


--------------------------------------------------------------------------------------------------------




----------------------------------------- Iteration    1(   6)  ---------------------------------------


    POTLOK:  cpu time    0.07: real time    0.07
    SETDIJ:  cpu time    0.02: real time    0.02
     EDDAV:  cpu time    0.27: real time    0.27
       DOS:  cpu time    0.00: real time    0.00
    CHARGE:  cpu time    0.03: real time    0.03
    MIXING:  cpu time    0.00: real time    0.00
    --------------------------------------------
      LOOP:  cpu time    0.39: real time    0.40

 eigenvalue-minimisations  :   532
 total energy-change (2. order) :-0.1028879E+02  (-0.3558642E+00)
 number of electron       5.0000002 magnetization       1.1061926
 augmentation part        0.3681754 magnetization       0.4926826

 Broyden mixing:
  rms(total) = 0.34624E+00    rms(broyden)= 0.34601E+00
  rms(prec ) = 0.11295E+01
  weight for this iteration     100.00

 eigenvalues of (default mixing * dielectric matrix)
  average eigenvalue GAMMA=   1.2828
  1.2828

 Free energy of the ion-electron system (eV)
  ---------------------------------------------------
  alpha Z        PSCENC =        31.14448904
  Ewald energy   TEWEN  =      -199.10405440
  -1/2 Hartree   DENC   =        -1.86768607
  -exchange  EXHF       =         0.00000000
  -V(xc)+E(xc)   XCENC  =       -66.22666756
  PAW double counting   =       164.83885263      -90.90258756
  entropy T*S    EENTRO =         0.00008141
  eigenvalues    EBANDS =        19.71336087
  atomic energy  EATOM  =       130.57950032
  ---------------------------------------------------
  free energy    TOTEN  =       -11.82471132 eV

  energy without entropy =      -11.82479273  energy(sigma->0) =      -11.82473846


--------------------------------------------------------------------------------------------------------




----------------------------------------- Iteration    1(   7)  ---------------------------------------


    POTLOK:  cpu time    0.07: real time    0.07
    SETDIJ:  cpu time    0.02: real time    0.02
     EDDAV:  cpu time    0.28: real time    0.28
       DOS:  cpu time    0.00: real time    0.00
    CHARGE:  cpu time    0.03: real time    0.03
    MIXING:  cpu time    0.00: real time    0.00
    --------------------------------------------
      LOOP:  cpu time    0.40: real time    0.42

 eigenvalue-minimisations  :   571
 total energy-change (2. order) :-0.9190604E-01  (-0.6639364E-02)
 number of electron       5.0000002 magnetization       0.3730682
 augmentation part        0.3699560 magnetization      -0.0704877

 Broyden mixing:
  rms(total) = 0.26510E+00    rms(broyden)= 0.26506E+00
  rms(prec ) = 0.94585E+00
  weight for this iteration     100.00

 eigenvalues of (default mixing * dielectric matrix)
  average eigenvalue GAMMA=   1.0947
  1.0947  1.0947

 Free energy of the ion-electron system (eV)
  ---------------------------------------------------
  alpha Z        PSCENC =        31.14448904
  Ewald energy   TEWEN  =      -199.10405440
  -1/2 Hartree   DENC   =        -1.56349300
  -exchange  EXHF       =         0.00000000
  -V(xc)+E(xc)   XCENC  =       -66.28747608
  PAW double counting   =       169.60167493      -95.76856900
  entropy T*S    EENTRO =        -0.00098672
  eigenvalues    EBANDS =        19.48229755
  atomic energy  EATOM  =       130.57950032
  ---------------------------------------------------
  free energy    TOTEN  =       -11.91661736 eV

  energy without entropy =      -11.91563065  energy(sigma->0) =      -11.91628846


--------------------------------------------------------------------------------------------------------




----------------------------------------- Iteration    1(   8)  ---------------------------------------


    POTLOK:  cpu time    0.06: real time    0.07
    SETDIJ:  cpu time    0.02: real time    0.02
     EDDAV:  cpu time    0.28: real time    0.28
       DOS:  cpu time    0.00: real time    0.00
    CHARGE:  cpu time    0.03: real time    0.03
    MIXING:  cpu time    0.00: real time    0.00
    --------------------------------------------
      LOOP:  cpu time    0.40: real time    0.42

 eigenvalue-minimisations  :   561
 total energy-change (2. order) : 0.7420067E-01  (-0.4771985E-01)
 number of electron       5.0000002 magnetization       0.1502836
 augmentation part        0.4045630 magnetization       0.0138522

 Broyden mixing:
  rms(total) = 0.10695E+00    rms(broyden)= 0.10680E+00
  rms(prec ) = 0.14856E+00
  weight for this iteration     100.00

 eigenvalues of (default mixing * dielectric matrix)
  average eigenvalue GAMMA=   1.0895
  1.3162  1.3162  0.6360

 Free energy of the ion-electron system (eV)
  ---------------------------------------------------
  alpha Z        PSCENC =        31.14448904
  Ewald energy   TEWEN  =      -199.10405440
  -1/2 Hartree   DENC   =        -0.59563563
  -exchange  EXHF       =         0.00000000
  -V(xc)+E(xc)   XCENC  =       -65.98116785
  PAW double counting   =       186.24703830     -112.78042382
  entropy T*S    EENTRO =        -0.00032571
  eigenvalues    EBANDS =        18.64816306
  atomic energy  EATOM  =       130.57950032
  ---------------------------------------------------
  free energy    TOTEN  =       -11.84241669 eV

  energy without entropy =      -11.84209098  energy(sigma->0) =      -11.84230812


--------------------------------------------------------------------------------------------------------




----------------------------------------- Iteration    1(   9)  ---------------------------------------


    POTLOK:  cpu time    0.06: real time    0.06
    SETDIJ:  cpu time    0.02: real time    0.02
     EDDAV:  cpu time    0.28: real time    0.28
       DOS:  cpu time    0.00: real time    0.00
    CHARGE:  cpu time    0.03: real time    0.03
    MIXING:  cpu time    0.00: real time    0.00
    --------------------------------------------
      LOOP:  cpu time    0.40: real time    0.42

 eigenvalue-minimisations  :   571
 total energy-change (2. order) :-0.3658273E-01  (-0.3810616E-02)
 number of electron       5.0000002 magnetization       0.1856181
 augmentation part        0.4057990 magnetization       0.0393327

 Broyden mixing:
  rms(total) = 0.41846E-01    rms(broyden)= 0.41837E-01
  rms(prec ) = 0.88465E-01
  weight for this iteration     100.00

 eigenvalues of (default mixing * dielectric matrix)
  average eigenvalue GAMMA=   1.0768
  1.3838  1.3838  0.7699  0.7699

 Free energy of the ion-electron system (eV)
  ---------------------------------------------------
  alpha Z        PSCENC =        31.14448904
  Ewald energy   TEWEN  =      -199.10405440
  -1/2 Hartree   DENC   =        -0.56109715
  -exchange  EXHF       =         0.00000000
  -V(xc)+E(xc)   XCENC  =       -65.97505923
  PAW double counting   =       189.37738803     -115.94215774
  entropy T*S    EENTRO =        -0.00003133
  eigenvalues    EBANDS =        18.60202303
  atomic energy  EATOM  =       130.57950032
  ---------------------------------------------------
  free energy    TOTEN  =       -11.87899943 eV

  energy without entropy =      -11.87896810  energy(sigma->0) =      -11.87898898


--------------------------------------------------------------------------------------------------------




----------------------------------------- Iteration    1(  10)  ---------------------------------------


    POTLOK:  cpu time    0.06: real time    0.06
    SETDIJ:  cpu time    0.02: real time    0.02
     EDDAV:  cpu time    0.30: real time    0.30
       DOS:  cpu time    0.00: real time    0.00
    CHARGE:  cpu time    0.03: real time    0.03
    MIXING:  cpu time    0.00: real time    0.00
    --------------------------------------------
      LOOP:  cpu time    0.42: real time    0.43

 eigenvalue-minimisations  :   607
 total energy-change (2. order) :-0.1872971E-02  (-0.1456006E-03)
 number of electron       5.0000002 magnetization      -0.0437820
 augmentation part        0.4055062 magnetization      -0.1806228

 Broyden mixing:
  rms(total) = 0.34685E-01    rms(broyden)= 0.34685E-01
  rms(prec ) = 0.75616E-01
  weight for this iteration     100.00

 eigenvalues of (default mixing * dielectric matrix)
  average eigenvalue GAMMA=   1.1046
  1.8524  1.0565  1.0565  0.9072  0.6506

 Free energy of the ion-electron system (eV)
  ---------------------------------------------------
  alpha Z        PSCENC =        31.14448904
  Ewald energy   TEWEN  =      -199.10405440
  -1/2 Hartree   DENC   =        -0.57123966
  -exchange  EXHF       =         0.00000000
  -V(xc)+E(xc)   XCENC  =       -65.97836289
  PAW double counting   =       190.11871899     -116.68305924
  entropy T*S    EENTRO =        -0.00060385
  eigenvalues    EBANDS =        18.61373929
  atomic energy  EATOM  =       130.57950032
  ---------------------------------------------------
  free energy    TOTEN  =       -11.88087240 eV

  energy without entropy =      -11.88026854  energy(sigma->0) =      -11.88067111


--------------------------------------------------------------------------------------------------------




----------------------------------------- Iteration    1(  11)  ---------------------------------------


    POTLOK:  cpu time    0.06: real time    0.06
    SETDIJ:  cpu time    0.02: real time    0.02
     EDDAV:  cpu time    0.28: real time    0.28
       DOS:  cpu time    0.00: real time    0.00
    CHARGE:  cpu time    0.03: real time    0.03
    MIXING:  cpu time    0.00: real time    0.00
    --------------------------------------------
      LOOP:  cpu time    0.40: real time    0.41

 eigenvalue-minimisations  :   558
 total energy-change (2. order) :-0.1858300E-02  (-0.4527148E-03)
 number of electron       5.0000002 magnetization      -0.2888171
 augmentation part        0.4071643 magnetization      -0.2101215

 Broyden mixing:
  rms(total) = 0.20644E-01    rms(broyden)= 0.20567E-01
  rms(prec ) = 0.59070E-01
  weight for this iteration     100.00

 eigenvalues of (default mixing * dielectric matrix)
  average eigenvalue GAMMA=   1.2998
  2.4661  1.5238  1.5238  0.8183  0.8183  0.6487

 Free energy of the ion-electron system (eV)
  ---------------------------------------------------
  alpha Z        PSCENC =        31.14448904
  Ewald energy   TEWEN  =      -199.10405440
  -1/2 Hartree   DENC   =        -0.54495669
  -exchange  EXHF       =         0.00000000
  -V(xc)+E(xc)   XCENC  =       -65.95097566
  PAW double counting   =       195.49711659     -122.09207869
  entropy T*S    EENTRO =        -0.00168494
  eigenvalues    EBANDS =        18.58991373
  atomic energy  EATOM  =       130.57950032
  ---------------------------------------------------
  free energy    TOTEN  =       -11.88273070 eV

  energy without entropy =      -11.88104576  energy(sigma->0) =      -11.88216905


--------------------------------------------------------------------------------------------------------




----------------------------------------- Iteration    1(  12)  ---------------------------------------


    POTLOK:  cpu time    0.06: real time    0.06
    SETDIJ:  cpu time    0.02: real time    0.02
     EDDAV:  cpu time    0.28: real time    0.28
       DOS:  cpu time    0.00: real time    0.00
    CHARGE:  cpu time    0.03: real time    0.03
    MIXING:  cpu time    0.00: real time    0.00
    --------------------------------------------
      LOOP:  cpu time    0.40: real time    0.41

 eigenvalue-minimisations  :   568
 total energy-change (2. order) : 0.1535213E-02  (-0.1013457E-03)
 number of electron       5.0000002 magnetization      -0.1675865
 augmentation part        0.4070758 magnetization      -0.0354156

 Broyden mixing:
  rms(total) = 0.39289E-01    rms(broyden)= 0.39282E-01
  rms(prec ) = 0.58891E-01
  weight for this iteration     100.00

 eigenvalues of (default mixing * dielectric matrix)
  average eigenvalue GAMMA=   1.2395
  2.4467  1.5865  1.5865  0.9572  0.7389  0.7389  0.6218

 Free energy of the ion-electron system (eV)
  ---------------------------------------------------
  alpha Z        PSCENC =        31.14448904
  Ewald energy   TEWEN  =      -199.10405440
  -1/2 Hartree   DENC   =        -0.55224685
  -exchange  EXHF       =         0.00000000
  -V(xc)+E(xc)   XCENC  =       -65.94243967
  PAW double counting   =       197.03286863     -123.63149651
  entropy T*S    EENTRO =        -0.00108721
  eigenvalues    EBANDS =        18.59327116
  atomic energy  EATOM  =       130.57950032
  ---------------------------------------------------
  free energy    TOTEN  =       -11.88119548 eV

  energy without entropy =      -11.88010828  energy(sigma->0) =      -11.88083308


--------------------------------------------------------------------------------------------------------




----------------------------------------- Iteration    1(  13)  ---------------------------------------


    POTLOK:  cpu time    0.06: real time    0.06
    SETDIJ:  cpu time    0.02: real time    0.02
     EDDAV:  cpu time    0.28: real time    0.28
       DOS:  cpu time    0.00: real time    0.00
    CHARGE:  cpu time    0.03: real time    0.03
    MIXING:  cpu time    0.00: real time    0.00
    --------------------------------------------
      LOOP:  cpu time    0.39: real time    0.41

 eigenvalue-minimisations  :   551
 total energy-change (2. order) :-0.3390320E-02  (-0.2252727E-03)
 number of electron       5.0000002 magnetization      -0.1607793
 augmentation part        0.4058974 magnetization      -0.0255609

 Broyden mixing:
  rms(total) = 0.44353E-02    rms(broyden)= 0.44339E-02
  rms(prec ) = 0.63640E-02
  weight for this iteration     100.00

 eigenvalues of (default mixing * dielectric matrix)
  average eigenvalue GAMMA=   1.1982
  2.3853  1.8328  1.2581  1.2581  0.7766  0.7766  0.6641  0.6343

 Free energy of the ion-electron system (eV)
  ---------------------------------------------------
  alpha Z        PSCENC =        31.14448904
  Ewald energy   TEWEN  =      -199.10405440
  -1/2 Hartree   DENC   =        -0.59011682
  -exchange  EXHF       =         0.00000000
  -V(xc)+E(xc)   XCENC  =       -65.96823209
  PAW double counting   =       197.25297619     -123.83805278
  entropy T*S    EENTRO =        -0.00081197
  eigenvalues    EBANDS =        18.63971670
  atomic energy  EATOM  =       130.57950032
  ---------------------------------------------------
  free energy    TOTEN  =       -11.88458580 eV

  energy without entropy =      -11.88377383  energy(sigma->0) =      -11.88431515


--------------------------------------------------------------------------------------------------------




----------------------------------------- Iteration    1(  14)  ---------------------------------------


    POTLOK:  cpu time    0.06: real time    0.06
    SETDIJ:  cpu time    0.02: real time    0.02
     EDDAV:  cpu time    0.17: real time    0.17
       DOS:  cpu time    0.00: real time    0.00
    --------------------------------------------
      LOOP:  cpu time    0.26: real time    0.27

 eigenvalue-minimisations  :   260
 total energy-change (2. order) :-0.3341117E-04  (-0.1950539E-05)
 number of electron       5.0000002 magnetization      -0.1607793
 augmentation part        0.4058974 magnetization      -0.0255609

 Free energy of the ion-electron system (eV)
  ---------------------------------------------------
  alpha Z        PSCENC =        31.14448904
  Ewald energy   TEWEN  =      -199.10405440
  -1/2 Hartree   DENC   =        -0.59388786
  -exchange  EXHF       =         0.00000000
  -V(xc)+E(xc)   XCENC  =       -65.97005201
  PAW double counting   =       197.35951542     -123.94284459
  entropy T*S    EENTRO =        -0.00074636
  eigenvalues    EBANDS =        18.64346123
  atomic energy  EATOM  =       130.57950032
  ---------------------------------------------------
  free energy    TOTEN  =       -11.88461921 eV

  energy without entropy =      -11.88387285  energy(sigma->0) =      -11.88437043


--------------------------------------------------------------------------------------------------------




 average (electrostatic) potential at core
  the test charge radii are     1.2538
  (the norm of the test charge is              1.0000)
       1 -34.7746
 
 
 
 E-fermi :   5.7916     XC(G=0): -12.4518     alpha+bet :-13.7513


 spin component 1

 k-point   1 :       0.0833    0.0833    0.0833
  band No.  band energies     occupation 
      1      -0.3540      1.00000
      2       5.7212      1.03150
      3       5.7212      1.03150
      4       8.8486      0.00000
      5       9.7249      0.00000
      6       9.7249      0.00000
      7      20.2246      0.00000
      8      22.1219      0.00000
      9      23.2926      0.00000

 k-point   2 :       0.2500    0.0833    0.0833
  band No.  band energies     occupation 
      1       1.7798      1.00000
      2       4.6825      1.00000
      3       5.2828      1.00000
      4       9.9288      0.00000
      5      10.5503      0.00000
      6      12.3278      0.00000
      7      19.9963      0.00000
      8      20.2945      0.00000
      9      20.3175      0.00000

 k-point   3 :       0.4167    0.0833    0.0833
  band No.  band energies     occupation 
      1       2.1379      1.00000
      2       4.3078      1.00000
      3       6.8545      0.00000
      4      10.1395      0.00000
      5      10.9717      0.00000
      6      14.8524      0.00000
      7      16.6548      0.00000
      8      18.6063      0.00000
      9      20.2349      0.00000

 k-point   4 :      -0.0833    0.0833    0.0833
  band No.  band energies     occupation 
      1      -1.4298      1.00000
      2       6.6279      0.00000
      3       6.6279      0.00000
      4       6.9776      0.00000
      5       8.9858      0.00000
      6      10.3270      0.00000
      7      20.2261      0.00000
      8      22.0549      0.00000
      9      22.0549      0.00000

 k-point   5 :       0.2500    0.2500    0.0833
  band No.  band energies     occupation 
      1       3.3734      1.00000
      2       4.5310      1.00000
      3       5.1873      1.00000
      4      10.4437      0.00000
      5      10.9242      0.00000
      6      15.4772      0.00000
      7      16.1031      0.00000
      8      19.8806      0.00000
      9      20.2325      0.00000

 k-point   6 :      -0.2500    0.2500    0.0833
  band No.  band energies     occupation 
      1       0.5304      1.00000
      2       5.6629      1.00083
      3       5.8110      0.19625
      4       8.4408      0.00000
      5       9.2179      0.00000
      6      10.7941      0.00000
      7      20.2210      0.00000
      8      21.1274      0.00000
      9      23.2812      0.00000

 k-point   7 :      -0.4167    0.4167    0.0833
  band No.  band energies     occupation 
      1       1.7609      1.00000
      2       4.8094      1.00000
      3       6.2511      0.00000
      4       9.2893      0.00000
      5      11.2882      0.00000
      6      12.8747      0.00000
      7      18.3502      0.00000
      8      19.6950      0.00000
      9      20.2427      0.00000

 k-point   8 :      -0.2500    0.4167    0.0833
  band No.  band energies     occupation 
      1       2.4295      1.00000
      2       4.5589      1.00000
      3       5.7959      0.42615
      4       8.5478      0.00000
      5      10.7212      0.00000
      6      12.4287      0.00000
      7      19.0224      0.00000
      8      20.2366      0.00000
      9      22.8244      0.00000

 k-point   9 :      -0.4167   -0.4167    0.0833
  band No.  band energies     occupation 
      1       2.9879      1.00000
      2       4.8524      1.00000
      3       5.2189      1.00000
      4       9.1350      0.00000
      5      11.4224      0.00000
      6      15.7498      0.00000
      7      16.2443      0.00000
      8      20.1137      0.00000
      9      20.2345      0.00000

 k-point  10 :       0.2500    0.2500    0.2500
  band No.  band energies     occupation 
      1       4.7036      1.00000
      2       4.7036      1.00000
      3       4.7036      1.00000
      4      11.1358      0.00000
      5      11.1358      0.00000
      6      13.1662      0.00000
      7      18.9530      0.00000
      8      18.9530      0.00000
      9      18.9530      0.00000

 k-point  11 :      -0.2500    0.2500    0.2500
  band No.  band energies     occupation 
      1       2.1731      1.00000
      2       4.9434      1.00000
      3       7.2170      0.00000
      4       7.2170      0.00000
      5       9.1896      0.00000
      6      11.0240      0.00000
      7      20.2140      0.00000
      8      20.6694      0.00000
      9      25.4784      0.00000

 k-point  12 :      -0.4167    0.4167    0.2500
  band No.  band energies     occupation 
      1       3.0421      1.00000
      2       3.8866      1.00000
      3       7.1640      0.00000
      4       7.8508      0.00000
      5      12.3497      0.00000
      6      12.4223      0.00000
      7      18.8851      0.00000
      8      20.2391      0.00000
      9      21.2555      0.00000

 k-point  13 :      -0.4167   -0.4167    0.2500
  band No.  band energies     occupation 
      1       3.1719      1.00000
      2       3.1719      1.00000
      3       6.7287      0.00000
      4      11.0182      0.00000
      5      11.0182      0.00000
      6      16.0847      0.00000
      7      17.1936      0.00000
      8      17.1937      0.00000
      9      20.2341      0.00000

 k-point  14 :      -0.4167    0.4167    0.4167
  band No.  band energies     occupation 
      1       2.3766      1.00000
      2       2.4888      1.00000
      3      10.6701      0.00000
      4      10.6701      0.00000
      5      12.2435      0.00000
      6      13.0063      0.00000
      7      17.5226      0.00000
      8      17.5226      0.00000
      9      20.2257      0.00000

 spin component 2

 k-point   1 :       0.0833    0.0833    0.0833
  band No.  band energies     occupation 
      1      -0.4699      1.00000
      2       5.6066      1.00000
      3       5.6066      1.00000
      4       8.7372      0.00000
      5       9.6483      0.00000
      6       9.6483      0.00000
      7      20.1730      0.00000
      8      21.9984      0.00000
      9      23.1875      0.00000

 k-point   2 :       0.2500    0.0833    0.0833
  band No.  band energies     occupation 
      1       1.6651      1.00000
      2       4.5659      1.00000
      3       5.1737      1.00000
      4       9.8452      0.00000
      5      10.4759      0.00000
      6      12.2254      0.00000
      7      19.9059      0.00000
      8      20.2148      0.00000
      9      20.2315      0.00000

 k-point   3 :       0.4167    0.0833    0.0833
  band No.  band energies     occupation 
      1       2.0252      1.00000
      2       4.1903      1.00000
      3       6.7453      0.00000
      4      10.0562      0.00000
      5      10.8995      0.00000
      6      14.7622      0.00000
      7      16.5479      0.00000
      8      18.5021      0.00000
      9      20.1829      0.00000

 k-point   4 :      -0.0833    0.0833    0.0833
  band No.  band energies     occupation 
      1      -1.5461      1.00000
      2       6.5121      0.00000
      3       6.5121      0.00000
      4       6.8623      0.00000
      5       8.9097      0.00000
      6      10.2573      0.00000
      7      20.1745      0.00000
      8      21.9325      0.00000
      9      21.9584      0.00000

 k-point   5 :       0.2500    0.2500    0.0833
  band No.  band energies     occupation 
      1       3.2572      1.00000
      2       4.4216      1.00000
      3       5.0751      1.00000
      4      10.3626      0.00000
      5      10.8487      0.00000
      6      15.3588      0.00000
      7      16.0128      0.00000
      8      19.7916      0.00000
      9      20.1806      0.00000

 k-point   6 :      -0.2500    0.2500    0.0833
  band No.  band energies     occupation 
      1       0.4155      1.00000
      2       5.5461      1.00000
      3       5.7062      1.01826
      4       8.3492      0.00000
      5       9.1075      0.00000
      6      10.7219      0.00000
      7      20.1693      0.00000
      8      21.0227      0.00000
      9      23.1821      0.00000

 k-point   7 :      -0.4167    0.4167    0.0833
  band No.  band energies     occupation 
      1       1.6490      1.00000
      2       4.6918      1.00000
      3       6.1500      0.00000
      4       9.1973      0.00000
      5      11.2084      0.00000
      6      12.7776      0.00000
      7      18.2550      0.00000
      8      19.5952      0.00000
      9      20.1900      0.00000

 k-point   8 :      -0.2500    0.4167    0.0833
  band No.  band energies     occupation 
      1       2.3169      1.00000
      2       4.4589      1.00000
      3       5.6822      1.00417
      4       8.4485      0.00000
      5      10.6345      0.00000
      6      12.3318      0.00000
      7      18.9251      0.00000
      8      20.1844      0.00000
      9      22.7340      0.00000

 k-point   9 :      -0.4167   -0.4167    0.0833
  band No.  band energies     occupation 
      1       2.8788      1.00000
      2       4.7410      1.00000
      3       5.1209      1.00000
      4       9.0376      0.00000
      5      11.3296      0.00000
      6      15.6590      0.00000
      7      16.1376      0.00000
      8      20.0179      0.00000
      9      20.1825      0.00000

 k-point  10 :       0.2500    0.2500    0.2500
  band No.  band energies     occupation 
      1       4.5900      1.00000
      2       4.5900      1.00000
      3       4.5900      1.00000
      4      11.0644      0.00000
      5      11.0644      0.00000
      6      13.0390      0.00000
      7      18.8640      0.00000
      8      18.8640      0.00000
      9      18.8640      0.00000

 k-point  11 :      -0.2500    0.2500    0.2500
  band No.  band energies     occupation 
      1       2.0639      1.00000
      2       4.8551      1.00000
      3       7.1029      0.00000
      4       7.1029      0.00000
      5       9.0798      0.00000
      6      10.9403      0.00000
      7      20.1616      0.00000
      8      20.5770      0.00000
      9      25.3745      0.00000

 k-point  12 :      -0.4167    0.4167    0.2500
  band No.  band energies     occupation 
      1       2.9431      1.00000
      2       3.7928      1.00000
      3       7.0499      0.00000
      4       7.7431      0.00000
      5      12.2510      0.00000
      6      12.3177      0.00000
      7      18.7896      0.00000
      8      20.1870      0.00000
      9      21.1385      0.00000

 k-point  13 :      -0.4167   -0.4167    0.2500
  band No.  band energies     occupation 
      1       3.0788      1.00000
      2       3.0788      1.00000
      3       6.6130      0.00000
      4      10.9131      0.00000
      5      10.9131      0.00000
      6      15.9772      0.00000
      7      17.0880      0.00000
      8      17.0880      0.00000
      9      20.1824      0.00000

 k-point  14 :      -0.4167    0.4167    0.4167
  band No.  band energies     occupation 
      1       2.2844      1.00000
      2       2.3957      1.00000
      3      10.5620      0.00000
      4      10.5620      0.00000
      5      12.1461      0.00000
      6      12.8868      0.00000
      7      17.4100      0.00000
      8      17.4100      0.00000
      9      20.1742      0.00000


--------------------------------------------------------------------------------------------------------


 soft charge-density along one line, spin component           1
         0         1         2         3         4         5         6         7         8         9
 total charge-density along one line
 
 soft charge-density along one line, spin component           2
         0         1         2         3         4         5         6         7         8         9
 total charge-density along one line
 
 pseudopotential strength for first ion, spin component:           1
 -6.537   0.000   0.000   0.000   0.000   0.093   0.000   0.000
  0.000  -6.537   0.000   0.000   0.000   0.000   0.093   0.000
  0.000   0.000  -6.547   0.000   0.000   0.000   0.000   0.093
  0.000   0.000   0.000  -6.537   0.000   0.000   0.000   0.000
  0.000   0.000   0.000   0.000  -6.547   0.000   0.000   0.000
  0.093   0.000   0.000   0.000   0.000   0.071   0.000   0.000
  0.000   0.093   0.000   0.000   0.000   0.000   0.071   0.000
  0.000   0.000   0.093   0.000   0.000   0.000   0.000   0.071
  0.000   0.000   0.000   0.093   0.000   0.000   0.000   0.000
  0.000   0.000   0.000   0.000   0.093   0.000   0.000   0.000
  0.000   0.000   0.000   0.000   0.000   0.000   0.000   0.000
  0.000   0.000   0.000   0.000   0.000   0.000   0.000   0.000
  0.000   0.000   0.000   0.000   0.000   0.000   0.000   0.000
  0.000   0.000   0.000   0.000   0.000   0.000   0.000   0.000
  0.000   0.000   0.000   0.000   0.000   0.000   0.000   0.000
  0.000   0.000   0.000   0.000   0.000   0.000   0.000   0.000
  0.000   0.000   0.000   0.000   0.000   0.000   0.000   0.000
  0.000   0.000   0.000   0.000   0.000   0.000   0.000   0.000
 pseudopotential strength for first ion, spin component:           2
 -6.540   0.000   0.000   0.000   0.000   0.092   0.000   0.000
  0.000  -6.540   0.000   0.000   0.000   0.000   0.092   0.000
  0.000   0.000  -6.548   0.000   0.000   0.000   0.000   0.092
  0.000   0.000   0.000  -6.540   0.000   0.000   0.000   0.000
  0.000   0.000   0.000   0.000  -6.548   0.000   0.000   0.000
  0.092   0.000   0.000   0.000   0.000   0.071   0.000   0.000
  0.000   0.092   0.000   0.000   0.000   0.000   0.071   0.000
  0.000   0.000   0.092   0.000   0.000   0.000   0.000   0.071
  0.000   0.000   0.000   0.092   0.000   0.000   0.000   0.000
  0.000   0.000   0.000   0.000   0.092   0.000   0.000   0.000
  0.000   0.000   0.000   0.000   0.000   0.000   0.000   0.000
  0.000   0.000   0.000   0.000   0.000   0.000   0.000   0.000
  0.000   0.000   0.000   0.000   0.000   0.000   0.000   0.000
  0.000   0.000   0.000   0.000   0.000   0.000   0.000   0.000
  0.000   0.000   0.000   0.000   0.000   0.000   0.000   0.000
  0.000   0.000   0.000   0.000   0.000   0.000   0.000   0.000
  0.000   0.000   0.000   0.000   0.000   0.000   0.000   0.000
  0.000   0.000   0.000   0.000   0.000   0.000   0.000   0.000
 total augmentation occupancy for first ion, spin component:           1
  0.800   0.000   0.000   0.000   0.000  -0.585   0.000   0.000   0.000   0.000   0.000   0.000   0.000   0.000   0.000   0.000
  0.000   0.800   0.000   0.000   0.000   0.000  -0.585   0.000   0.000   0.000   0.000   0.000   0.000   0.000   0.000   0.000
  0.000   0.000   0.559   0.000   0.000   0.000   0.000  -0.515   0.000   0.000   0.000   0.000   0.000   0.000   0.000   0.000
  0.000   0.000   0.000   0.800   0.000   0.000   0.000   0.000  -0.585   0.000   0.000   0.000   0.000   0.000   0.000   0.000
  0.000   0.000   0.000   0.000   0.559   0.000   0.000   0.000   0.000  -0.515   0.000   0.000   0.000   0.000   0.000   0.000
 -0.585   0.000   0.000   0.000   0.000   0.481   0.000   0.000   0.000   0.000   0.000   0.000   0.000   0.000   0.000   0.000
  0.000  -0.585   0.000   0.000   0.000   0.000   0.481   0.000   0.000   0.000   0.000   0.000   0.000   0.000   0.000   0.000
  0.000   0.000  -0.515   0.000   0.000   0.000   0.000   0.512   0.000   0.000   0.000   0.000   0.000   0.000   0.000   0.000
  0.000   0.000   0.000  -0.585   0.000   0.000   0.000   0.000   0.481   0.000   0.000   0.000   0.000   0.000   0.000   0.000
  0.000   0.000   0.000   0.000  -0.515   0.000   0.000   0.000   0.000   0.512   0.000   0.000   0.000   0.000   0.000   0.000
  0.000   0.000   0.000   0.000   0.000   0.000   0.000   0.000   0.000   0.000   1.406  -0.296   0.000   0.000   0.000   0.000
  0.000   0.000   0.000   0.000   0.000   0.000   0.000   0.000   0.000   0.000  -0.296   0.066   0.000   0.000   0.000   0.000
  0.000   0.000   0.000   0.000   0.000   0.000   0.000   0.000   0.000   0.000   0.000   0.000   0.297   0.000   0.000   0.012
  0.000   0.000   0.000   0.000   0.000   0.000   0.000   0.000   0.000   0.000   0.000   0.000   0.000   0.297   0.000   0.000
  0.000   0.000   0.000   0.000   0.000   0.000   0.000   0.000   0.000   0.000   0.000   0.000   0.000   0.000   0.297   0.000
  0.000   0.000   0.000   0.000   0.000   0.000   0.000   0.000   0.000   0.000   0.000   0.000   0.012   0.000   0.000   0.001
  0.000   0.000   0.000   0.000   0.000   0.000   0.000   0.000   0.000   0.000   0.000   0.000   0.000   0.012   0.000   0.000
  0.000   0.000   0.000   0.000   0.000   0.000   0.000   0.000   0.000   0.000   0.000   0.000   0.000   0.000   0.012   0.000
 total augmentation occupancy for first ion, spin component:           2
 -0.036   0.000   0.000   0.000   0.000   0.018   0.000   0.000   0.000   0.000   0.000   0.000   0.000   0.000   0.000   0.000
  0.000  -0.036   0.000   0.000   0.000   0.000   0.018   0.000   0.000   0.000   0.000   0.000   0.000   0.000   0.000   0.000
  0.000   0.000  -0.014   0.000   0.000   0.000   0.000   0.008   0.000   0.000   0.000   0.000   0.000   0.000   0.000   0.000
  0.000   0.000   0.000  -0.036   0.000   0.000   0.000   0.000   0.018   0.000   0.000   0.000   0.000   0.000   0.000   0.000
  0.000   0.000   0.000   0.000  -0.014   0.000   0.000   0.000   0.000   0.008   0.000   0.000   0.000   0.000   0.000   0.000
  0.018   0.000   0.000   0.000   0.000  -0.011   0.000   0.000   0.000   0.000   0.000   0.000   0.000   0.000   0.000   0.000
  0.000   0.018   0.000   0.000   0.000   0.000  -0.011   0.000   0.000   0.000   0.000   0.000   0.000   0.000   0.000   0.000
  0.000   0.000   0.008   0.000   0.000   0.000   0.000  -0.006   0.000   0.000   0.000   0.000   0.000   0.000   0.000   0.000
  0.000   0.000   0.000   0.018   0.000   0.000   0.000   0.000  -0.011   0.000   0.000   0.000   0.000   0.000   0.000   0.000
  0.000   0.000   0.000   0.000   0.008   0.000   0.000   0.000   0.000  -0.006   0.000   0.000   0.000   0.000   0.000   0.000
  0.000   0.000   0.000   0.000   0.000   0.000   0.000   0.000   0.000   0.000  -0.004   0.004   0.000   0.000   0.000   0.000
  0.000   0.000   0.000   0.000   0.000   0.000   0.000   0.000   0.000   0.000   0.004  -0.002   0.000   0.000   0.000   0.000
  0.000   0.000   0.000   0.000   0.000   0.000   0.000   0.000   0.000   0.000   0.000   0.000  -0.010   0.000   0.000   0.000
  0.000   0.000   0.000   0.000   0.000   0.000   0.000   0.000   0.000   0.000   0.000   0.000   0.000  -0.010   0.000   0.000
  0.000   0.000   0.000   0.000   0.000   0.000   0.000   0.000   0.000   0.000   0.000   0.000   0.000   0.000  -0.010   0.000
  0.000   0.000   0.000   0.000   0.000   0.000   0.000   0.000   0.000   0.000   0.000   0.000   0.000   0.000   0.000   0.000
  0.000   0.000   0.000   0.000   0.000   0.000   0.000   0.000   0.000   0.000   0.000   0.000   0.000   0.000   0.000   0.000
  0.000   0.000   0.000   0.000   0.000   0.000   0.000   0.000   0.000   0.000   0.000   0.000   0.000   0.000   0.000   0.000


------------------------ aborting loop because EDIFF is reached ----------------------------------------


 


 total charge     
 
# of ion     s       p       d       tot
----------------------------------------
  1        0.716   0.689   3.433   4.838
 


 magnetization (x)
 
# of ion     s       p       d       tot
----------------------------------------
  1       -0.003  -0.023  -0.122  -0.148
 
    CHARGE:  cpu time    0.03: real time    0.03
    FORLOC:  cpu time    0.00: real time    0.00
    FORNL :  cpu time    0.07: real time    0.07
    STRESS:  cpu time    0.13: real time    0.13
    FORCOR:  cpu time    0.06: real time    0.07
    FORHAR:  cpu time    0.01: real time    0.01
    MIXING:  cpu time    0.00: real time    0.00

  FORCE on cell =-STRESS in cart. coord.  units (eV):
  Direction    XX          YY          ZZ          XY          YZ          ZX
  --------------------------------------------------------------------------------------
  Alpha Z    31.14449    31.14449    31.14449
  Ewald     -66.36802   -66.36802   -66.36802     0.00000     0.00000     0.00000
  Hartree     0.19811     0.19811     0.19811     0.00000     0.00000     0.00000
  E(xc)     -22.68435   -22.68435   -22.68435     0.00000     0.00000     0.00000
  Local       3.81863     3.81863     3.81863     0.00000     0.00000     0.00000
  n-local    -8.78341    -8.60559    -7.36727     1.67321    -1.52404    -2.29912
  augment     2.92946     2.92946     2.92946     0.00000     0.00000     0.00000
  Kinetic    58.36175    57.14695    61.36557    -1.49614     2.35240     1.98309
  Fock        0.00000     0.00000     0.00000     0.00000     0.00000     0.00000
  -------------------------------------------------------------------------------------
  Total      -0.25569    -0.25569    -0.25569     0.00000     0.00000     0.00000
  in kB     -23.00715   -23.00715   -23.00715     0.00000     0.00000     0.00000
  external pressure =      -23.01 kB  Pullay stress =        0.00 kB


 VOLUME and BASIS-vectors are now :
 -----------------------------------------------------------------------------
  energy-cutoff  :      200.00
  volume of cell :       17.81
      direct lattice vectors                 reciprocal lattice vectors
    -1.645000000  1.645000000  1.645000000     0.000000000  0.303951368  0.303951368
     1.645000000 -1.645000000  1.645000000     0.303951368  0.000000000  0.303951368
     1.645000000  1.645000000 -1.645000000     0.303951368  0.303951368  0.000000000

  length of vectors
     2.849223578  2.849223578  2.849223578     0.429852147  0.429852147  0.429852147


 FORCES acting on ions
    electron-ion (+dipol)            ewald-force                    non-local-force                 convergence-correction
 -----------------------------------------------------------------------------------------------
   -.124E-14 0.137E-14 0.464E-14   0.403E-15 0.236E-15 0.254E-16   -.134E-23 0.144E-22 0.548E-23   0.270E-15 -.157E-14 -.130E-14
 -----------------------------------------------------------------------------------------------
   -.124E-14 0.137E-14 0.464E-14   0.403E-15 0.236E-15 0.254E-16   -.134E-23 0.144E-22 0.548E-23   0.270E-15 -.157E-14 -.130E-14
 
 
 POSITION                                       TOTAL-FORCE (eV/Angst)
 -----------------------------------------------------------------------------------
      0.00000      0.00000      0.00000         0.000000      0.000000      0.000000
 -----------------------------------------------------------------------------------
    total drift:                                0.000000      0.000000      0.000000


--------------------------------------------------------------------------------------------------------



  FREE ENERGIE OF THE ION-ELECTRON SYSTEM (eV)
  ---------------------------------------------------
  free  energy   TOTEN  =       -11.884619 eV

  energy  without entropy=      -11.883873  energy(sigma->0) =      -11.884370
 


--------------------------------------------------------------------------------------------------------


    POTLOK:  cpu time    0.09: real time    0.09


--------------------------------------------------------------------------------------------------------


 writing wavefunctions
     LOOP+:  cpu time    5.59: real time    6.85
    4ORBIT:  cpu time    0.00: real time    0.00
 


 total charge     
 
# of ion     s       p       d       tot
----------------------------------------
  1        0.716   0.689   3.433   4.838
 


 magnetization (x)
 
# of ion     s       p       d       tot
----------------------------------------
  1       -0.003  -0.023  -0.122  -0.148
 

 total amount of memory used by VASP on root node    33518. kBytes
========================================================================

   base      :      30000. kBytes
   nonl-proj :        241. kBytes
   fftplans  :        800. kBytes
   grid      :       1894. kBytes
   one-center:         31. kBytes
   wavefun   :        552. kBytes
 
  
  
 General timing and accounting informations for this job:
 ========================================================
  
                  Total CPU time used (sec):        6.038
                            User time (sec):        5.859
                          System time (sec):        0.179
                         Elapsed time (sec):        7.611
  
                   Maximum memory used (kb):           0.
                   Average memory used (kb):           0.
  
                          Minor page faults:         5876
                          Major page faults:            0
                 Voluntary context switches:         4532
