PROCAR lm decomposed
# of k-points:   14         # of bands:   9         # of ions:   1

 k-point    1 :    0.08333333 0.08333333 0.08333333     weight = 0.03703704

band   1 # energy   -0.35401207 # occ.  1.00000000
 
ion      s     py     pz     px    dxy    dyz    dz2    dxz    dx2    tot
  1  0.761  0.040  0.040  0.040  0.009  0.009  0.000  0.009  0.000  0.908
 
band   2 # energy    5.72117848 # occ.  1.03149673
 
ion      s     py     pz     px    dxy    dyz    dz2    dxz    dx2    tot
  1  0.000  0.000  0.011  0.012  0.451  0.465  0.042  0.017  0.016  1.015
 
band   3 # energy    5.72117849 # occ.  1.03149673
 
ion      s     py     pz     px    dxy    dyz    dz2    dxz    dx2    tot
  1  0.000  0.015  0.004  0.004  0.171  0.157  0.016  0.605  0.042  1.015
 
band   4 # energy    8.84858417 # occ.  0.00000000
 
ion      s     py     pz     px    dxy    dyz    dz2    dxz    dx2    tot
  1  0.003  0.024  0.024  0.024  0.309  0.309  0.000  0.309  0.000  1.001
 
band   5 # energy    9.72492393 # occ.  0.00000000
 
ion      s     py     pz     px    dxy    dyz    dz2    dxz    dx2    tot
  1  0.000  0.000  0.000  0.000  0.042  0.044  0.594  0.002  0.226  0.907
 
band   6 # energy    9.72492395 # occ.  0.00000000
 
ion      s     py     pz     px    dxy    dyz    dz2    dxz    dx2    tot
  1  0.000  0.000  0.000  0.000  0.016  0.015  0.226  0.057  0.594  0.907
 
band   7 # energy   20.22462103 # occ.  0.00000000
 
ion      s     py     pz     px    dxy    dyz    dz2    dxz    dx2    tot
  1 43.770  0.000  0.000  0.000  0.000  0.000  0.000  0.000  0.000 43.770
 
band   8 # energy   22.12194425 # occ.  0.00000000
 
ion      s     py     pz     px    dxy    dyz    dz2    dxz    dx2    tot
  1  0.000  0.000  0.000  0.000  0.000  0.000  0.000  0.000  0.000  0.000
 
band   9 # energy   23.29262214 # occ.  0.00000000
 
ion      s     py     pz     px    dxy    dyz    dz2    dxz    dx2    tot
  1  0.000  0.002  0.045  0.047  0.045  0.046  0.151  0.002  0.057  0.394
 

 k-point    2 :    0.25000000 0.08333333 0.08333333     weight = 0.11111111

band   1 # energy    1.77979412 # occ.  1.00000000
 
ion      s     py     pz     px    dxy    dyz    dz2    dxz    dx2    tot
  1  0.486  0.059  0.059  0.043  0.005  0.244  0.016  0.005  0.047  0.964
 
band   2 # energy    4.68247044 # occ.  1.00000000
 
ion      s     py     pz     px    dxy    dyz    dz2    dxz    dx2    tot
  1  0.000  0.018  0.018  0.000  0.484  0.000  0.018  0.484  0.006  1.030
 
band   3 # energy    5.28275933 # occ.  1.00000000
 
ion      s     py     pz     px    dxy    dyz    dz2    dxz    dx2    tot
  1  0.049  0.127  0.127  0.011  0.091  0.309  0.037  0.091  0.112  0.954
 
band   4 # energy    9.92877515 # occ.  0.00000000
 
ion      s     py     pz     px    dxy    dyz    dz2    dxz    dx2    tot
  1  0.006  0.003  0.003  0.002  0.023  0.215  0.169  0.023  0.506  0.951
 
band   5 # energy   10.55027550 # occ.  0.00000000
 
ion      s     py     pz     px    dxy    dyz    dz2    dxz    dx2    tot
  1  0.000  0.001  0.001  0.000  0.020  0.000  0.669  0.020  0.223  0.933
 
band   6 # energy   12.32779351 # occ.  0.00000000
 
ion      s     py     pz     px    dxy    dyz    dz2    dxz    dx2    tot
  1  0.002  0.057  0.057  0.063  0.334  0.108  0.000  0.334  0.001  0.956
 
band   7 # energy   19.99630747 # occ.  0.00000000
 
ion      s     py     pz     px    dxy    dyz    dz2    dxz    dx2    tot
  1  7.685  0.102  0.102  0.011  0.006  0.175  0.010  0.006  0.029  8.125
 
band   8 # energy   20.29449434 # occ.  0.00000000
 
ion      s     py     pz     px    dxy    dyz    dz2    dxz    dx2    tot
  1 36.585  0.029  0.029  0.002  0.002  0.053  0.003  0.002  0.010 36.714
 
band   9 # energy   20.31749100 # occ.  0.00000000
 
ion      s     py     pz     px    dxy    dyz    dz2    dxz    dx2    tot
  1  0.000  0.107  0.107  0.000  0.029  0.000  0.067  0.029  0.022  0.362
 

 k-point    3 :    0.41666667 0.08333333 0.08333333     weight = 0.05555556

band   1 # energy    2.13786204 # occ.  1.00000000
 
ion      s     py     pz     px    dxy    dyz    dz2    dxz    dx2    tot
  1  0.258  0.000  0.000  0.050  0.000  0.489  0.049  0.000  0.148  0.994
 
band   2 # energy    4.30781558 # occ.  1.00000000
 
ion      s     py     pz     px    dxy    dyz    dz2    dxz    dx2    tot
  1  0.000  0.021  0.021  0.000  0.498  0.000  0.000  0.498  0.000  1.039
 
band   3 # energy    6.85452456 # occ.  0.00000000
 
ion      s     py     pz     px    dxy    dyz    dz2    dxz    dx2    tot
  1  0.000  0.364  0.364  0.000  0.097  0.000  0.000  0.097  0.000  0.921
 
band   4 # energy   10.13953111 # occ.  0.00000000
 
ion      s     py     pz     px    dxy    dyz    dz2    dxz    dx2    tot
  1  0.066  0.000  0.000  0.000  0.000  0.182  0.181  0.000  0.543  0.974
 
band   5 # energy   10.97173817 # occ.  0.00000000
 
ion      s     py     pz     px    dxy    dyz    dz2    dxz    dx2    tot
  1  0.000  0.000  0.000  0.000  0.000  0.000  0.730  0.000  0.243  0.973
 
band   6 # energy   14.85240517 # occ.  0.00000000
 
ion      s     py     pz     px    dxy    dyz    dz2    dxz    dx2    tot
  1  0.000  0.066  0.066  0.000  0.409  0.000  0.000  0.409  0.000  0.950
 
band   7 # energy   16.65479482 # occ.  0.00000000
 
ion      s     py     pz     px    dxy    dyz    dz2    dxz    dx2    tot
  1  0.491  0.000  0.000  0.058  0.000  0.341  0.002  0.000  0.005  0.897
 
band   8 # energy   18.60632172 # occ.  0.00000000
 
ion      s     py     pz     px    dxy    dyz    dz2    dxz    dx2    tot
  1  0.000  0.116  0.116  0.000  0.033  0.000  0.000  0.033  0.000  0.297
 
band   9 # energy   20.23489011 # occ.  0.00000000
 
ion      s     py     pz     px    dxy    dyz    dz2    dxz    dx2    tot
  1 44.102  0.000  0.000  0.000  0.000  0.001  0.000  0.000  0.000 44.103
 

 k-point    4 :   -0.08333333 0.08333333 0.08333333     weight = 0.02777778

band   1 # energy   -1.42978739 # occ.  1.00000000
 
ion      s     py     pz     px    dxy    dyz    dz2    dxz    dx2    tot
  1  0.837  0.000  0.000  0.048  0.000  0.000  0.000  0.000  0.001  0.887
 
band   2 # energy    6.62794060 # occ.  0.00000000
 
ion      s     py     pz     px    dxy    dyz    dz2    dxz    dx2    tot
  1  0.000  0.008  0.008  0.000  0.510  0.000  0.000  0.510  0.000  1.036
 
band   3 # energy    6.62794413 # occ.  0.00000000
 
ion      s     py     pz     px    dxy    dyz    dz2    dxz    dx2    tot
  1  0.000  0.008  0.008  0.000  0.510  0.000  0.000  0.510  0.000  1.036
 
band   4 # energy    6.97756445 # occ.  0.00000000
 
ion      s     py     pz     px    dxy    dyz    dz2    dxz    dx2    tot
  1  0.000  0.000  0.000  0.000  0.000  1.055  0.000  0.000  0.000  1.055
 
band   5 # energy    8.98575748 # occ.  0.00000000
 
ion      s     py     pz     px    dxy    dyz    dz2    dxz    dx2    tot
  1  0.000  0.000  0.000  0.000  0.000  0.000  0.645  0.000  0.215  0.860
 
band   6 # energy   10.32701656 # occ.  0.00000000
 
ion      s     py     pz     px    dxy    dyz    dz2    dxz    dx2    tot
  1  0.002  0.000  0.000  0.002  0.000  0.000  0.229  0.000  0.688  0.920
 
band   7 # energy   20.22605752 # occ.  0.00000000
 
ion      s     py     pz     px    dxy    dyz    dz2    dxz    dx2    tot
  1 43.832  0.000  0.000  0.000  0.000  0.000  0.000  0.000  0.000 43.832
 
band   8 # energy   22.05494257 # occ.  0.00000000
 
ion      s     py     pz     px    dxy    dyz    dz2    dxz    dx2    tot
  1  0.000  0.000  0.000  0.000  0.019  0.000  0.000  0.019  0.000  0.038
 
band   9 # energy   22.05494484 # occ.  0.00000000
 
ion      s     py     pz     px    dxy    dyz    dz2    dxz    dx2    tot
  1  0.000  0.000  0.000  0.000  0.019  0.000  0.000  0.019  0.000  0.038
 

 k-point    5 :    0.25000000 0.25000000 0.08333333     weight = 0.11111111

band   1 # energy    3.37343320 # occ.  1.00000000
 
ion      s     py     pz     px    dxy    dyz    dz2    dxz    dx2    tot
  1  0.187  0.054  0.004  0.054  0.111  0.285  0.033  0.285  0.000  1.012
 
band   2 # energy    4.53095769 # occ.  1.00000000
 
ion      s     py     pz     px    dxy    dyz    dz2    dxz    dx2    tot
  1  0.000  0.119  0.000  0.119  0.000  0.288  0.000  0.288  0.163  0.976
 
band   3 # energy    5.18726654 # occ.  1.00000000
 
ion      s     py     pz     px    dxy    dyz    dz2    dxz    dx2    tot
  1  0.048  0.032  0.309  0.032  0.529  0.001  0.022  0.001  0.000  0.974
 
band   4 # energy   10.44365913 # occ.  0.00000000
 
ion      s     py     pz     px    dxy    dyz    dz2    dxz    dx2    tot
  1  0.000  0.005  0.000  0.005  0.000  0.104  0.000  0.104  0.742  0.960
 
band   5 # energy   10.92418527 # occ.  0.00000000
 
ion      s     py     pz     px    dxy    dyz    dz2    dxz    dx2    tot
  1  0.029  0.000  0.003  0.000  0.013  0.020  0.893  0.020  0.000  0.977
 
band   6 # energy   15.47724405 # occ.  0.00000000
 
ion      s     py     pz     px    dxy    dyz    dz2    dxz    dx2    tot
  1  0.600  0.059  0.036  0.059  0.001  0.068  0.003  0.068  0.000  0.894
 
band   7 # energy   16.10313730 # occ.  0.00000000
 
ion      s     py     pz     px    dxy    dyz    dz2    dxz    dx2    tot
  1  0.007  0.056  0.153  0.056  0.362  0.139  0.027  0.139  0.000  0.937
 
band   8 # energy   19.88061518 # occ.  0.00000000
 
ion      s     py     pz     px    dxy    dyz    dz2    dxz    dx2    tot
  1  0.000  0.172  0.000  0.172  0.000  0.164  0.000  0.164  0.138  0.811
 
band   9 # energy   20.23252654 # occ.  0.00000000
 
ion      s     py     pz     px    dxy    dyz    dz2    dxz    dx2    tot
  1 44.037  0.000  0.000  0.000  0.000  0.000  0.000  0.000  0.000 44.037
 

 k-point    6 :   -0.25000000 0.25000000 0.08333333     weight = 0.11111111

band   1 # energy    0.53037177 # occ.  1.00000000
 
ion      s     py     pz     px    dxy    dyz    dz2    dxz    dx2    tot
  1  0.664  0.024  0.000  0.140  0.065  0.000  0.023  0.000  0.011  0.927
 
band   2 # energy    5.66291991 # occ.  1.00083203
 
ion      s     py     pz     px    dxy    dyz    dz2    dxz    dx2    tot
  1  0.000  0.000  0.014  0.000  0.000  0.406  0.000  0.611  0.000  1.032
 
band   3 # energy    5.81104186 # occ.  0.19625261
 
ion      s     py     pz     px    dxy    dyz    dz2    dxz    dx2    tot
  1  0.014  0.073  0.000  0.043  0.506  0.000  0.252  0.000  0.046  0.933
 
band   4 # energy    8.44078494 # occ.  0.00000000
 
ion      s     py     pz     px    dxy    dyz    dz2    dxz    dx2    tot
  1  0.000  0.013  0.000  0.013  0.345  0.000  0.394  0.000  0.142  0.907
 
band   5 # energy    9.21787961 # occ.  0.00000000
 
ion      s     py     pz     px    dxy    dyz    dz2    dxz    dx2    tot
  1  0.000  0.000  0.047  0.000  0.000  0.589  0.000  0.340  0.000  0.976
 
band   6 # energy   10.79408068 # occ.  0.00000000
 
ion      s     py     pz     px    dxy    dyz    dz2    dxz    dx2    tot
  1  0.019  0.000  0.000  0.005  0.014  0.000  0.198  0.000  0.713  0.949
 
band   7 # energy   20.22097672 # occ.  0.00000000
 
ion      s     py     pz     px    dxy    dyz    dz2    dxz    dx2    tot
  1 43.355  0.000  0.000  0.001  0.000  0.000  0.000  0.000  0.000 43.357
 
band   8 # energy   21.12736943 # occ.  0.00000000
 
ion      s     py     pz     px    dxy    dyz    dz2    dxz    dx2    tot
  1  0.500  0.002  0.000  0.184  0.061  0.000  0.000  0.000  0.045  0.792
 
band   9 # energy   23.28115539 # occ.  0.00000000
 
ion      s     py     pz     px    dxy    dyz    dz2    dxz    dx2    tot
  1  0.147  0.118  0.000  0.031  0.066  0.000  0.220  0.000  0.086  0.667
 

 k-point    7 :   -0.41666667 0.41666667 0.08333333     weight = 0.11111111

band   1 # energy    1.76090656 # occ.  1.00000000
 
ion      s     py     pz     px    dxy    dyz    dz2    dxz    dx2    tot
  1  0.322  0.000  0.000  0.048  0.389  0.000  0.224  0.000  0.002  0.986
 
band   2 # energy    4.80936077 # occ.  1.00000000
 
ion      s     py     pz     px    dxy    dyz    dz2    dxz    dx2    tot
  1  0.000  0.000  0.013  0.000  0.000  0.488  0.000  0.540  0.000  1.041
 
band   3 # energy    6.25105737 # occ.  0.00000000
 
ion      s     py     pz     px    dxy    dyz    dz2    dxz    dx2    tot
  1  0.050  0.253  0.000  0.258  0.032  0.000  0.113  0.000  0.189  0.895
 
band   4 # energy    9.28931436 # occ.  0.00000000
 
ion      s     py     pz     px    dxy    dyz    dz2    dxz    dx2    tot
  1  0.034  0.033  0.000  0.044  0.306  0.000  0.522  0.000  0.000  0.938
 
band   5 # energy   11.28820621 # occ.  0.00000000
 
ion      s     py     pz     px    dxy    dyz    dz2    dxz    dx2    tot
  1  0.042  0.050  0.000  0.083  0.011  0.000  0.032  0.000  0.760  0.978
 
band   6 # energy   12.87466316 # occ.  0.00000000
 
ion      s     py     pz     px    dxy    dyz    dz2    dxz    dx2    tot
  1  0.000  0.000  0.039  0.000  0.000  0.505  0.000  0.413  0.000  0.958
 
band   7 # energy   18.35016926 # occ.  0.00000000
 
ion      s     py     pz     px    dxy    dyz    dz2    dxz    dx2    tot
  1  0.228  0.006  0.000  0.092  0.353  0.000  0.002  0.000  0.002  0.682
 
band   8 # energy   19.69503274 # occ.  0.00000000
 
ion      s     py     pz     px    dxy    dyz    dz2    dxz    dx2    tot
  1  0.345  0.215  0.000  0.027  0.056  0.000  0.107  0.000  0.030  0.781
 
band   9 # energy   20.24273695 # occ.  0.00000000
 
ion      s     py     pz     px    dxy    dyz    dz2    dxz    dx2    tot
  1 43.800  0.003  0.000  0.000  0.004  0.000  0.002  0.000  0.000 43.810
 

 k-point    8 :   -0.25000000 0.41666667 0.08333333     weight = 0.11111111

band   1 # energy    2.42947696 # occ.  1.00000000
 
ion      s     py     pz     px    dxy    dyz    dz2    dxz    dx2    tot
  1  0.402  0.011  0.011  0.174  0.115  0.011  0.031  0.115  0.093  0.964
 
band   2 # energy    4.55886643 # occ.  1.00000000
 
ion      s     py     pz     px    dxy    dyz    dz2    dxz    dx2    tot
  1  0.000  0.054  0.054  0.000  0.161  0.000  0.371  0.161  0.124  0.925
 
band   3 # energy    5.79593230 # occ.  0.42615412
 
ion      s     py     pz     px    dxy    dyz    dz2    dxz    dx2    tot
  1  0.009  0.025  0.025  0.126  0.162  0.449  0.008  0.162  0.024  0.990
 
band   4 # energy    8.54783959 # occ.  0.00000000
 
ion      s     py     pz     px    dxy    dyz    dz2    dxz    dx2    tot
  1  0.000  0.024  0.024  0.000  0.266  0.000  0.260  0.266  0.087  0.927
 
band   5 # energy   10.72115881 # occ.  0.00000000
 
ion      s     py     pz     px    dxy    dyz    dz2    dxz    dx2    tot
  1  0.089  0.002  0.002  0.004  0.038  0.163  0.157  0.038  0.472  0.966
 
band   6 # energy   12.42868480 # occ.  0.00000000
 
ion      s     py     pz     px    dxy    dyz    dz2    dxz    dx2    tot
  1  0.035  0.046  0.046  0.084  0.107  0.353  0.046  0.107  0.138  0.963
 
band   7 # energy   19.02243199 # occ.  0.00000000
 
ion      s     py     pz     px    dxy    dyz    dz2    dxz    dx2    tot
  1  0.205  0.025  0.025  0.155  0.110  0.000  0.005  0.110  0.014  0.650
 
band   8 # energy   20.23660923 # occ.  0.00000000
 
ion      s     py     pz     px    dxy    dyz    dz2    dxz    dx2    tot
  1 43.928  0.000  0.000  0.001  0.001  0.000  0.000  0.001  0.000 43.931
 
band   9 # energy   22.82435232 # occ.  0.00000000
 
ion      s     py     pz     px    dxy    dyz    dz2    dxz    dx2    tot
  1  0.000  0.188  0.188  0.000  0.093  0.000  0.252  0.093  0.084  0.898
 

 k-point    9 :   -0.41666667-0.41666667 0.08333333     weight = 0.11111111

band   1 # energy    2.98790098 # occ.  1.00000000
 
ion      s     py     pz     px    dxy    dyz    dz2    dxz    dx2    tot
  1  0.182  0.024  0.031  0.024  0.372  0.029  0.286  0.029  0.000  0.977
 
band   2 # energy    4.85243127 # occ.  1.00000000
 
ion      s     py     pz     px    dxy    dyz    dz2    dxz    dx2    tot
  1  0.023  0.014  0.057  0.014  0.009  0.357  0.157  0.357  0.000  0.988
 
band   3 # energy    5.21892861 # occ.  1.00000000
 
ion      s     py     pz     px    dxy    dyz    dz2    dxz    dx2    tot
  1  0.000  0.187  0.000  0.187  0.000  0.040  0.000  0.040  0.454  0.909
 
band   4 # energy    9.13503223 # occ.  0.00000000
 
ion      s     py     pz     px    dxy    dyz    dz2    dxz    dx2    tot
  1  0.068  0.008  0.018  0.008  0.263  0.075  0.409  0.075  0.000  0.924
 
band   5 # energy   11.42243678 # occ.  0.00000000
 
ion      s     py     pz     px    dxy    dyz    dz2    dxz    dx2    tot
  1  0.000  0.088  0.000  0.088  0.000  0.205  0.000  0.205  0.385  0.973
 
band   6 # energy   15.74977353 # occ.  0.00000000
 
ion      s     py     pz     px    dxy    dyz    dz2    dxz    dx2    tot
  1  0.000  0.170  0.000  0.170  0.000  0.256  0.000  0.256  0.147  1.000
 
band   7 # energy   16.24433635 # occ.  0.00000000
 
ion      s     py     pz     px    dxy    dyz    dz2    dxz    dx2    tot
  1  0.474  0.006  0.054  0.006  0.303  0.015  0.001  0.015  0.000  0.874
 
band   8 # energy   20.11365001 # occ.  0.00000000
 
ion      s     py     pz     px    dxy    dyz    dz2    dxz    dx2    tot
  1  0.176  0.078  0.341  0.078  0.123  0.051  0.197  0.051  0.000  1.094
 
band   9 # energy   20.23453839 # occ.  0.00000000
 
ion      s     py     pz     px    dxy    dyz    dz2    dxz    dx2    tot
  1 43.845  0.001  0.001  0.001  0.002  0.000  0.001  0.000  0.000 43.850
 

 k-point   10 :    0.25000000 0.25000000 0.25000000     weight = 0.00925926

band   1 # energy    4.70356231 # occ.  1.00000000
 
ion      s     py     pz     px    dxy    dyz    dz2    dxz    dx2    tot
  1  0.000  0.041  0.187  0.074  0.424  0.168  0.000  0.094  0.000  0.989
 
band   2 # energy    4.70356231 # occ.  1.00000000
 
ion      s     py     pz     px    dxy    dyz    dz2    dxz    dx2    tot
  1  0.000  0.161  0.015  0.128  0.033  0.289  0.000  0.363  0.000  0.989
 
band   3 # energy    4.70356630 # occ.  1.00000000
 
ion      s     py     pz     px    dxy    dyz    dz2    dxz    dx2    tot
  1  0.000  0.101  0.101  0.101  0.228  0.228  0.000  0.228  0.000  0.989
 
band   4 # energy   11.13581485 # occ.  0.00000000
 
ion      s     py     pz     px    dxy    dyz    dz2    dxz    dx2    tot
  1  0.000  0.000  0.000  0.000  0.000  0.000  0.002  0.000  0.971  0.973
 
band   5 # energy   11.13581485 # occ.  0.00000000
 
ion      s     py     pz     px    dxy    dyz    dz2    dxz    dx2    tot
  1  0.000  0.000  0.000  0.000  0.000  0.000  0.971  0.000  0.002  0.973
 
band   6 # energy   13.16618620 # occ.  0.00000000
 
ion      s     py     pz     px    dxy    dyz    dz2    dxz    dx2    tot
  1  0.958  0.000  0.000  0.000  0.000  0.000  0.000  0.000  0.000  0.958
 
band   7 # energy   18.95301152 # occ.  0.00000000
 
ion      s     py     pz     px    dxy    dyz    dz2    dxz    dx2    tot
  1  0.000  0.045  0.198  0.078  0.300  0.118  0.000  0.068  0.000  0.806
 
band   8 # energy   18.95301152 # occ.  0.00000000
 
ion      s     py     pz     px    dxy    dyz    dz2    dxz    dx2    tot
  1  0.000  0.169  0.015  0.136  0.023  0.206  0.000  0.256  0.000  0.806
 
band   9 # energy   18.95301163 # occ.  0.00000000
 
ion      s     py     pz     px    dxy    dyz    dz2    dxz    dx2    tot
  1  0.000  0.107  0.107  0.106  0.162  0.161  0.000  0.162  0.000  0.806
 

 k-point   11 :   -0.25000000 0.25000000 0.25000000     weight = 0.02777778

band   1 # energy    2.17305972 # occ.  1.00000000
 
ion      s     py     pz     px    dxy    dyz    dz2    dxz    dx2    tot
  1  0.455  0.000  0.000  0.297  0.000  0.000  0.046  0.000  0.137  0.935
 
band   2 # energy    4.94344974 # occ.  1.00000000
 
ion      s     py     pz     px    dxy    dyz    dz2    dxz    dx2    tot
  1  0.000  0.000  0.000  0.000  0.000  0.000  0.636  0.000  0.212  0.848
 
band   3 # energy    7.21699937 # occ.  0.00000000
 
ion      s     py     pz     px    dxy    dyz    dz2    dxz    dx2    tot
  1  0.000  0.060  0.060  0.000  0.426  0.000  0.000  0.427  0.000  0.973
 
band   4 # energy    7.21700265 # occ.  0.00000000
 
ion      s     py     pz     px    dxy    dyz    dz2    dxz    dx2    tot
  1  0.000  0.060  0.060  0.000  0.427  0.000  0.000  0.426  0.000  0.973
 
band   5 # energy    9.18956084 # occ.  0.00000000
 
ion      s     py     pz     px    dxy    dyz    dz2    dxz    dx2    tot
  1  0.000  0.000  0.000  0.000  0.000  0.959  0.000  0.000  0.000  0.959
 
band   6 # energy   11.02396203 # occ.  0.00000000
 
ion      s     py     pz     px    dxy    dyz    dz2    dxz    dx2    tot
  1  0.180  0.000  0.000  0.030  0.000  0.000  0.193  0.000  0.579  0.982
 
band   7 # energy   20.21404902 # occ.  0.00000000
 
ion      s     py     pz     px    dxy    dyz    dz2    dxz    dx2    tot
  1 41.798  0.000  0.000  0.008  0.000  0.000  0.001  0.000  0.002 41.810
 
band   8 # energy   20.66938916 # occ.  0.00000000
 
ion      s     py     pz     px    dxy    dyz    dz2    dxz    dx2    tot
  1  2.185  0.000  0.000  0.222  0.000  0.000  0.019  0.000  0.058  2.484
 
band   9 # energy   25.47840936 # occ.  0.00000000
 
ion      s     py     pz     px    dxy    dyz    dz2    dxz    dx2    tot
  1  0.000  0.200  0.275  0.000  0.218  0.000  0.000  0.299  0.000  0.991
 

 k-point   12 :   -0.41666667 0.41666667 0.25000000     weight = 0.11111111

band   1 # energy    3.04205183 # occ.  1.00000000
 
ion      s     py     pz     px    dxy    dyz    dz2    dxz    dx2    tot
  1  0.105  0.006  0.000  0.120  0.103  0.000  0.566  0.000  0.030  0.930
 
band   2 # energy    3.88655833 # occ.  1.00000000
 
ion      s     py     pz     px    dxy    dyz    dz2    dxz    dx2    tot
  1  0.023  0.057  0.000  0.107  0.001  0.000  0.116  0.000  0.595  0.900
 
band   3 # energy    7.16400718 # occ.  0.00000000
 
ion      s     py     pz     px    dxy    dyz    dz2    dxz    dx2    tot
  1  0.000  0.000  0.107  0.000  0.000  0.332  0.000  0.524  0.000  0.964
 
band   4 # energy    7.85083918 # occ.  0.00000000
 
ion      s     py     pz     px    dxy    dyz    dz2    dxz    dx2    tot
  1  0.123  0.087  0.000  0.002  0.511  0.000  0.173  0.000  0.025  0.920
 
band   5 # energy   12.34968115 # occ.  0.00000000
 
ion      s     py     pz     px    dxy    dyz    dz2    dxz    dx2    tot
  1  0.000  0.000  0.035  0.000  0.000  0.622  0.000  0.287  0.000  0.945
 
band   6 # energy   12.42233661 # occ.  0.00000000
 
ion      s     py     pz     px    dxy    dyz    dz2    dxz    dx2    tot
  1  0.195  0.126  0.000  0.270  0.097  0.000  0.027  0.000  0.252  0.967
 
band   7 # energy   18.88510709 # occ.  0.00000000
 
ion      s     py     pz     px    dxy    dyz    dz2    dxz    dx2    tot
  1  0.175  0.250  0.000  0.067  0.347  0.000  0.000  0.000  0.062  0.902
 
band   8 # energy   20.23910770 # occ.  0.00000000
 
ion      s     py     pz     px    dxy    dyz    dz2    dxz    dx2    tot
  1 43.948  0.002  0.000  0.000  0.002  0.000  0.000  0.000  0.000 43.952
 
band   9 # energy   21.25551978 # occ.  0.00000000
 
ion      s     py     pz     px    dxy    dyz    dz2    dxz    dx2    tot
  1  0.000  0.000  0.679  0.000  0.000  0.003  0.000  0.279  0.000  0.961
 

 k-point   13 :   -0.41666667-0.41666667 0.25000000     weight = 0.03703704

band   1 # energy    3.17186664 # occ.  1.00000000
 
ion      s     py     pz     px    dxy    dyz    dz2    dxz    dx2    tot
  1  0.000  0.047  0.000  0.047  0.000  0.009  0.000  0.009  0.805  0.916
 
band   2 # energy    3.17186743 # occ.  1.00000000
 
ion      s     py     pz     px    dxy    dyz    dz2    dxz    dx2    tot
  1  0.000  0.016  0.062  0.016  0.012  0.003  0.805  0.003  0.000  0.916
 
band   3 # energy    6.72865519 # occ.  0.00000000
 
ion      s     py     pz     px    dxy    dyz    dz2    dxz    dx2    tot
  1  0.145  0.035  0.035  0.035  0.234  0.234  0.000  0.234  0.000  0.952
 
band   4 # energy   11.01815405 # occ.  0.00000000
 
ion      s     py     pz     px    dxy    dyz    dz2    dxz    dx2    tot
  1  0.000  0.109  0.000  0.109  0.000  0.328  0.000  0.328  0.062  0.936
 
band   5 # energy   11.01815741 # occ.  0.00000000
 
ion      s     py     pz     px    dxy    dyz    dz2    dxz    dx2    tot
  1  0.000  0.036  0.145  0.036  0.438  0.109  0.062  0.109  0.000  0.936
 
band   6 # energy   16.08474346 # occ.  0.00000000
 
ion      s     py     pz     px    dxy    dyz    dz2    dxz    dx2    tot
  1  0.399  0.053  0.053  0.053  0.100  0.100  0.000  0.100  0.000  0.858
 
band   7 # energy   17.19364038 # occ.  0.00000000
 
ion      s     py     pz     px    dxy    dyz    dz2    dxz    dx2    tot
  1  0.000  0.300  0.000  0.300  0.000  0.166  0.000  0.166  0.073  1.004
 
band   8 # energy   17.19365377 # occ.  0.00000000
 
ion      s     py     pz     px    dxy    dyz    dz2    dxz    dx2    tot
  1  0.000  0.100  0.400  0.100  0.221  0.055  0.073  0.055  0.000  1.004
 
band   9 # energy   20.23412404 # occ.  0.00000000
 
ion      s     py     pz     px    dxy    dyz    dz2    dxz    dx2    tot
  1 43.841  0.000  0.000  0.000  0.000  0.000  0.000  0.000  0.000 43.842
 

 k-point   14 :   -0.41666667 0.41666667 0.41666667     weight = 0.02777778

band   1 # energy    2.37658077 # occ.  1.00000000
 
ion      s     py     pz     px    dxy    dyz    dz2    dxz    dx2    tot
  1  0.000  0.000  0.000  0.000  0.000  0.000  0.698  0.000  0.233  0.931
 
band   2 # energy    2.48876463 # occ.  1.00000000
 
ion      s     py     pz     px    dxy    dyz    dz2    dxz    dx2    tot
  1  0.006  0.000  0.000  0.061  0.000  0.000  0.217  0.000  0.652  0.935
 
band   3 # energy   10.67005435 # occ.  0.00000000
 
ion      s     py     pz     px    dxy    dyz    dz2    dxz    dx2    tot
  1  0.000  0.117  0.117  0.000  0.349  0.000  0.000  0.349  0.000  0.933
 
band   4 # energy   10.67005811 # occ.  0.00000000
 
ion      s     py     pz     px    dxy    dyz    dz2    dxz    dx2    tot
  1  0.000  0.117  0.117  0.000  0.349  0.000  0.000  0.349  0.000  0.933
 
band   5 # energy   12.24346823 # occ.  0.00000000
 
ion      s     py     pz     px    dxy    dyz    dz2    dxz    dx2    tot
  1  0.000  0.000  0.000  0.000  0.000  0.945  0.000  0.000  0.000  0.945
 
band   6 # energy   13.00631962 # occ.  0.00000000
 
ion      s     py     pz     px    dxy    dyz    dz2    dxz    dx2    tot
  1  0.253  0.000  0.000  0.590  0.000  0.000  0.015  0.000  0.045  0.903
 
band   7 # energy   17.52262741 # occ.  0.00000000
 
ion      s     py     pz     px    dxy    dyz    dz2    dxz    dx2    tot
  1  0.000  0.319  0.319  0.000  0.158  0.000  0.000  0.158  0.000  0.953
 
band   8 # energy   17.52263936 # occ.  0.00000000
 
ion      s     py     pz     px    dxy    dyz    dz2    dxz    dx2    tot
  1  0.000  0.319  0.319  0.000  0.158  0.000  0.000  0.158  0.000  0.953
 
band   9 # energy   20.22568432 # occ.  0.00000000
 
ion      s     py     pz     px    dxy    dyz    dz2    dxz    dx2    tot
  1 43.214  0.000  0.000  0.001  0.000  0.000  0.000  0.000  0.000 43.215
 
# of k-points:   14         # of bands:   9         # of ions:   1

 k-point    1 :    0.08333333 0.08333333 0.08333333     weight = 0.03703704

band   1 # energy   -0.46990455 # occ.  1.00000000
 
ion      s     py     pz     px    dxy    dyz    dz2    dxz    dx2    tot
  1  0.763  0.040  0.040  0.040  0.009  0.009  0.000  0.009  0.000  0.910
 
band   2 # energy    5.60660429 # occ.  1.00000111
 
ion      s     py     pz     px    dxy    dyz    dz2    dxz    dx2    tot
  1  0.000  0.000  0.011  0.013  0.424  0.505  0.039  0.007  0.018  1.016
 
band   3 # energy    5.60660430 # occ.  1.00000111
 
ion      s     py     pz     px    dxy    dyz    dz2    dxz    dx2    tot
  1  0.000  0.015  0.005  0.003  0.200  0.119  0.018  0.616  0.039  1.016
 
band   4 # energy    8.73718843 # occ.  0.00000000
 
ion      s     py     pz     px    dxy    dyz    dz2    dxz    dx2    tot
  1  0.003  0.024  0.024  0.024  0.309  0.309  0.000  0.309  0.000  1.001
 
band   5 # energy    9.64831053 # occ.  0.00000000
 
ion      s     py     pz     px    dxy    dyz    dz2    dxz    dx2    tot
  1  0.000  0.000  0.000  0.000  0.039  0.047  0.557  0.001  0.263  0.907
 
band   6 # energy    9.64831057 # occ.  0.00000000
 
ion      s     py     pz     px    dxy    dyz    dz2    dxz    dx2    tot
  1  0.000  0.000  0.000  0.000  0.019  0.011  0.263  0.057  0.557  0.907
 
band   7 # energy   20.17303544 # occ.  0.00000000
 
ion      s     py     pz     px    dxy    dyz    dz2    dxz    dx2    tot
  1 43.770  0.000  0.000  0.000  0.000  0.000  0.000  0.000  0.000 43.770
 
band   8 # energy   21.99835012 # occ.  0.00000000
 
ion      s     py     pz     px    dxy    dyz    dz2    dxz    dx2    tot
  1  0.000  0.000  0.000  0.000  0.000  0.000  0.000  0.000  0.000  0.000
 
band   9 # energy   23.18747139 # occ.  0.00000000
 
ion      s     py     pz     px    dxy    dyz    dz2    dxz    dx2    tot
  1  0.000  0.001  0.042  0.050  0.042  0.050  0.141  0.001  0.067  0.393
 

 k-point    2 :    0.25000000 0.08333333 0.08333333     weight = 0.11111111

band   1 # energy    1.66505462 # occ.  1.00000000
 
ion      s     py     pz     px    dxy    dyz    dz2    dxz    dx2    tot
  1  0.487  0.059  0.059  0.043  0.005  0.244  0.016  0.005  0.047  0.965
 
band   2 # energy    4.56593093 # occ.  1.00000000
 
ion      s     py     pz     px    dxy    dyz    dz2    dxz    dx2    tot
  1  0.000  0.018  0.018  0.000  0.485  0.000  0.018  0.485  0.006  1.030
 
band   3 # energy    5.17367246 # occ.  1.00000000
 
ion      s     py     pz     px    dxy    dyz    dz2    dxz    dx2    tot
  1  0.049  0.128  0.128  0.011  0.091  0.311  0.037  0.091  0.111  0.955
 
band   4 # energy    9.84522618 # occ.  0.00000000
 
ion      s     py     pz     px    dxy    dyz    dz2    dxz    dx2    tot
  1  0.006  0.003  0.003  0.002  0.023  0.214  0.169  0.023  0.508  0.951
 
band   5 # energy   10.47590450 # occ.  0.00000000
 
ion      s     py     pz     px    dxy    dyz    dz2    dxz    dx2    tot
  1  0.000  0.001  0.001  0.000  0.019  0.000  0.669  0.019  0.223  0.932
 
band   6 # energy   12.22536889 # occ.  0.00000000
 
ion      s     py     pz     px    dxy    dyz    dz2    dxz    dx2    tot