<?xml version="1.0" encoding="ISO-8859-1"?>
<modeling>
 <generator>
  <i name="program" type="string">vasp </i>
  <i name="version" type="string">5.2.12  </i>
  <i name="subversion" type="string">11Nov11 complex                                                      parallel </i>
  <i name="platform" type="string">LinuxIFC </i>
  <i name="date" type="string">2012 10 17 </i>
  <i name="time" type="string">10:22:30 </i>
 </generator>
 <incar>
  <i type="int" name="ISTART">     0</i>
  <i type="string" name="PREC">accurate</i>
  <i type="int" name="ISPIN">     2</i>
  <i name="ENCUT">    200.00000000</i>
  <v name="MAGMOM">      6.00000000</v>
  <i type="logical" name="LREAL"> F  </i>
  <i type="int" name="ISMEAR">     1</i>
  <i name="SIGMA">      0.05000000</i>
  <i type="logical" name="LORBIT"> F  </i>
 </incar>
 <kpoints>
  <generation param="Monkhorst-Pack">
   <v type="int" name="divisions">       6        6        6 </v>
   <v name="usershift">      0.00000000       0.00000000       0.00000000 </v>
   <v name="genvec1">      0.16666667       0.00000000       0.00000000 </v>
   <v name="genvec2">      0.00000000       0.16666667       0.00000000 </v>
   <v name="genvec3">      0.00000000       0.00000000       0.16666667 </v>
   <v name="shift">      0.50000000       0.50000000       0.50000000 </v>
  </generation>
  <varray name="kpointlist" >
   <v>       0.08333333       0.08333333       0.08333333 </v>
   <v>       0.25000000       0.08333333       0.08333333 </v>
   <v>       0.41666667       0.08333333       0.08333333 </v>
   <v>      -0.08333333       0.08333333       0.08333333 </v>
   <v>       0.25000000       0.25000000       0.08333333 </v>
   <v>      -0.25000000       0.25000000       0.08333333 </v>
   <v>      -0.41666667       0.41666667       0.08333333 </v>
   <v>      -0.25000000       0.41666667       0.08333333 </v>
   <v>      -0.41666667      -0.41666667       0.08333333 </v>
   <v>       0.25000000       0.25000000       0.25000000 </v>
   <v>      -0.25000000       0.25000000       0.25000000 </v>
   <v>      -0.41666667       0.41666667       0.25000000 </v>
   <v>      -0.41666667      -0.41666667       0.25000000 </v>
   <v>      -0.41666667       0.41666667       0.41666667 </v>
  </varray>
  <varray name="weights" >
   <v>       0.03703704 </v>
   <v>       0.11111111 </v>
   <v>       0.05555556 </v>
   <v>       0.02777778 </v>
   <v>       0.11111111 </v>
   <v>       0.11111111 </v>
   <v>       0.11111111 </v>
   <v>       0.11111111 </v>
   <v>       0.11111111 </v>
   <v>       0.00925926 </v>
   <v>       0.02777778 </v>
   <v>       0.11111111 </v>
   <v>       0.03703704 </v>
   <v>       0.02777778 </v>
  </varray>
 </kpoints>
 <parameters>
  <separator name="general" >
   <i type="string" name="SYSTEM">unknown system</i>
   <i type="logical" name="LCOMPAT"> F  </i>
  </separator>
  <separator name="electronic" >
   <i type="string" name="PREC">accura</i>
   <i name="ENMAX">    200.00000000</i>
   <i name="ENAUG">    332.07500000</i>
   <i name="EDIFF">      0.00010000</i>
   <i type="int" name="IALGO">    38</i>
   <i type="int" name="IWAVPR">    10</i>
   <i type="int" name="NBANDS">     9</i>
   <i name="NELECT">      5.00000000</i>
   <i type="int" name="TURBO">     0</i>
   <i type="int" name="IRESTART">     0</i>
   <i type="int" name="NREBOOT">     0</i>
   <i type="int" name="NMIN">     0</i>
   <i name="EREF">      0.00000000</i>
   <separator name="electronic smearing" >
    <i type="int" name="ISMEAR">     1</i>
    <i name="SIGMA">      0.05000000</i>
    <i name="KSPACING">      0.50000000</i>
    <i type="logical" name="KGAMMA"> T  </i>
   </separator>
   <separator name="electronic projectors" >
    <i type="logical" name="LREAL"> F  </i>
    <v name="ROPT">      0.00000000</v>
    <i type="int" name="LMAXPAW">  -100</i>
    <i type="int" name="LMAXMIX">     2</i>
    <i type="logical" name="NLSPLINE"> F  </i>
   </separator>
   <separator name="electronic startup" >
    <i type="int" name="ISTART">     0</i>
    <i type="int" name="ICHARG">     2</i>
    <i type="int" name="INIWAV">     1</i>
   </separator>
   <separator name="electronic spin" >
    <i type="int" name="ISPIN">     2</i>
    <i type="logical" name="LNONCOLLINEAR"> F  </i>
    <v name="MAGMOM">      6.00000000</v>
    <i name="NUPDOWN">     -1.00000000</i>
    <i type="logical" name="LSORBIT"> F  </i>
    <v name="SAXIS">      0.00000000      0.00000000      1.00000000</v>
    <i type="logical" name="LSPIRAL"> F  </i>
    <v name="QSPIRAL">      0.00000000      0.00000000      0.00000000</v>
    <i type="logical" name="LZEROZ"> F  </i>
   </separator>
   <separator name="electronic exchange-correlation" >
    <i type="logical" name="LASPH"> F  </i>
    <i type="logical" name="LMETAGGA"> F  </i>
   </separator>
   <separator name="electronic convergence" >
    <i type="int" name="NELM">    60</i>
    <i type="int" name="NELMDL">    -5</i>
    <i type="int" name="NELMIN">     2</i>
    <i name="ENINI">    200.00000000</i>
    <separator name="electronic convergence detail" >
     <i type="logical" name="LDIAG"> T  </i>
     <i type="logical" name="LSUBROT"> T  </i>
     <i name="WEIMIN">      0.00000000</i>
     <i name="EBREAK">      0.00000278</i>
     <i name="DEPER">      0.30000000</i>
     <i type="int" name="NRMM">     4</i>
     <i name="TIME">      0.40000000</i>
    </separator>
   </separator>
   <separator name="electronic mixer" >
    <i name="AMIX">      0.40000000</i>
    <i name="BMIX">      1.00000000</i>
    <i name="AMIN">      0.10000000</i>
    <i name="AMIX_MAG">      1.60000000</i>
    <i name="BMIX_MAG">      1.00000000</i>
    <separator name="electronic mixer details" >
     <i type="int" name="IMIX">     4</i>
     <i type="int" name="MAXMIX">   -45</i>
     <i name="WC">    100.00000000</i>
     <i type="int" name="INIMIX">     1</i>
     <i type="int" name="MIXPRE">     1</i>
     <i type="int" name="MREMOVE">     5</i>
    </separator>
   </separator>
   <separator name="electronic dipolcorrection" >
    <i type="logical" name="LDIPOL"> F  </i>
    <i type="logical" name="LMONO"> F  </i>
    <i type="int" name="IDIPOL">     0</i>
    <i name="EPSILON">      1.00000000</i>
    <v name="DIPOL">   -100.00000000   -100.00000000   -100.00000000</v>
    <i name="EFIELD">      0.00000000</i>
   </separator>
  </separator>
  <separator name="grids" >
   <i type="int" name="NGX">    14</i>
   <i type="int" name="NGY">    14</i>
   <i type="int" name="NGZ">    14</i>
   <i type="int" name="NGXF">    28</i>
   <i type="int" name="NGYF">    28</i>
   <i type="int" name="NGZF">    28</i>
   <i type="logical" name="ADDGRID"> F  </i>
  </separator>
  <separator name="ionic" >
   <i type="int" name="NSW">     0</i>
   <i type="int" name="IBRION">    -1</i>
   <i type="int" name="ISIF">     2</i>
   <i name="PSTRESS">      0.00000000</i>
   <i name="EDIFFG">      0.00100000</i>
   <i type="int" name="NFREE">     0</i>
   <i name="POTIM">      0.50000000</i>
   <i name="SMASS">     -3.00000000</i>
   <i name="SCALEE">      1.00000000</i>
  </separator>
  <separator name="ionic md" >
   <i name="TEBEG">      0.00010000</i>
   <i name="TEEND">      0.00010000</i>
   <i type="int" name="NBLOCK">     1</i>
   <i type="int" name="KBLOCK">     1</i>
   <i type="int" name="NPACO">   256</i>
   <i name="APACO">     16.00000000</i>
  </separator>
  <separator name="symmetry" >
   <i type="int" name="ISYM">     2</i>
   <i name="SYMPREC">      0.00001000</i>
  </separator>
  <separator name="dos" >
   <i type="logical" name="LORBIT"> F  </i>
   <v name="RWIGS">     -1.00000000</v>
   <i type="int" name="NEDOS">   301</i>
   <i name="EMIN">     10.00000000</i>
   <i name="EMAX">    -10.00000000</i>
   <i name="EFERMI">      0.00000000</i>
  </separator>
  <separator name="writing" >
   <i type="int" name="NWRITE">     2</i>
   <i type="logical" name="LWAVE"> T  </i>
   <i type="logical" name="LCHARG"> T  </i>
   <i type="logical" name="LPARD"> F  </i>
   <i type="logical" name="LVTOT"> F  </i>
   <i type="logical" name="LVHAR"> F  </i>
   <i type="logical" name="LELF"> F  </i>
   <i type="logical" name="LOPTICS"> F  </i>
   <v name="STM">      0.00000000      0.00000000      0.00000000      0.00000000      0.00000000      0.00000000      0.00000000</v>
  </separator>
  <separator name="performance" >
   <i type="int" name="NPAR">     1</i>
   <i type="int" name="NSIM">     4</i>
   <i type="int" name="NBLK">    -1</i>
   <i type="logical" name="LPLANE"> T  </i>
   <i type="logical" name="LSCALAPACK"> F  </i>
   <i type="logical" name="LSCAAWARE"> F  </i>
   <i type="logical" name="LSCALU"> F  </i>
   <i type="logical" name="LASYNC"> F  </i>
   <i type="logical" name="LORBITALREAL"> F  </i>
  </separator>
  <separator name="miscellaneous" >
   <i type="int" name="IDIOT">     3</i>
   <i type="logical" name="LMUSIC"> F  </i>
   <v name="POMASS">    180.94800000</v>
   <v name="DARWINR">      0.00000000</v>
   <v name="DARWINV">      1.00000000</v>
   <i type="logical" name="LCORR"> T  </i>
  </separator>
  <i type="logical" name="GGA_COMPAT"> T  </i>
  <i type="logical" name="LBERRY"> F  </i>
  <i type="int" name="ICORELEVEL">     0</i>
  <i type="logical" name="LDAU"> F  </i>
  <i type="int" name="I_CONSTRAINED_M">     0</i>
  <separator name="electronic exchange-correlation" >
   <i type="string" name="GGA">--</i>
   <i type="int" name="VOSKOWN">     0</i>
   <i type="logical" name="LHFCALC"> F  </i>
   <i type="string" name="PRECFOCK"></i>
   <i type="logical" name="LHFONE"> F  </i>
   <i type="logical" name="LRHFCALC"> F  </i>
   <i type="logical" name="LTHOMAS"> F  </i>
   <i type="logical" name="LMODELHF"> F  </i>
   <i name="ENCUT4O">     -1.00000000</i>
   <i type="int" name="EXXOEP">     0</i>
   <i type="int" name="FOURORBIT">     0</i>
   <i name="AEXX">      0.00000000</i>
   <i name="HFALPHA">      0.00000000</i>
   <i name="ALDAX">      1.00000000</i>
   <i name="AGGAX">      1.00000000</i>
   <i name="ALDAC">      1.00000000</i>
   <i name="AGGAC">      1.00000000</i>
   <i type="int" name="NKREDX">     1</i>
   <i type="int" name="NKREDY">     1</i>
   <i type="int" name="NKREDZ">     1</i>
   <i type="logical" name="SHIFTRED"> F  </i>
   <i type="logical" name="ODDONLY"> F  </i>
   <i type="logical" name="EVENONLY"> F  </i>
   <i type="int" name="LMAXFOCK">     0</i>
   <i type="int" name="NMAXFOCKAE">     0</i>
   <i type="logical" name="LFOCKAEDFT"> F  </i>
   <i name="HFSCREEN">      0.00000000</i>
   <i name="HFSCREENC">      0.00000000</i>
  </separator>
  <separator name="vdW DFT" >
   <i type="logical" name="LUSE_VDW"> F  </i>
   <i name="Zab_VDW">     -0.84910000</i>
   <i name="PARAM1">      0.12340000</i>
   <i name="PARAM2">      1.00000000</i>
   <i name="PARAM3">      0.00000000</i>
  </separator>
  <separator name="model GW" >
   <i type="int" name="MODEL_GW">     0</i>
   <i name="MODEL_EPS0">     10.68338670</i>
   <i name="MODEL_ALPHA">      1.00000000</i>
  </separator>
  <separator name="linear response parameters" >
   <i type="logical" name="LEPSILON"> F  </i>
   <i type="logical" name="LRPA"> F  </i>
   <i type="logical" name="LNABLA"> F  </i>
   <i type="logical" name="LVEL"> F  </i>
   <i type="int" name="KINTER">     0</i>
   <i name="CSHIFT">      0.10000000</i>
   <i name="OMEGAMAX">     -1.00000000</i>
  </separator>
  <separator name="orbital magnetization" >
   <i type="logical" name="NUCIND"> F  </i>
   <v name="MAGPOS">      0.00000000      0.00000000      0.00000000</v>
   <i type="logical" name="LNICSALL"> T  </i>
   <i type="logical" name="ORBITALMAG"> F  </i>
   <i type="logical" name="LMAGBLOCH"> F  </i>
   <i type="logical" name="LCHIMAG"> F  </i>
   <i type="logical" name="LGAUGE"> T  </i>
   <i type="int" name="MAGATOM">     0</i>
   <v name="MAGDIPOL">      0.00000000      0.00000000      0.00000000</v>
   <v name="AVECCONST">      0.00000000      0.00000000      0.00000000</v>
  </separator>
  <separator name="response functions" >
   <i type="logical" name="LADDER"> F  </i>
   <i type="logical" name="LHARTREE"> T  </i>
   <i type="int" name="IBSE">     0</i>
   <i type="logical" name="LTCTE"> F  </i>
   <i type="logical" name="LTETE"> F  </i>
   <i type="logical" name="LFXCEPS"> F  </i>
   <i type="logical" name="L2ORDER"> F  </i>
   <i type="logical" name="LUSEW"> F  </i>
   <i name="ENCUTGW">     -2.00000000</i>
   <i name="ENCUTGWSOFT">     -2.00000000</i>
   <i name="ENCUTLF">     -1.00000000</i>
   <i type="int" name="LMAXMP2">    -1</i>
   <i name="SCISSOR">      0.00000000</i>
   <i type="int" name="NOMEGA">     0</i>
   <i type="int" name="NOMEGAR">     0</i>
   <i type="int" name="NBANDSGW">    -1</i>
   <i type="int" name="NBANDSO">    -1</i>
   <i type="int" name="NBANDSV">    -1</i>
   <i name="OPTEMAX">      0.00000000</i>
   <i type="int" name="NELM">     1</i>
   <i type="int" name="DIM">     3</i>
   <i type="int" name="ANTIRES">     0</i>
   <i name="OMEGAMAX">    -30.00000000</i>
   <i name="OMEGATL">   -200.00000000</i>
   <i type="int" name="OMEGAGRID">     0</i>
   <i name="CSHIFT">     -0.10000000</i>
   <i type="logical" name="SELFENERGY"> F  </i>
   <i type="logical" name="LSPECTRAL"> F  </i>
   <i type="logical" name="ODDONLYGW"> F  </i>
   <i type="logical" name="EVENONLYGW"> F  </i>
   <i type="int" name="NKREDLFX">     1</i>
   <i type="int" name="NKREDLFY">     1</i>
   <i type="int" name="NKREDLFZ">     1</i>
   <i type="int" name="MAXMEM">  1800</i>
   <i type="int" name="TELESCOPE">     0</i>
  </separator>
 </parameters>
 <atominfo>
  <atoms>       1 </atoms>
  <types>       1 </types>
  <array name="atoms" >
   <dimension dim="1">ion</dimension>
   <field type="string">element</field>
   <field type="int">atomtype</field>
   <set>
    <rc><c>Ta</c><c>   1</c></rc>
   </set>
  </array>
  <array name="atomtypes" >
   <dimension dim="1">type</dimension>
   <field type="int">atomspertype</field>
   <field type="string">element</field>
   <field>mass</field>
   <field>valence</field>
   <field type="string">pseudopotential</field>
   <set>
    <rc><c>   1</c><c>Ta</c><c>    180.94800000</c><c>      5.00000000</c><c>  PAW_PBE Ta 17Jan2003                  </c></rc>
   </set>
  </array>
 </atominfo>
 <structure name="initialpos" >
  <crystal>
   <varray name="basis" >
    <v>      -1.64500000       1.64500000       1.64500000 </v>
    <v>       1.64500000      -1.64500000       1.64500000 </v>
    <v>       1.64500000       1.64500000      -1.64500000 </v>
   </varray>
   <i name="volume">     17.80564450 </i>
   <varray name="rec_basis" >
    <v>       0.00000000       0.30395137       0.30395137 </v>
    <v>       0.30395137       0.00000000       0.30395137 </v>
    <v>       0.30395137       0.30395137       0.00000000 </v>
   </varray>
  </crystal>
  <varray name="positions" >
   <v>       0.00000000       0.00000000       0.00000000 </v>
  </varray>
 </structure>
 <calculation>
  <scstep>
   <time name="dav">    0.30    0.31</time>
   <time name="total">    0.40    0.41</time>
   <energy>
    <i name="alphaZ">     31.14448904 </i>
    <i name="ewald">   -199.10405440 </i>
    <i name="hartreedc">     -2.40103824 </i>
    <i name="XCdc">    -60.72720174 </i>
    <i name="pawpsdc">    143.51874798 </i>
    <i name="pawaedc">    -69.33493833 </i>
    <i name="eentropy">     -0.00070458 </i>
    <i name="bandstr">     28.58260705 </i>
    <i name="atom">    130.57950032 </i>
    <i name="e_fr_energy">      2.25740710 </i>
    <i name="e_wo_entrp">      2.25811168 </i>
    <i name="e_0_energy">      2.25764196 </i>
   </energy>
  </scstep>
  <scstep>
   <time name="dav">    0.30    0.30</time>
   <time name="total">    0.30    0.30</time>
   <energy>
    <i name="e_fr_energy">     -1.48635238 </i>
    <i name="e_wo_entrp">     -1.48578619 </i>
    <i name="e_0_energy">     -1.48616365 </i>
   </energy>
  </scstep>
  <scstep>
   <time name="dav">    0.30    0.30</time>
   <time name="total">    0.30    1.28</time>
   <energy>
    <i name="e_fr_energy">     -1.53586021 </i>
    <i name="e_wo_entrp">     -1.53546672 </i>
    <i name="e_0_energy">     -1.53572905 </i>
   </energy>
  </scstep>
  <scstep>
   <time name="dav">    0.32    0.32</time>
   <time name="total">    0.32    0.34</time>
   <energy>
    <i name="e_fr_energy">     -1.53591859 </i>
    <i name="e_wo_entrp">     -1.53552521 </i>
    <i name="e_0_energy">     -1.53578746 </i>
   </energy>
  </scstep>
  <scstep>
   <time name="dav">    0.28    0.28</time>
   <time name="total">    0.31    0.33</time>
   <energy>
    <i name="e_fr_energy">     -1.53591860 </i>
    <i name="e_wo_entrp">     -1.53552522 </i>
    <i name="e_0_energy">     -1.53578748 </i>
   </energy>
  </scstep>
  <scstep>
   <time name="dav">    0.27    0.27</time>
   <time name="total">    0.39    0.40</time>
   <energy>
    <i name="e_fr_energy">    -11.82471132 </i>
    <i name="e_wo_entrp">    -11.82479273 </i>
    <i name="e_0_energy">    -11.82473846 </i>
   </energy>
  </scstep>
  <scstep>
   <time name="dav">    0.28    0.28</time>
   <time name="total">    0.40    0.42</time>
   <energy>
    <i name="e_fr_energy">    -11.91661736 </i>
    <i name="e_wo_entrp">    -11.91563065 </i>
    <i name="e_0_energy">    -11.91628846 </i>
   </energy>
  </scstep>
  <scstep>
   <time name="dav">    0.28    0.28</time>
   <time name="total">    0.40    0.42</time>
   <energy>
    <i name="e_fr_energy">    -11.84241669 </i>
    <i name="e_wo_entrp">    -11.84209098 </i>
    <i name="e_0_energy">    -11.84230812 </i>
   </energy>
  </scstep>
  <scstep>
   <time name="dav">    0.28    0.28</time>
   <time name="total">    0.40    0.42</time>
   <energy>
    <i name="e_fr_energy">    -11.87899943 </i>
    <i name="e_wo_entrp">    -11.87896810 </i>
    <i name="e_0_energy">    -11.87898898 </i>
   </energy>
  </scstep>
  <scstep>
   <time name="dav">    0.30    0.30</time>
   <time name="total">    0.42    0.43</time>
   <energy>
    <i name="e_fr_energy">    -11.88087240 </i>
    <i name="e_wo_entrp">    -11.88026854 </i>
    <i name="e_0_energy">    -11.88067111 </i>
   </energy>
  </scstep>
  <scstep>
   <time name="dav">    0.28    0.28</time>
   <time name="total">    0.40    0.41</time>
   <energy>
    <i name="e_fr_energy">    -11.88273070 </i>
    <i name="e_wo_entrp">    -11.88104576 </i>
    <i name="e_0_energy">    -11.88216905 </i>
   </energy>
  </scstep>
  <scstep>
   <time name="dav">    0.28    0.28</time>
   <time name="total">    0.40    0.41</time>
   <energy>
    <i name="e_fr_energy">    -11.88119548 </i>
    <i name="e_wo_entrp">    -11.88010828 </i>
    <i name="e_0_energy">    -11.88083308 </i>
   </energy>
  </scstep>
  <scstep>
   <time name="dav">    0.28    0.28</time>
   <time name="total">    0.39    0.41</time>
   <energy>
    <i name="e_fr_energy">    -11.88458580 </i>
    <i name="e_wo_entrp">    -11.88377383 </i>
    <i name="e_0_energy">    -11.88431515 </i>
   </energy>
  </scstep>
  <scstep>
   <time name="dav">    0.17    0.17</time>
   <time name="total">    0.26    0.27</time>
   <energy>
    <i name="alphaZ">     31.14448904 </i>
    <i name="ewald">   -199.10405440 </i>
    <i name="hartreedc">     -0.59388786 </i>
    <i name="XCdc">    -65.97005201 </i>
    <i name="pawpsdc">    197.35951542 </i>
    <i name="pawaedc">   -123.94284459 </i>
    <i name="eentropy">     -0.00074636 </i>
    <i name="bandstr">     18.64346123 </i>
    <i name="atom">    130.57950032 </i>
    <i name="e_fr_energy">    -11.88461921 </i>
    <i name="e_wo_entrp">    -11.88387285 </i>
    <i name="e_0_energy">    -11.88437043 </i>
   </energy>
  </scstep>
  <parameters_embedded>
   <separator name="dft+d2" >
    <i type="logical" name="LVDW"> F  </i>
   </separator>
  </parameters_embedded>
  <structure>
   <crystal>
    <varray name="basis" >
     <v>      -1.64500000       1.64500000       1.64500000 </v>
     <v>       1.64500000      -1.64500000       1.64500000 </v>
     <v>       1.64500000       1.64500000      -1.64500000 </v>
    </varray>
    <i name="volume">     17.80564450 </i>
    <varray name="rec_basis" >
     <v>       0.00000000       0.30395137       0.30395137 </v>
     <v>       0.30395137       0.00000000       0.30395137 </v>
     <v>       0.30395137       0.30395137       0.00000000 </v>
    </varray>
   </crystal>
   <varray name="positions" >
    <v>       0.00000000       0.00000000       0.00000000 </v>
   </varray>
  </structure>
  <varray name="forces" >
   <v>       0.00000000       0.00000000       0.00000000 </v>
  </varray>
  <varray name="stress" >
   <v>     -23.00715123       0.00000000       0.00000000 </v>
   <v>       0.00000000     -23.00715123       0.00000000 </v>
   <v>       0.00000000       0.00000000     -23.00715123 </v>
  </varray>
  <energy>
   <i name="e_fr_energy">    -11.88461921 </i>
   <i name="e_wo_entrp">    -11.88437043 </i>
   <i name="e_0_energy">     -0.00074636 </i>
  </energy>
  <time name="totalsc">    5.59    6.85</time>
  <eigenvalues>
   <array>
    <dimension dim="1">band</dimension>
    <dimension dim="2">kpoint</dimension>
    <dimension dim="3">spin</dimension>
    <field>eigene</field>
    <field>occ</field>
    <set>
     <set comment="spin 1">
      <set comment="kpoint 1">
       <r>   -0.3540    1.0000 </r>
       <r>    5.7212    1.0315 </r>
       <r>    5.7212    1.0315 </r>
       <r>    8.8486    0.0000 </r>
       <r>    9.7249    0.0000 </r>
       <r>    9.7249    0.0000 </r>
       <r>   20.2246    0.0000 </r>
       <r>   22.1219    0.0000 </r>
       <r>   23.2926    0.0000 </r>
      </set>
      <set comment="kpoint 2">
       <r>    1.7798    1.0000 </r>
       <r>    4.6825    1.0000 </r>
       <r>    5.2828    1.0000 </r>
       <r>    9.9288    0.0000 </r>
       <r>   10.5503    0.0000 </r>
       <r>   12.3278    0.0000 </r>
       <r>   19.9963    0.0000 </r>
       <r>   20.2945    0.0000 </r>
       <r>   20.3175    0.0000 </r>
      </set>
      <set comment="kpoint 3">
       <r>    2.1379    1.0000 </r>
       <r>    4.3078    1.0000 </r>
       <r>    6.8545    0.0000 </r>
       <r>   10.1395    0.0000 </r>
       <r>   10.9717    0.0000 </r>
       <r>   14.8524    0.0000 </r>
       <r>   16.6548    0.0000 </r>
       <r>   18.6063    0.0000 </r>
       <r>   20.2349    0.0000 </r>
      </set>
      <set comment="kpoint 4">
       <r>   -1.4298    1.0000 </r>
       <r>    6.6279    0.0000 </r>
       <r>    6.6279    0.0000 </r>
       <r>    6.9776    0.0000 </r>
       <r>    8.9858    0.0000 </r>
       <r>   10.3270    0.0000 </r>
       <r>   20.2261    0.0000 </r>
       <r>   22.0549    0.0000 </r>
       <r>   22.0549    0.0000 </r>
      </set>
      <set comment="kpoint 5">
       <r>    3.3734    1.0000 </r>
       <r>    4.5310    1.0000 </r>
       <r>    5.1873    1.0000 </r>
       <r>   10.4437    0.0000 </r>
       <r>   10.9242    0.0000 </r>
       <r>   15.4772    0.0000 </r>
       <r>   16.1031    0.0000 </r>
       <r>   19.8806    0.0000 </r>
       <r>   20.2325    0.0000 </r>
      </set>
      <set comment="kpoint 6">
       <r>    0.5304    1.0000 </r>
       <r>    5.6629    1.0008 </r>
       <r>    5.8110    0.1963 </r>
       <r>    8.4408    0.0000 </r>
       <r>    9.2179    0.0000 </r>
       <r>   10.7941    0.0000 </r>
       <r>   20.2210    0.0000 </r>
       <r>   21.1274    0.0000 </r>
       <r>   23.2812    0.0000 </r>
      </set>
      <set comment="kpoint 7">
       <r>    1.7609    1.0000 </r>
       <r>    4.8094    1.0000 </r>
       <r>    6.2511    0.0000 </r>
       <r>    9.2893    0.0000 </r>
       <r>   11.2882    0.0000 </r>
       <r>   12.8747    0.0000 </r>
       <r>   18.3502    0.0000 </r>
       <r>   19.6950    0.0000 </r>
       <r>   20.2427    0.0000 </r>
      </set>
      <set comment="kpoint 8">
       <r>    2.4295    1.0000 </r>
       <r>    4.5589    1.0000 </r>
       <r>    5.7959    0.4262 </r>
       <r>    8.5478    0.0000 </r>
       <r>   10.7212    0.0000 </r>
       <r>   12.4287    0.0000 </r>
       <r>   19.0224    0.0000 </r>
       <r>   20.2366    0.0000 </r>
       <r>   22.8244    0.0000 </r>
      </set>
      <set comment="kpoint 9">
       <r>    2.9879    1.0000 </r>
       <r>    4.8524    1.0000 </r>
       <r>    5.2189    1.0000 </r>
       <r>    9.1350    0.0000 </r>
       <r>   11.4224    0.0000 </r>
       <r>   15.7498    0.0000 </r>
       <r>   16.2443    0.0000 </r>
       <r>   20.1137    0.0000 </r>
       <r>   20.2345    0.0000 </r>
      </set>
      <set comment="kpoint 10">
       <r>    4.7036    1.0000 </r>
       <r>    4.7036    1.0000 </r>
       <r>    4.7036    1.0000 </r>
       <r>   11.1358    0.0000 </r>
       <r>   11.1358    0.0000 </r>
       <r>   13.1662    0.0000 </r>
       <r>   18.9530    0.0000 </r>
       <r>   18.9530    0.0000 </r>
       <r>   18.9530    0.0000 </r>
      </set>
      <set comment="kpoint 11">
       <r>    2.1731    1.0000 </r>
       <r>    4.9434    1.0000 </r>
       <r>    7.2170    0.0000 </r>
       <r>    7.2170    0.0000 </r>
       <r>    9.1896    0.0000 </r>
       <r>   11.0240    0.0000 </r>
       <r>   20.2140    0.0000 </r>
       <r>   20.6694    0.0000 </r>
       <r>   25.4784    0.0000 </r>
      </set>
      <set comment="kpoint 12">
       <r>    3.0421    1.0000 </r>
       <r>    3.8866    1.0000 </r>
       <r>    7.1640    0.0000 </r>
       <r>    7.8508    0.0000 </r>
       <r>   12.3497    0.0000 </r>
       <r>   12.4223    0.0000 </r>
       <r>   18.8851    0.0000 </r>
       <r>   20.2391    0.0000 </r>
       <r>   21.2555    0.0000 </r>
      </set>
      <set comment="kpoint 13">
       <r>    3.1719    1.0000 </r>
       <r>    3.1719    1.0000 </r>
       <r>    6.7287    0.0000 </r>
       <r>   11.0182    0.0000 </r>
       <r>   11.0182    0.0000 </r>
       <r>   16.0847    0.0000 </r>
       <r>   17.1936    0.0000 </r>
       <r>   17.1937    0.0000 </r>
       <r>   20.2341    0.0000 </r>
      </set>
      <set comment="kpoint 14">
       <r>    2.3766    1.0000 </r>
       <r>    2.4888    1.0000 </r>
       <r>   10.6701    0.0000 </r>
       <r>   10.6701    0.0000 </r>
       <r>   12.2435    0.0000 </r>
       <r>   13.0063    0.0000 </r>
       <r>   17.5226    0.0000 </r>
       <r>   17.5226    0.0000 </r>
       <r>   20.2257    0.0000 </r>
      </set>
     </set>
     <set comment="spin 2">
      <set comment="kpoint 1">
       <r>   -0.4699    1.0000 </r>
       <r>    5.6066    1.0000 </r>
       <r>    5.6066    1.0000 </r>
       <r>    8.7372    0.0000 </r>
       <r>    9.6483    0.0000 </r>
       <r>    9.6483    0.0000 </r>
       <r>   20.1730    0.0000 </r>
       <r>   21.9984    0.0000 </r>
       <r>   23.1875    0.0000 </r>
      </set>
      <set comment="kpoint 2">
       <r>    1.6651    1.0000 </r>
       <r>    4.5659    1.0000 </r>
       <r>    5.1737    1.0000 </r>
       <r>    9.8452    0.0000 </r>
       <r>   10.4759    0.0000 </r>
       <r>   12.2254    0.0000 </r>
       <r>   19.9059    0.0000 </r>
       <r>   20.2148    0.0000 </r>
       <r>   20.2315    0.0000 </r>
      </set>
      <set comment="kpoint 3">
       <r>    2.0252    1.0000 </r>
       <r>    4.1903    1.0000 </r>
       <r>    6.7453    0.0000 </r>
       <r>   10.0562    0.0000 </r>
       <r>   10.8995    0.0000 </r>
       <r>   14.7622    0.0000 </r>
       <r>   16.5479    0.0000 </r>
       <r>   18.5021    0.0000 </r>
       <r>   20.1829    0.0000 </r>
      </set>
      <set comment="kpoint 4">
       <r>   -1.5461    1.0000 </r>
       <r>    6.5121    0.0000 </r>
       <r>    6.5121    0.0000 </r>
       <r>    6.8623    0.0000 </r>
       <r>    8.9097    0.0000 </r>
       <r>   10.2573    0.0000 </r>
       <r>   20.1745    0.0000 </r>
       <r>   21.9325    0.0000 </r>
       <r>   21.9584    0.0000 </r>
      </set>
      <set comment="kpoint 5">
       <r>    3.2572    1.0000 </r>
       <r>    4.4216    1.0000 </r>
       <r>    5.0751    1.0000 </r>
       <r>   10.3626    0.0000 </r>
       <r>   10.8487    0.0000 </r>
       <r>   15.3588    0.0000 </r>
       <r>   16.0128    0.0000 </r>
       <r>   19.7916    0.0000 </r>
       <r>   20.1806    0.0000 </r>
      </set>
      <set comment="kpoint 6">
       <r>    0.4155    1.0000 </r>
       <r>    5.5461    1.0000 </r>
       <r>    5.7062    1.0183 </r>
       <r>    8.3492    0.0000 </r>
       <r>    9.1075    0.0000 </r>
       <r>   10.7219    0.0000 </r>
       <r>   20.1693    0.0000 </r>
       <r>   21.0227    0.0000 </r>
       <r>   23.1821    0.0000 </r>
      </set>
      <set comment="kpoint 7">
       <r>    1.6490    1.0000 </r>
       <r>    4.6918    1.0000 </r>
       <r>    6.1500    0.0000 </r>
       <r>    9.1973    0.0000 </r>
       <r>   11.2084    0.0000 </r>
       <r>   12.7776    0.0000 </r>
       <r>   18.2550    0.0000 </r>
       <r>   19.5952    0.0000 </r>
       <r>   20.1900    0.0000 </r>
      </set>
      <set comment="kpoint 8">
       <r>    2.3169    1.0000 </r>
       <r>    4.4589    1.0000 </r>
       <r>    5.6822    1.0042 </r>
       <r>    8.4485    0.0000 </r>
       <r>   10.6345    0.0000 </r>
       <r>   12.3318    0.0000 </r>
       <r>   18.9251    0.0000 </r>
       <r>   20.1844    0.0000 </r>
       <r>   22.7340    0.0000 </r>
      </set>
      <set comment="kpoint 9">
       <r>    2.8788    1.0000 </r>
       <r>    4.7410    1.0000 </r>
       <r>    5.1209    1.0000 </r>
       <r>    9.0376    0.0000 </r>
       <r>   11.3296    0.0000 </r>
       <r>   15.6590    0.0000 </r>
       <r>   16.1376    0.0000 </r>
       <r>   20.0179    0.0000 </r>
       <r>   20.1825    0.0000 </r>
      </set>
      <set comment="kpoint 10">
       <r>    4.5900    1.0000 </r>
       <r>    4.5900    1.0000 </r>
       <r>    4.5900    1.0000 </r>
       <r>   11.0644    0.0000 </r>
       <r>   11.0644    0.0000 </r>
       <r>   13.0390    0.0000 </r>
       <r>   18.8640    0.0000 </r>
       <r>   18.8640    0.0000 </r>
       <r>   18.8640    0.0000 </r>
      </set>
      <set comment="kpoint 11">
       <r>    2.0639    1.0000 </r>
       <r>    4.8551    1.0000 </r>
       <r>    7.1029    0.0000 </r>
       <r>    7.1029    0.0000 </r>
       <r>    9.0798    0.0000 </r>
       <r>   10.9403    0.0000 </r>
       <r>   20.1616    0.0000 </r>
       <r>   20.5770    0.0000 </r>
       <r>   25.3745    0.0000 </r>
      </set>
      <set comment="kpoint 12">
       <r>    2.9431    1.0000 </r>
       <r>    3.7928    1.0000 </r>
       <r>    7.0499    0.0000 </r>
       <r>    7.7431    0.0000 </r>
       <r>   12.2510    0.0000 </r>
       <r>   12.3177    0.0000 </r>
       <r>   18.7896    0.0000 </r>
       <r>   20.1870    0.0000 </r>
       <r>   21.1385    0.0000 </r>
      </set>
      <set comment="kpoint 13">
       <r>    3.0788    1.0000 </r>
       <r>    3.0788    1.0000 </r>
       <r>    6.6130    0.0000 </r>
       <r>   10.9131    0.0000 </r>
       <r>   10.9131    0.0000 </r>
       <r>   15.9772    0.0000 </r>
       <r>   17.0880    0.0000 </r>
       <r>   17.0880    0.0000 </r>
       <r>   20.1824    0.0000 </r>
      </set>
      <set comment="kpoint 14">
       <r>    2.2844    1.0000 </r>
       <r>    2.3957    1.0000 </r>
       <r>   10.5620    0.0000 </r>
       <r>   10.5620    0.0000 </r>
       <r>   12.1461    0.0000 </r>
       <r>   12.8868    0.0000 </r>
       <r>   17.4100    0.0000 </r>
       <r>   17.4100    0.0000 </r>
       <r>   20.1742    0.0000 </r>
      </set>
     </set>
    </set>
   </array>
  </eigenvalues>
  <separator name="orbital magnetization" >
   <v name="MAGDIPOLOUT">      0.00000000      0.00000000      0.00000000</v>
  </separator>
  <dos>
   <i name="efermi">      5.79155072 </i>
   <total>
    <array>
     <dimension dim="1">gridpoints</dimension>
     <dimension dim="2">spin</dimension>
     <field>energy</field>
     <field>total</field>
     <field>integrated</field>
     <set>
      <set comment="spin 1">
       <r>    -2.8973     0.0000     0.0000 </r>
       <r>    -2.7982     0.0000     0.0000 </r>
       <r>    -2.6991     0.0000     0.0000 </r>
       <r>    -2.6001     0.0000     0.0000 </r>
       <r>    -2.5010     0.0000     0.0000 </r>
       <r>    -2.4019     0.0000     0.0000 </r>
       <r>    -2.3028     0.0000     0.0000 </r>
       <r>    -2.2037     0.0000     0.0000 </r>
       <r>    -2.1046     0.0000     0.0000 </r>
       <r>    -2.0055     0.0000     0.0000 </r>
       <r>    -1.9064     0.0000     0.0000 </r>
       <r>    -1.8073     0.0000     0.0000 </r>
       <r>    -1.7082     0.0000     0.0000 </r>
       <r>    -1.6092     0.0000     0.0000 </r>
       <r>    -1.5101    -0.0064    -0.0006 </r>
       <r>    -1.4110     0.2292     0.0221 </r>
       <r>    -1.3119     0.0581     0.0278 </r>
       <r>    -1.2128    -0.0006     0.0278 </r>
       <r>    -1.1137     0.0000     0.0278 </r>
       <r>    -1.0146     0.0000     0.0278 </r>
       <r>    -0.9155     0.0000     0.0278 </r>
       <r>    -0.8164     0.0000     0.0278 </r>
       <r>    -0.7173     0.0000     0.0278 </r>
       <r>    -0.6183     0.0000     0.0278 </r>
       <r>    -0.5192     0.0000     0.0278 </r>
       <r>    -0.4201    -0.0128     0.0265 </r>
       <r>    -0.3210     0.3661     0.0628 </r>
       <r>    -0.2219     0.0207     0.0648 </r>
       <r>    -0.1228    -0.0002     0.0648 </r>
       <r>    -0.0237     0.0000     0.0648 </r>
       <r>     0.0754     0.0000     0.0648 </r>
       <r>     0.1745     0.0000     0.0648 </r>
       <r>     0.2736     0.0000     0.0648 </r>
       <r>     0.3726     0.0000     0.0648 </r>
       <r>     0.4717    -0.0392     0.0609 </r>
       <r>     0.5708     1.1520     0.1751 </r>
       <r>     0.6699     0.0089     0.1760 </r>
       <r>     0.7690    -0.0003     0.1759 </r>
       <r>     0.8681     0.0000     0.1759 </r>
       <r>     0.9672     0.0000     0.1759 </r>
       <r>     1.0663     0.0000     0.1759 </r>
       <r>     1.1654     0.0000     0.1759 </r>
       <r>     1.2645     0.0000     0.1759 </r>
       <r>     1.3635     0.0000     0.1759 </r>
       <r>     1.4626     0.0000     0.1759 </r>
       <r>     1.5617     0.0000     0.1759 </r>
       <r>     1.6608    -0.0111     0.1748 </r>
       <r>     1.7599     0.7669     0.2508 </r>
       <r>     1.8590     1.5237     0.4018 </r>
       <r>     1.9581    -0.0368     0.3981 </r>
       <r>     2.0572    -0.0133     0.3968 </r>
       <r>     2.1563     0.5210     0.4485 </r>
       <r>     2.2554     0.3399     0.4821 </r>
       <r>     2.3544     0.0079     0.4829 </r>
       <r>     2.4535     1.2476     0.6066 </r>
       <r>     2.5526     0.4312     0.6493 </r>
       <r>     2.6517    -0.0114     0.6481 </r>
       <r>     2.7508     0.0000     0.6481 </r>
       <r>     2.8499    -0.0004     0.6481 </r>
       <r>     2.9490     0.0043     0.6485 </r>
       <r>     3.0481     1.8301     0.8299 </r>
       <r>     3.1472     0.5146     0.8809 </r>
       <r>     3.2462     0.6616     0.9464 </r>
       <r>     3.3453     0.0897     0.9553 </r>
       <r>     3.4444     1.0464     1.0590 </r>
       <r>     3.5435    -0.0348     1.0556 </r>
       <r>     3.6426     0.0000     1.0556 </r>
       <r>     3.7417    -0.0002     1.0555 </r>
       <r>     3.8408    -0.0155     1.0540 </r>
       <r>     3.9399     1.1714     1.1701 </r>
       <r>     4.0390    -0.0344     1.1667 </r>
       <r>     4.1381    -0.0001     1.1667 </r>
       <r>     4.2371    -0.0175     1.1649 </r>
       <r>     4.3362     0.5251     1.2170 </r>
       <r>     4.4353     0.0403     1.2210 </r>
       <r>     4.5344     0.7913     1.2994 </r>
       <r>     4.6335     1.4685     1.4449 </r>
       <r>     4.7326     1.3695     1.5806 </r>
       <r>     4.8317     1.1702     1.6965 </r>
       <r>     4.9308     1.2116     1.8166 </r>
       <r>     5.0299     0.1737     1.8338 </r>
       <r>     5.1290    -0.0602     1.8278 </r>
       <r>     5.2280     1.8642     2.0126 </r>
       <r>     5.3271     1.5709     2.1682 </r>
       <r>     5.4262    -0.0155     2.1667 </r>
       <r>     5.5253    -0.0006     2.1666 </r>
       <r>     5.6244     0.0132     2.1679 </r>
       <r>     5.7235     1.4994     2.3165 </r>
       <r>     5.8226     2.1309     2.5277 </r>
       <r>     5.9217     0.4738     2.5746 </r>
       <r>     6.0208    -0.0055     2.5741 </r>
       <r>     6.1199    -0.0007     2.5740 </r>
       <r>     6.2189     0.0702     2.5810 </r>
       <r>     6.3180     1.0897     2.6889 </r>
       <r>     6.4171    -0.0378     2.6852 </r>
       <r>     6.5162    -0.0020     2.6850 </r>
       <r>     6.6153     0.1654     2.7014 </r>
       <r>     6.7144     0.5074     2.7517 </r>
       <r>     6.8135     0.2733     2.7787 </r>
       <r>     6.9126     0.5608     2.8343 </r>
       <r>     7.0117     0.2574     2.8598 </r>
       <r>     7.1108    -0.0240     2.8574 </r>
       <r>     7.2098     1.3875     2.9949 </r>
       <r>     7.3089     0.3390     3.0285 </r>
       <r>     7.4080    -0.0075     3.0278 </r>
       <r>     7.5071     0.0000     3.0278 </r>
       <r>     7.6062     0.0000     3.0278 </r>
       <r>     7.7053    -0.0002     3.0278 </r>
       <r>     7.8044    -0.0179     3.0260 </r>
       <r>     7.9035     1.1728     3.1422 </r>
       <r>     8.0026    -0.0333     3.1389 </r>
       <r>     8.1017    -0.0001     3.1389 </r>
       <r>     8.2007     0.0000     3.1389 </r>
       <r>     8.2998    -0.0003     3.1389 </r>
       <r>     8.3989     0.0013     3.1390 </r>
       <r>     8.4980     1.1310     3.2511 </r>
       <r>     8.5971     1.1370     3.3637 </r>
       <r>     8.6962    -0.0263     3.3611 </r>
       <r>     8.7953    -0.0116     3.3600 </r>
       <r>     8.8944     0.3867     3.3983 </r>
       <r>     8.9935     0.1745     3.4156 </r>
       <r>     9.0926     0.0999     3.4255 </r>
       <r>     9.1916     1.4342     3.5676 </r>
       <r>     9.2907     1.7159     3.7376 </r>
       <r>     9.3898     0.5072     3.7879 </r>
       <r>     9.4889    -0.0087     3.7870 </r>
       <r>     9.5880    -0.0003     3.7870 </r>
       <r>     9.6871     0.0166     3.7887 </r>
       <r>     9.7862     0.7575     3.8637 </r>
       <r>     9.8853    -0.0328     3.8605 </r>
       <r>     9.9844     1.1651     3.9759 </r>
       <r>    10.0834    -0.0559     3.9704 </r>
       <r>    10.1825     0.5816     4.0280 </r>
       <r>    10.2816    -0.0056     4.0274 </r>
       <r>    10.3807     0.2530     4.0525 </r>
       <r>    10.4798     1.0806     4.1596 </r>
       <r>    10.5789     1.0815     4.2667 </r>
       <r>    10.6780     0.4590     4.3122 </r>
       <r>    10.7771     1.6321     4.4740 </r>
       <r>    10.8762     0.8181     4.5550 </r>
       <r>    10.9753     1.4620     4.6999 </r>
       <r>    11.0743     1.2829     4.8270 </r>
       <r>    11.1734     0.1499     4.8419 </r>
       <r>    11.2725     0.2860     4.8702 </r>
       <r>    11.3716     0.8350     4.9529 </r>
       <r>    11.4707     1.1527     5.0672 </r>
       <r>    11.5698    -0.0236     5.0648 </r>
       <r>    11.6689    -0.0001     5.0648 </r>
       <r>    11.7680     0.0000     5.0648 </r>
       <r>    11.8671     0.0000     5.0648 </r>
       <r>    11.9662     0.0000     5.0648 </r>
       <r>    12.0652     0.0000     5.0648 </r>
       <r>    12.1643    -0.0067     5.0641 </r>
       <r>    12.2634     0.1749     5.0815 </r>
       <r>    12.3625     1.9044     5.2702 </r>
       <r>    12.4616     2.6197     5.5298 </r>
       <r>    12.5607     0.0743     5.5371 </r>
       <r>    12.6598    -0.0010     5.5370 </r>
       <r>    12.7589    -0.0028     5.5368 </r>
       <r>    12.8580     0.2653     5.5630 </r>
       <r>    12.9571     0.8757     5.6498 </r>
       <r>    13.0561     0.2701     5.6766 </r>
       <r>    13.1552     0.0233     5.6789 </r>
       <r>    13.2543     0.0650     5.6853 </r>
       <r>    13.3534    -0.0015     5.6852 </r>
       <r>    13.4525     0.0000     5.6852 </r>
       <r>    13.5516     0.0000     5.6852 </r>
       <r>    13.6507     0.0000     5.6852 </r>
       <r>    13.7498     0.0000     5.6852 </r>
       <r>    13.8489     0.0000     5.6852 </r>
       <r>    13.9480     0.0000     5.6852 </r>
       <r>    14.0470     0.0000     5.6852 </r>
       <r>    14.1461     0.0000     5.6852 </r>
       <r>    14.2452     0.0000     5.6852 </r>
       <r>    14.3443     0.0000     5.6852 </r>
       <r>    14.4434     0.0000     5.6852 </r>
       <r>    14.5425     0.0000     5.6852 </r>
       <r>    14.6416     0.0000     5.6852 </r>
       <r>    14.7407    -0.0020     5.6850 </r>
       <r>    14.8398     0.1665     5.7015 </r>
       <r>    14.9389     0.4059     5.7417 </r>
       <r>    15.0379    -0.0097     5.7407 </r>
       <r>    15.1370     0.0000     5.7407 </r>
       <r>    15.2361     0.0000     5.7407 </r>
       <r>    15.3352    -0.0002     5.7407 </r>
       <r>    15.4343    -0.0038     5.7403 </r>
       <r>    15.5334     1.1631     5.8556 </r>
       <r>    15.6325    -0.0402     5.8516 </r>
       <r>    15.7316     0.2417     5.8756 </r>
       <r>    15.8307     0.9070     5.9654 </r>
       <r>    15.9298    -0.0250     5.9630 </r>
       <r>    16.0288    -0.0442     5.9586 </r>
       <r>    16.1279     1.3901     6.0963 </r>
       <r>    16.2270     0.4036     6.1363 </r>
       <r>    16.3261     0.8910     6.2246 </r>
       <r>    16.4252    -0.0240     6.2222 </r>
       <r>    16.5243    -0.0004     6.2222 </r>
       <r>    16.6234     0.0383     6.2260 </r>
       <r>    16.7225     0.5414     6.2796 </r>
       <r>    16.8216    -0.0187     6.2778 </r>
       <r>    16.9206     0.0000     6.2778 </r>
       <r>    17.0197     0.0000     6.2778 </r>
       <r>    17.1188    -0.0208     6.2757 </r>
       <r>    17.2179     0.6652     6.3416 </r>
       <r>    17.3170     0.1042     6.3520 </r>
       <r>    17.4161    -0.0039     6.3516 </r>
       <r>    17.5152     0.2134     6.3727 </r>
       <r>    17.6143     0.3575     6.4081 </r>
       <r>    17.7134    -0.0074     6.4074 </r>
       <r>    17.8125     0.0000     6.4074 </r>
       <r>    17.9115     0.0000     6.4074 </r>
       <r>    18.0106     0.0000     6.4074 </r>
       <r>    18.1097     0.0000     6.4074 </r>
       <r>    18.2088    -0.0003     6.4074 </r>
       <r>    18.3079    -0.0006     6.4073 </r>
       <r>    18.4070     1.1604     6.5223 </r>
       <r>    18.5061    -0.0426     6.5181 </r>
       <r>    18.6052     0.2738     6.5452 </r>
       <r>    18.7043     0.2963     6.5746 </r>
       <r>    18.8034    -0.0292     6.5717 </r>
       <r>    18.9024     0.8835     6.6592 </r>
       <r>    19.0015     0.7509     6.7336 </r>
       <r>    19.1006     0.9404     6.8268 </r>
       <r>    19.1997    -0.0278     6.8241 </r>
       <r>    19.2988     0.0000     6.8241 </r>
       <r>    19.3979     0.0000     6.8241 </r>
       <r>    19.4970     0.0000     6.8241 </r>
       <r>    19.5961    -0.0096     6.8231 </r>
       <r>    19.6952     0.5728     6.8799 </r>
       <r>    19.7943     0.5481     6.9342 </r>
       <r>    19.8933     0.7965     7.0131 </r>
       <r>    19.9924     0.8244     7.0948 </r>
       <r>    20.0915     0.8239     7.1764 </r>
       <r>    20.1906     1.0289     7.2784 </r>
       <r>    20.2897     9.6268     8.2323 </r>
       <r>    20.3888     1.4411     8.3751 </r>
       <r>    20.4879    -0.0478     8.3704 </r>
       <r>    20.5870    -0.0059     8.3698 </r>
       <r>    20.6861     0.2205     8.3916 </r>
       <r>    20.7852     0.0664     8.3982 </r>
       <r>    20.8842    -0.0007     8.3981 </r>
       <r>    20.9833    -0.0002     8.3981 </r>
       <r>    21.0824    -0.0124     8.3969 </r>
       <r>    21.1815     1.1375     8.5096 </r>
       <r>    21.2806     0.9732     8.6060 </r>
       <r>    21.3797     0.1460     8.6205 </r>
       <r>    21.4788    -0.0014     8.6204 </r>
       <r>    21.5779     0.0000     8.6204 </r>
       <r>    21.6770     0.0000     8.6204 </r>
       <r>    21.7761     0.0000     8.6204 </r>
       <r>    21.8751     0.0000     8.6204 </r>
       <r>    21.9742    -0.0126     8.6191 </r>
       <r>    22.0733     0.4467     8.6634 </r>
       <r>    22.1724     0.5113     8.7141 </r>
       <r>    22.2715    -0.0109     8.7130 </r>
       <r>    22.3706     0.0000     8.7130 </r>
       <r>    22.4697     0.0000     8.7130 </r>
       <r>    22.5688     0.0000     8.7130 </r>
       <r>    22.6679     0.0000     8.7130 </r>
       <r>    22.7670    -0.0386     8.7091 </r>
       <r>    22.8660     1.1579     8.8239 </r>
       <r>    22.9651     0.0023     8.8241 </r>
       <r>    23.0642    -0.0003     8.8241 </r>
       <r>    23.1633    -0.0027     8.8238 </r>
       <r>    23.2624     0.2628     8.8498 </r>
       <r>    23.3615     1.2727     8.9760 </r>
       <r>    23.4606    -0.0377     8.9722 </r>
       <r>    23.5597     0.0000     8.9722 </r>
       <r>    23.6588     0.0000     8.9722 </r>
       <r>    23.7578     0.0000     8.9722 </r>
       <r>    23.8569     0.0000     8.9722 </r>
       <r>    23.9560     0.0000     8.9722 </r>
       <r>    24.0551     0.0000     8.9722 </r>
       <r>    24.1542     0.0000     8.9722 </r>
       <r>    24.2533     0.0000     8.9722 </r>
       <r>    24.3524     0.0000     8.9722 </r>
       <r>    24.4515     0.0000     8.9722 </r>
       <r>    24.5506     0.0000     8.9722 </r>
       <r>    24.6497     0.0000     8.9722 </r>
       <r>    24.7487     0.0000     8.9722 </r>
       <r>    24.8478     0.0000     8.9722 </r>
       <r>    24.9469     0.0000     8.9722 </r>
       <r>    25.0460     0.0000     8.9722 </r>
       <r>    25.1451     0.0000     8.9722 </r>
       <r>    25.2442     0.0000     8.9722 </r>
       <r>    25.3433    -0.0001     8.9722 </r>
       <r>    25.4424     0.0094     8.9731 </r>
       <r>    25.5415     0.2809     9.0010 </r>
       <r>    25.6406    -0.0099     9.0000 </r>
       <r>    25.7396     0.0000     9.0000 </r>
       <r>    25.8387     0.0000     9.0000 </r>
       <r>    25.9378     0.0000     9.0000 </r>
       <r>    26.0369     0.0000     9.0000 </r>
       <r>    26.1360     0.0000     9.0000 </r>
       <r>    26.2351     0.0000     9.0000 </r>
       <r>    26.3342     0.0000     9.0000 </r>
       <r>    26.4333     0.0000     9.0000 </r>
       <r>    26.5324     0.0000     9.0000 </r>
       <r>    26.6315     0.0000     9.0000 </r>
       <r>    26.7305     0.0000     9.0000 </r>
       <r>    26.8296     0.0000     9.0000 </r>
      </set>
      <set comment="spin 2">
       <r>    -2.8973     0.0000     0.0000 </r>
       <r>    -2.7982     0.0000     0.0000 </r>
       <r>    -2.6991     0.0000     0.0000 </r>
       <r>    -2.6001     0.0000     0.0000 </r>
       <r>    -2.5010     0.0000     0.0000 </r>
       <r>    -2.4019     0.0000     0.0000 </r>
       <r>    -2.3028     0.0000     0.0000 </r>
       <r>    -2.2037     0.0000     0.0000 </r>
       <r>    -2.1046     0.0000     0.0000 </r>
       <r>    -2.0055     0.0000     0.0000 </r>
       <r>    -1.9064     0.0000     0.0000 </r>
       <r>    -1.8073     0.0000     0.0000 </r>
       <r>    -1.7082     0.0000     0.0000 </r>
       <r>    -1.6092    -0.0099    -0.0010 </r>
       <r>    -1.5101     0.2809     0.0269 </r>
       <r>    -1.4110     0.0094     0.0278 </r>
       <r>    -1.3119    -0.0001     0.0278 </r>
       <r>    -1.2128     0.0000     0.0278 </r>
       <r>    -1.1137     0.0000     0.0278 </r>
       <r>    -1.0146     0.0000     0.0278 </r>
       <r>    -0.9155     0.0000     0.0278 </r>
       <r>    -0.8164     0.0000     0.0278 </r>
       <r>    -0.7173     0.0000     0.0278 </r>
       <r>    -0.6183     0.0000     0.0278 </r>
       <r>    -0.5192    -0.0088     0.0269 </r>
       <r>    -0.4201     0.3918     0.0657 </r>
       <r>    -0.3210    -0.0092     0.0648 </r>
       <r>    -0.2219     0.0000     0.0648 </r>
       <r>    -0.1228     0.0000     0.0648 </r>
       <r>    -0.0237     0.0000     0.0648 </r>
       <r>     0.0754     0.0000     0.0648 </r>
       <r>     0.1745     0.0000     0.0648 </r>
       <r>     0.2736    -0.0002     0.0648 </r>
       <r>     0.3726    -0.0036     0.0644 </r>
       <r>     0.4717     1.1629     0.1797 </r>
       <r>     0.5708    -0.0377     0.1759 </r>
       <r>     0.6699    -0.0001     0.1759 </r>
       <r>     0.7690     0.0000     0.1759 </r>
       <r>     0.8681     0.0000     0.1759 </r>
       <r>     0.9672     0.0000     0.1759 </r>
       <r>     1.0663     0.0000     0.1759 </r>
       <r>     1.1654     0.0000     0.1759 </r>
       <r>     1.2645     0.0000     0.1759 </r>
       <r>     1.3635     0.0000     0.1759 </r>
       <r>     1.4626     0.0000     0.1759 </r>
       <r>     1.5617    -0.0258     0.1734 </r>
       <r>     1.6608     1.2837     0.3006 </r>
       <r>     1.7599     1.0012     0.3998 </r>
       <r>     1.8590    -0.0165     0.3981 </r>
       <r>     1.9581    -0.0204     0.3961 </r>
       <r>     2.0572     0.6541     0.4609 </r>
       <r>     2.1563     0.2109     0.4818 </r>
       <r>     2.2554    -0.0185     0.4800 </r>
       <r>     2.3544     1.3997     0.6187 </r>
       <r>     2.4535     0.3074     0.6492 </r>
       <r>     2.5526    -0.0101     0.6481 </r>
       <r>     2.6517     0.0000     0.6481 </r>
       <r>     2.7508    -0.0010     0.6480 </r>
       <r>     2.8499     0.0886     0.6568 </r>
       <r>     2.9490     1.7409     0.8293 </r>
       <r>     3.0481     0.4756     0.8765 </r>
       <r>     3.1472     0.7063     0.9464 </r>
       <r>     3.2462     0.3374     0.9799 </r>
       <r>     3.3453     0.7816     1.0573 </r>
       <r>     3.4444    -0.0179     1.0556 </r>
       <r>     3.5435     0.0000     1.0556 </r>
       <r>     3.6426    -0.0001     1.0555 </r>
       <r>     3.7417    -0.0304     1.0525 </r>
       <r>     3.8408     1.1748     1.1689 </r>
       <r>     3.9399    -0.0228     1.1667 </r>
       <r>     4.0390    -0.0002     1.1667 </r>
       <r>     4.1381    -0.0163     1.1650 </r>
       <r>     4.2371     0.5867     1.2232 </r>
       <r>     4.3362    -0.0316     1.2201 </r>
       <r>     4.4353     0.9941     1.3186 </r>
       <r>     4.5344     1.3703     1.4543 </r>
       <r>     4.6335     1.2965     1.5828 </r>
       <r>     4.7326     1.5229     1.7337 </r>
       <r>     4.8317     0.7824     1.8112 </r>
       <r>     4.9308     0.2303     1.8341 </r>
       <r>     5.0299    -0.0367     1.8304 </r>
       <r>     5.1290     1.8846     2.0172 </r>
       <r>     5.2280     1.5501     2.1708 </r>
       <r>     5.3271    -0.0414     2.1667 </r>
       <r>     5.4262    -0.0021     2.1665 </r>
       <r>     5.5253     0.1877     2.1851 </r>
       <r>     5.6244     1.4844     2.3321 </r>
       <r>     5.7235     2.1858     2.5487 </r>
       <r>     5.8226     0.2587     2.5744 </r>
       <r>     5.9217    -0.0030     2.5741 </r>
       <r>     6.0208    -0.0009     2.5740 </r>
       <r>     6.1199     0.0892     2.5828 </r>
       <r>     6.2189     1.0695     2.6888 </r>
       <r>     6.3180    -0.0364     2.6852 </r>
       <r>     6.4171    -0.0061     2.6846 </r>
       <r>     6.5162     0.3220     2.7165 </r>
       <r>     6.6153     0.4495     2.7610 </r>
       <r>     6.7144     0.2120     2.7820 </r>
       <r>     6.8135     0.5298     2.8345 </r>
       <r>     6.9126     0.2749     2.8618 </r>
       <r>     7.0117     0.0076     2.8625 </r>
       <r>     7.1108     1.5004     3.0112 </r>
       <r>     7.2098     0.1700     3.0281 </r>
       <r>     7.3089    -0.0028     3.0278 </r>
       <r>     7.4080     0.0000     3.0278 </r>
       <r>     7.5071     0.0000     3.0278 </r>
       <r>     7.6062    -0.0004     3.0277 </r>
       <r>     7.7053     0.0250     3.0302 </r>
       <r>     7.8044     1.1365     3.1428 </r>
       <r>     7.9035    -0.0397     3.1389 </r>
       <r>     8.0026     0.0000     3.1389 </r>
       <r>     8.1017     0.0000     3.1389 </r>
       <r>     8.2007    -0.0001     3.1389 </r>
       <r>     8.2998    -0.0266     3.1362 </r>
       <r>     8.3989     1.1484     3.2500 </r>
       <r>     8.4980     1.1480     3.3638 </r>
       <r>     8.5971    -0.0271     3.3611 </r>
       <r>     8.6962     0.0019     3.3613 </r>
       <r>     8.7953     0.3841     3.3994 </r>
       <r>     8.8944     0.0587     3.4052 </r>
       <r>     8.9935     0.1973     3.4247 </r>
       <r>     9.0926     1.6520     3.5884 </r>
       <r>     9.1916     1.3606     3.7232 </r>
       <r>     9.2907     0.6572     3.7884 </r>
       <r>     9.3898    -0.0134     3.7870 </r>
       <r>     9.4889     0.0000     3.7870 </r>
       <r>     9.5880    -0.0264     3.7844 </r>
       <r>     9.6871     0.7617     3.8599 </r>
       <r>     9.7862    -0.0268     3.8572 </r>
       <r>     9.8853     1.1496     3.9711 </r>
       <r>     9.9844    -0.0058     3.9706 </r>
       <r>    10.0834     0.5178     4.0219 </r>
       <r>    10.1825     0.0523     4.0271 </r>
       <r>    10.2816     0.2242     4.0493 </r>
       <r>    10.3807     0.9320     4.1416 </r>
       <r>    10.4798     0.8779     4.2286 </r>
       <r>    10.5789     0.8967     4.3175 </r>
       <r>    10.6780     1.2808     4.4444 </r>
       <r>    10.7771     1.1235     4.5557 </r>
       <r>    10.8762     1.0977     4.6645 </r>
       <r>    10.9753     1.6391     4.8269 </r>
       <r>    11.0743     0.0953     4.8363 </r>
       <r>    11.1734     0.1090     4.8471 </r>
       <r>    11.2725     1.0762     4.9538 </r>
       <r>    11.3716     1.1200     5.0648 </r>
       <r>    11.4707     0.0008     5.0648 </r>
       <r>    11.5698    -0.0003     5.0648 </r>
       <r>    11.6689     0.0000     5.0648 </r>
       <r>    11.7680     0.0000     5.0648 </r>
       <r>    11.8671     0.0000     5.0648 </r>
       <r>    11.9662     0.0000     5.0648 </r>
       <r>    12.0652    -0.0063     5.0642 </r>
       <r>    12.1643     0.1677     5.0808 </r>
       <r>    12.2634     1.9337     5.2724 </r>
       <r>    12.3625     2.6043     5.5305 </r>
       <r>    12.4616     0.0672     5.5371 </r>
       <r>    12.5607    -0.0010     5.5370 </r>
       <r>    12.6598    -0.0024     5.5368 </r>
       <r>    12.7589     0.2337     5.5600 </r>
       <r>    12.8580     0.9409     5.6532 </r>
       <r>    12.9571     0.2363     5.6766 </r>
       <r>    13.0561     0.0653     5.6831 </r>
       <r>    13.1552     0.0215     5.6852 </r>
       <r>    13.2543    -0.0002     5.6852 </r>
       <r>    13.3534     0.0000     5.6852 </r>
       <r>    13.4525     0.0000     5.6852 </r>
       <r>    13.5516     0.0000     5.6852 </r>
       <r>    13.6507     0.0000     5.6852 </r>
       <r>    13.7498     0.0000     5.6852 </r>
       <r>    13.8489     0.0000     5.6852 </r>
       <r>    13.9480     0.0000     5.6852 </r>
       <r>    14.0470     0.0000     5.6852 </r>
       <r>    14.1461     0.0000     5.6852 </r>
       <r>    14.2452     0.0000     5.6852 </r>
       <r>    14.3443     0.0000     5.6852 </r>
       <r>    14.4434     0.0000     5.6852 </r>
       <r>    14.5425     0.0000     5.6852 </r>
       <r>    14.6416    -0.0010     5.6851 </r>
       <r>    14.7407     0.0966     5.6947 </r>
       <r>    14.8398     0.4791     5.7421 </r>
       <r>    14.9389    -0.0142     5.7407 </r>
       <r>    15.0379     0.0000     5.7407 </r>
       <r>    15.1370     0.0000     5.7407 </r>
       <r>    15.2361    -0.0016     5.7406 </r>
       <r>    15.3352     0.1650     5.7569 </r>
       <r>    15.4343     0.9884     5.8549 </r>
       <r>    15.5334    -0.0317     5.8517 </r>
       <r>    15.6325     0.1292     5.8645 </r>
       <r>    15.7316     1.0266     5.9663 </r>
       <r>    15.8307    -0.0334     5.9630 </r>
       <r>    15.9298    -0.0297     5.9600 </r>
       <r>    16.0288     1.2570     6.0846 </r>
       <r>    16.1279     0.6510     6.1491 </r>
       <r>    16.2270     0.7549     6.2239 </r>
       <r>    16.3261    -0.0167     6.2222 </r>
       <r>    16.4252    -0.0008     6.2221 </r>
       <r>    16.5243     0.0825     6.2303 </r>
       <r>    16.6234     0.4942     6.2793 </r>
       <r>    16.7225    -0.0153     6.2778 </r>
       <r>    16.8216     0.0000     6.2778 </r>
       <r>    16.9206     0.0000     6.2778 </r>
       <r>    17.0197    -0.0246     6.2753 </r>
       <r>    17.1188     0.7176     6.3464 </r>
       <r>    17.2179     0.0551     6.3519 </r>
       <r>    17.3170    -0.0074     6.3512 </r>
       <r>    17.4161     0.3444     6.3853 </r>
       <r>    17.5152     0.2263     6.4077 </r>
       <r>    17.6143    -0.0032     6.4074 </r>
       <r>    17.7134     0.0000     6.4074 </r>
       <r>    17.8125     0.0000     6.4074 </r>
       <r>    17.9115     0.0000     6.4074 </r>
       <r>    18.0106     0.0000     6.4074 </r>
       <r>    18.1097    -0.0002     6.4074 </r>
       <r>    18.2088    -0.0170     6.4057 </r>
       <r>    18.3079     1.1723     6.5219 </r>
       <r>    18.4070    -0.0398     6.5179 </r>
       <r>    18.5061     0.3243     6.5501 </r>
       <r>    18.6052     0.2460     6.5744 </r>
       <r>    18.7043    -0.0241     6.5720 </r>
       <r>    18.8034     0.8202     6.6533 </r>
       <r>    18.9024     0.7767     6.7303 </r>
       <r>    19.0015     0.9761     6.8270 </r>
       <r>    19.1006    -0.0296     6.8241 </r>
       <r>    19.1997     0.0000     6.8241 </r>
       <r>    19.2988     0.0000     6.8241 </r>
       <r>    19.3979     0.0000     6.8241 </r>
       <r>    19.4970    -0.0100     6.8231 </r>
       <r>    19.5961     0.5872     6.8813 </r>
       <r>    19.6952     0.5419     6.9350 </r>
       <r>    19.7943     0.6097     6.9954 </r>
       <r>    19.8933     0.8507     7.0797 </r>
       <r>    19.9924     0.9435     7.1732 </r>
       <r>    20.0915     0.8556     7.2579 </r>
       <r>    20.1906     6.0965     7.8621 </r>
       <r>    20.2897     5.2423     8.3815 </r>
       <r>    20.3888    -0.1124     8.3704 </r>
       <r>    20.4879    -0.0043     8.3699 </r>
       <r>    20.5870     0.1909     8.3889 </r>
       <r>    20.6861     0.0949     8.3983 </r>
       <r>    20.7852    -0.0012     8.3981 </r>
       <r>    20.8842    -0.0004     8.3981 </r>
       <r>    20.9833     0.0150     8.3996 </r>
       <r>    21.0824     1.1086     8.5095 </r>
       <r>    21.1815     1.1237     8.6208 </r>
       <r>    21.2806    -0.0041     8.6204 </r>
       <r>    21.3797    -0.0002     8.6204 </r>
       <r>    21.4788     0.0000     8.6204 </r>
       <r>    21.5779     0.0000     8.6204 </r>
       <r>    21.6770     0.0000     8.6204 </r>
       <r>    21.7761     0.0000     8.6204 </r>
       <r>    21.8751    -0.0158     8.6188 </r>
       <r>    21.9742     0.5592     8.6742 </r>
       <r>    22.0733     0.4022     8.7141 </r>
       <r>    22.1724    -0.0112     8.7130 </r>
       <r>    22.2715     0.0000     8.7130 </r>
       <r>    22.3706     0.0000     8.7130 </r>
       <r>    22.4697     0.0000     8.7130 </r>
       <r>    22.5688     0.0000     8.7130 </r>
       <r>    22.6679    -0.0383     8.7092 </r>
       <r>    22.7670     1.0973     8.8179 </r>
       <r>    22.8660     0.0630     8.8241 </r>
       <r>    22.9651    -0.0007     8.8241 </r>
       <r>    23.0642    -0.0029     8.8238 </r>
       <r>    23.1633     0.2851     8.8520 </r>
       <r>    23.2624     1.2488     8.9758 </r>
       <r>    23.3615    -0.0359     8.9722 </r>
       <r>    23.4606     0.0000     8.9722 </r>
       <r>    23.5597     0.0000     8.9722 </r>
       <r>    23.6588     0.0000     8.9722 </r>
       <r>    23.7578     0.0000     8.9722 </r>
       <r>    23.8569     0.0000     8.9722 </r>
       <r>    23.9560     0.0000     8.9722 </r>
       <r>    24.0551     0.0000     8.9722 </r>
       <r>    24.1542     0.0000     8.9722 </r>
       <r>    24.2533     0.0000     8.9722 </r>
       <r>    24.3524     0.0000     8.9722 </r>
       <r>    24.4515     0.0000     8.9722 </r>
       <r>    24.5506     0.0000     8.9722 </r>
       <r>    24.6497     0.0000     8.9722 </r>
       <r>    24.7487     0.0000     8.9722 </r>
       <r>    24.8478     0.0000     8.9722 </r>
       <r>    24.9469     0.0000     8.9722 </r>
       <r>    25.0460     0.0000     8.9722 </r>
       <r>    25.1451     0.0000     8.9722 </r>
       <r>    25.2442    -0.0002     8.9722 </r>
       <r>    25.3433     0.0197     8.9742 </r>
       <r>    25.4424     0.2701     9.0009 </r>
       <r>    25.5415    -0.0093     9.0000 </r>
       <r>    25.6406     0.0000     9.0000 </r>
       <r>    25.7396     0.0000     9.0000 </r>
       <r>    25.8387     0.0000     9.0000 </r>
       <r>    25.9378     0.0000     9.0000 </r>
       <r>    26.0369     0.0000     9.0000 </r>
       <r>    26.1360     0.0000     9.0000 </r>
       <r>    26.2351     0.0000     9.0000 </r>
       <r>    26.3342     0.0000     9.0000 </r>
       <r>    26.4333     0.0000     9.0000 </r>
       <r>    26.5324     0.0000     9.0000 </r>
       <r>    26.6315     0.0000     9.0000 </r>
       <r>    26.7305     0.0000     9.0000 </r>
       <r>    26.8296     0.0000     9.0000 </r>
      </set>
     </set>
    </array>
   </total>
   <partial>
    <array>
     <dimension dim="1">gridpoints</dimension>
     <dimension dim="2">spin</dimension>
     <dimension dim="3">ion</dimension>
     <field>energy</field>
     <field>  s</field>
     <field> py</field>
     <field> pz</field>
     <field> px</field>
     <field>dxy</field>
     <field>dyz</field>
     <field>dz2</field>
     <field>dxz</field>
     <field>dx2</field>
     <set>
      <set comment="ion 1">
       <set comment="spin 1">
        <r>    -2.8973     0.0000     0.0000     0.0000     0.0000     0.0000     0.0000     0.0000     0.0000     0.0000 </r>
        <r>    -2.7982     0.0000     0.0000     0.0000     0.0000     0.0000     0.0000     0.0000     0.0000     0.0000 </r>
        <r>    -2.6991     0.0000     0.0000     0.0000     0.0000     0.0000     0.0000     0.0000     0.0000     0.0000 </r>
        <r>    -2.6001     0.0000     0.0000     0.0000     0.0000     0.0000     0.0000     0.0000     0.0000     0.0000 </r>
        <r>    -2.5010     0.0000     0.0000     0.0000     0.0000     0.0000     0.0000     0.0000     0.0000     0.0000 </r>
        <r>    -2.4019     0.0000     0.0000     0.0000     0.0000     0.0000     0.0000     0.0000     0.0000     0.0000 </r>
        <r>    -2.3028     0.0000     0.0000     0.0000     0.0000     0.0000     0.0000     0.0000     0.0000     0.0000 </r>
        <r>    -2.2037     0.0000     0.0000     0.0000     0.0000     0.0000     0.0000     0.0000     0.0000     0.0000 </r>
        <r>    -2.1046     0.0000     0.0000     0.0000     0.0000     0.0000     0.0000     0.0000     0.0000     0.0000 </r>
        <r>    -2.0055     0.0000     0.0000     0.0000     0.0000     0.0000     0.0000     0.0000     0.0000     0.0000 </r>
        <r>    -1.9064     0.0000     0.0000     0.0000     0.0000     0.0000     0.0000     0.0000     0.0000     0.0000 </r>
        <r>    -1.8073     0.0000     0.0000     0.0000     0.0000     0.0000     0.0000     0.0000     0.0000     0.0000 </r>
        <r>    -1.7082     0.0000     0.0000     0.0000     0.0000     0.0000     0.0000     0.0000     0.0000     0.0000 </r>
        <r>    -1.6092     0.0000     0.0000     0.0000     0.0000     0.0000     0.0000     0.0000     0.0000     0.0000 </r>
        <r>    -1.5101    -0.0054     0.0000     0.0000    -0.0003     0.0000     0.0000     0.0000     0.0000     0.0000 </r>
        <r>    -1.4110     0.1920     0.0000     0.0000     0.0109     0.0000     0.0000     0.0001     0.0000     0.0003 </r>
        <r>    -1.3119     0.0487     0.0000     0.0000     0.0028     0.0000     0.0000     0.0000     0.0000     0.0001 </r>
        <r>    -1.2128    -0.0005     0.0000     0.0000     0.0000     0.0000     0.0000     0.0000     0.0000     0.0000 </r>
        <r>    -1.1137     0.0000     0.0000     0.0000     0.0000     0.0000     0.0000     0.0000     0.0000     0.0000 </r>
        <r>    -1.0146     0.0000     0.0000     0.0000     0.0000     0.0000     0.0000     0.0000     0.0000     0.0000 </r>
        <r>    -0.9155     0.0000     0.0000     0.0000     0.0000     0.0000     0.0000     0.0000     0.0000     0.0000 </r>
        <r>    -0.8164     0.0000     0.0000     0.0000     0.0000     0.0000     0.0000     0.0000     0.0000     0.0000 </r>
        <r>    -0.7173     0.0000     0.0000     0.0000     0.0000     0.0000     0.0000     0.0000     0.0000     0.0000 </r>
        <r>    -0.6183     0.0000     0.0000     0.0000     0.0000     0.0000     0.0000     0.0000     0.0000     0.0000 </r>
        <r>    -0.5192     0.0000     0.0000     0.0000     0.0000     0.0000     0.0000     0.0000     0.0000     0.0000 </r>
        <r>    -0.4201    -0.0097    -0.0005    -0.0005    -0.0005    -0.0001    -0.0001     0.0000    -0.0001     0.0000 </r>
        <r>    -0.3210     0.2788     0.0146     0.0146     0.0146     0.0034     0.0034     0.0000     0.0034     0.0000 </r>
        <r>    -0.2219     0.0157     0.0008     0.0008     0.0008     0.0002     0.0002     0.0000     0.0002     0.0000 </r>
        <r>    -0.1228    -0.0002     0.0000     0.0000     0.0000     0.0000     0.0000     0.0000     0.0000     0.0000 </r>
        <r>    -0.0237     0.0000     0.0000     0.0000     0.0000     0.0000     0.0000     0.0000     0.0000     0.0000 </r>
        <r>     0.0754     0.0000     0.0000     0.0000     0.0000     0.0000     0.0000     0.0000     0.0000     0.0000 </r>
        <r>     0.1745     0.0000     0.0000     0.0000     0.0000     0.0000     0.0000     0.0000     0.0000     0.0000 </r>
        <r>     0.2736     0.0000     0.0000     0.0000     0.0000     0.0000     0.0000     0.0000     0.0000     0.0000 </r>
        <r>     0.3726     0.0000     0.0000     0.0000     0.0000     0.0000     0.0000     0.0000     0.0000     0.0000 </r>
        <r>     0.4717    -0.0260    -0.0010     0.0000    -0.0055    -0.0025     0.0000    -0.0009     0.0000    -0.0004 </r>
        <r>     0.5708     0.7651     0.0281     0.0000     0.1616     0.0744     0.0000     0.0267     0.0000     0.0125 </r>
        <r>     0.6699     0.0059     0.0002     0.0000     0.0013     0.0006     0.0000     0.0002     0.0000     0.0001 </r>
        <r>     0.7690    -0.0002     0.0000     0.0000     0.0000     0.0000     0.0000     0.0000     0.0000     0.0000 </r>
        <r>     0.8681     0.0000     0.0000     0.0000     0.0000     0.0000     0.0000     0.0000     0.0000     0.0000 </r>
        <r>     0.9672     0.0000     0.0000     0.0000     0.0000     0.0000     0.0000     0.0000     0.0000     0.0000 </r>
        <r>     1.0663     0.0000     0.0000     0.0000     0.0000     0.0000     0.0000     0.0000     0.0000     0.0000 </r>
        <r>     1.1654     0.0000     0.0000     0.0000     0.0000     0.0000     0.0000     0.0000     0.0000     0.0000 </r>
        <r>     1.2645     0.0000     0.0000     0.0000     0.0000     0.0000     0.0000     0.0000     0.0000     0.0000 </r>
        <r>     1.3635     0.0000     0.0000     0.0000     0.0000     0.0000     0.0000     0.0000     0.0000     0.0000 </r>
        <r>     1.4626     0.0000     0.0000     0.0000     0.0000     0.0000     0.0000     0.0000     0.0000     0.0000 </r>
        <r>     1.5617     0.0000     0.0000     0.0000     0.0000     0.0000     0.0000     0.0000     0.0000     0.0000 </r>
        <r>     1.6608    -0.0039    -0.0001    -0.0001    -0.0005    -0.0035    -0.0005    -0.0020     0.0000    -0.0001 </r>
        <r>     1.7599     0.2825     0.0130     0.0128     0.0356     0.2151     0.0528     0.1269     0.0010     0.0114 </r>
        <r>     1.8590     0.6438     0.0556     0.0554     0.0683     0.2337     0.2279     0.1470     0.0044     0.0453 </r>
        <r>     1.9581    -0.0162    -0.0016    -0.0016    -0.0016    -0.0041    -0.0065    -0.0027    -0.0001    -0.0013 </r>
        <r>     2.0572    -0.0036     0.0000     0.0000    -0.0008     0.0000    -0.0061    -0.0007     0.0000    -0.0020 </r>
        <r>     2.1563     0.1476     0.0000     0.0000     0.0424     0.0000     0.2225     0.0254     0.0000     0.0762 </r>
        <r>     2.2554     0.1314     0.0000     0.0000     0.0716     0.0000     0.0584     0.0157     0.0000     0.0479 </r>
        <r>     2.3544    -0.0154    -0.0004    -0.0004    -0.0072    -0.0035    -0.0010     0.0309    -0.0035     0.0068 </r>
        <r>     2.4535     0.4002     0.0114     0.0114     0.1737     0.1140     0.0114     0.2020     0.1140     0.1558 </r>
        <r>     2.5526     0.0655     0.0018     0.0018     0.0447     0.0182     0.0018     0.0606     0.0182     0.1952 </r>
        <r>     2.6517    -0.0007     0.0000     0.0000    -0.0009    -0.0002     0.0000    -0.0022    -0.0002    -0.0065 </r>
        <r>     2.7508     0.0000     0.0000     0.0000     0.0000     0.0000     0.0000     0.0000     0.0000     0.0000 </r>
        <r>     2.8499    -0.0001     0.0000     0.0000     0.0000    -0.0001     0.0000    -0.0001     0.0000     0.0000 </r>
        <r>     2.9490     0.0018     0.0003     0.0006    -0.0012     0.0053     0.0005    -0.0026     0.0005    -0.0004 </r>
        <r>     3.0481     0.2805     0.0317     0.0358     0.1098     0.4958     0.0330     0.7158     0.0330     0.0203 </r>
        <r>     3.1472     0.0406     0.0050     0.0019     0.0566     0.0324    -0.0006     0.2857    -0.0006     0.0541 </r>
        <r>     3.2462    -0.0009     0.0207     0.0208     0.0200     0.0032     0.0036     0.2658     0.0036     0.2692 </r>
        <r>     3.3453     0.0207     0.0053    -0.0002     0.0053     0.0122     0.0314    -0.0048     0.0314    -0.0085 </r>
        <r>     3.4444     0.1959     0.0562     0.0040     0.0562     0.1165     0.2979     0.0348     0.2979     0.0000 </r>
        <r>     3.5435    -0.0065    -0.0019    -0.0001    -0.0019    -0.0039    -0.0099    -0.0012    -0.0099     0.0000 </r>
        <r>     3.6426     0.0000     0.0000     0.0000     0.0000     0.0000     0.0000     0.0000     0.0000     0.0000 </r>
        <r>     3.7417     0.0000     0.0000     0.0000     0.0000     0.0000     0.0000     0.0000     0.0000    -0.0001 </r>
        <r>     3.8408    -0.0004    -0.0009     0.0000    -0.0017     0.0000     0.0000    -0.0018     0.0000    -0.0092 </r>
        <r>     3.9399     0.0273     0.0666     0.0000     0.1250     0.0017     0.0000     0.1356     0.0000     0.6975 </r>
        <r>     4.0390    -0.0008    -0.0020     0.0000    -0.0037     0.0000     0.0000    -0.0040     0.0000    -0.0205 </r>
        <r>     4.1381     0.0000     0.0000     0.0000     0.0000     0.0000     0.0000     0.0000     0.0000     0.0000 </r>
        <r>     4.2371     0.0000    -0.0004    -0.0004     0.0000    -0.0087     0.0000     0.0000    -0.0087     0.0000 </r>
        <r>     4.3362     0.0000     0.0112     0.0112     0.0000     0.2616     0.0000     0.0000     0.2616     0.0000 </r>
        <r>     4.4353     0.0000    -0.0003     0.0011    -0.0014     0.0265    -0.0034    -0.0005     0.0231    -0.0021 </r>
        <r>     4.5344     0.0000     0.0841     0.0083     0.0758     0.0245     0.1836     0.0572     0.2081     0.1230 </r>
        <r>     4.6335     0.0000     0.1126     0.0529     0.0588     0.1466     0.1427     0.3707     0.2913     0.2055 </r>
        <r>     4.7326     0.0000     0.0457     0.0461     0.0258     0.6247     0.0432     0.0094     0.6060     0.0020 </r>
        <r>     4.8317     0.0046     0.0049     0.0262     0.0054    -0.0062     0.5526     0.0308     0.5889    -0.0004 </r>
        <r>     4.9308     0.0216     0.0134     0.0567     0.0134     0.0082     0.4269     0.2012     0.4363     0.0176 </r>
        <r>     5.0299    -0.0006    -0.0004    -0.0016    -0.0004    -0.0003    -0.0107     0.1249    -0.0108     0.0431 </r>
        <r>     5.1290    -0.0019    -0.0043    -0.0121    -0.0043    -0.0207    -0.0007    -0.0039    -0.0007    -0.0084 </r>
        <r>     5.2280     0.0537     0.1725     0.3523     0.1767     0.6072     0.0194     0.0239     0.0273     0.3348 </r>
        <r>     5.3271     0.0578     0.2232     0.1510     0.0867     0.1098     0.3768     0.0437     0.1219     0.3104 </r>
        <r>     5.4262    -0.0005    -0.0022    -0.0014    -0.0011    -0.0011    -0.0033    -0.0004    -0.0011    -0.0034 </r>
        <r>     5.5253     0.0000     0.0000     0.0000     0.0000     0.0000    -0.0002     0.0000    -0.0003     0.0000 </r>
        <r>     5.6244     0.0000    -0.0001     0.0002    -0.0001    -0.0023     0.0061    -0.0002     0.0103    -0.0002 </r>
        <r>     5.7235    -0.0006     0.0010     0.0181    -0.0018     0.1130     0.5763     0.0069     0.8200     0.0102 </r>
        <r>     5.8226     0.0204     0.0861     0.0278     0.1666     0.6761     0.5551     0.2176     0.2515     0.0706 </r>
        <r>     5.9217     0.0060     0.0288     0.0031     0.0311     0.1970     0.0554     0.0895     0.0189     0.0190 </r>
        <r>     6.0208    -0.0001    -0.0003     0.0000    -0.0003    -0.0023    -0.0005    -0.0011    -0.0002    -0.0002 </r>
        <r>     6.1199     0.0000    -0.0002     0.0000    -0.0002     0.0000     0.0000    -0.0001     0.0000    -0.0001 </r>
        <r>     6.2189     0.0035     0.0178     0.0000     0.0181     0.0022     0.0000     0.0079     0.0000     0.0133 </r>
        <r>     6.3180     0.0544     0.2761     0.0000     0.2812     0.0347     0.0000     0.1226     0.0000     0.2064 </r>
        <r>     6.4171    -0.0019    -0.0096     0.0000    -0.0098    -0.0012     0.0000    -0.0043     0.0000    -0.0072 </r>
        <r>     6.5162     0.0000     0.0000     0.0000     0.0000    -0.0010     0.0000     0.0000    -0.0010     0.0000 </r>
        <r>     6.6153    -0.0002     0.0012     0.0012     0.0000     0.0847    -0.0003     0.0000     0.0847     0.0000 </r>
        <r>     6.7144     0.0147     0.0066     0.0066     0.0036     0.2309     0.0238     0.0000     0.2309     0.0000 </r>
        <r>     6.8135     0.0405     0.0108     0.0108     0.0098     0.0609     0.0655     0.0000     0.0609     0.0000 </r>
        <r>     6.9126    -0.0010     0.2100     0.2100    -0.0002     0.0541    -0.0119     0.0000     0.0541     0.0000 </r>
        <r>     7.0117     0.0000    -0.0071    -0.0071     0.0000    -0.0019     0.2922     0.0000    -0.0019     0.0000 </r>
        <r>     7.1108     0.0000    -0.0002    -0.0039     0.0000    -0.0013     0.0026     0.0000    -0.0192     0.0000 </r>
        <r>     7.2098     0.0000     0.0130     0.1389     0.0000     0.0922     0.3889     0.0000     0.7064     0.0000 </r>
        <r>     7.3089     0.0000     0.0213     0.0196     0.0000     0.1513    -0.0052     0.0000     0.1431     0.0000 </r>
        <r>     7.4080     0.0000    -0.0004    -0.0005     0.0000    -0.0031    -0.0001     0.0000    -0.0032     0.0000 </r>
        <r>     7.5071     0.0000     0.0000     0.0000     0.0000     0.0000     0.0000     0.0000     0.0000     0.0000 </r>
        <r>     7.6062     0.0000     0.0000     0.0000     0.0000     0.0000     0.0000     0.0000     0.0000     0.0000 </r>
        <r>     7.7053     0.0000     0.0000     0.0000     0.0000    -0.0001     0.0000     0.0000     0.0000     0.0000 </r>
        <r>     7.8044    -0.0022    -0.0016     0.0000     0.0000    -0.0092     0.0000    -0.0031     0.0000    -0.0004 </r>
        <r>     7.9035     0.1442     0.1017     0.0000     0.0019     0.5998     0.0000     0.2027     0.0000     0.0290 </r>
        <r>     8.0026    -0.0041    -0.0029     0.0000    -0.0001    -0.0170     0.0000    -0.0058     0.0000    -0.0008 </r>
        <r>     8.1017     0.0000     0.0000     0.0000     0.0000     0.0000     0.0000     0.0000     0.0000     0.0000 </r>
        <r>     8.2007     0.0000     0.0000     0.0000     0.0000     0.0000     0.0000     0.0000     0.0000     0.0000 </r>
        <r>     8.2998     0.0000     0.0000     0.0000     0.0000    -0.0001     0.0000    -0.0001     0.0000     0.0000 </r>
        <r>     8.3989     0.0000     0.0000     0.0000     0.0000     0.0005     0.0000     0.0005     0.0000     0.0002 </r>
        <r>     8.4980     0.0002     0.0143    -0.0007     0.0148     0.3920     0.0000     0.4499    -0.0074     0.1616 </r>
        <r>     8.5971     0.0000     0.0281     0.0286    -0.0005     0.2996     0.0000     0.2901     0.3129     0.0963 </r>
        <r>     8.6962     0.0000    -0.0006    -0.0006     0.0000    -0.0070     0.0000    -0.0068    -0.0070    -0.0023 </r>
        <r>     8.7953     0.0000    -0.0003    -0.0003    -0.0003    -0.0036    -0.0035     0.0000    -0.0036     0.0000 </r>
        <r>     8.8944     0.0011     0.0094     0.0094     0.0094     0.1206     0.1206    -0.0024     0.1206    -0.0008 </r>
        <r>     8.9935     0.0000    -0.0001    -0.0001    -0.0001    -0.0017    -0.0016     0.1159    -0.0016     0.0387 </r>
        <r>     9.0926    -0.0001     0.0000    -0.0001     0.0000    -0.0004    -0.0035     0.0673    -0.0006     0.0227 </r>
        <r>     9.1916     0.0791     0.0089     0.0274     0.0088     0.3018     0.3113     0.4682     0.1320    -0.0003 </r>
        <r>     9.2907     0.0175     0.0192     0.0479     0.0262     0.1728     0.7266     0.2966     0.3454     0.0000 </r>
        <r>     9.3898     0.0182     0.0177    -0.0016     0.0240     0.1658    -0.0215     0.2831    -0.0113     0.0000 </r>
        <r>     9.4889    -0.0003    -0.0003     0.0000    -0.0004    -0.0027     0.0000    -0.0045     0.0000     0.0000 </r>
        <r>     9.5880     0.0000     0.0000     0.0000     0.0000     0.0000     0.0000    -0.0001     0.0000    -0.0001 </r>
        <r>     9.6871     0.0000     0.0000     0.0000     0.0000     0.0005     0.0005     0.0068     0.0005     0.0068 </r>
        <r>     9.7862     0.0000     0.0001     0.0001     0.0001     0.0222     0.0221     0.3103     0.0222     0.3102 </r>
        <r>     9.8853     0.0000     0.0000     0.0000     0.0000    -0.0009    -0.0021    -0.0119    -0.0009    -0.0141 </r>
        <r>     9.9844     0.0075     0.0034     0.0034     0.0019     0.0273     0.2507     0.1967     0.0273     0.5901 </r>
        <r>    10.0834    -0.0015    -0.0001    -0.0001    -0.0001    -0.0009    -0.0114    -0.0097    -0.0009    -0.0290 </r>
        <r>    10.1825     0.0387     0.0000     0.0000     0.0002     0.0000     0.1060     0.1053     0.0000     0.3160 </r>
        <r>    10.2816    -0.0001     0.0000     0.0000     0.0000     0.0000    -0.0004    -0.0012     0.0000    -0.0036 </r>
        <r>    10.3807     0.0004    -0.0002     0.0000     0.0003     0.0000    -0.0041     0.0671    -0.0041     0.1719 </r>
        <r>    10.4798     0.0000     0.0057     0.0000     0.0058    -0.0007     0.1169    -0.0256     0.1162     0.8208 </r>
        <r>    10.5789     0.0000     0.0001    -0.0001     0.0002     0.0179     0.0038     0.7045     0.0217     0.2620 </r>
        <r>    10.6780    -0.0005     0.0425     0.0425     0.0000     0.1283    -0.0008     0.0690     0.1283     0.0188 </r>
        <r>    10.7771     0.1085     0.0267     0.0267     0.0062     0.1208     0.1902     0.2339     0.1172     0.7348 </r>
        <r>    10.8762     0.0128    -0.0003    -0.0005     0.0041     0.0093    -0.0066     0.1454    -0.0029     0.6136 </r>
[...]
        <r>   10.5620    0.0000 </r>
        <r>   10.5620    0.0000 </r>
        <r>   12.1461    0.0000 </r>
        <r>   12.8868    0.0000 </r>
        <r>   17.4100    0.0000 </r>
        <r>   17.4100    0.0000 </r>
        <r>   20.1742    0.0000 </r>
       </set>
      </set>
     </set>
    </array>
   </eigenvalues>
   <array>
    <dimension dim="1">ion</dimension>
    <dimension dim="2">band</dimension>
    <dimension dim="3">kpoint</dimension>
    <dimension dim="4">spin</dimension>
    <field>  s</field>
    <set>
     <set comment="spin1">
      <set comment="kpoint 1">
       <set comment="band 1">
        <r>  0.7614 </r>
       </set>
       <set comment="band 2">
        <r>  0.0000 </r>
       </set>
       <set comment="band 3">
        <r>  0.0000 </r>
       </set>
       <set comment="band 4">
        <r>  0.0028 </r>
       </set>
       <set comment="band 5">
        <r>  0.0000 </r>
       </set>
       <set comment="band 6">
        <r>  0.0000 </r>
       </set>
       <set comment="band 7">
        <r> 43.7702 </r>
       </set>
       <set comment="band 8">
        <r>  0.0000 </r>
       </set>
       <set comment="band 9">
        <r>  0.0000 </r>
       </set>
      </set>
      <set comment="kpoint 2">
       <set comment="band 1">
        <r>  0.4859 </r>
       </set>
       <set comment="band 2">
        <r>  0.0000 </r>
       </set>
       <set comment="band 3">
        <r>  0.0492 </r>
       </set>
       <set comment="band 4">
        <r>  0.0064 </r>
       </set>
       <set comment="band 5">
        <r>  0.0000 </r>
       </set>
       <set comment="band 6">
        <r>  0.0020 </r>
       </set>
       <set comment="band 7">
        <r>  7.6847 </r>
       </set>
       <set comment="band 8">
        <r> 36.5846 </r>
       </set>
       <set comment="band 9">
        <r>  0.0000 </r>
       </set>
      </set>
      <set comment="kpoint 3">
       <set comment="band 1">
        <r>  0.2584 </r>
       </set>
       <set comment="band 2">
        <r>  0.0000 </r>
       </set>
       <set comment="band 3">
        <r>  0.0000 </r>
       </set>
       <set comment="band 4">
        <r>  0.0665 </r>
       </set>
       <set comment="band 5">
        <r>  0.0000 </r>
       </set>
       <set comment="band 6">
        <r>  0.0000 </r>
       </set>
       <set comment="band 7">
        <r>  0.4910 </r>
       </set>
       <set comment="band 8">
        <r>  0.0000 </r>
       </set>
       <set comment="band 9">
        <r> 44.1021 </r>
       </set>
      </set>
      <set comment="kpoint 4">
       <set comment="band 1">
        <r>  0.8375 </r>
       </set>
       <set comment="band 2">
        <r>  0.0000 </r>
       </set>
       <set comment="band 3">
        <r>  0.0000 </r>
       </set>
       <set comment="band 4">
        <r>  0.0000 </r>
       </set>
       <set comment="band 5">
        <r>  0.0000 </r>
       </set>
       <set comment="band 6">
        <r>  0.0015 </r>
       </set>
       <set comment="band 7">
        <r> 43.8319 </r>
       </set>
       <set comment="band 8">
        <r>  0.0000 </r>
       </set>
       <set comment="band 9">
        <r>  0.0000 </r>
       </set>
      </set>
      <set comment="kpoint 5">
       <set comment="band 1">
        <r>  0.1872 </r>
       </set>
       <set comment="band 2">
        <r>  0.0000 </r>
       </set>
       <set comment="band 3">
        <r>  0.0481 </r>
       </set>
       <set comment="band 4">
        <r>  0.0000 </r>
       </set>
       <set comment="band 5">
        <r>  0.0286 </r>
       </set>
       <set comment="band 6">
        <r>  0.6005 </r>
       </set>
       <set comment="band 7">
        <r>  0.0065 </r>
       </set>
       <set comment="band 8">
        <r>  0.0000 </r>
       </set>
       <set comment="band 9">
        <r> 44.0367 </r>
       </set>
      </set>
      <set comment="kpoint 6">
       <set comment="band 1">
        <r>  0.6642 </r>
       </set>
       <set comment="band 2">
        <r>  0.0000 </r>
       </set>
       <set comment="band 3">
        <r>  0.0136 </r>
       </set>
       <set comment="band 4">
        <r>  0.0002 </r>
       </set>
       <set comment="band 5">
        <r>  0.0000 </r>
       </set>
       <set comment="band 6">
        <r>  0.0189 </r>
       </set>
       <set comment="band 7">
        <r> 43.3545 </r>
       </set>
       <set comment="band 8">
        <r>  0.5003 </r>
       </set>
       <set comment="band 9">
        <r>  0.1469 </r>
       </set>
      </set>
      <set comment="kpoint 7">
       <set comment="band 1">
        <r>  0.3222 </r>
       </set>
       <set comment="band 2">
        <r>  0.0000 </r>
       </set>
       <set comment="band 3">
        <r>  0.0500 </r>
       </set>
       <set comment="band 4">
        <r>  0.0336 </r>
       </set>
       <set comment="band 5">
        <r>  0.0419 </r>
       </set>
       <set comment="band 6">
        <r>  0.0000 </r>
       </set>
       <set comment="band 7">
        <r>  0.2282 </r>
       </set>
       <set comment="band 8">
        <r>  0.3451 </r>
       </set>
       <set comment="band 9">
        <r> 43.7998 </r>
       </set>
      </set>
      <set comment="kpoint 8">
       <set comment="band 1">
        <r>  0.4022 </r>
       </set>
       <set comment="band 2">
        <r>  0.0000 </r>
       </set>
       <set comment="band 3">
        <r>  0.0093 </r>
       </set>
       <set comment="band 4">
        <r>  0.0000 </r>
       </set>
       <set comment="band 5">
        <r>  0.0890 </r>
       </set>
       <set comment="band 6">
        <r>  0.0354 </r>
       </set>
       <set comment="band 7">
        <r>  0.2053 </r>
       </set>
       <set comment="band 8">
        <r> 43.9281 </r>
       </set>
       <set comment="band 9">
        <r>  0.0000 </r>
       </set>
      </set>
      <set comment="kpoint 9">
       <set comment="band 1">
        <r>  0.1820 </r>
       </set>
       <set comment="band 2">
        <r>  0.0228 </r>
       </set>
       <set comment="band 3">
        <r>  0.0000 </r>
       </set>
       <set comment="band 4">
        <r>  0.0684 </r>
       </set>
       <set comment="band 5">
        <r>  0.0000 </r>
       </set>
       <set comment="band 6">
        <r>  0.0000 </r>
       </set>
       <set comment="band 7">
        <r>  0.4744 </r>
       </set>
       <set comment="band 8">
        <r>  0.1759 </r>
       </set>
       <set comment="band 9">
        <r> 43.8448 </r>
       </set>
      </set>
      <set comment="kpoint 10">
       <set comment="band 1">
        <r>  0.0000 </r>
       </set>
       <set comment="band 2">
        <r>  0.0000 </r>
       </set>
       <set comment="band 3">
        <r>  0.0000 </r>
       </set>
       <set comment="band 4">
        <r>  0.0000 </r>
       </set>
       <set comment="band 5">
        <r>  0.0000 </r>
       </set>
       <set comment="band 6">
        <r>  0.9585 </r>
       </set>
       <set comment="band 7">
        <r>  0.0000 </r>
       </set>
       <set comment="band 8">
        <r>  0.0000 </r>
       </set>
       <set comment="band 9">
        <r>  0.0000 </r>
       </set>
      </set>
      <set comment="kpoint 11">
       <set comment="band 1">
        <r>  0.4549 </r>
       </set>
       <set comment="band 2">
        <r>  0.0000 </r>
       </set>
       <set comment="band 3">
        <r>  0.0000 </r>
       </set>
       <set comment="band 4">
        <r>  0.0000 </r>
       </set>
       <set comment="band 5">
        <r>  0.0000 </r>
       </set>
       <set comment="band 6">
        <r>  0.1796 </r>
       </set>
       <set comment="band 7">
        <r> 41.7984 </r>
       </set>
       <set comment="band 8">
        <r>  2.1849 </r>
       </set>
       <set comment="band 9">
        <r>  0.0000 </r>
       </set>
      </set>
      <set comment="kpoint 12">
       <set comment="band 1">
        <r>  0.1053 </r>
       </set>
       <set comment="band 2">
        <r>  0.0233 </r>
       </set>
       <set comment="band 3">
        <r>  0.0000 </r>
       </set>
       <set comment="band 4">
        <r>  0.1230 </r>
       </set>
       <set comment="band 5">
        <r>  0.0000 </r>
       </set>
       <set comment="band 6">
        <r>  0.1950 </r>
       </set>
       <set comment="band 7">
        <r>  0.1748 </r>
       </set>
       <set comment="band 8">
        <r> 43.9482 </r>
       </set>
       <set comment="band 9">
        <r>  0.0000 </r>
       </set>
      </set>
      <set comment="kpoint 13">
       <set comment="band 1">
        <r>  0.0000 </r>
       </set>
       <set comment="band 2">
        <r>  0.0000 </r>
       </set>
       <set comment="band 3">
        <r>  0.1446 </r>
       </set>
       <set comment="band 4">
        <r>  0.0000 </r>
       </set>
       <set comment="band 5">
        <r>  0.0000 </r>
       </set>
       <set comment="band 6">
        <r>  0.3988 </r>
       </set>
       <set comment="band 7">
        <r>  0.0000 </r>
       </set>
       <set comment="band 8">
        <r>  0.0000 </r>
       </set>
       <set comment="band 9">
        <r> 43.8412 </r>
       </set>
      </set>
      <set comment="kpoint 14">
       <set comment="band 1">
        <r>  0.0000 </r>
       </set>
       <set comment="band 2">
        <r>  0.0056 </r>
       </set>
       <set comment="band 3">
        <r>  0.0000 </r>
       </set>
       <set comment="band 4">
        <r>  0.0000 </r>
       </set>
       <set comment="band 5">
        <r>  0.0000 </r>
       </set>
       <set comment="band 6">
        <r>  0.2528 </r>
       </set>
       <set comment="band 7">
        <r>  0.0000 </r>
       </set>
       <set comment="band 8">
        <r>  0.0000 </r>
       </set>
       <set comment="band 9">
        <r> 43.2137 </r>
       </set>
      </set>
     </set>
     <set comment="spin2">
      <set comment="kpoint 1">
       <set comment="band 1">
        <r>  0.7630 </r>
       </set>
       <set comment="band 2">
        <r>  0.0000 </r>
       </set>
       <set comment="band 3">
        <r>  0.0000 </r>
       </set>
       <set comment="band 4">
        <r>  0.0028 </r>
       </set>
       <set comment="band 5">
        <r>  0.0000 </r>
       </set>
       <set comment="band 6">
        <r>  0.0000 </r>
       </set>
       <set comment="band 7">
        <r> 43.7699 </r>
       </set>
       <set comment="band 8">
        <r>  0.0000 </r>
       </set>
       <set comment="band 9">
        <r>  0.0000 </r>
       </set>
      </set>
      <set comment="kpoint 2">
       <set comment="band 1">
        <r>  0.4874 </r>
       </set>
       <set comment="band 2">
        <r>  0.0000 </r>
       </set>
       <set comment="band 3">
        <r>  0.0491 </r>
       </set>
       <set comment="band 4">
        <r>  0.0064 </r>
       </set>
       <set comment="band 5">
        <r>  0.0000 </r>
       </set>
       <set comment="band 6">
        <r>  0.0020 </r>
       </set>
       <set comment="band 7">
        <r>  5.5986 </r>
       </set>
       <set comment="band 8">
        <r>  0.0000 </r>
       </set>
       <set comment="band 9">
        <r> 38.6724 </r>
       </set>
      </set>
      <set comment="kpoint 3">
       <set comment="band 1">
        <r>  0.2597 </r>
       </set>
       <set comment="band 2">
        <r>  0.0000 </r>
       </set>
       <set comment="band 3">
        <r>  0.0000 </r>
       </set>
       <set comment="band 4">
        <r>  0.0666 </r>
       </set>
       <set comment="band 5">
        <r>  0.0000 </r>
       </set>
       <set comment="band 6">
        <r>  0.0000 </r>
       </set>
       <set comment="band 7">
        <r>  0.4965 </r>
       </set>
       <set comment="band 8">
        <r>  0.0000 </r>
       </set>
       <set comment="band 9">
        <r> 44.0963 </r>
       </set>
      </set>
      <set comment="kpoint 4">
       <set comment="band 1">
        <r>  0.8392 </r>
       </set>
       <set comment="band 2">
        <r>  0.0000 </r>
       </set>
       <set comment="band 3">
        <r>  0.0000 </r>
       </set>
       <set comment="band 4">
        <r>  0.0000 </r>
       </set>
       <set comment="band 5">
        <r>  0.0000 </r>
       </set>
       <set comment="band 6">
        <r>  0.0015 </r>
       </set>
       <set comment="band 7">
        <r> 43.8313 </r>
       </set>
       <set comment="band 8">
        <r>  0.0000 </r>
       </set>
       <set comment="band 9">
        <r>  0.0000 </r>
       </set>
      </set>
      <set comment="kpoint 5">
       <set comment="band 1">
        <r>  0.1878 </r>
       </set>
       <set comment="band 2">
        <r>  0.0000 </r>
       </set>
       <set comment="band 3">
        <r>  0.0486 </r>
       </set>
       <set comment="band 4">
        <r>  0.0000 </r>
       </set>
       <set comment="band 5">
        <r>  0.0289 </r>
       </set>
       <set comment="band 6">
        <r>  0.6040 </r>
       </set>
       <set comment="band 7">
        <r>  0.0078 </r>
       </set>
       <set comment="band 8">
        <r>  0.0000 </r>
       </set>
       <set comment="band 9">
        <r> 44.0199 </r>
       </set>
      </set>
      <set comment="kpoint 6">
       <set comment="band 1">
        <r>  0.6658 </r>
       </set>
       <set comment="band 2">
        <r>  0.0000 </r>
       </set>
       <set comment="band 3">
        <r>  0.0136 </r>
       </set>
       <set comment="band 4">
        <r>  0.0001 </r>
       </set>
       <set comment="band 5">
        <r>  0.0000 </r>
       </set>
       <set comment="band 6">
        <r>  0.0189 </r>
       </set>
       <set comment="band 7">
        <r> 43.3275 </r>
       </set>
       <set comment="band 8">
        <r>  0.5261 </r>
       </set>
       <set comment="band 9">
        <r>  0.1479 </r>
       </set>
      </set>
      <set comment="kpoint 7">
       <set comment="band 1">
        <r>  0.3237 </r>
       </set>
       <set comment="band 2">
        <r>  0.0000 </r>
       </set>
       <set comment="band 3">
        <r>  0.0499 </r>
       </set>
       <set comment="band 4">
        <r>  0.0335 </r>
       </set>
       <set comment="band 5">
        <r>  0.0420 </r>
       </set>
       <set comment="band 6">
        <r>  0.0000 </r>
       </set>
       <set comment="band 7">
        <r>  0.2294 </r>
       </set>
       <set comment="band 8">
        <r>  0.2769 </r>
       </set>
       <set comment="band 9">
        <r> 43.8673 </r>
       </set>
      </set>
      <set comment="kpoint 8">
       <set comment="band 1">
        <r>  0.4036 </r>
       </set>
       <set comment="band 2">
        <r>  0.0000 </r>
       </set>
       <set comment="band 3">
        <r>  0.0096 </r>
       </set>
       <set comment="band 4">
        <r>  0.0000 </r>
       </set>
       <set comment="band 5">
        <r>  0.0886 </r>
       </set>
       <set comment="band 6">
        <r>  0.0360 </r>
       </set>
       <set comment="band 7">
        <r>  0.1962 </r>
       </set>
       <set comment="band 8">
        <r> 43.9356 </r>
       </set>
       <set comment="band 9">
        <r>  0.0000 </r>
       </set>
      </set>
      <set comment="kpoint 9">
       <set comment="band 1">
        <r>  0.1835 </r>
       </set>
       <set comment="band 2">
        <r>  0.0222 </r>
       </set>
       <set comment="band 3">
        <r>  0.0000 </r>
       </set>
       <set comment="band 4">
        <r>  0.0686 </r>
       </set>
       <set comment="band 5">
        <r>  0.0000 </r>
       </set>
       <set comment="band 6">
        <r>  0.0000 </r>
       </set>
       <set comment="band 7">
        <r>  0.4789 </r>
       </set>
       <set comment="band 8">
        <r>  0.0954 </r>
       </set>
       <set comment="band 9">
        <r> 43.9194 </r>
       </set>
      </set>
      <set comment="kpoint 10">
       <set comment="band 1">
        <r>  0.0000 </r>
       </set>
       <set comment="band 2">
        <r>  0.0000 </r>
       </set>
       <set comment="band 3">
        <r>  0.0000 </r>
       </set>
       <set comment="band 4">
        <r>  0.0000 </r>
       </set>
       <set comment="band 5">
        <r>  0.0000 </r>
       </set>
       <set comment="band 6">
        <r>  0.9620 </r>
       </set>
       <set comment="band 7">
        <r>  0.0000 </r>
       </set>
       <set comment="band 8">
        <r>  0.0000 </r>
       </set>
       <set comment="band 9">
        <r>  0.0000 </r>
       </set>
      </set>
      <set comment="kpoint 11">
       <set comment="band 1">
        <r>  0.4567 </r>
       </set>
       <set comment="band 2">
        <r>  0.0000 </r>
       </set>
       <set comment="band 3">
        <r>  0.0000 </r>
       </set>
       <set comment="band 4">
        <r>  0.0000 </r>
       </set>
       <set comment="band 5">
        <r>  0.0000 </r>
       </set>
       <set comment="band 6">
        <r>  0.1798 </r>
       </set>
       <set comment="band 7">
        <r> 41.5306 </r>
       </set>
       <set comment="band 8">
        <r>  2.4519 </r>
       </set>
       <set comment="band 9">
        <r>  0.0000 </r>
       </set>
      </set>
      <set comment="kpoint 12">
       <set comment="band 1">
        <r>  0.1066 </r>
       </set>
       <set comment="band 2">
        <r>  0.0232 </r>
       </set>
       <set comment="band 3">
        <r>  0.0000 </r>
       </set>
       <set comment="band 4">
        <r>  0.1228 </r>
       </set>
       <set comment="band 5">
        <r>  0.0000 </r>
       </set>
       <set comment="band 6">
        <r>  0.1956 </r>
       </set>
       <set comment="band 7">
        <r>  0.1710 </r>
       </set>
       <set comment="band 8">
        <r> 43.9513 </r>
       </set>
       <set comment="band 9">
        <r>  0.0000 </r>
       </set>
      </set>
      <set comment="kpoint 13">
       <set comment="band 1">
        <r>  0.0000 </r>
       </set>
       <set comment="band 2">
        <r>  0.0000 </r>
       </set>
       <set comment="band 3">
        <r>  0.1453 </r>
       </set>
       <set comment="band 4">
        <r>  0.0000 </r>
       </set>
       <set comment="band 5">
        <r>  0.0000 </r>
       </set>
       <set comment="band 6">
        <r>  0.4020 </r>
       </set>
       <set comment="band 7">
        <r>  0.0000 </r>
       </set>
       <set comment="band 8">
        <r>  0.0000 </r>
       </set>
       <set comment="band 9">
        <r> 43.8375 </r>
       </set>
      </set>
      <set comment="kpoint 14">
       <set comment="band 1">
        <r>  0.0000 </r>
       </set>
       <set comment="band 2">
        <r>  0.0056 </r>
       </set>
       <set comment="band 3">
        <r>  0.0000 </r>
       </set>
       <set comment="band 4">
        <r>  0.0000 </r>
       </set>
       <set comment="band 5">
        <r>  0.0000 </r>
       </set>
       <set comment="band 6">
        <r>  0.2536 </r>
       </set>
       <set comment="band 7">
        <r>  0.0000 </r>
       </set>
       <set comment="band 8">
        <r>  0.0000 </r>
       </set>
       <set comment="band 9">
        <r> 43.2194 </r>
       </set>
      </set>
     </set>
    </set>
   </array>
  </projected>
 </calculation>
 <structure name="finalpos" >
  <crystal>
   <varray name="basis" >
    <v>      -1.64500000       1.64500000       1.64500000 </v>
    <v>       1.64500000      -1.64500000       1.64500000 </v>
    <v>       1.64500000       1.64500000      -1.64500000 </v>
   </varray>
   <i name="volume">     17.80564450 </i>
   <varray name="rec_basis" >
    <v>       0.00000000       0.30395137       0.30395137 </v>
    <v>       0.30395137       0.00000000       0.30395137 </v>
    <v>       0.30395137       0.30395137       0.00000000 </v>
   </varray>
  </crystal>
  <varray name="positions" >
   <v>       0.00000000       0.00000000       0.00000000 </v>
  </varray>
 </structure>
</modeling>
