unknown system                          
           1
    -1.645000    1.645000    1.645000
     1.645000   -1.645000    1.645000
     1.645000    1.645000   -1.645000
   Ta
   1
Direct configuration=     1
   0.00000000  0.00000000  0.00000000
