   2   2   0   0
  0.5000000E+03  0.1000000E-08  0.1000000E-08  0.1000000E-08  0.5000000E-15
  1.000000000000000E-004
  CAR 
 unknown system                          
      2.57597837    -30.62845928  301     -8.86787211      1.00000000
    -30.628  0.0000E+00  0.0000E+00
    -30.518  0.0000E+00  0.0000E+00
    -30.407  0.0000E+00  0.0000E+00
    -30.296  0.0000E+00  0.0000E+00
    -30.186  0.0000E+00  0.0000E+00
    -30.075  0.0000E+00  0.0000E+00
    -29.964  0.0000E+00  0.0000E+00
    -29.854  0.0000E+00  0.0000E+00
    -29.743  0.0000E+00  0.0000E+00
    -29.632  0.0000E+00  0.0000E+00
    -29.522 -0.2970E-26 -0.3288E-27
    -29.411 -0.4710E-13 -0.5214E-14
    -29.300 -0.3426E-04 -0.3791E-05
    -29.190 -0.5683E+00 -0.6290E-01
    -29.079  0.1848E+02  0.1983E+01
    -28.968  0.1586E+00  0.2000E+01
    -28.858 -0.1520E-02  0.2000E+01
    -28.747 -0.3318E-10  0.2000E+01
    -28.636  0.0000E+00  0.2000E+01
    -28.526  0.0000E+00  0.2000E+01
    -28.415  0.0000E+00  0.2000E+01
    -28.304  0.0000E+00  0.2000E+01
    -28.193  0.0000E+00  0.2000E+01
    -28.083  0.0000E+00  0.2000E+01
    -27.972  0.0000E+00  0.2000E+01
    -27.861  0.0000E+00  0.2000E+01
    -27.751  0.0000E+00  0.2000E+01
    -27.640  0.0000E+00  0.2000E+01
    -27.529  0.0000E+00  0.2000E+01
    -27.419  0.0000E+00  0.2000E+01
    -27.308  0.0000E+00  0.2000E+01
    -27.197  0.0000E+00  0.2000E+01
    -27.087  0.0000E+00  0.2000E+01
    -26.976  0.0000E+00  0.2000E+01
    -26.865  0.0000E+00  0.2000E+01
    -26.755  0.0000E+00  0.2000E+01
    -26.644  0.0000E+00  0.2000E+01
    -26.533  0.0000E+00  0.2000E+01
    -26.423  0.0000E+00  0.2000E+01
    -26.312  0.0000E+00  0.2000E+01
    -26.201  0.0000E+00  0.2000E+01
    -26.091  0.0000E+00  0.2000E+01
    -25.980  0.0000E+00  0.2000E+01
    -25.869  0.0000E+00  0.2000E+01
    -25.758  0.0000E+00  0.2000E+01
    -25.648  0.0000E+00  0.2000E+01
    -25.537  0.0000E+00  0.2000E+01
    -25.426  0.0000E+00  0.2000E+01
    -25.316  0.0000E+00  0.2000E+01
    -25.205  0.0000E+00  0.2000E+01
    -25.094  0.0000E+00  0.2000E+01
    -24.984  0.0000E+00  0.2000E+01
    -24.873  0.0000E+00  0.2000E+01
    -24.762  0.0000E+00  0.2000E+01
    -24.652  0.0000E+00  0.2000E+01
    -24.541  0.0000E+00  0.2000E+01
    -24.430  0.0000E+00  0.2000E+01
    -24.320  0.0000E+00  0.2000E+01
    -24.209  0.0000E+00  0.2000E+01
    -24.098  0.0000E+00  0.2000E+01
    -23.988  0.0000E+00  0.2000E+01
    -23.877  0.0000E+00  0.2000E+01
    -23.766  0.0000E+00  0.2000E+01
    -23.656  0.0000E+00  0.2000E+01
    -23.545  0.0000E+00  0.2000E+01
    -23.434  0.0000E+00  0.2000E+01
    -23.323  0.0000E+00  0.2000E+01
    -23.213  0.0000E+00  0.2000E+01
    -23.102  0.0000E+00  0.2000E+01
    -22.991  0.0000E+00  0.2000E+01
    -22.881  0.0000E+00  0.2000E+01
    -22.770  0.0000E+00  0.2000E+01
    -22.659  0.0000E+00  0.2000E+01
    -22.549  0.0000E+00  0.2000E+01
    -22.438  0.0000E+00  0.2000E+01
    -22.327  0.0000E+00  0.2000E+01
    -22.217  0.0000E+00  0.2000E+01
    -22.106  0.0000E+00  0.2000E+01
    -21.995  0.0000E+00  0.2000E+01
    -21.885  0.0000E+00  0.2000E+01
    -21.774  0.0000E+00  0.2000E+01
    -21.663  0.0000E+00  0.2000E+01
    -21.553  0.0000E+00  0.2000E+01
    -21.442  0.0000E+00  0.2000E+01
    -21.331  0.0000E+00  0.2000E+01
    -21.221  0.0000E+00  0.2000E+01
    -21.110  0.0000E+00  0.2000E+01
    -20.999  0.0000E+00  0.2000E+01
    -20.888  0.0000E+00  0.2000E+01
    -20.778  0.0000E+00  0.2000E+01
    -20.667  0.0000E+00  0.2000E+01
    -20.556  0.0000E+00  0.2000E+01
    -20.446  0.0000E+00  0.2000E+01
    -20.335  0.0000E+00  0.2000E+01
    -20.224  0.0000E+00  0.2000E+01
    -20.114  0.0000E+00  0.2000E+01
    -20.003  0.0000E+00  0.2000E+01
    -19.892  0.0000E+00  0.2000E+01
    -19.782  0.0000E+00  0.2000E+01
    -19.671  0.0000E+00  0.2000E+01
    -19.560  0.0000E+00  0.2000E+01
    -19.450  0.0000E+00  0.2000E+01
    -19.339  0.0000E+00  0.2000E+01
    -19.228  0.0000E+00  0.2000E+01
    -19.118  0.0000E+00  0.2000E+01
    -19.007  0.0000E+00  0.2000E+01
    -18.896  0.0000E+00  0.2000E+01
    -18.786  0.0000E+00  0.2000E+01
    -18.675  0.0000E+00  0.2000E+01
    -18.564  0.0000E+00  0.2000E+01
    -18.453  0.0000E+00  0.2000E+01
    -18.343  0.0000E+00  0.2000E+01
    -18.232  0.0000E+00  0.2000E+01
    -18.121  0.0000E+00  0.2000E+01
    -18.011  0.0000E+00  0.2000E+01
    -17.900  0.0000E+00  0.2000E+01
    -17.789  0.0000E+00  0.2000E+01
    -17.679  0.0000E+00  0.2000E+01
    -17.568  0.0000E+00  0.2000E+01
    -17.457  0.0000E+00  0.2000E+01
    -17.347  0.0000E+00  0.2000E+01
    -17.236  0.0000E+00  0.2000E+01
    -17.125  0.0000E+00  0.2000E+01
    -17.015  0.0000E+00  0.2000E+01
    -16.904  0.0000E+00  0.2000E+01
    -16.793  0.0000E+00  0.2000E+01
    -16.683  0.0000E+00  0.2000E+01
    -16.572  0.0000E+00  0.2000E+01
    -16.461  0.0000E+00  0.2000E+01
    -16.351  0.0000E+00  0.2000E+01
    -16.240  0.0000E+00  0.2000E+01
    -16.129  0.0000E+00  0.2000E+01
    -16.019  0.0000E+00  0.2000E+01
    -15.908  0.0000E+00  0.2000E+01
    -15.797  0.0000E+00  0.2000E+01
    -15.686  0.0000E+00  0.2000E+01
    -15.576  0.0000E+00  0.2000E+01
    -15.465  0.0000E+00  0.2000E+01
    -15.354  0.0000E+00  0.2000E+01
    -15.244  0.0000E+00  0.2000E+01
    -15.133  0.0000E+00  0.2000E+01
    -15.022  0.0000E+00  0.2000E+01
    -14.912  0.0000E+00  0.2000E+01
    -14.801  0.0000E+00  0.2000E+01
    -14.690  0.0000E+00  0.2000E+01
    -14.580  0.0000E+00  0.2000E+01
    -14.469  0.0000E+00  0.2000E+01
    -14.358 -0.1333E-33  0.2000E+01
    -14.248 -0.1854E-18  0.2000E+01
    -14.137 -0.1220E-07  0.2000E+01
    -14.026 -0.3163E-01  0.1996E+01
    -13.916  0.6196E+01  0.2682E+01
    -13.805  0.1204E+02  0.4015E+01
    -13.694 -0.1344E+00  0.4000E+01
    -13.584 -0.3298E-06  0.4000E+01
    -13.473  0.0000E+00  0.4000E+01
    -13.362  0.0000E+00  0.4000E+01
    -13.251  0.0000E+00  0.4000E+01
    -13.141  0.0000E+00  0.4000E+01
    -13.030  0.0000E+00  0.4000E+01
    -12.919  0.0000E+00  0.4000E+01
    -12.809  0.0000E+00  0.4000E+01
    -12.698  0.0000E+00  0.4000E+01
    -12.587  0.0000E+00  0.4000E+01
    -12.477  0.0000E+00  0.4000E+01
    -12.366  0.0000E+00  0.4000E+01
    -12.255  0.0000E+00  0.4000E+01
    -12.145  0.0000E+00  0.4000E+01
    -12.034 -0.7425E-30  0.4000E+01
    -11.923 -0.1368E-15  0.4000E+01
    -11.813 -0.1161E-05  0.4000E+01
    -11.702 -0.3357E+00  0.3963E+01
    -11.591  0.2610E+02  0.6851E+01
    -11.481  0.1043E+02  0.8005E+01
    -11.370 -0.4683E-01  0.8000E+01
    -11.259 -0.1300E-07  0.8000E+01
    -11.149  0.0000E+00  0.8000E+01
    -11.038  0.0000E+00  0.8000E+01
    -10.927  0.0000E+00  0.8000E+01
    -10.816  0.0000E+00  0.8000E+01
    -10.706  0.0000E+00  0.8000E+01
    -10.595  0.0000E+00  0.8000E+01
    -10.484  0.0000E+00  0.8000E+01
    -10.374  0.0000E+00  0.8000E+01
    -10.263  0.0000E+00  0.8000E+01
    -10.152  0.0000E+00  0.8000E+01
    -10.042  0.0000E+00  0.8000E+01
     -9.931  0.0000E+00  0.8000E+01
     -9.820  0.0000E+00  0.8000E+01
     -9.710  0.0000E+00  0.8000E+01
     -9.599  0.0000E+00  0.8000E+01
     -9.488  0.0000E+00  0.8000E+01
     -9.378 -0.4857E-36  0.8000E+01
     -9.267 -0.2657E-20  0.8000E+01
     -9.156 -0.6989E-09  0.8000E+01
     -9.046 -0.7700E-02  0.7999E+01
     -8.935  0.2370E+01  0.8261E+01
     -8.824  0.1603E+02  0.1004E+02
     -8.714 -0.3234E+00  0.1000E+02
     -8.603 -0.3717E-05  0.1000E+02
     -8.492  0.0000E+00  0.1000E+02
     -8.381  0.0000E+00  0.1000E+02
     -8.271  0.0000E+00  0.1000E+02
     -8.160  0.0000E+00  0.1000E+02
     -8.049  0.0000E+00  0.1000E+02
     -7.939  0.0000E+00  0.1000E+02
     -7.828  0.0000E+00  0.1000E+02
     -7.717  0.0000E+00  0.1000E+02
     -7.607  0.0000E+00  0.1000E+02
     -7.496  0.0000E+00  0.1000E+02
     -7.385  0.0000E+00  0.1000E+02
     -7.275  0.0000E+00  0.1000E+02
     -7.164  0.0000E+00  0.1000E+02
     -7.053  0.0000E+00  0.1000E+02
     -6.943  0.0000E+00  0.1000E+02
     -6.832  0.0000E+00  0.1000E+02
     -6.721  0.0000E+00  0.1000E+02
     -6.611  0.0000E+00  0.1000E+02
     -6.500  0.0000E+00  0.1000E+02
     -6.389  0.0000E+00  0.1000E+02
     -6.279  0.0000E+00  0.1000E+02
     -6.168  0.0000E+00  0.1000E+02
     -6.057  0.0000E+00  0.1000E+02
     -5.946  0.0000E+00  0.1000E+02
     -5.836  0.0000E+00  0.1000E+02
     -5.725  0.0000E+00  0.1000E+02
     -5.614  0.0000E+00  0.1000E+02
     -5.504  0.0000E+00  0.1000E+02
     -5.393  0.0000E+00  0.1000E+02
     -5.282  0.0000E+00  0.1000E+02
     -5.172  0.0000E+00  0.1000E+02
     -5.061  0.0000E+00  0.1000E+02
     -4.950  0.0000E+00  0.1000E+02
     -4.840  0.0000E+00  0.1000E+02
     -4.729  0.0000E+00  0.1000E+02
     -4.618  0.0000E+00  0.1000E+02
     -4.508  0.0000E+00  0.1000E+02
     -4.397  0.0000E+00  0.1000E+02
     -4.286  0.0000E+00  0.1000E+02
     -4.176  0.0000E+00  0.1000E+02
     -4.065  0.0000E+00  0.1000E+02
     -3.954  0.0000E+00  0.1000E+02
     -3.844  0.0000E+00  0.1000E+02
     -3.733  0.0000E+00  0.1000E+02
     -3.622  0.0000E+00  0.1000E+02
     -3.512  0.0000E+00  0.1000E+02
     -3.401  0.0000E+00  0.1000E+02
     -3.290  0.0000E+00  0.1000E+02
     -3.179  0.0000E+00  0.1000E+02
     -3.069  0.0000E+00  0.1000E+02
     -2.958  0.0000E+00  0.1000E+02
     -2.847  0.0000E+00  0.1000E+02
     -2.737  0.0000E+00  0.1000E+02
     -2.626  0.0000E+00  0.1000E+02
     -2.515 -0.1753E-40  0.1000E+02
     -2.405 -0.1216E-23  0.1000E+02
     -2.294 -0.4150E-11  0.1000E+02
     -2.183 -0.6403E-03  0.1000E+02
     -2.073 -0.1114E+01  0.9877E+01
     -1.962  0.3850E+02  0.1414E+02
     -1.851 -0.1242E+01  0.1400E+02
     -1.741 -0.3943E-03  0.1400E+02
     -1.630 -0.1798E-11  0.1400E+02
     -1.519  0.0000E+00  0.1400E+02
     -1.409  0.0000E+00  0.1400E+02
     -1.298  0.0000E+00  0.1400E+02
     -1.187  0.0000E+00  0.1400E+02
     -1.077  0.0000E+00  0.1400E+02
     -0.966  0.0000E+00  0.1400E+02
     -0.855  0.0000E+00  0.1400E+02
     -0.744  0.0000E+00  0.1400E+02
     -0.634 -0.5290E-31  0.1400E+02
     -0.523 -0.1618E-16  0.1400E+02
     -0.412 -0.2295E-06  0.1400E+02
     -0.302 -0.1160E+00  0.1399E+02
     -0.191  0.1138E+02  0.1525E+02
     -0.080  0.6842E+01  0.1600E+02
      0.030 -0.3802E-01  0.1600E+02
      0.141 -0.1808E-07  0.1600E+02
      0.252  0.0000E+00  0.1600E+02
      0.362  0.0000E+00  0.1600E+02
      0.473  0.0000E+00  0.1600E+02
      0.584 -0.1480E-38  0.1600E+02
      0.694 -0.3175E-22  0.1600E+02
      0.805 -0.3318E-10  0.1600E+02
      0.916 -0.1520E-02  0.1600E+02
      1.026  0.1586E+00  0.1602E+02
      1.137  0.1848E+02  0.1806E+02
      1.248 -0.5683E+00  0.1800E+02
      1.358 -0.3426E-04  0.1800E+02
      1.469  0.0000E+00  0.1800E+02
      1.580  0.0000E+00  0.1800E+02
      1.691  0.0000E+00  0.1800E+02
      1.801  0.0000E+00  0.1800E+02
      1.912  0.0000E+00  0.1800E+02
      2.023  0.0000E+00  0.1800E+02
      2.133  0.0000E+00  0.1800E+02
      2.244  0.0000E+00  0.1800E+02
      2.355  0.0000E+00  0.1800E+02
      2.465  0.0000E+00  0.1800E+02
      2.576  0.0000E+00  0.1800E+02
