    2    2    1    1
  0.5000000E+03  0.1000000E-08  0.1000000E-08  0.1000000E-08  0.5000000E-15
  1.000000000000000E-004
  CAR 
 unknown system                          
   10    1    9
 
  0.0000000E+00  0.0000000E+00  0.0000000E+00  0.1000000E+01
   1      -29.119167
   2      -13.905981
   3      -11.604299
   4      -11.604299
   5       -8.909966
   6       -2.019231
   7       -2.019231
   8       -0.198440
   9        1.066686
