       N       E                     dE             d eps       ncg     rms          rms(c)
DAV:   1     0.752072076905E+02    0.75207E+02   -0.24733E+03    26   0.562E+02
DAV:   2    -0.699626305795E+01   -0.82203E+02   -0.82118E+02    34   0.133E+02
DAV:   3    -0.155413803987E+02   -0.85451E+01   -0.85450E+01    36   0.622E+01
DAV:   4    -0.155932603792E+02   -0.51880E-01   -0.51879E-01    28   0.457E+00
DAV:   5    -0.155932961037E+02   -0.35725E-04   -0.35725E-04    28   0.129E-01    0.628E+00
DAV:   6    -0.149355242167E+02    0.65777E+00   -0.37311E+00    18   0.140E+01    0.323E+00
DAV:   7    -0.148046828875E+02    0.13084E+00   -0.69133E-01    27   0.535E+00    0.164E+00
DAV:   8    -0.147659254000E+02    0.38757E-01   -0.14249E-01    18   0.312E+00    0.380E-01
DAV:   9    -0.147650932451E+02    0.83215E-03   -0.67817E-03    20   0.694E-01    0.105E-01
DAV:  10    -0.147658484911E+02   -0.75525E-03   -0.11590E-03    18   0.257E-01    0.326E-02
DAV:  11    -0.147675449278E+02   -0.16964E-02   -0.50700E-04    18   0.128E-01    0.194E-02
DAV:  12    -0.147682312739E+02   -0.68635E-03   -0.10161E-04    20   0.586E-02    0.115E-02
DAV:  13    -0.147693215130E+02   -0.10902E-02   -0.15722E-04    18   0.582E-02    0.554E-03
DAV:  14    -0.147696193539E+02   -0.29784E-03   -0.25180E-05    19   0.251E-02    0.375E-03
DAV:  15    -0.147698109916E+02   -0.19164E-03   -0.14616E-05    20   0.193E-02    0.198E-03
DAV:  16    -0.147698500633E+02   -0.39072E-04   -0.18527E-06    20   0.854E-03
   1 F= -.14769850E+02 E0= -.14770816E+02  d E =0.289895E-02
