 vasp.5.2.12 11Nov11 complex                                                    
  
 executed on             LinuxIFC date 2012.10.09  23:12:56
 running on    1 nodes
 distr:  one band on    1 nodes,    1 groups


--------------------------------------------------------------------------------------------------------


 INCAR:
 POTCAR:   PAW_PBE C 08Apr2002                    
 POTCAR:   PAW_PBE O 08Apr2002                    
 POTCAR:   PAW_PBE C 08Apr2002                    
   VRHFIN =C: s2p2                                                              
   LEXCH  = PE                                                                  
   EATOM  =   147.1560 eV,   10.8157 Ry                                         
                                                                                
   TITEL  = PAW_PBE C 08Apr2002                                                 
   LULTRA =        F    use ultrasoft PP ?                                      
   IUNSCR =        0    unscreen: 0-lin 1-nonlin 2-no                           
   RPACOR =     .000    partial core radius                                     
   POMASS =   12.011; ZVAL   =    4.000    mass and valenz                      
   RCORE  =    1.500    outmost cutoff radius                                   
   RWIGS  =    1.630; RWIGS  =     .863    wigner-seitz radius (au A)           
   ENMAX  =  400.000; ENMIN  =  300.000 eV                                      
   ICORE  =        2    local potential                                         
   LCOR   =        T    correct aug charges                                     
   LPAW   =        T    paw PP                                                  
   EAUG   =  644.873                                                            
   DEXC   =     .000                                                            
   RMAX   =    2.266    core radius for proj-oper                               
   RAUG   =    1.300    factor for augmentation sphere                          
   RDEP   =    1.501    radius for radial grids                                 
   RDEPT  =    1.300    core radius for aug-charge                              
   QCUT   =   -5.516; QGAM   =   11.032    optimization parameters              
                                                                                
   Description                                                                  
     l     E      TYP  RCUT    TYP  RCUT                                        
     0   .000     23  1.200                                                     
     0   .000     23  1.200                                                     
     1   .000     23  1.500                                                     
     1  2.500     23  1.500                                                     
     2   .000      7  1.500                                                     
  local pseudopotential read in
  atomic valenz-charges read in
  non local Contribution for L=           0  read in
    real space projection operators read in
  non local Contribution for L=           0  read in
    real space projection operators read in
  non local Contribution for L=           1  read in
    real space projection operators read in
  non local Contribution for L=           1  read in
    real space projection operators read in
    PAW grid and wavefunctions read in
 
   number of l-projection  operators is LMAX  =           4
   number of lm-projection operators is LMMAX =           8
 
 POTCAR:   PAW_PBE O 08Apr2002                    
   VRHFIN =O: s2p4                                                              
   LEXCH  = PE                                                                  
   EATOM  =   432.3788 eV,   31.7789 Ry                                         
                                                                                
   TITEL  = PAW_PBE O 08Apr2002                                                 
   LULTRA =        F    use ultrasoft PP ?                                      
   IUNSCR =        0    unscreen: 0-lin 1-nonlin 2-no                           
   RPACOR =     .000    partial core radius                                     
   POMASS =   16.000; ZVAL   =    6.000    mass and valenz                      
   RCORE  =    1.520    outmost cutoff radius                                   
   RWIGS  =    1.550; RWIGS  =     .820    wigner-seitz radius (au A)           
   ENMAX  =  400.000; ENMIN  =  300.000 eV                                      
   ICORE  =        2    local potential                                         
   LCOR   =        T    correct aug charges                                     
   LPAW   =        T    paw PP                                                  
   EAUG   =  605.392                                                            
   DEXC   =     .000                                                            
   RMAX   =    2.264    core radius for proj-oper                               
   RAUG   =    1.300    factor for augmentation sphere                          
   RDEP   =    1.550    radius for radial grids                                 
   QCUT   =   -5.520; QGAM   =   11.041    optimization parameters              
                                                                                
   Description                                                                  
     l     E      TYP  RCUT    TYP  RCUT                                        
     0   .000     23  1.200                                                     
     0  -.700     23  1.200                                                     
     1   .000     23  1.520                                                     
     1   .600     23  1.520                                                     
     2   .000      7  1.500                                                     
  local pseudopotential read in
  atomic valenz-charges read in
  non local Contribution for L=           0  read in
    real space projection operators read in
  non local Contribution for L=           0  read in
    real space projection operators read in
  non local Contribution for L=           1  read in
    real space projection operators read in
  non local Contribution for L=           1  read in
    real space projection operators read in
    PAW grid and wavefunctions read in
 
   number of l-projection  operators is LMAX  =           4
   number of lm-projection operators is LMMAX =           8
 
 PAW_PBE C 08Apr2002                    :
 energy of atom  1       EATOM= -147.1560
 kinetic energy error for atom=    0.0076 (will be added to EATOM!!)
 PAW_PBE O 08Apr2002                    :
 energy of atom  2       EATOM= -432.3788
 kinetic energy error for atom=    0.0224 (will be added to EATOM!!)
 
 
 POSCAR:  C  O                                   
  positions in cartesian coordinates
  No initial velocities read in
 exchange correlation table for  LEXCH =        8
   RHO(1)=    0.500       N(1)  =     2000
   RHO(2)=  100.500       N(2)  =     4000
 


--------------------------------------------------------------------------------------------------------


 ion  position               nearest neighbor table
   1  0.443  0.500  0.500-   2 1.14
   2  0.557  0.500  0.500-   1 1.14
 
  LATTYP: Found a simple cubic cell.
 ALAT       =    10.0000000000
  
  Lattice vectors:
  
 A1 = (  10.0000000000,   0.0000000000,   0.0000000000)
 A2 = (   0.0000000000,  10.0000000000,   0.0000000000)
 A3 = (   0.0000000000,   0.0000000000,  10.0000000000)
 Subroutine PRICEL returns:
 Original cell was already a primitive cell.
 

Analysis of symmetry for initial positions (statically):

 Routine SETGRP: Setting up the symmetry group for a 
 simple cubic supercell.


 Subroutine GETGRP returns: Found  8 space group operations
 (whereof  8 operations were pure point group operations)
 out of a pool of 48 trial point group operations.


The static configuration has the point symmetry C_4v.

Analysis of symmetry for dynamics (positions and initial velocities):

 Subroutine DYNSYM returns: Found  8 space group operations
 (whereof  8 operations were pure point group operations)
 out of a pool of  8 trial space group operations
 (whereof  8 operations were pure point group operations)
 and found also     1 'primitive' translations


The dynamic configuration has the point symmetry C_4v.
 
 
 KPOINTS: KPOINTS created by Atomic Simulation Env

Automatic generation of k-mesh.
 
 Subroutine IBZKPT returns following result:
 ===========================================
 
 Found      1 irreducible k-points:
 
 Following reciprocal coordinates:
            Coordinates               Weight
  0.000000  0.000000  0.000000      1.000000
 
 Following cartesian coordinates:
            Coordinates               Weight
  0.000000  0.000000  0.000000      1.000000
 


--------------------------------------------------------------------------------------------------------




 Dimension of arrays:
   k-points           NKPTS =      1   k-points in BZ     NKDIM =      1   number of bands    NBANDS=      9
   number of dos      NEDOS =    301   number of ions     NIONS =      2
   non local maximal  LDIM  =      4   non local SUM 2l+1 LMDIM =      8
   total plane-waves  NPLWV = 512000
   max r-space proj   IRMAX =      1   max aug-charges    IRDMAX=   6841
   dimension x,y,z NGX =    80 NGY =   80 NGZ =   80
   dimension x,y,z NGXF=   160 NGYF=  160 NGZF=  160
   support grid    NGXF=   160 NGYF=  160 NGZF=  160
   ions per type =               1   1
 NGX,Y,Z   is equivalent  to a cutoff of  13.30, 13.30, 13.30 a.u.
 NGXF,Y,Z  is equivalent  to a cutoff of  26.60, 26.60, 26.60 a.u.


 I would recommend the setting:
   dimension x,y,z NGX =    73 NGY =   73 NGZ =   73
 SYSTEM =  unknown system                          
 POSCAR =   C  O                                   

 Startparameter for this run:
   NWRITE =      2    write-flag & timer
   PREC   = accura    normal or accurate (medium, high low for compatibility)
   ISTART =      0    job   : 0-new  1-cont  2-samecut
   ICHARG =      2    charge: 1-file 2-atom 10-const
   ISPIN  =      1    spin polarized calculation?
   LNONCOLLINEAR =      F non collinear calculations
   LSORBIT =      F    spin-orbit coupling
   INIWAV =      1    electr: 0-lowe 1-rand  2-diag
   LASPH  =      F    aspherical Exc in radial PAW
   METAGGA=      F    non-selfconsistent MetaGGA calc.

 Electronic Relaxation 1
   ENCUT  =  500.0 eV  36.75 Ry    6.06 a.u.  18.23 18.23 18.23*2*pi/ulx,y,z
   ENINI  =  500.0     initial cutoff
   ENAUG  =  644.9 eV  augmentation charge cutoff
   NELM   =     60;   NELMIN=  2; NELMDL= -5     # of ELM steps 
   EDIFF  = 0.1E-03   stopping-criterion for ELM
   LREAL  =      F    real-space projection
   NLSPLINE    = F    spline interpolate recip. space projectors
   LCOMPAT=      F    compatible to vasp.4.4
   GGA_COMPAT  = T    GGA compatible to vasp.4.4-vasp.4.6
   LMAXPAW     = -100 max onsite density
   LMAXMIX     =    2 max onsite mixed and CHGCAR
   VOSKOWN=      0    Vosko Wilk Nusair interpolation
   ROPT   =    0.00000   0.00000
 Ionic relaxation
   EDIFFG = 0.1E-02   stopping-criterion for IOM
   NSW    =      0    number of steps for IOM
   NBLOCK =      1;   KBLOCK =      1    inner block; outer block 
   IBRION =     -1    ionic relax: 0-MD 1-quasi-New 2-CG
   NFREE  =      0    steps in history (QN), initial steepest desc. (CG)
   ISIF   =      2    stress and relaxation
   IWAVPR =     10    prediction:  0-non 1-charg 2-wave 3-comb
   ISYM   =      2    0-nonsym 1-usesym 2-fastsym
   LCORR  =      T    Harris-Foulkes like correction to forces

   POTIM  = 0.5000    time-step for ionic-motion
   TEIN   =    0.0    initial temperature
   TEBEG  =    0.0;   TEEND  =   0.0 temperature during run
   SMASS  =  -3.00    Nose mass-parameter (am)
   estimated Nose-frequenzy (Omega)   =  0.10E-29 period in steps =****** mass=  -0.229E-26a.u.
   SCALEE = 1.0000    scale energy and forces
   NPACO  =    256;   APACO  = 16.0  distance and # of slots for P.C.
   PSTRESS=    0.0 pullay stress

  Mass of Ions in am
   POMASS =  12.01 16.00
  Ionic Valenz
   ZVAL   =   4.00  6.00
  Atomic Wigner-Seitz radii
   RWIGS  =  -1.00 -1.00
  virtual crystal weights 
   VCA    =   1.00  1.00
   NELECT =      10.0000    total number of electrons
   NUPDOWN=      -1.0000    fix difference up-down

 DOS related values:
   EMIN   =  10.00;   EMAX   =-10.00  energy-range for DOS
   EFERMI =   0.00
   ISMEAR =     1;   SIGMA  =   0.05  broadening in eV -4-tet -1-fermi 0-gaus

 Electronic relaxation 2 (details)
   IALGO  =     38    algorithm
   LDIAG  =      T    sub-space diagonalisation (order eigenvalues)
   LSUBROT=      T    optimize rotation matrix (better conditioning)
   TURBO    =      0    0=normal 1=particle mesh
   IRESTART =      0    0=no restart 2=restart with 2 vectors
   NREBOOT  =      0    no. of reboots
   NMIN     =      0    reboot dimension
   EREF     =   0.00    reference energy to select bands
   IMIX   =      4    mixing-type and parameters
     AMIX     =   0.40;   BMIX     =  1.00
     AMIX_MAG =   1.60;   BMIX_MAG =  1.00
     AMIN     =   0.10
     WC   =   100.;   INIMIX=   1;  MIXPRE=   1

 Intra band minimization:
   WEIMIN = 0.0000     energy-eigenvalue tresh-hold
   EBREAK =  0.28E-05  absolut break condition
   DEPER  =   0.30     relativ break condition  

   TIME   =   0.40     timestep for ELM

  volume/ion in A,a.u.               =     500.00      3374.17
  Fermi-wavevector in a.u.,A,eV,Ry     =   0.352702  0.666511  1.692549  0.124399
  Thomas-Fermi vector in A             =   1.266362
 
 Write flags
   LWAVE  =      T    write WAVECAR
   LCHARG =      T    write CHGCAR
   LVTOT  =      F    write LOCPOT, total local potential
   LVHAR  =      F    write LOCPOT, Hartree potential only
   LELF   =      F    write electronic localiz. function (ELF)
   LORBIT =      0    0 simple, 1 ext, 2 COOP (PROOUT)


 Dipole corrections
   LMONO  =      F    monopole corrections only (constant potential shift)
   LDIPOL =      F    correct potential (dipole corrections)
   IDIPOL =      0    1-x, 2-y, 3-z, 4-all directions 
   EPSILON=  1.0000000 bulk dielectric constant

 Exchange correlation treatment:
   GGA     =    --    GGA type
   LEXCH   =     8    internal setting for exchange type
   VOSKOWN=      0    Vosko Wilk Nusair interpolation
   LHFCALC =     F    Hartree Fock is set to
   LHFONE  =     F    Hartree Fock one center treatment
   AEXX    =    0.0000 exact exchange contribution

 Linear response parameters
   LEPSILON=     F    determine dielectric tensor
   LRPA    =     F    only Hartree local field effects (RPA)
   LNABLA  =     F    use nabla operator in PAW spheres
   LVEL    =     F    velocity operator in full k-point grid
   LINTERFAST=   F  fast interpolation
   KINTER  =     0    interpolate to denser k-point grid
   CSHIFT  =0.1000    complex shift for real part using Kramers Kronig
   OMEGAMAX=  -1.0    maximum frequency
   RTIME   =    0.100 relaxation time in fs

 Orbital magnetization related:
   ORBITALMAG=     F  switch on orbital magnetization
   LCHIMAG   =     F  perturbation theory with respect to B field
   DQ        =  0.001000  dq finite difference perturbation B field



--------------------------------------------------------------------------------------------------------


 Static calculation
 charge density and potential will be updated during run
 non-spin polarized calculation
 Variant of blocked Davidson
 Davidson routine will perform the subspace rotation
 perform sub-space diagonalisation
    after iterative eigenvector-optimisation
 modified Broyden-mixing scheme, WC =      100.0
 initial mixing is a Kerker type mixing with AMIX =  0.4000 and BMIX =      1.0000
 Hartree-type preconditioning will be used
 using additional bands            4
 reciprocal scheme for non local part
 calculate Harris-corrections to forces 
   (improved forces if not selfconsistent)
 use gradient corrections 
 use of overlap-Matrix (Vanderbilt PP)
 Methfessel and Paxton  Order N= 1 SIGMA  =   0.05


--------------------------------------------------------------------------------------------------------


  energy-cutoff  :      500.00
  volume of cell :     1000.00
      direct lattice vectors                 reciprocal lattice vectors
    10.000000000  0.000000000  0.000000000     0.100000000  0.000000000  0.000000000
     0.000000000 10.000000000  0.000000000     0.000000000  0.100000000  0.000000000
     0.000000000  0.000000000 10.000000000     0.000000000  0.000000000  0.100000000

  length of vectors
    10.000000000 10.000000000 10.000000000     0.100000000  0.100000000  0.100000000


 
 k-points in units of 2pi/SCALE and weight: KPOINTS created by Atomic Simulation Env
   0.00000000  0.00000000  0.00000000       1.000
 
 k-points in reciprocal lattice and weights: KPOINTS created by Atomic Simulation Env
   0.00000000  0.00000000  0.00000000       1.000
 
 position of ions in fractional coordinates (direct lattice) 
   0.44283291  0.50000000  0.50000000
   0.55716709  0.50000000  0.50000000
 
 position of ions in cartesian coordinates  (Angst):
   4.42832909  5.00000000  5.00000000
   5.57167091  5.00000000  5.00000000
 


--------------------------------------------------------------------------------------------------------


 k-point  1 :  0.00000.00000.0000  plane waves:   25413

 maximum and minimum number of plane-waves per node :     25413    25413

 maximum number of plane-waves:     25413
 maximum index in each direction: 
   IXMAX=   18   IYMAX=   18   IZMAX=   18
   IXMIN=  -18   IYMIN=  -18   IZMIN=  -18

 NGX is ok and might be reduce to  74
 NGY is ok and might be reduce to  74
 NGZ is ok and might be reduce to  74

 serial   3D FFT for wavefunctions
 parallel 3D FFT for charge:
    minimum data exchange during FFTs selected (reduces bandwidth)


 total amount of memory used by VASP on root node   430839. kBytes
========================================================================

   base      :      30000. kBytes
   nonl-proj :       4066. kBytes
   fftplans  :     141100. kBytes
   grid      :     252006. kBytes
   one-center:          6. kBytes
   wavefun   :       3661. kBytes
 
 Broyden mixing: mesh for mixing (old mesh)
   NGX = 37   NGY = 37   NGZ = 37
  (NGX  =160   NGY  =160   NGZ  =160)
  gives a total of  50653 points

 initial charge density was supplied:
 charge density of overlapping atoms calculated
 number of electron      10.0000000 magnetization 
 keeping initial charge density in first step


--------------------------------------------------------------------------------------------------------


 Maximum index for augmentation-charges         6467 (set IRDMAX)


--------------------------------------------------------------------------------------------------------


 First call to EWALD:  gamma=   0.177
 Maximum number of real-space cells 3x 3x 3
 Maximum number of reciprocal cells 3x 3x 3

    FEWALD:  cpu time    0.00: real time    0.00


----------------------------------------- Iteration    1(   1)  ---------------------------------------


    POTLOK:  cpu time    8.75: real time   10.86
    SETDIJ:  cpu time    0.01: real time    0.01
     EDDAV:  cpu time    5.76: real time    7.34
       DOS:  cpu time    0.00: real time    0.00
    --------------------------------------------
      LOOP:  cpu time   14.51: real time   18.22

 eigenvalue-minimisations  :    26
 total energy-change (2. order) : 0.7520721E+02  (-0.2473345E+03)
 number of electron      10.0000000 magnetization 
 augmentation part       10.0000000 magnetization 

 Free energy of the ion-electron system (eV)
  ---------------------------------------------------
  alpha Z        PSCENC =         0.43525486
  Ewald energy   TEWEN  =        98.94953463
  -1/2 Hartree   DENC   =      -560.51831678
  -exchange  EXHF       =         0.00000000
  -V(xc)+E(xc)   XCENC  =        39.84674178
  PAW double counting   =       283.82984571     -286.83001101
  entropy T*S    EENTRO =         0.00289895
  eigenvalues    EBANDS =       -80.01359671
  atomic energy  EATOM  =       579.50485627
  ---------------------------------------------------
  free energy    TOTEN  =        75.20720769 eV

  energy without entropy =       75.20430874  energy(sigma->0) =       75.20624137


--------------------------------------------------------------------------------------------------------




----------------------------------------- Iteration    1(   2)  ---------------------------------------


     EDDAV:  cpu time    7.51: real time    9.02
       DOS:  cpu time    0.00: real time    0.00
    --------------------------------------------
      LOOP:  cpu time    7.51: real time    9.03

 eigenvalue-minimisations  :    34
 total energy-change (2. order) :-0.8220347E+02  (-0.8211813E+02)
 number of electron      10.0000000 magnetization 
 augmentation part       10.0000000 magnetization 

 Free energy of the ion-electron system (eV)
  ---------------------------------------------------
  alpha Z        PSCENC =         0.43525486
  Ewald energy   TEWEN  =        98.94953463
  -1/2 Hartree   DENC   =      -560.51831678
  -exchange  EXHF       =         0.00000000
  -V(xc)+E(xc)   XCENC  =        39.84674178
  PAW double counting   =       283.82984571     -286.83001101
  entropy T*S    EENTRO =         0.00289895
  eigenvalues    EBANDS =      -162.21706746
  atomic energy  EATOM  =       579.50485627
  ---------------------------------------------------
  free energy    TOTEN  =        -6.99626306 eV

  energy without entropy =       -6.99916201  energy(sigma->0) =       -6.99722938


--------------------------------------------------------------------------------------------------------




----------------------------------------- Iteration    1(   3)  ---------------------------------------


     EDDAV:  cpu time    6.45: real time    8.76
       DOS:  cpu time    0.00: real time    0.00
    --------------------------------------------
      LOOP:  cpu time    6.45: real time    8.77

 eigenvalue-minimisations  :    36
 total energy-change (2. order) :-0.8545117E+01  (-0.8544989E+01)
 number of electron      10.0000000 magnetization 
 augmentation part       10.0000000 magnetization 

 Free energy of the ion-electron system (eV)
  ---------------------------------------------------
  alpha Z        PSCENC =         0.43525486
  Ewald energy   TEWEN  =        98.94953463
  -1/2 Hartree   DENC   =      -560.51831678
  -exchange  EXHF       =         0.00000000
  -V(xc)+E(xc)   XCENC  =        39.84674178
  PAW double counting   =       283.82984571     -286.83001101
  entropy T*S    EENTRO =         0.00289895
  eigenvalues    EBANDS =      -170.76218480
  atomic energy  EATOM  =       579.50485627
  ---------------------------------------------------
  free energy    TOTEN  =       -15.54138040 eV

  energy without entropy =      -15.54427935  energy(sigma->0) =      -15.54234672


--------------------------------------------------------------------------------------------------------




----------------------------------------- Iteration    1(   4)  ---------------------------------------


     EDDAV:  cpu time    6.47: real time    8.00
       DOS:  cpu time    0.00: real time    0.00
    --------------------------------------------
      LOOP:  cpu time    6.48: real time    8.15

 eigenvalue-minimisations  :    28
 total energy-change (2. order) :-0.5187998E-01  (-0.5187941E-01)
 number of electron      10.0000000 magnetization 
 augmentation part       10.0000000 magnetization 

 Free energy of the ion-electron system (eV)
  ---------------------------------------------------
  alpha Z        PSCENC =         0.43525486
  Ewald energy   TEWEN  =        98.94953463
  -1/2 Hartree   DENC   =      -560.51831678
  -exchange  EXHF       =         0.00000000
  -V(xc)+E(xc)   XCENC  =        39.84674178
  PAW double counting   =       283.82984571     -286.83001101
  entropy T*S    EENTRO =         0.00289895
  eigenvalues    EBANDS =      -170.81406478
  atomic energy  EATOM  =       579.50485627
  ---------------------------------------------------
  free energy    TOTEN  =       -15.59326038 eV

  energy without entropy =      -15.59615933  energy(sigma->0) =      -15.59422670


--------------------------------------------------------------------------------------------------------




----------------------------------------- Iteration    1(   5)  ---------------------------------------


     EDDAV:  cpu time    6.58: real time    8.22
       DOS:  cpu time    0.00: real time    0.00
    CHARGE:  cpu time    1.24: real time    1.74
    MIXING:  cpu time    0.26: real time    0.45
    --------------------------------------------
      LOOP:  cpu time    8.07: real time   10.47

 eigenvalue-minimisations  :    28
 total energy-change (2. order) :-0.3572457E-04  (-0.3572484E-04)
 number of electron      10.0000000 magnetization 
 augmentation part        0.7289987 magnetization 

 Broyden mixing:
  rms(total) = 0.62818E+00    rms(broyden)= 0.62759E+00
  rms(prec ) = 0.77266E+00
  weight for this iteration     100.00

 Free energy of the ion-electron system (eV)
  ---------------------------------------------------
  alpha Z        PSCENC =         0.43525486
  Ewald energy   TEWEN  =        98.94953463
  -1/2 Hartree   DENC   =      -560.51831678
  -exchange  EXHF       =         0.00000000
  -V(xc)+E(xc)   XCENC  =        39.84674178
  PAW double counting   =       283.82984571     -286.83001101
  entropy T*S    EENTRO =         0.00289895
  eigenvalues    EBANDS =      -170.81410051
  atomic energy  EATOM  =       579.50485627
  ---------------------------------------------------
  free energy    TOTEN  =       -15.59329610 eV

  energy without entropy =      -15.59619506  energy(sigma->0) =      -15.59426242


--------------------------------------------------------------------------------------------------------




----------------------------------------- Iteration    1(   6)  ---------------------------------------


    POTLOK:  cpu time    9.56: real time   12.22
    SETDIJ:  cpu time    0.01: real time    0.01
     EDDAV:  cpu time    4.61: real time    6.19
       DOS:  cpu time    0.00: real time    0.00
    CHARGE:  cpu time    1.57: real time    1.71
    MIXING:  cpu time    0.25: real time    0.43
    --------------------------------------------
      LOOP:  cpu time   16.00: real time   20.58

 eigenvalue-minimisations  :    18
 total energy-change (2. order) : 0.6577719E+00  (-0.3731097E+00)
 number of electron      10.0000000 magnetization 
 augmentation part        0.6455962 magnetization 

 Broyden mixing:
  rms(total) = 0.32279E+00    rms(broyden)= 0.32259E+00
  rms(prec ) = 0.38742E+00
  weight for this iteration     100.00

 eigenvalues of (default mixing * dielectric matrix)
  average eigenvalue GAMMA=   0.9833
  0.9833

 Free energy of the ion-electron system (eV)
  ---------------------------------------------------
  alpha Z        PSCENC =         0.43525486
  Ewald energy   TEWEN  =        98.94953463
  -1/2 Hartree   DENC   =      -574.65790194
  -exchange  EXHF       =         0.00000000
  -V(xc)+E(xc)   XCENC  =        40.66996482
  PAW double counting   =       330.32797118     -333.52109287
  entropy T*S    EENTRO =         0.00289895
  eigenvalues    EBANDS =      -156.64701012
  atomic energy  EATOM  =       579.50485627
  ---------------------------------------------------
  free energy    TOTEN  =       -14.93552422 eV

  energy without entropy =      -14.93842317  energy(sigma->0) =      -14.93649053


--------------------------------------------------------------------------------------------------------




----------------------------------------- Iteration    1(   7)  ---------------------------------------


    POTLOK:  cpu time    9.43: real time   11.37
    SETDIJ:  cpu time    0.01: real time    0.01
     EDDAV:  cpu time    5.29: real time    5.51
       DOS:  cpu time    0.00: real time    0.00
    CHARGE:  cpu time    1.36: real time    1.67
    MIXING:  cpu time    0.25: real time    0.25
    --------------------------------------------
      LOOP:  cpu time   16.35: real time   18.87

 eigenvalue-minimisations  :    27
 total energy-change (2. order) : 0.1308413E+00  (-0.6913332E-01)
 number of electron      10.0000000 magnetization 
 augmentation part        0.6679245 magnetization 

 Broyden mixing:
  rms(total) = 0.16410E+00    rms(broyden)= 0.16409E+00
  rms(prec ) = 0.19445E+00
  weight for this iteration     100.00

 eigenvalues of (default mixing * dielectric matrix)
  average eigenvalue GAMMA=   1.3987
  0.7454  2.0521

 Free energy of the ion-electron system (eV)
  ---------------------------------------------------
  alpha Z        PSCENC =         0.43525486
  Ewald energy   TEWEN  =        98.94953463
  -1/2 Hartree   DENC   =      -576.28975553
  -exchange  EXHF       =         0.00000000
  -V(xc)+E(xc)   XCENC  =        40.78716132
  PAW double counting   =       345.20952487     -348.37770660
  entropy T*S    EENTRO =         0.00289895
  eigenvalues    EBANDS =      -155.02645166
  atomic energy  EATOM  =       579.50485627
  ---------------------------------------------------
  free energy    TOTEN  =       -14.80468289 eV

  energy without entropy =      -14.80758184  energy(sigma->0) =      -14.80564921


--------------------------------------------------------------------------------------------------------




----------------------------------------- Iteration    1(   8)  ---------------------------------------


    POTLOK:  cpu time    8.77: real time   10.16
    SETDIJ:  cpu time    0.01: real time    0.01
     EDDAV:  cpu time    3.70: real time    4.36
       DOS:  cpu time    0.00: real time    0.00
    CHARGE:  cpu time    1.46: real time    1.95
    MIXING:  cpu time    0.25: real time    0.32
    --------------------------------------------
      LOOP:  cpu time   14.19: real time   16.81

 eigenvalue-minimisations  :    18
 total energy-change (2. order) : 0.3875749E-01  (-0.1424939E-01)
 number of electron      10.0000000 magnetization 
 augmentation part        0.6578598 magnetization 

 Broyden mixing:
  rms(total) = 0.38036E-01    rms(broyden)= 0.38026E-01
  rms(prec ) = 0.47111E-01
  weight for this iteration     100.00

 eigenvalues of (default mixing * dielectric matrix)
  average eigenvalue GAMMA=   1.5323
  2.2876  1.5815  0.7277

 Free energy of the ion-electron system (eV)
  ---------------------------------------------------
  alpha Z        PSCENC =         0.43525486
  Ewald energy   TEWEN  =        98.94953463
  -1/2 Hartree   DENC   =      -580.77858955
  -exchange  EXHF       =         0.00000000
  -V(xc)+E(xc)   XCENC  =        41.06068064
  PAW double counting   =       369.40098118     -372.58124483
  entropy T*S    EENTRO =         0.00289895
  eigenvalues    EBANDS =      -150.76029755
  atomic energy  EATOM  =       579.50485627
  ---------------------------------------------------
  free energy    TOTEN  =       -14.76592540 eV

  energy without entropy =      -14.76882435  energy(sigma->0) =      -14.76689172


--------------------------------------------------------------------------------------------------------




----------------------------------------- Iteration    1(   9)  ---------------------------------------


    POTLOK:  cpu time    9.00: real time   12.21
    SETDIJ:  cpu time    0.01: real time    0.01
     EDDAV:  cpu time    4.81: real time    6.58
       DOS:  cpu time    0.00: real time    0.00
    CHARGE:  cpu time    1.53: real time    2.00
    MIXING:  cpu time    0.28: real time    0.31
    --------------------------------------------
      LOOP:  cpu time   15.62: real time   21.24

 eigenvalue-minimisations  :    20
 total energy-change (2. order) : 0.8321549E-03  (-0.6781659E-03)
 number of electron      10.0000000 magnetization 
 augmentation part        0.6556945 magnetization 

 Broyden mixing:
  rms(total) = 0.10459E-01    rms(broyden)= 0.10454E-01
  rms(prec ) = 0.16271E-01
  weight for this iteration     100.00

 eigenvalues of (default mixing * dielectric matrix)
  average eigenvalue GAMMA=   1.4927
  0.7386  1.0571  2.4058  1.7692

 Free energy of the ion-electron system (eV)
  ---------------------------------------------------
  alpha Z        PSCENC =         0.43525486
  Ewald energy   TEWEN  =        98.94953463
  -1/2 Hartree   DENC   =      -580.85167198
  -exchange  EXHF       =         0.00000000
  -V(xc)+E(xc)   XCENC  =        41.06234225
  PAW double counting   =       373.05452187     -376.20979370
  entropy T*S    EENTRO =         0.00289895
  eigenvalues    EBANDS =      -150.71303639
  atomic energy  EATOM  =       579.50485627
  ---------------------------------------------------
  free energy    TOTEN  =       -14.76509325 eV

  energy without entropy =      -14.76799220  energy(sigma->0) =      -14.76605956


--------------------------------------------------------------------------------------------------------




----------------------------------------- Iteration    1(  10)  ---------------------------------------


    POTLOK:  cpu time    9.71: real time   12.92
    SETDIJ:  cpu time    0.01: real time    0.01
     EDDAV:  cpu time    4.49: real time    5.45
       DOS:  cpu time    0.00: real time    0.00
    CHARGE:  cpu time    1.41: real time    1.55
    MIXING:  cpu time    0.34: real time    0.34
    --------------------------------------------
      LOOP:  cpu time   15.96: real time   20.39

 eigenvalue-minimisations  :    18
 total energy-change (2. order) :-0.7552459E-03  (-0.1158987E-03)
 number of electron      10.0000000 magnetization 
 augmentation part        0.6568843 magnetization 

 Broyden mixing:
  rms(total) = 0.32641E-02    rms(broyden)= 0.32614E-02
  rms(prec ) = 0.84095E-02
  weight for this iteration     100.00

 eigenvalues of (default mixing * dielectric matrix)
  average eigenvalue GAMMA=   1.6033
  0.7406  0.9737  2.4321  2.1878  1.6821

 Free energy of the ion-electron system (eV)
  ---------------------------------------------------
  alpha Z        PSCENC =         0.43525486
  Ewald energy   TEWEN  =        98.94953463
  -1/2 Hartree   DENC   =      -580.82385642
  -exchange  EXHF       =         0.00000000
  -V(xc)+E(xc)   XCENC  =        41.05741878
  PAW double counting   =       373.20854105     -376.35304816
  entropy T*S    EENTRO =         0.00289895
  eigenvalues    EBANDS =      -150.74744844
  atomic energy  EATOM  =       579.50485627
  ---------------------------------------------------
  free energy    TOTEN  =       -14.76584849 eV

  energy without entropy =      -14.76874744  energy(sigma->0) =      -14.76681481


--------------------------------------------------------------------------------------------------------




----------------------------------------- Iteration    1(  11)  ---------------------------------------


    POTLOK:  cpu time    9.24: real time   11.21
    SETDIJ:  cpu time    0.01: real time    0.01
     EDDAV:  cpu time    3.59: real time    4.46
       DOS:  cpu time    0.00: real time    0.00
    CHARGE:  cpu time    1.02: real time    1.21
    MIXING:  cpu time    0.29: real time    0.34
    --------------------------------------------
      LOOP:  cpu time   14.14: real time   17.25

 eigenvalue-minimisations  :    18
 total energy-change (2. order) :-0.1696437E-02  (-0.5069985E-04)
 number of electron      10.0000000 magnetization 
 augmentation part        0.6568445 magnetization 

 Broyden mixing:
  rms(total) = 0.19424E-02    rms(broyden)= 0.19421E-02
  rms(prec ) = 0.44456E-02
  weight for this iteration     100.00

 eigenvalues of (default mixing * dielectric matrix)
  average eigenvalue GAMMA=   1.6584
  3.1355  2.4173  1.6370  0.7390  0.9473  1.0744

 Free energy of the ion-electron system (eV)
  ---------------------------------------------------
  alpha Z        PSCENC =         0.43525486
  Ewald energy   TEWEN  =        98.94953463
  -1/2 Hartree   DENC   =      -581.18625957
  -exchange  EXHF       =         0.00000000
  -V(xc)+E(xc)   XCENC  =        41.07054015
  PAW double counting   =       373.13694389     -376.27699643
  entropy T*S    EENTRO =         0.00289895
  eigenvalues    EBANDS =      -150.40431767
  atomic energy  EATOM  =       579.50485627
  ---------------------------------------------------
  free energy    TOTEN  =       -14.76754493 eV

  energy without entropy =      -14.77044388  energy(sigma->0) =      -14.76851125


--------------------------------------------------------------------------------------------------------




----------------------------------------- Iteration    1(  12)  ---------------------------------------


    POTLOK:  cpu time    8.82: real time   12.46
    SETDIJ:  cpu time    0.01: real time    0.01
     EDDAV:  cpu time    4.05: real time    5.60
       DOS:  cpu time    0.00: real time    0.00
    CHARGE:  cpu time    1.71: real time    2.31
    MIXING:  cpu time    0.40: real time    0.48
    --------------------------------------------
      LOOP:  cpu time   14.98: real time   20.88

 eigenvalue-minimisations  :    20
 total energy-change (2. order) :-0.6863461E-03  (-0.1016073E-04)
 number of electron      10.0000000 magnetization 
 augmentation part        0.6566100 magnetization 

 Broyden mixing:
  rms(total) = 0.11522E-02    rms(broyden)= 0.11520E-02
  rms(prec ) = 0.28982E-02
  weight for this iteration     100.00

 eigenvalues of (default mixing * dielectric matrix)
  average eigenvalue GAMMA=   1.9630
  4.3927  2.5856  2.3247  1.6828  0.7390  0.9763  1.0402

 Free energy of the ion-electron system (eV)
  ---------------------------------------------------
  alpha Z        PSCENC =         0.43525486
  Ewald energy   TEWEN  =        98.94953463
  -1/2 Hartree   DENC   =      -581.25806605
  -exchange  EXHF       =         0.00000000
  -V(xc)+E(xc)   XCENC  =        41.07136345
  PAW double counting   =       372.99982068     -376.13958272
  entropy T*S    EENTRO =         0.00289895
  eigenvalues    EBANDS =      -150.33431135
  atomic energy  EATOM  =       579.50485627
  ---------------------------------------------------
  free energy    TOTEN  =       -14.76823127 eV

  energy without entropy =      -14.77113023  energy(sigma->0) =      -14.76919759


--------------------------------------------------------------------------------------------------------




----------------------------------------- Iteration    1(  13)  ---------------------------------------


    POTLOK:  cpu time    9.00: real time   13.56
    SETDIJ:  cpu time    0.01: real time    0.01
     EDDAV:  cpu time    3.97: real time    4.84
       DOS:  cpu time    0.00: real time    0.00
    CHARGE:  cpu time    1.43: real time    1.63
    MIXING:  cpu time    0.29: real time    0.51
    --------------------------------------------
      LOOP:  cpu time   14.70: real time   20.59

 eigenvalue-minimisations  :    18
 total energy-change (2. order) :-0.1090239E-02  (-0.1572249E-04)
 number of electron      10.0000000 magnetization 
 augmentation part        0.6566086 magnetization 

 Broyden mixing:
  rms(total) = 0.55408E-03    rms(broyden)= 0.55404E-03
  rms(prec ) = 0.11823E-02
  weight for this iteration     100.00

 eigenvalues of (default mixing * dielectric matrix)
  average eigenvalue GAMMA=   2.0497
  5.5128  2.8061  2.4079  1.6070  0.7392  0.9624  1.0719  1.2900

 Free energy of the ion-electron system (eV)
  ---------------------------------------------------
  alpha Z        PSCENC =         0.43525486
  Ewald energy   TEWEN  =        98.94953463
  -1/2 Hartree   DENC   =      -581.30874977
  -exchange  EXHF       =         0.00000000
  -V(xc)+E(xc)   XCENC  =        41.07039061
  PAW double counting   =       372.93440473     -376.07648448
  entropy T*S    EENTRO =         0.00289895
  eigenvalues    EBANDS =      -150.28142731
  atomic energy  EATOM  =       579.50485627
  ---------------------------------------------------
  free energy    TOTEN  =       -14.76932151 eV

  energy without entropy =      -14.77222047  energy(sigma->0) =      -14.77028783


--------------------------------------------------------------------------------------------------------




----------------------------------------- Iteration    1(  14)  ---------------------------------------


    POTLOK:  cpu time    9.05: real time   10.82
    SETDIJ:  cpu time    0.01: real time    0.01
     EDDAV:  cpu time    4.34: real time    5.82
       DOS:  cpu time    0.00: real time    0.00
    CHARGE:  cpu time    1.19: real time    1.57
    MIXING:  cpu time    0.29: real time    0.33
    --------------------------------------------
      LOOP:  cpu time   14.88: real time   18.57

 eigenvalue-minimisations  :    19
 total energy-change (2. order) :-0.2978409E-03  (-0.2518039E-05)
 number of electron      10.0000000 magnetization 
 augmentation part        0.6566538 magnetization 

 Broyden mixing:
  rms(total) = 0.37519E-03    rms(broyden)= 0.37512E-03
  rms(prec ) = 0.72610E-03
  weight for this iteration     100.00

 eigenvalues of (default mixing * dielectric matrix)
  average eigenvalue GAMMA=   2.3420
  7.0805  3.5972  2.6233  2.3906  1.6426  0.7392  1.0471  0.9582  0.9996

 Free energy of the ion-electron system (eV)
  ---------------------------------------------------
  alpha Z        PSCENC =         0.43525486
  Ewald energy   TEWEN  =        98.94953463
  -1/2 Hartree   DENC   =      -581.31942328
  -exchange  EXHF       =         0.00000000
  -V(xc)+E(xc)   XCENC  =        41.07043927
  PAW double counting   =       372.98279632     -376.12501142
  entropy T*S    EENTRO =         0.00289895
  eigenvalues    EBANDS =      -150.27096495
  atomic energy  EATOM  =       579.50485627
  ---------------------------------------------------
  free energy    TOTEN  =       -14.76961935 eV

  energy without entropy =      -14.77251831  energy(sigma->0) =      -14.77058567


--------------------------------------------------------------------------------------------------------




----------------------------------------- Iteration    1(  15)  ---------------------------------------


    POTLOK:  cpu time    8.85: real time   10.97
    SETDIJ:  cpu time    0.01: real time    0.01
     EDDAV:  cpu time    4.17: real time    5.34
       DOS:  cpu time    0.00: real time    0.00
    CHARGE:  cpu time    1.58: real time    1.70
    MIXING:  cpu time    0.38: real time    0.44
    --------------------------------------------
      LOOP:  cpu time   14.99: real time   18.51

 eigenvalue-minimisations  :    20
 total energy-change (2. order) :-0.1916377E-03  (-0.1461630E-05)
 number of electron      10.0000000 magnetization 
 augmentation part        0.6566570 magnetization 

 Broyden mixing:
  rms(total) = 0.19835E-03    rms(broyden)= 0.19833E-03
  rms(prec ) = 0.31958E-03
  weight for this iteration     100.00

 eigenvalues of (default mixing * dielectric matrix)
  average eigenvalue GAMMA=   2.3489
  7.4436  4.0378  2.5544  2.4507  1.7004  1.5233  0.7391  1.1170  0.9614  0.9614

 Free energy of the ion-electron system (eV)
  ---------------------------------------------------
  alpha Z        PSCENC =         0.43525486
  Ewald energy   TEWEN  =        98.94953463
  -1/2 Hartree   DENC   =      -581.30400490
  -exchange  EXHF       =         0.00000000
  -V(xc)+E(xc)   XCENC  =        41.06928581
  PAW double counting   =       372.99143610     -376.13288921
  entropy T*S    EENTRO =         0.00289895
  eigenvalues    EBANDS =      -150.28618350
  atomic energy  EATOM  =       579.50485627
  ---------------------------------------------------
  free energy    TOTEN  =       -14.76981099 eV

  energy without entropy =      -14.77270994  energy(sigma->0) =      -14.77077731


--------------------------------------------------------------------------------------------------------




----------------------------------------- Iteration    1(  16)  ---------------------------------------


    POTLOK:  cpu time    8.77: real time   13.84
    SETDIJ:  cpu time    0.01: real time    0.01
     EDDAV:  cpu time    4.76: real time    6.40
       DOS:  cpu time    0.00: real time    0.00
    --------------------------------------------
      LOOP:  cpu time   13.54: real time   20.38

 eigenvalue-minimisations  :    20
 total energy-change (2. order) :-0.3907164E-04  (-0.1852715E-06)
 number of electron      10.0000000 magnetization 
 augmentation part        0.6566570 magnetization 

 Free energy of the ion-electron system (eV)
  ---------------------------------------------------
  alpha Z        PSCENC =         0.43525486
  Ewald energy   TEWEN  =        98.94953463
  -1/2 Hartree   DENC   =      -581.30266858
  -exchange  EXHF       =         0.00000000
  -V(xc)+E(xc)   XCENC  =        41.06927953
  PAW double counting   =       372.98211402     -376.12369358
  entropy T*S    EENTRO =         0.00289895
  eigenvalues    EBANDS =      -150.28742617
  atomic energy  EATOM  =       579.50485627
  ---------------------------------------------------
  free energy    TOTEN  =       -14.76985006 eV

  energy without entropy =      -14.77274902  energy(sigma->0) =      -14.77081638


--------------------------------------------------------------------------------------------------------




 average (electrostatic) potential at core
  the test charge radii are     0.6991  0.7215
  (the norm of the test charge is              1.0000)
       1 -61.5167       2 -83.3707
 
 
 
 E-fermi :  -8.8679     XC(G=0):  -0.6378     alpha+bet : -0.1753


 k-point   1 :       0.0000    0.0000    0.0000
  band No.  band energies     occupation 
      1     -29.1192      2.00000
      2     -13.9060      2.00000
      3     -11.6043      2.00000
      4     -11.6043      2.00000
      5      -8.9100      2.00000
      6      -2.0192      0.00000
      7      -2.0192      0.00000
      8      -0.1984      0.00000
      9       1.0667      0.00000


--------------------------------------------------------------------------------------------------------


 soft charge-density along one line, spin component           1
         0         1         2         3         4         5         6         7         8         9
 total charge-density along one line
 
 pseudopotential strength for first ion, spin component:           1
 10.411   0.025   0.000   0.000   0.023   0.000   0.000  -0.020
  0.025  -0.001   0.000   0.000  -0.001   0.000   0.000   0.000
  0.000   0.000  -4.535   0.000   0.000  -0.012   0.000   0.000
  0.000   0.000   0.000  -4.535   0.000   0.000  -0.012   0.000
  0.023  -0.001   0.000   0.000  -4.540   0.000   0.000  -0.020
  0.000   0.000  -0.012   0.000   0.000  -0.776   0.000   0.000
  0.000   0.000   0.000  -0.012   0.000   0.000  -0.776   0.000
 -0.020   0.000   0.000   0.000  -0.020   0.000   0.000  -0.776
 total augmentation occupancy for first ion, spin component:           1
  1.860  -0.676   0.000   0.000  -0.174   0.000   0.000   0.123
 -0.676   1.234   0.000   0.000  -0.906   0.000   0.000  -0.306
  0.000   0.000   0.604   0.000   0.000   0.084   0.000   0.000
  0.000   0.000   0.000   0.604   0.000   0.000   0.084   0.000
 -0.174  -0.906   0.000   0.000   1.516   0.000   0.000   0.252
  0.000   0.000   0.084   0.000   0.000   0.012   0.000   0.000
  0.000   0.000   0.000   0.084   0.000   0.000   0.012   0.000
  0.123  -0.306   0.000   0.000   0.252   0.000   0.000   0.077


------------------------ aborting loop because EDIFF is reached ----------------------------------------


    CHARGE:  cpu time    1.17: real time    1.50
    FORLOC:  cpu time    0.49: real time    0.50
    FORNL :  cpu time    0.11: real time    0.11
    STRESS:  cpu time    1.22: real time    1.72
    FORHAR:  cpu time    2.46: real time    3.47
    MIXING:  cpu time    0.35: real time    0.46

  FORCE on cell =-STRESS in cart. coord.  units (eV):
  Direction    XX          YY          ZZ          XY          YZ          ZX
  --------------------------------------------------------------------------------------
  Alpha Z     0.43525     0.43525     0.43525
  Ewald     236.06969   -68.56010   -68.56010     0.00000     0.00000     0.00000
  Hartree   266.61702   157.33911   157.33911     0.00000     0.00000     0.00000
  E(xc)     -42.56705   -43.74589   -43.74589     0.00000     0.00000     0.00000
  Local    -611.79393  -224.18414  -224.18414     0.00000     0.00000     0.00000
  n-local   -29.57548   -18.22674   -18.22674     0.00000     0.00000     0.00000
  augment     5.75312     6.24413     6.24413     0.00000     0.00000     0.00000
  Kinetic   174.99859   190.64789   190.64789     0.00000     0.00000     0.00000
  Fock        0.00000     0.00000     0.00000     0.00000     0.00000     0.00000
  -------------------------------------------------------------------------------------
  Total      -0.06277    -0.05049    -0.05049     0.00000     0.00000     0.00000
  in kB      -0.10057    -0.08089    -0.08089     0.00000     0.00000     0.00000
  external pressure =       -0.09 kB  Pullay stress =        0.00 kB


 VOLUME and BASIS-vectors are now :
 -----------------------------------------------------------------------------
  energy-cutoff  :      500.00
  volume of cell :     1000.00
      direct lattice vectors                 reciprocal lattice vectors
    10.000000000  0.000000000  0.000000000     0.100000000  0.000000000  0.000000000
     0.000000000 10.000000000  0.000000000     0.000000000  0.100000000  0.000000000
     0.000000000  0.000000000 10.000000000     0.000000000  0.000000000  0.100000000

  length of vectors
    10.000000000 10.000000000 10.000000000     0.100000000  0.100000000  0.100000000


 FORCES acting on ions
    electron-ion (+dipol)            ewald-force                    non-local-force                 convergence-correction
 -----------------------------------------------------------------------------------------------
   0.235E+03 -.523E-12 0.105E-06   -.263E+03 -.899E-17 -.316E-16   0.281E+02 0.000E+00 -.165E-23   0.202E-02 0.102E-13 0.172E-13
   -.203E+03 -.628E-12 0.356E-07   0.263E+03 0.475E-17 0.241E-16   -.593E+02 -.414E-24 0.517E-25   0.136E-02 0.140E-13 0.488E-13
 -----------------------------------------------------------------------------------------------
   0.312E+02 -.115E-11 0.140E-06   0.000E+00 -.424E-17 -.746E-17   -.312E+02 -.414E-24 -.160E-23   0.338E-02 0.241E-13 0.660E-13
 
 
 POSITION                                       TOTAL-FORCE (eV/Angst)
 -----------------------------------------------------------------------------------
      4.42833      5.00000      5.00000         0.004248      0.000000      0.000000
      5.57167      5.00000      5.00000        -0.004248      0.000000      0.000000
 -----------------------------------------------------------------------------------
    total drift:                                0.000617      0.000000      0.000000


--------------------------------------------------------------------------------------------------------



  FREE ENERGIE OF THE ION-ELECTRON SYSTEM (eV)
  ---------------------------------------------------
  free  energy   TOTEN  =       -14.769850 eV

  energy  without entropy=      -14.772749  energy(sigma->0) =      -14.770816
 


--------------------------------------------------------------------------------------------------------


    POTLOK:  cpu time    8.23: real time    9.73


--------------------------------------------------------------------------------------------------------


 writing wavefunctions
     LOOP+:  cpu time  230.77: real time  297.35
    4ORBIT:  cpu time    0.00: real time    0.00

 total amount of memory used by VASP on root node   430839. kBytes
========================================================================

   base      :      30000. kBytes
   nonl-proj :       4066. kBytes
   fftplans  :     141100. kBytes
   grid      :     252006. kBytes
   one-center:          6. kBytes
   wavefun   :       3661. kBytes
 
  
  
 General timing and accounting informations for this job:
 ========================================================
  
                  Total CPU time used (sec):      247.075
                            User time (sec):      243.126
                          System time (sec):        3.949
                         Elapsed time (sec):      321.008
  
                   Maximum memory used (kb):           0.
                   Average memory used (kb):           0.
  
                          Minor page faults:       866376
                          Major page faults:           35
                 Voluntary context switches:         3731
