<?xml version="1.0" encoding="ISO-8859-1"?>
<modeling>
 <generator>
  <i name="program" type="string">vasp </i>
  <i name="version" type="string">5.2.12  </i>
  <i name="subversion" type="string">11Nov11 complex                                                      parallel </i>
  <i name="platform" type="string">LinuxIFC </i>
  <i name="date" type="string">2012 10 09 </i>
  <i name="time" type="string">23:12:56 </i>
 </generator>
 <incar>
  <i type="string" name="PREC">accurate</i>
  <i name="ENCUT">    500.00000000</i>
  <i type="logical" name="LREAL"> F  </i>
  <i type="int" name="ISMEAR">     1</i>
  <i name="SIGMA">      0.05000000</i>
 </incar>
 <kpoints>
  <generation param="Monkhorst-Pack">
   <v type="int" name="divisions">       1        1        1 </v>
   <v name="usershift">      0.00000000       0.00000000       0.00000000 </v>
   <v name="genvec1">      1.00000000       0.00000000       0.00000000 </v>
   <v name="genvec2">      0.00000000       1.00000000       0.00000000 </v>
   <v name="genvec3">      0.00000000       0.00000000       1.00000000 </v>
   <v name="shift">      0.00000000       0.00000000       0.00000000 </v>
  </generation>
  <varray name="kpointlist" >
   <v>       0.00000000       0.00000000       0.00000000 </v>
  </varray>
  <varray name="weights" >
   <v>       1.00000000 </v>
  </varray>
 </kpoints>
 <parameters>
  <separator name="general" >
   <i type="string" name="SYSTEM">unknown system</i>
   <i type="logical" name="LCOMPAT"> F  </i>
  </separator>
  <separator name="electronic" >
   <i type="string" name="PREC">accura</i>
   <i name="ENMAX">    500.00000000</i>
   <i name="ENAUG">    644.87300000</i>
   <i name="EDIFF">      0.00010000</i>
   <i type="int" name="IALGO">    38</i>
   <i type="int" name="IWAVPR">    10</i>
   <i type="int" name="NBANDS">     9</i>
   <i name="NELECT">     10.00000000</i>
   <i type="int" name="TURBO">     0</i>
   <i type="int" name="IRESTART">     0</i>
   <i type="int" name="NREBOOT">     0</i>
   <i type="int" name="NMIN">     0</i>
   <i name="EREF">      0.00000000</i>
   <separator name="electronic smearing" >
    <i type="int" name="ISMEAR">     1</i>
    <i name="SIGMA">      0.05000000</i>
    <i name="KSPACING">      0.50000000</i>
    <i type="logical" name="KGAMMA"> T  </i>
   </separator>
   <separator name="electronic projectors" >
    <i type="logical" name="LREAL"> F  </i>
    <v name="ROPT">      0.00000000      0.00000000</v>
    <i type="int" name="LMAXPAW">  -100</i>
    <i type="int" name="LMAXMIX">     2</i>
    <i type="logical" name="NLSPLINE"> F  </i>
   </separator>
   <separator name="electronic startup" >
    <i type="int" name="ISTART">     0</i>
    <i type="int" name="ICHARG">     2</i>
    <i type="int" name="INIWAV">     1</i>
   </separator>
   <separator name="electronic spin" >
    <i type="int" name="ISPIN">     1</i>
    <i type="logical" name="LNONCOLLINEAR"> F  </i>
    <v name="MAGMOM">      1.00000000      1.00000000</v>
    <i name="NUPDOWN">     -1.00000000</i>
    <i type="logical" name="LSORBIT"> F  </i>
    <v name="SAXIS">      0.00000000      0.00000000      1.00000000</v>
    <i type="logical" name="LSPIRAL"> F  </i>
    <v name="QSPIRAL">      0.00000000      0.00000000      0.00000000</v>
    <i type="logical" name="LZEROZ"> F  </i>
   </separator>
   <separator name="electronic exchange-correlation" >
    <i type="logical" name="LASPH"> F  </i>
    <i type="logical" name="LMETAGGA"> F  </i>
   </separator>
   <separator name="electronic convergence" >
    <i type="int" name="NELM">    60</i>
    <i type="int" name="NELMDL">    -5</i>
    <i type="int" name="NELMIN">     2</i>
    <i name="ENINI">    500.00000000</i>
    <separator name="electronic convergence detail" >
     <i type="logical" name="LDIAG"> T  </i>
     <i type="logical" name="LSUBROT"> T  </i>
     <i name="WEIMIN">      0.00000000</i>
     <i name="EBREAK">      0.00000278</i>
     <i name="DEPER">      0.30000000</i>
     <i type="int" name="NRMM">     4</i>
     <i name="TIME">      0.40000000</i>
    </separator>
   </separator>
   <separator name="electronic mixer" >
    <i name="AMIX">      0.40000000</i>
    <i name="BMIX">      1.00000000</i>
    <i name="AMIN">      0.10000000</i>
    <i name="AMIX_MAG">      1.60000000</i>
    <i name="BMIX_MAG">      1.00000000</i>
    <separator name="electronic mixer details" >
     <i type="int" name="IMIX">     4</i>
     <i type="int" name="MAXMIX">   -45</i>
     <i name="WC">    100.00000000</i>
     <i type="int" name="INIMIX">     1</i>
     <i type="int" name="MIXPRE">     1</i>
     <i type="int" name="MREMOVE">     5</i>
    </separator>
   </separator>
   <separator name="electronic dipolcorrection" >
    <i type="logical" name="LDIPOL"> F  </i>
    <i type="logical" name="LMONO"> F  </i>
    <i type="int" name="IDIPOL">     0</i>
    <i name="EPSILON">      1.00000000</i>
    <v name="DIPOL">   -100.00000000   -100.00000000   -100.00000000</v>
    <i name="EFIELD">      0.00000000</i>
   </separator>
  </separator>
  <separator name="grids" >
   <i type="int" name="NGX">    80</i>
   <i type="int" name="NGY">    80</i>
   <i type="int" name="NGZ">    80</i>
   <i type="int" name="NGXF">   160</i>
   <i type="int" name="NGYF">   160</i>
   <i type="int" name="NGZF">   160</i>
   <i type="logical" name="ADDGRID"> F  </i>
  </separator>
  <separator name="ionic" >
   <i type="int" name="NSW">     0</i>
   <i type="int" name="IBRION">    -1</i>
   <i type="int" name="ISIF">     2</i>
   <i name="PSTRESS">      0.00000000</i>
   <i name="EDIFFG">      0.00100000</i>
   <i type="int" name="NFREE">     0</i>
   <i name="POTIM">      0.50000000</i>
   <i name="SMASS">     -3.00000000</i>
   <i name="SCALEE">      1.00000000</i>
  </separator>
  <separator name="ionic md" >
   <i name="TEBEG">      0.00010000</i>
   <i name="TEEND">      0.00010000</i>
   <i type="int" name="NBLOCK">     1</i>
   <i type="int" name="KBLOCK">     1</i>
   <i type="int" name="NPACO">   256</i>
   <i name="APACO">     16.00000000</i>
  </separator>
  <separator name="symmetry" >
   <i type="int" name="ISYM">     2</i>
   <i name="SYMPREC">      0.00001000</i>
  </separator>
  <separator name="dos" >
   <i type="logical" name="LORBIT"> F  </i>
   <v name="RWIGS">     -1.00000000     -1.00000000</v>
   <i type="int" name="NEDOS">   301</i>
   <i name="EMIN">     10.00000000</i>
   <i name="EMAX">    -10.00000000</i>
   <i name="EFERMI">      0.00000000</i>
  </separator>
  <separator name="writing" >
   <i type="int" name="NWRITE">     2</i>
   <i type="logical" name="LWAVE"> T  </i>
   <i type="logical" name="LCHARG"> T  </i>
   <i type="logical" name="LPARD"> F  </i>
   <i type="logical" name="LVTOT"> F  </i>
   <i type="logical" name="LVHAR"> F  </i>
   <i type="logical" name="LELF"> F  </i>
   <i type="logical" name="LOPTICS"> F  </i>
   <v name="STM">      0.00000000      0.00000000      0.00000000      0.00000000      0.00000000      0.00000000      0.00000000</v>
  </separator>
  <separator name="performance" >
   <i type="int" name="NPAR">     1</i>
   <i type="int" name="NSIM">     4</i>
   <i type="int" name="NBLK">    -1</i>
   <i type="logical" name="LPLANE"> T  </i>
   <i type="logical" name="LSCALAPACK"> F  </i>
   <i type="logical" name="LSCAAWARE"> F  </i>
   <i type="logical" name="LSCALU"> F  </i>
   <i type="logical" name="LASYNC"> F  </i>
   <i type="logical" name="LORBITALREAL"> F  </i>
  </separator>
  <separator name="miscellaneous" >
   <i type="int" name="IDIOT">     3</i>
   <i type="logical" name="LMUSIC"> F  </i>
   <v name="POMASS">     12.01100000     16.00000000</v>
   <v name="DARWINR">      0.00000000      0.00000000</v>
   <v name="DARWINV">      1.00000000      1.00000000</v>
   <i type="logical" name="LCORR"> T  </i>
  </separator>
  <i type="logical" name="GGA_COMPAT"> T  </i>
  <i type="logical" name="LBERRY"> F  </i>
  <i type="int" name="ICORELEVEL">     0</i>
  <i type="logical" name="LDAU"> F  </i>
  <i type="int" name="I_CONSTRAINED_M">     0</i>
  <separator name="electronic exchange-correlation" >
   <i type="string" name="GGA">--</i>
   <i type="int" name="VOSKOWN">     0</i>
   <i type="logical" name="LHFCALC"> F  </i>
   <i type="string" name="PRECFOCK"></i>
   <i type="logical" name="LHFONE"> F  </i>
   <i type="logical" name="LRHFCALC"> F  </i>
   <i type="logical" name="LTHOMAS"> F  </i>
   <i type="logical" name="LMODELHF"> F  </i>
   <i name="ENCUT4O">     -1.00000000</i>
   <i type="int" name="EXXOEP">     0</i>
   <i type="int" name="FOURORBIT">     0</i>
   <i name="AEXX">      0.00000000</i>
   <i name="HFALPHA">      0.00000000</i>
   <i name="ALDAX">      1.00000000</i>
   <i name="AGGAX">      1.00000000</i>
   <i name="ALDAC">      1.00000000</i>
   <i name="AGGAC">      1.00000000</i>
   <i type="int" name="NKREDX">     1</i>
   <i type="int" name="NKREDY">     1</i>
   <i type="int" name="NKREDZ">     1</i>
   <i type="logical" name="SHIFTRED"> F  </i>
   <i type="logical" name="ODDONLY"> F  </i>
   <i type="logical" name="EVENONLY"> F  </i>
   <i type="int" name="LMAXFOCK">     0</i>
   <i type="int" name="NMAXFOCKAE">     0</i>
   <i type="logical" name="LFOCKAEDFT"> F  </i>
   <i name="HFSCREEN">      0.00000000</i>
   <i name="HFSCREENC">      0.00000000</i>
  </separator>
  <separator name="vdW DFT" >
   <i type="logical" name="LUSE_VDW"> F  </i>
   <i name="Zab_VDW">     -0.84910000</i>
   <i name="PARAM1">      0.12340000</i>
   <i name="PARAM2">      1.00000000</i>
   <i name="PARAM3">      0.00000000</i>
  </separator>
  <separator name="model GW" >
   <i type="int" name="MODEL_GW">     0</i>
   <i name="MODEL_EPS0">    300.00000000</i>
   <i name="MODEL_ALPHA">      1.00000000</i>
  </separator>
  <separator name="linear response parameters" >
   <i type="logical" name="LEPSILON"> F  </i>
   <i type="logical" name="LRPA"> F  </i>
   <i type="logical" name="LNABLA"> F  </i>
   <i type="logical" name="LVEL"> F  </i>
   <i type="int" name="KINTER">     0</i>
   <i name="CSHIFT">      0.10000000</i>
   <i name="OMEGAMAX">     -1.00000000</i>
  </separator>
  <separator name="orbital magnetization" >
   <i type="logical" name="NUCIND"> F  </i>
   <v name="MAGPOS">      0.00000000      0.00000000      0.00000000</v>
   <i type="logical" name="LNICSALL"> T  </i>
   <i type="logical" name="ORBITALMAG"> F  </i>
   <i type="logical" name="LMAGBLOCH"> F  </i>
   <i type="logical" name="LCHIMAG"> F  </i>
   <i type="logical" name="LGAUGE"> T  </i>
   <i type="int" name="MAGATOM">     0</i>
   <v name="MAGDIPOL">      0.00000000      0.00000000      0.00000000</v>
   <v name="AVECCONST">      0.00000000      0.00000000      0.00000000</v>
  </separator>
  <separator name="response functions" >
   <i type="logical" name="LADDER"> F  </i>
   <i type="logical" name="LHARTREE"> T  </i>
   <i type="int" name="IBSE">     0</i>
   <i type="logical" name="LTCTE"> F  </i>
   <i type="logical" name="LTETE"> F  </i>
   <i type="logical" name="LFXCEPS"> F  </i>
   <i type="logical" name="L2ORDER"> F  </i>
   <i type="logical" name="LUSEW"> F  </i>
   <i name="ENCUTGW">     -2.00000000</i>
   <i name="ENCUTGWSOFT">     -2.00000000</i>
   <i name="ENCUTLF">     -1.00000000</i>
   <i type="int" name="LMAXMP2">    -1</i>
   <i name="SCISSOR">      0.00000000</i>
   <i type="int" name="NOMEGA">     0</i>
   <i type="int" name="NOMEGAR">     0</i>
   <i type="int" name="NBANDSGW">    -1</i>
   <i type="int" name="NBANDSO">    -1</i>
   <i type="int" name="NBANDSV">    -1</i>
   <i name="OPTEMAX">      0.00000000</i>
   <i type="int" name="NELM">     1</i>
   <i type="int" name="DIM">     3</i>
   <i type="int" name="ANTIRES">     0</i>
   <i name="OMEGAMAX">    -30.00000000</i>
   <i name="OMEGATL">   -200.00000000</i>
   <i type="int" name="OMEGAGRID">     0</i>
   <i name="CSHIFT">     -0.10000000</i>
   <i type="logical" name="SELFENERGY"> F  </i>
   <i type="logical" name="LSPECTRAL"> F  </i>
   <i type="logical" name="ODDONLYGW"> F  </i>
   <i type="logical" name="EVENONLYGW"> F  </i>
   <i type="int" name="NKREDLFX">     1</i>
   <i type="int" name="NKREDLFY">     1</i>
   <i type="int" name="NKREDLFZ">     1</i>
   <i type="int" name="MAXMEM">  1800</i>
   <i type="int" name="TELESCOPE">     0</i>
  </separator>
 </parameters>
 <atominfo>
  <atoms>       2 </atoms>
  <types>       2 </types>
  <array name="atoms" >
   <dimension dim="1">ion</dimension>
   <field type="string">element</field>
   <field type="int">atomtype</field>
   <set>
    <rc><c>C </c><c>   1</c></rc>
    <rc><c>O </c><c>   2</c></rc>
   </set>
  </array>
  <array name="atomtypes" >
   <dimension dim="1">type</dimension>
   <field type="int">atomspertype</field>
   <field type="string">element</field>
   <field>mass</field>
   <field>valence</field>
   <field type="string">pseudopotential</field>
   <set>
    <rc><c>   1</c><c>C </c><c>     12.01100000</c><c>      4.00000000</c><c> PAW_PBE C 08Apr2002                    </c></rc>
    <rc><c>   1</c><c>O </c><c>     16.00000000</c><c>      6.00000000</c><c> PAW_PBE O 08Apr2002                    </c></rc>
   </set>
  </array>
 </atominfo>
 <structure name="initialpos" >
  <crystal>
   <varray name="basis" >
    <v>      10.00000000       0.00000000       0.00000000 </v>
    <v>       0.00000000      10.00000000       0.00000000 </v>
    <v>       0.00000000       0.00000000      10.00000000 </v>
   </varray>
   <i name="volume">   1000.00000000 </i>
   <varray name="rec_basis" >
    <v>       0.10000000       0.00000000       0.00000000 </v>
    <v>       0.00000000       0.10000000       0.00000000 </v>
    <v>       0.00000000       0.00000000       0.10000000 </v>
   </varray>
  </crystal>
  <varray name="positions" >
   <v>       0.44283291       0.50000000       0.50000000 </v>
   <v>       0.55716709       0.50000000       0.50000000 </v>
  </varray>
 </structure>
 <calculation>
  <scstep>
   <time name="dav">    5.76    7.34</time>
   <time name="total">   14.51   18.22</time>
   <energy>
    <i name="alphaZ">      0.43525486 </i>
    <i name="ewald">     98.94953463 </i>
    <i name="hartreedc">   -560.51831678 </i>
    <i name="XCdc">     39.84674178 </i>
    <i name="pawpsdc">    283.82984571 </i>
    <i name="pawaedc">   -286.83001101 </i>
    <i name="eentropy">      0.00289895 </i>
    <i name="bandstr">    -80.01359671 </i>
    <i name="atom">    579.50485627 </i>
    <i name="e_fr_energy">     75.20720769 </i>
    <i name="e_wo_entrp">     75.20430874 </i>
    <i name="e_0_energy">     75.20624137 </i>
   </energy>
  </scstep>
  <scstep>
   <time name="dav">    7.51    9.02</time>
   <time name="total">    7.51    9.03</time>
   <energy>
    <i name="e_fr_energy">     -6.99626306 </i>
    <i name="e_wo_entrp">     -6.99916201 </i>
    <i name="e_0_energy">     -6.99722938 </i>
   </energy>
  </scstep>
  <scstep>
   <time name="dav">    6.45    8.76</time>
   <time name="total">    6.45    8.77</time>
   <energy>
    <i name="e_fr_energy">    -15.54138040 </i>
    <i name="e_wo_entrp">    -15.54427935 </i>
    <i name="e_0_energy">    -15.54234672 </i>
   </energy>
  </scstep>
  <scstep>
   <time name="dav">    6.47    8.00</time>
   <time name="total">    6.48    8.15</time>
   <energy>
    <i name="e_fr_energy">    -15.59326038 </i>
    <i name="e_wo_entrp">    -15.59615933 </i>
    <i name="e_0_energy">    -15.59422670 </i>
   </energy>
  </scstep>
  <scstep>
   <time name="dav">    6.58    8.22</time>
   <time name="total">    8.07   10.47</time>
   <energy>
    <i name="e_fr_energy">    -15.59329610 </i>
    <i name="e_wo_entrp">    -15.59619506 </i>
    <i name="e_0_energy">    -15.59426242 </i>
   </energy>
  </scstep>
  <scstep>
   <time name="dav">    4.61    6.19</time>
   <time name="total">   16.00   20.58</time>
   <energy>
    <i name="e_fr_energy">    -14.93552422 </i>
    <i name="e_wo_entrp">    -14.93842317 </i>
    <i name="e_0_energy">    -14.93649053 </i>
   </energy>
  </scstep>
  <scstep>
   <time name="dav">    5.29    5.51</time>
   <time name="total">   16.35   18.87</time>
   <energy>
    <i name="e_fr_energy">    -14.80468289 </i>
    <i name="e_wo_entrp">    -14.80758184 </i>
    <i name="e_0_energy">    -14.80564921 </i>
   </energy>
  </scstep>
  <scstep>
   <time name="dav">    3.70    4.36</time>
   <time name="total">   14.19   16.81</time>
   <energy>
    <i name="e_fr_energy">    -14.76592540 </i>
    <i name="e_wo_entrp">    -14.76882435 </i>
    <i name="e_0_energy">    -14.76689172 </i>
   </energy>
  </scstep>
  <scstep>
   <time name="dav">    4.81    6.58</time>
   <time name="total">   15.62   21.24</time>
   <energy>
    <i name="e_fr_energy">    -14.76509325 </i>
    <i name="e_wo_entrp">    -14.76799220 </i>
    <i name="e_0_energy">    -14.76605956 </i>
   </energy>
  </scstep>
  <scstep>
   <time name="dav">    4.49    5.45</time>
   <time name="total">   15.96   20.39</time>
   <energy>
    <i name="e_fr_energy">    -14.76584849 </i>
    <i name="e_wo_entrp">    -14.76874744 </i>
    <i name="e_0_energy">    -14.76681481 </i>
   </energy>
  </scstep>
  <scstep>
   <time name="dav">    3.59    4.46</time>
   <time name="total">   14.14   17.25</time>
   <energy>
    <i name="e_fr_energy">    -14.76754493 </i>
    <i name="e_wo_entrp">    -14.77044388 </i>
    <i name="e_0_energy">    -14.76851125 </i>
   </energy>
  </scstep>
  <scstep>
   <time name="dav">    4.05    5.60</time>
   <time name="total">   14.98   20.88</time>
   <energy>
    <i name="e_fr_energy">    -14.76823127 </i>
    <i name="e_wo_entrp">    -14.77113023 </i>
    <i name="e_0_energy">    -14.76919759 </i>
   </energy>
  </scstep>
  <scstep>
   <time name="dav">    3.97    4.84</time>
   <time name="total">   14.70   20.59</time>
   <energy>
    <i name="e_fr_energy">    -14.76932151 </i>
    <i name="e_wo_entrp">    -14.77222047 </i>
    <i name="e_0_energy">    -14.77028783 </i>
   </energy>
  </scstep>
  <scstep>
   <time name="dav">    4.34    5.82</time>
   <time name="total">   14.88   18.57</time>
   <energy>
    <i name="e_fr_energy">    -14.76961935 </i>
    <i name="e_wo_entrp">    -14.77251831 </i>
    <i name="e_0_energy">    -14.77058567 </i>
   </energy>
  </scstep>
  <scstep>
   <time name="dav">    4.17    5.34</time>
   <time name="total">   14.99   18.51</time>
   <energy>
    <i name="e_fr_energy">    -14.76981099 </i>
    <i name="e_wo_entrp">    -14.77270994 </i>
    <i name="e_0_energy">    -14.77077731 </i>
   </energy>
  </scstep>
  <scstep>
   <time name="dav">    4.76    6.40</time>
   <time name="total">   13.54   20.38</time>
   <energy>
    <i name="alphaZ">      0.43525486 </i>
    <i name="ewald">     98.94953463 </i>
    <i name="hartreedc">   -581.30266858 </i>
    <i name="XCdc">     41.06927953 </i>
    <i name="pawpsdc">    372.98211402 </i>
    <i name="pawaedc">   -376.12369358 </i>
    <i name="eentropy">      0.00289895 </i>
    <i name="bandstr">   -150.28742617 </i>
    <i name="atom">    579.50485627 </i>
    <i name="e_fr_energy">    -14.76985006 </i>
    <i name="e_wo_entrp">    -14.77274902 </i>
    <i name="e_0_energy">    -14.77081638 </i>
   </energy>
  </scstep>
  <parameters_embedded>
   <separator name="dft+d2" >
    <i type="logical" name="LVDW"> F  </i>
   </separator>
  </parameters_embedded>
  <structure>
   <crystal>
    <varray name="basis" >
     <v>      10.00000000       0.00000000       0.00000000 </v>
     <v>       0.00000000      10.00000000       0.00000000 </v>
     <v>       0.00000000       0.00000000      10.00000000 </v>
    </varray>
    <i name="volume">   1000.00000000 </i>
    <varray name="rec_basis" >
     <v>       0.10000000       0.00000000       0.00000000 </v>
     <v>       0.00000000       0.10000000       0.00000000 </v>
     <v>       0.00000000       0.00000000       0.10000000 </v>
    </varray>
   </crystal>
   <varray name="positions" >
    <v>       0.44283291       0.50000000       0.50000000 </v>
    <v>       0.55716709       0.50000000       0.50000000 </v>
   </varray>
  </structure>
  <varray name="forces" >
   <v>       0.00424830       0.00000000       0.00000000 </v>
   <v>      -0.00424830       0.00000000       0.00000000 </v>
  </varray>
  <varray name="stress" >
   <v>      -0.10057251       0.00000000       0.00000000 </v>
   <v>       0.00000000      -0.08089302       0.00000000 </v>
   <v>       0.00000000       0.00000000      -0.08089302 </v>
  </varray>
  <energy>
   <i name="e_fr_energy">    -14.76985006 </i>
   <i name="e_wo_entrp">    -14.77081638 </i>
   <i name="e_0_energy">      0.00289895 </i>
  </energy>
  <time name="totalsc">  230.77  297.35</time>
  <eigenvalues>
   <array>
    <dimension dim="1">band</dimension>
    <dimension dim="2">kpoint</dimension>
    <dimension dim="3">spin</dimension>
    <field>eigene</field>
    <field>occ</field>
    <set>
     <set comment="spin 1">
      <set comment="kpoint 1">
       <r>  -29.1192    1.0000 </r>
       <r>  -13.9060    1.0000 </r>
       <r>  -11.6043    1.0000 </r>
       <r>  -11.6043    1.0000 </r>
       <r>   -8.9100    1.0000 </r>
       <r>   -2.0192    0.0000 </r>
       <r>   -2.0192    0.0000 </r>
       <r>   -0.1984    0.0000 </r>
       <r>    1.0667    0.0000 </r>
      </set>
     </set>
    </set>
   </array>
  </eigenvalues>
  <separator name="orbital magnetization" >
   <v name="MAGDIPOLOUT">      0.00000000      0.00000000      0.00000000</v>
  </separator>
  <dos>
   <i name="efermi">     -8.86787211 </i>
   <total>
    <array>
     <dimension dim="1">gridpoints</dimension>
     <dimension dim="2">spin</dimension>
     <field>energy</field>
     <field>total</field>
     <field>integrated</field>
     <set>
      <set comment="spin 1">
       <r>   -30.6285     0.0000     0.0000 </r>
       <r>   -30.5178     0.0000     0.0000 </r>
       <r>   -30.4071     0.0000     0.0000 </r>
       <r>   -30.2964     0.0000     0.0000 </r>
       <r>   -30.1857     0.0000     0.0000 </r>
       <r>   -30.0751     0.0000     0.0000 </r>
       <r>   -29.9644     0.0000     0.0000 </r>
       <r>   -29.8537     0.0000     0.0000 </r>
       <r>   -29.7430     0.0000     0.0000 </r>
       <r>   -29.6323     0.0000     0.0000 </r>
       <r>   -29.5216     0.0000     0.0000 </r>
       <r>   -29.4110     0.0000     0.0000 </r>
       <r>   -29.3003     0.0000     0.0000 </r>
       <r>   -29.1896    -0.5683    -0.0629 </r>
       <r>   -29.0789    18.4811     1.9826 </r>
       <r>   -28.9682     0.1586     2.0002 </r>
       <r>   -28.8576    -0.0015     2.0000 </r>
       <r>   -28.7469     0.0000     2.0000 </r>
       <r>   -28.6362     0.0000     2.0000 </r>
       <r>   -28.5255     0.0000     2.0000 </r>
       <r>   -28.4148     0.0000     2.0000 </r>
       <r>   -28.3041     0.0000     2.0000 </r>
       <r>   -28.1935     0.0000     2.0000 </r>
       <r>   -28.0828     0.0000     2.0000 </r>
       <r>   -27.9721     0.0000     2.0000 </r>
       <r>   -27.8614     0.0000     2.0000 </r>
       <r>   -27.7507     0.0000     2.0000 </r>
       <r>   -27.6401     0.0000     2.0000 </r>
       <r>   -27.5294     0.0000     2.0000 </r>
       <r>   -27.4187     0.0000     2.0000 </r>
       <r>   -27.3080     0.0000     2.0000 </r>
       <r>   -27.1973     0.0000     2.0000 </r>
       <r>   -27.0867     0.0000     2.0000 </r>
       <r>   -26.9760     0.0000     2.0000 </r>
       <r>   -26.8653     0.0000     2.0000 </r>
       <r>   -26.7546     0.0000     2.0000 </r>
       <r>   -26.6439     0.0000     2.0000 </r>
       <r>   -26.5332     0.0000     2.0000 </r>
       <r>   -26.4226     0.0000     2.0000 </r>
       <r>   -26.3119     0.0000     2.0000 </r>
       <r>   -26.2012     0.0000     2.0000 </r>
       <r>   -26.0905     0.0000     2.0000 </r>
       <r>   -25.9798     0.0000     2.0000 </r>
       <r>   -25.8692     0.0000     2.0000 </r>
       <r>   -25.7585     0.0000     2.0000 </r>
       <r>   -25.6478     0.0000     2.0000 </r>
       <r>   -25.5371     0.0000     2.0000 </r>
       <r>   -25.4264     0.0000     2.0000 </r>
       <r>   -25.3157     0.0000     2.0000 </r>
       <r>   -25.2051     0.0000     2.0000 </r>
       <r>   -25.0944     0.0000     2.0000 </r>
       <r>   -24.9837     0.0000     2.0000 </r>
       <r>   -24.8730     0.0000     2.0000 </r>
       <r>   -24.7623     0.0000     2.0000 </r>
       <r>   -24.6517     0.0000     2.0000 </r>
       <r>   -24.5410     0.0000     2.0000 </r>
       <r>   -24.4303     0.0000     2.0000 </r>
       <r>   -24.3196     0.0000     2.0000 </r>
       <r>   -24.2089     0.0000     2.0000 </r>
       <r>   -24.0983     0.0000     2.0000 </r>
       <r>   -23.9876     0.0000     2.0000 </r>
       <r>   -23.8769     0.0000     2.0000 </r>
       <r>   -23.7662     0.0000     2.0000 </r>
       <r>   -23.6555     0.0000     2.0000 </r>
       <r>   -23.5448     0.0000     2.0000 </r>
       <r>   -23.4342     0.0000     2.0000 </r>
       <r>   -23.3235     0.0000     2.0000 </r>
       <r>   -23.2128     0.0000     2.0000 </r>
       <r>   -23.1021     0.0000     2.0000 </r>
       <r>   -22.9914     0.0000     2.0000 </r>
       <r>   -22.8808     0.0000     2.0000 </r>
       <r>   -22.7701     0.0000     2.0000 </r>
       <r>   -22.6594     0.0000     2.0000 </r>
       <r>   -22.5487     0.0000     2.0000 </r>
       <r>   -22.4380     0.0000     2.0000 </r>
       <r>   -22.3273     0.0000     2.0000 </r>
       <r>   -22.2167     0.0000     2.0000 </r>
       <r>   -22.1060     0.0000     2.0000 </r>
       <r>   -21.9953     0.0000     2.0000 </r>
       <r>   -21.8846     0.0000     2.0000 </r>
       <r>   -21.7739     0.0000     2.0000 </r>
       <r>   -21.6633     0.0000     2.0000 </r>
       <r>   -21.5526     0.0000     2.0000 </r>
       <r>   -21.4419     0.0000     2.0000 </r>
       <r>   -21.3312     0.0000     2.0000 </r>
       <r>   -21.2205     0.0000     2.0000 </r>
       <r>   -21.1099     0.0000     2.0000 </r>
       <r>   -20.9992     0.0000     2.0000 </r>
       <r>   -20.8885     0.0000     2.0000 </r>
       <r>   -20.7778     0.0000     2.0000 </r>
       <r>   -20.6671     0.0000     2.0000 </r>
       <r>   -20.5564     0.0000     2.0000 </r>
       <r>   -20.4458     0.0000     2.0000 </r>
       <r>   -20.3351     0.0000     2.0000 </r>
       <r>   -20.2244     0.0000     2.0000 </r>
       <r>   -20.1137     0.0000     2.0000 </r>
       <r>   -20.0030     0.0000     2.0000 </r>
       <r>   -19.8924     0.0000     2.0000 </r>
       <r>   -19.7817     0.0000     2.0000 </r>
       <r>   -19.6710     0.0000     2.0000 </r>
       <r>   -19.5603     0.0000     2.0000 </r>
       <r>   -19.4496     0.0000     2.0000 </r>
       <r>   -19.3390     0.0000     2.0000 </r>
       <r>   -19.2283     0.0000     2.0000 </r>
       <r>   -19.1176     0.0000     2.0000 </r>
       <r>   -19.0069     0.0000     2.0000 </r>
       <r>   -18.8962     0.0000     2.0000 </r>
       <r>   -18.7855     0.0000     2.0000 </r>
       <r>   -18.6749     0.0000     2.0000 </r>
       <r>   -18.5642     0.0000     2.0000 </r>
       <r>   -18.4535     0.0000     2.0000 </r>
       <r>   -18.3428     0.0000     2.0000 </r>
       <r>   -18.2321     0.0000     2.0000 </r>
       <r>   -18.1215     0.0000     2.0000 </r>
       <r>   -18.0108     0.0000     2.0000 </r>
       <r>   -17.9001     0.0000     2.0000 </r>
       <r>   -17.7894     0.0000     2.0000 </r>
       <r>   -17.6787     0.0000     2.0000 </r>
       <r>   -17.5680     0.0000     2.0000 </r>
       <r>   -17.4574     0.0000     2.0000 </r>
       <r>   -17.3467     0.0000     2.0000 </r>
       <r>   -17.2360     0.0000     2.0000 </r>
       <r>   -17.1253     0.0000     2.0000 </r>
       <r>   -17.0146     0.0000     2.0000 </r>
       <r>   -16.9040     0.0000     2.0000 </r>
       <r>   -16.7933     0.0000     2.0000 </r>
       <r>   -16.6826     0.0000     2.0000 </r>
       <r>   -16.5719     0.0000     2.0000 </r>
       <r>   -16.4612     0.0000     2.0000 </r>
       <r>   -16.3506     0.0000     2.0000 </r>
       <r>   -16.2399     0.0000     2.0000 </r>
       <r>   -16.1292     0.0000     2.0000 </r>
       <r>   -16.0185     0.0000     2.0000 </r>
       <r>   -15.9078     0.0000     2.0000 </r>
       <r>   -15.7971     0.0000     2.0000 </r>
       <r>   -15.6865     0.0000     2.0000 </r>
       <r>   -15.5758     0.0000     2.0000 </r>
       <r>   -15.4651     0.0000     2.0000 </r>
       <r>   -15.3544     0.0000     2.0000 </r>
       <r>   -15.2437     0.0000     2.0000 </r>
       <r>   -15.1331     0.0000     2.0000 </r>
       <r>   -15.0224     0.0000     2.0000 </r>
       <r>   -14.9117     0.0000     2.0000 </r>
       <r>   -14.8010     0.0000     2.0000 </r>
       <r>   -14.6903     0.0000     2.0000 </r>
       <r>   -14.5796     0.0000     2.0000 </r>
       <r>   -14.4690     0.0000     2.0000 </r>
       <r>   -14.3583     0.0000     2.0000 </r>
       <r>   -14.2476     0.0000     2.0000 </r>
       <r>   -14.1369     0.0000     2.0000 </r>
       <r>   -14.0262    -0.0316     1.9965 </r>
       <r>   -13.9156     6.1961     2.6823 </r>
       <r>   -13.8049    12.0398     4.0149 </r>
       <r>   -13.6942    -0.1344     4.0000 </r>
       <r>   -13.5835     0.0000     4.0000 </r>
       <r>   -13.4728     0.0000     4.0000 </r>
       <r>   -13.3622     0.0000     4.0000 </r>
       <r>   -13.2515     0.0000     4.0000 </r>
       <r>   -13.1408     0.0000     4.0000 </r>
       <r>   -13.0301     0.0000     4.0000 </r>
       <r>   -12.9194     0.0000     4.0000 </r>
       <r>   -12.8087     0.0000     4.0000 </r>
       <r>   -12.6981     0.0000     4.0000 </r>
       <r>   -12.5874     0.0000     4.0000 </r>
       <r>   -12.4767     0.0000     4.0000 </r>
       <r>   -12.3660     0.0000     4.0000 </r>
       <r>   -12.2553     0.0000     4.0000 </r>
       <r>   -12.1447     0.0000     4.0000 </r>
       <r>   -12.0340     0.0000     4.0000 </r>
       <r>   -11.9233     0.0000     4.0000 </r>
       <r>   -11.8126     0.0000     4.0000 </r>
       <r>   -11.7019    -0.3357     3.9628 </r>
       <r>   -11.5912    26.0951     6.8511 </r>
       <r>   -11.4806    10.4272     8.0052 </r>
       <r>   -11.3699    -0.0468     8.0000 </r>
       <r>   -11.2592     0.0000     8.0000 </r>
       <r>   -11.1485     0.0000     8.0000 </r>
       <r>   -11.0378     0.0000     8.0000 </r>
       <r>   -10.9272     0.0000     8.0000 </r>
       <r>   -10.8165     0.0000     8.0000 </r>
       <r>   -10.7058     0.0000     8.0000 </r>
       <r>   -10.5951     0.0000     8.0000 </r>
       <r>   -10.4844     0.0000     8.0000 </r>
       <r>   -10.3738     0.0000     8.0000 </r>
       <r>   -10.2631     0.0000     8.0000 </r>
       <r>   -10.1524     0.0000     8.0000 </r>
       <r>   -10.0417     0.0000     8.0000 </r>
       <r>    -9.9310     0.0000     8.0000 </r>
       <r>    -9.8203     0.0000     8.0000 </r>
       <r>    -9.7097     0.0000     8.0000 </r>
       <r>    -9.5990     0.0000     8.0000 </r>
       <r>    -9.4883     0.0000     8.0000 </r>
       <r>    -9.3776     0.0000     8.0000 </r>
       <r>    -9.2669     0.0000     8.0000 </r>
       <r>    -9.1563     0.0000     8.0000 </r>
       <r>    -9.0456    -0.0077     7.9991 </r>
       <r>    -8.9349     2.3695     8.2614 </r>
       <r>    -8.8242    16.0314    10.0358 </r>
       <r>    -8.7135    -0.3234    10.0000 </r>
       <r>    -8.6028     0.0000    10.0000 </r>
       <r>    -8.4922     0.0000    10.0000 </r>
       <r>    -8.3815     0.0000    10.0000 </r>
       <r>    -8.2708     0.0000    10.0000 </r>
       <r>    -8.1601     0.0000    10.0000 </r>
       <r>    -8.0494     0.0000    10.0000 </r>
       <r>    -7.9388     0.0000    10.0000 </r>
       <r>    -7.8281     0.0000    10.0000 </r>
       <r>    -7.7174     0.0000    10.0000 </r>
       <r>    -7.6067     0.0000    10.0000 </r>
       <r>    -7.4960     0.0000    10.0000 </r>
       <r>    -7.3854     0.0000    10.0000 </r>
       <r>    -7.2747     0.0000    10.0000 </r>
       <r>    -7.1640     0.0000    10.0000 </r>
       <r>    -7.0533     0.0000    10.0000 </r>
       <r>    -6.9426     0.0000    10.0000 </r>
       <r>    -6.8319     0.0000    10.0000 </r>
       <r>    -6.7213     0.0000    10.0000 </r>
       <r>    -6.6106     0.0000    10.0000 </r>
       <r>    -6.4999     0.0000    10.0000 </r>
       <r>    -6.3892     0.0000    10.0000 </r>
       <r>    -6.2785     0.0000    10.0000 </r>
       <r>    -6.1679     0.0000    10.0000 </r>
       <r>    -6.0572     0.0000    10.0000 </r>
       <r>    -5.9465     0.0000    10.0000 </r>
       <r>    -5.8358     0.0000    10.0000 </r>
       <r>    -5.7251     0.0000    10.0000 </r>
       <r>    -5.6144     0.0000    10.0000 </r>
       <r>    -5.5038     0.0000    10.0000 </r>
       <r>    -5.3931     0.0000    10.0000 </r>
       <r>    -5.2824     0.0000    10.0000 </r>
       <r>    -5.1717     0.0000    10.0000 </r>
       <r>    -5.0610     0.0000    10.0000 </r>
       <r>    -4.9504     0.0000    10.0000 </r>
       <r>    -4.8397     0.0000    10.0000 </r>
       <r>    -4.7290     0.0000    10.0000 </r>
       <r>    -4.6183     0.0000    10.0000 </r>
       <r>    -4.5076     0.0000    10.0000 </r>
       <r>    -4.3970     0.0000    10.0000 </r>
       <r>    -4.2863     0.0000    10.0000 </r>
       <r>    -4.1756     0.0000    10.0000 </r>
       <r>    -4.0649     0.0000    10.0000 </r>
       <r>    -3.9542     0.0000    10.0000 </r>
       <r>    -3.8435     0.0000    10.0000 </r>
       <r>    -3.7329     0.0000    10.0000 </r>
       <r>    -3.6222     0.0000    10.0000 </r>
       <r>    -3.5115     0.0000    10.0000 </r>
       <r>    -3.4008     0.0000    10.0000 </r>
       <r>    -3.2901     0.0000    10.0000 </r>
       <r>    -3.1795     0.0000    10.0000 </r>
       <r>    -3.0688     0.0000    10.0000 </r>
       <r>    -2.9581     0.0000    10.0000 </r>
       <r>    -2.8474     0.0000    10.0000 </r>
       <r>    -2.7367     0.0000    10.0000 </r>
       <r>    -2.6261     0.0000    10.0000 </r>
       <r>    -2.5154     0.0000    10.0000 </r>
       <r>    -2.4047     0.0000    10.0000 </r>
       <r>    -2.2940     0.0000    10.0000 </r>
       <r>    -2.1833    -0.0006     9.9999 </r>
       <r>    -2.0726    -1.1138     9.8767 </r>
       <r>    -1.9620    38.4966    14.1375 </r>
       <r>    -1.8513    -1.2421    14.0000 </r>
       <r>    -1.7406    -0.0004    14.0000 </r>
       <r>    -1.6299     0.0000    14.0000 </r>
       <r>    -1.5192     0.0000    14.0000 </r>
       <r>    -1.4086     0.0000    14.0000 </r>
       <r>    -1.2979     0.0000    14.0000 </r>
       <r>    -1.1872     0.0000    14.0000 </r>
       <r>    -1.0765     0.0000    14.0000 </r>
       <r>    -0.9658     0.0000    14.0000 </r>
       <r>    -0.8551     0.0000    14.0000 </r>
       <r>    -0.7445     0.0000    14.0000 </r>
       <r>    -0.6338     0.0000    14.0000 </r>
       <r>    -0.5231     0.0000    14.0000 </r>
       <r>    -0.4124     0.0000    14.0000 </r>
       <r>    -0.3017    -0.1160    13.9872 </r>
       <r>    -0.1911    11.3816    15.2469 </r>
       <r>    -0.0804     6.8423    16.0042 </r>
       <r>     0.0303    -0.0380    16.0000 </r>
       <r>     0.1410     0.0000    16.0000 </r>
       <r>     0.2517     0.0000    16.0000 </r>
       <r>     0.3623     0.0000    16.0000 </r>
       <r>     0.4730     0.0000    16.0000 </r>
       <r>     0.5837     0.0000    16.0000 </r>
       <r>     0.6944     0.0000    16.0000 </r>
       <r>     0.8051     0.0000    16.0000 </r>
       <r>     0.9158    -0.0015    15.9998 </r>
       <r>     1.0264     0.1586    16.0174 </r>
       <r>     1.1371    18.4811    18.0629 </r>
       <r>     1.2478    -0.5683    18.0000 </r>
       <r>     1.3585     0.0000    18.0000 </r>
       <r>     1.4692     0.0000    18.0000 </r>
       <r>     1.5798     0.0000    18.0000 </r>
       <r>     1.6905     0.0000    18.0000 </r>
       <r>     1.8012     0.0000    18.0000 </r>
       <r>     1.9119     0.0000    18.0000 </r>
       <r>     2.0226     0.0000    18.0000 </r>
       <r>     2.1333     0.0000    18.0000 </r>
       <r>     2.2439     0.0000    18.0000 </r>
       <r>     2.3546     0.0000    18.0000 </r>
       <r>     2.4653     0.0000    18.0000 </r>
       <r>     2.5760     0.0000    18.0000 </r>
      </set>
     </set>
    </array>
   </total>
  </dos>
 </calculation>
 <structure name="finalpos" >
  <crystal>
   <varray name="basis" >
    <v>      10.00000000       0.00000000       0.00000000 </v>
    <v>       0.00000000      10.00000000       0.00000000 </v>
    <v>       0.00000000       0.00000000      10.00000000 </v>
   </varray>
   <i name="volume">   1000.00000000 </i>
   <varray name="rec_basis" >
    <v>       0.10000000       0.00000000       0.00000000 </v>
    <v>       0.00000000       0.10000000       0.00000000 </v>
    <v>       0.00000000       0.00000000       0.10000000 </v>
   </varray>
  </crystal>
  <varray name="positions" >
   <v>       0.44283291       0.50000000       0.50000000 </v>
   <v>       0.55716709       0.50000000       0.50000000 </v>
  </varray>
 </structure>
</modeling>
