 vasp.5.2.12 11Nov11 complex                                                    
  
 executed on             LinuxIFC date 2012.10.17  13:22:13
 running on    1 nodes
 distr:  one band on    1 nodes,    1 groups


--------------------------------------------------------------------------------------------------------


 INCAR:
 POTCAR:   PAW_PBE C 08Apr2002                    
 POTCAR:    PAW_PBE Ta 17Jan2003                  
 POTCAR:   PAW_PBE C 08Apr2002                    
   VRHFIN =C: s2p2                                                              
   LEXCH  = PE                                                                  
   EATOM  =   147.1560 eV,   10.8157 Ry                                         
                                                                                
   TITEL  = PAW_PBE C 08Apr2002                                                 
   LULTRA =        F    use ultrasoft PP ?                                      
   IUNSCR =        0    unscreen: 0-lin 1-nonlin 2-no                           
   RPACOR =     .000    partial core radius                                     
   POMASS =   12.011; ZVAL   =    4.000    mass and valenz                      
   RCORE  =    1.500    outmost cutoff radius                                   
   RWIGS  =    1.630; RWIGS  =     .863    wigner-seitz radius (au A)           
   ENMAX  =  400.000; ENMIN  =  300.000 eV                                      
   ICORE  =        2    local potential                                         
   LCOR   =        T    correct aug charges                                     
   LPAW   =        T    paw PP                                                  
   EAUG   =  644.873                                                            
   DEXC   =     .000                                                            
   RMAX   =    2.266    core radius for proj-oper                               
   RAUG   =    1.300    factor for augmentation sphere                          
   RDEP   =    1.501    radius for radial grids                                 
   RDEPT  =    1.300    core radius for aug-charge                              
   QCUT   =   -5.516; QGAM   =   11.032    optimization parameters              
                                                                                
   Description                                                                  
     l     E      TYP  RCUT    TYP  RCUT                                        
     0   .000     23  1.200                                                     
     0   .000     23  1.200                                                     
     1   .000     23  1.500                                                     
     1  2.500     23  1.500                                                     
     2   .000      7  1.500                                                     
  local pseudopotential read in
  atomic valenz-charges read in
  non local Contribution for L=           0  read in
    real space projection operators read in
  non local Contribution for L=           0  read in
    real space projection operators read in
  non local Contribution for L=           1  read in
    real space projection operators read in
  non local Contribution for L=           1  read in
    real space projection operators read in
    PAW grid and wavefunctions read in
 
   number of l-projection  operators is LMAX  =           4
   number of lm-projection operators is LMMAX =           8
 
 POTCAR:    PAW_PBE Ta 17Jan2003                  
   VRHFIN =Ta:  6s5d                                                            
   LEXCH  = PE                                                                  
   EATOM  =   130.6506 eV,    9.6025 Ry                                         
                                                                                
   TITEL  = PAW_PBE Ta 17Jan2003                                                
   LULTRA =        F    use ultrasoft PP ?                                      
   IUNSCR =        1    unscreen: 0-lin 1-nonlin 2-no                           
   RPACOR =    2.330    partial core radius                                     
   POMASS =  180.948; ZVAL   =    5.000    mass and valenz                      
   RCORE  =    2.900    outmost cutoff radius                                   
   RWIGS  =    2.840; RWIGS  =    1.503    wigner-seitz radius (au A)           
   ENMAX  =  223.667; ENMIN  =  167.750 eV                                      
   RCLOC  =    2.205    cutoff for local pot                                    
   LCOR   =        T    correct aug charges                                     
   LPAW   =        T    paw PP                                                  
   EAUG   =  332.075                                                            
   DEXC   =    -.049                                                            
   RMAX   =    3.083    core radius for proj-oper                               
   RAUG   =    1.300    factor for augmentation sphere                          
   RDEP   =    3.060    radius for radial grids                                 
   QCUT   =   -4.055; QGAM   =    8.109    optimization parameters              
                                                                                
   Description                                                                  
     l     E      TYP  RCUT    TYP  RCUT                                        
     2   .000     23  2.500                                                     
     2   .000     23  2.500                                                     
     0   .000     23  2.500                                                     
     0   .000     23  2.500                                                     
     1   .000     23  2.900                                                     
     1  2.000     23  2.900                                                     
     3   .000      7   .000                                                     
  local pseudopotential read in
  partial core-charges read in
  atomic valenz-charges read in
  non local Contribution for L=           2  read in
    real space projection operators read in
  non local Contribution for L=           2  read in
    real space projection operators read in
  non local Contribution for L=           0  read in
    real space projection operators read in
  non local Contribution for L=           0  read in
    real space projection operators read in
  non local Contribution for L=           1  read in
    real space projection operators read in
  non local Contribution for L=           1  read in
    real space projection operators read in
    PAW grid and wavefunctions read in
 
   number of l-projection  operators is LMAX  =           6
   number of lm-projection operators is LMMAX =          18
 
 PAW_PBE C 08Apr2002                    :
 energy of atom  1       EATOM= -147.1560
 kinetic energy error for atom=    0.0116 (will be added to EATOM!!)
  PAW_PBE Ta 17Jan2003                  :
 energy of atom  2       EATOM= -130.6506
 kinetic energy error for atom=    0.0016 (will be added to EATOM!!)
 
 
 POSCAR:  C Ta                                   
  positions in cartesian coordinates
  No initial velocities read in
 exchange correlation table for  LEXCH =        8
   RHO(1)=    0.500       N(1)  =     2000
   RHO(2)=  100.500       N(2)  =     4000
 


--------------------------------------------------------------------------------------------------------


 ion  position               nearest neighbor table
   1  0.500  0.500  0.500-   2 2.24   2 2.24   2 2.24   2 2.24   2 2.24   2 2.24
   2  0.000  0.000  0.000-   1 2.24   1 2.24   1 2.24   1 2.24   1 2.24   1 2.24
 
  LATTYP: Found a face centered cubic cell.
 ALAT       =     4.4760000000
  
  Lattice vectors:
  
 A1 = (   0.0000000000,   2.2380000000,   2.2380000000)
 A2 = (   2.2380000000,   0.0000000000,   2.2380000000)
 A3 = (   2.2380000000,   2.2380000000,   0.0000000000)
 Subroutine PRICEL returns:
 Original cell was already a primitive cell.
 

Analysis of symmetry for initial positions (statically):

 Routine SETGRP: Setting up the symmetry group for a 
 face centered cubic supercell.


 Subroutine GETGRP returns: Found 48 space group operations
 (whereof 48 operations were pure point group operations)
 out of a pool of 48 trial point group operations.


The static configuration has the point symmetry O_h .

Analysis of symmetry for dynamics (positions and initial velocities):

 Subroutine DYNSYM returns: Found 48 space group operations
 (whereof 48 operations were pure point group operations)
 out of a pool of 48 trial space group operations
 (whereof 48 operations were pure point group operations)
 and found also     1 'primitive' translations


The dynamic configuration has the point symmetry O_h .

Analysis of magnetic symmetry:

 Subroutine MAGSYM returns: Found 48 space group operations
 (whereof 48 operations were pure point group operations)
 out of a pool of 48 trial space group operations
 (whereof 48 operations were pure point group operations)
 and found also     1 'primitive' translations


The magnetic configuration has the point symmetry O_h .
 
 
 KPOINTS: KPOINTS created by Atomic Simulation Env

Automatic generation of k-mesh.
 
 Subroutine IBZKPT returns following result:
 ===========================================
 
 Found     60 irreducible k-points:
 
 Following reciprocal coordinates:
            Coordinates               Weight
  0.062500  0.062500  0.062500     96.000000
  0.187500  0.062500  0.062500    288.000000
  0.312500  0.062500  0.062500    288.000000
  0.437500  0.062500  0.062500    288.000000
 -0.437500  0.062500  0.062500    288.000000
 -0.312500  0.062500  0.062500    288.000000
 -0.187500  0.062500  0.062500    288.000000
 -0.062500  0.062500  0.062500    288.000000
  0.187500  0.187500  0.062500    288.000000
  0.312500  0.187500  0.062500    576.000000
  0.437500  0.187500  0.062500    576.000000
 -0.437500  0.187500  0.062500    576.000000
 -0.312500  0.187500  0.062500    576.000000
 -0.187500  0.187500  0.062500    576.000000
 -0.062500  0.187500  0.062500    576.000000
  0.312500  0.312500  0.062500    288.000000
  0.437500  0.312500  0.062500    576.000000
 -0.437500  0.312500  0.062500    576.000000
 -0.312500  0.312500  0.062500    576.000000
 -0.187500  0.312500  0.062500    576.000000
 -0.062500  0.312500  0.062500    576.000000
  0.437500  0.437500  0.062500    288.000000
 -0.437500  0.437500  0.062500    576.000000
 -0.312500  0.437500  0.062500    576.000000
 -0.187500  0.437500  0.062500    576.000000
 -0.062500  0.437500  0.062500    576.000000
 -0.437500 -0.437500  0.062500    288.000000
 -0.312500 -0.437500  0.062500    576.000000
 -0.187500 -0.437500  0.062500    576.000000
 -0.312500 -0.312500  0.062500    288.000000
 -0.187500 -0.312500  0.062500    576.000000
 -0.187500 -0.187500  0.062500    288.000000
  0.187500  0.187500  0.187500     96.000000
  0.312500  0.187500  0.187500    288.000000
  0.437500  0.187500  0.187500    288.000000
 -0.437500  0.187500  0.187500    288.000000
 -0.312500  0.187500  0.187500    288.000000
 -0.187500  0.187500  0.187500    288.000000
  0.312500  0.312500  0.187500    288.000000
  0.437500  0.312500  0.187500    576.000000
 -0.437500  0.312500  0.187500    576.000000
 -0.312500  0.312500  0.187500    576.000000
 -0.187500  0.312500  0.187500    576.000000
  0.437500  0.437500  0.187500    288.000000
 -0.437500  0.437500  0.187500    576.000000
 -0.312500  0.437500  0.187500    576.000000
 -0.187500  0.437500  0.187500    576.000000
 -0.437500 -0.437500  0.187500    288.000000
 -0.312500 -0.437500  0.187500    576.000000
 -0.312500 -0.312500  0.187500    288.000000
  0.312500  0.312500  0.312500     96.000000
  0.437500  0.312500  0.312500    288.000000
 -0.437500  0.312500  0.312500    288.000000
 -0.312500  0.312500  0.312500    288.000000
  0.437500  0.437500  0.312500    288.000000
 -0.437500  0.437500  0.312500    576.000000
 -0.312500  0.437500  0.312500    576.000000
 -0.437500 -0.437500  0.312500    288.000000
  0.437500  0.437500  0.437500     96.000000
 -0.437500  0.437500  0.437500    288.000000
 
 Following cartesian coordinates:
            Coordinates               Weight
  0.013963  0.013963  0.013963     96.000000
 -0.013963  0.041890  0.041890    288.000000
 -0.041890  0.069817  0.069817    288.000000
 -0.069817  0.097744  0.097744    288.000000
  0.125670 -0.097744 -0.097744    288.000000
  0.097744 -0.069817 -0.069817    288.000000
  0.069817 -0.041890 -0.041890    288.000000
  0.041890 -0.013963 -0.013963    288.000000
  0.013963  0.013963  0.069817    288.000000
 -0.013963  0.041890  0.097744    576.000000
 -0.041890  0.069817  0.125670    576.000000
  0.153597 -0.125670 -0.069817    576.000000
  0.125670 -0.097744 -0.041890    576.000000
  0.097744 -0.069817 -0.013963    576.000000
  0.069817 -0.041890  0.013963    576.000000
  0.013963  0.013963  0.125670    288.000000
 -0.013963  0.041890  0.153597    576.000000
  0.181524 -0.153597 -0.041890    576.000000
  0.153597 -0.125670 -0.013963    576.000000
  0.125670 -0.097744  0.013963    576.000000
  0.097744 -0.069817  0.041890    576.000000
  0.013963  0.013963  0.181524    288.000000
  0.209450 -0.181524 -0.013963    576.000000
  0.181524 -0.153597  0.013963    576.000000
  0.153597 -0.125670  0.041890    576.000000
  0.125670 -0.097744  0.069817    576.000000
  0.013963  0.013963 -0.209450    288.000000
 -0.013963  0.041890 -0.181524    576.000000
 -0.041890  0.069817 -0.153597    576.000000
  0.013963  0.013963 -0.153597    288.000000
 -0.013963  0.041890 -0.125670    576.000000
  0.013963  0.013963 -0.097744    288.000000
  0.041890  0.041890  0.041890     96.000000
  0.013963  0.069817  0.069817    288.000000
 -0.013963  0.097744  0.097744    288.000000
  0.181524 -0.097744 -0.097744    288.000000
  0.153597 -0.069817 -0.069817    288.000000
  0.125670 -0.041890 -0.041890    288.000000
  0.041890  0.041890  0.097744    288.000000
  0.013963  0.069817  0.125670    576.000000
  0.209450 -0.125670 -0.069817    576.000000
  0.181524 -0.097744 -0.041890    576.000000
  0.153597 -0.069817 -0.013963    576.000000
  0.041890  0.041890  0.153597    288.000000
  0.237377 -0.153597 -0.041890    576.000000
  0.209450 -0.125670 -0.013963    576.000000
  0.181524 -0.097744  0.013963    576.000000
  0.041890  0.041890 -0.237377    288.000000
  0.013963  0.069817 -0.209450    576.000000
  0.041890  0.041890 -0.181524    288.000000
  0.069817  0.069817  0.069817     96.000000
  0.041890  0.097744  0.097744    288.000000
  0.237377 -0.097744 -0.097744    288.000000
  0.209450 -0.069817 -0.069817    288.000000
  0.069817  0.069817  0.125670    288.000000
  0.265304 -0.125670 -0.069817    576.000000
  0.237377 -0.097744 -0.041890    576.000000
  0.069817  0.069817 -0.265304    288.000000
  0.097744  0.097744  0.097744     96.000000
  0.293231 -0.097744 -0.097744    288.000000
 


--------------------------------------------------------------------------------------------------------




 Dimension of arrays:
   k-points           NKPTS =     60   k-points in BZ     NKDIM =     60   number of bands    NBANDS=     12
   number of dos      NEDOS =    301   number of ions     NIONS =      2
   non local maximal  LDIM  =      6   non local SUM 2l+1 LMDIM =     18
   total plane-waves  NPLWV =  13824
   max r-space proj   IRMAX =      1   max aug-charges    IRDMAX=  42169
   dimension x,y,z NGX =    24 NGY =   24 NGZ =   24
   dimension x,y,z NGXF=    48 NGYF=   48 NGZF=   48
   support grid    NGXF=    48 NGYF=   48 NGZF=   48
   ions per type =               1   1
 NGX,Y,Z   is equivalent  to a cutoff of  12.61, 12.61, 12.61 a.u.
 NGXF,Y,Z  is equivalent  to a cutoff of  25.21, 25.21, 25.21 a.u.


 I would recommend the setting:
   dimension x,y,z NGX =    22 NGY =   22 NGZ =   22
 SYSTEM =  unknown system                          
 POSCAR =   C Ta                                   

 Startparameter for this run:
   NWRITE =      2    write-flag & timer
   PREC   = accura    normal or accurate (medium, high low for compatibility)
   ISTART =      0    job   : 0-new  1-cont  2-samecut
   ICHARG =      2    charge: 1-file 2-atom 10-const
   ISPIN  =      2    spin polarized calculation?
   LNONCOLLINEAR =      F non collinear calculations
   LSORBIT =      F    spin-orbit coupling
   INIWAV =      1    electr: 0-lowe 1-rand  2-diag
   LASPH  =      F    aspherical Exc in radial PAW
   METAGGA=      F    non-selfconsistent MetaGGA calc.

 Electronic Relaxation 1
   ENCUT  =  450.0 eV  33.07 Ry    5.75 a.u.   5.47  5.47  5.47*2*pi/ulx,y,z
   ENINI  =  450.0     initial cutoff
   ENAUG  =  644.9 eV  augmentation charge cutoff
   NELM   =     60;   NELMIN=  2; NELMDL= -5     # of ELM steps 
   EDIFF  = 0.1E-03   stopping-criterion for ELM
   LREAL  =      F    real-space projection
   NLSPLINE    = F    spline interpolate recip. space projectors
   LCOMPAT=      F    compatible to vasp.4.4
   GGA_COMPAT  = T    GGA compatible to vasp.4.4-vasp.4.6
   LMAXPAW     = -100 max onsite density
   LMAXMIX     =    2 max onsite mixed and CHGCAR
   VOSKOWN=      0    Vosko Wilk Nusair interpolation
   ROPT   =    0.00000   0.00000
 Ionic relaxation
   EDIFFG = 0.1E-02   stopping-criterion for IOM
   NSW    =      0    number of steps for IOM
   NBLOCK =      1;   KBLOCK =      1    inner block; outer block 
   IBRION =     -1    ionic relax: 0-MD 1-quasi-New 2-CG
   NFREE  =      0    steps in history (QN), initial steepest desc. (CG)
   ISIF   =      2    stress and relaxation
   IWAVPR =     10    prediction:  0-non 1-charg 2-wave 3-comb
   ISYM   =      2    0-nonsym 1-usesym 2-fastsym
   LCORR  =      T    Harris-Foulkes like correction to forces

   POTIM  = 0.5000    time-step for ionic-motion
   TEIN   =    0.0    initial temperature
   TEBEG  =    0.0;   TEEND  =   0.0 temperature during run
   SMASS  =  -3.00    Nose mass-parameter (am)
   estimated Nose-frequenzy (Omega)   =  0.10E-29 period in steps =****** mass=  -0.229E-27a.u.
   SCALEE = 1.0000    scale energy and forces
   NPACO  =    256;   APACO  = 16.0  distance and # of slots for P.C.
   PSTRESS=    0.0 pullay stress

  Mass of Ions in am
   POMASS =  12.01180.95
  Ionic Valenz
   ZVAL   =   4.00  5.00
  Atomic Wigner-Seitz radii
   RWIGS  =  -1.00 -1.00
  virtual crystal weights 
   VCA    =   1.00  1.00
   NELECT =       9.0000    total number of electrons
   NUPDOWN=      -1.0000    fix difference up-down

 DOS related values:
   EMIN   =  10.00;   EMAX   =-10.00  energy-range for DOS
   EFERMI =   0.00
   ISMEAR =     1;   SIGMA  =   0.05  broadening in eV -4-tet -1-fermi 0-gaus

 Electronic relaxation 2 (details)
   IALGO  =     38    algorithm
   LDIAG  =      T    sub-space diagonalisation (order eigenvalues)
   LSUBROT=      T    optimize rotation matrix (better conditioning)
   TURBO    =      0    0=normal 1=particle mesh
   IRESTART =      0    0=no restart 2=restart with 2 vectors
   NREBOOT  =      0    no. of reboots
   NMIN     =      0    reboot dimension
   EREF     =   0.00    reference energy to select bands
   IMIX   =      4    mixing-type and parameters
     AMIX     =   0.40;   BMIX     =  1.00
     AMIX_MAG =   1.60;   BMIX_MAG =  1.00
     AMIN     =   0.10
     WC   =   100.;   INIMIX=   1;  MIXPRE=   1

 Intra band minimization:
   WEIMIN = 0.0000     energy-eigenvalue tresh-hold
   EBREAK =  0.21E-05  absolut break condition
   DEPER  =   0.30     relativ break condition  

   TIME   =   0.40     timestep for ELM

  volume/ion in A,a.u.               =      11.21        75.64
  Fermi-wavevector in a.u.,A,eV,Ry     =   1.207681  2.282186 19.844009  1.458494
  Thomas-Fermi vector in A             =   2.343311
 
 Write flags
   LWAVE  =      T    write WAVECAR
   LCHARG =      T    write CHGCAR
   LVTOT  =      F    write LOCPOT, total local potential
   LVHAR  =      F    write LOCPOT, Hartree potential only
   LELF   =      F    write electronic localiz. function (ELF)
   LORBIT =     11    0 simple, 1 ext, 2 COOP (PROOUT)


 Dipole corrections
   LMONO  =      F    monopole corrections only (constant potential shift)
   LDIPOL =      F    correct potential (dipole corrections)
   IDIPOL =      0    1-x, 2-y, 3-z, 4-all directions 
   EPSILON=  1.0000000 bulk dielectric constant

 Exchange correlation treatment:
   GGA     =    --    GGA type
   LEXCH   =     8    internal setting for exchange type
   VOSKOWN=      0    Vosko Wilk Nusair interpolation
   LHFCALC =     F    Hartree Fock is set to
   LHFONE  =     F    Hartree Fock one center treatment
   AEXX    =    0.0000 exact exchange contribution

 Linear response parameters
   LEPSILON=     F    determine dielectric tensor
   LRPA    =     F    only Hartree local field effects (RPA)
   LNABLA  =     F    use nabla operator in PAW spheres
   LVEL    =     F    velocity operator in full k-point grid
   LINTERFAST=   F  fast interpolation
   KINTER  =     0    interpolate to denser k-point grid
   CSHIFT  =0.1000    complex shift for real part using Kramers Kronig
   OMEGAMAX=  -1.0    maximum frequency
   RTIME   =    0.100 relaxation time in fs

 Orbital magnetization related:
   ORBITALMAG=     F  switch on orbital magnetization
   LCHIMAG   =     F  perturbation theory with respect to B field
   DQ        =  0.001000  dq finite difference perturbation B field



--------------------------------------------------------------------------------------------------------


 Static calculation
 charge density and potential will be updated during run
 spin polarized calculation
 Variant of blocked Davidson
 Davidson routine will perform the subspace rotation
 perform sub-space diagonalisation
    after iterative eigenvector-optimisation
 modified Broyden-mixing scheme, WC =      100.0
 initial mixing is a Kerker type mixing with AMIX =  0.4000 and BMIX =      1.0000
 Hartree-type preconditioning will be used
 using additional bands            7
 reciprocal scheme for non local part
 use partial core corrections
 calculate Harris-corrections to forces 
   (improved forces if not selfconsistent)
 use gradient corrections 
 use of overlap-Matrix (Vanderbilt PP)
 Methfessel and Paxton  Order N= 1 SIGMA  =   0.05


--------------------------------------------------------------------------------------------------------


  energy-cutoff  :      450.00
  volume of cell :       22.42
      direct lattice vectors                 reciprocal lattice vectors
     0.000000000  2.238000000  2.238000000    -0.223413762  0.223413762  0.223413762
     2.238000000  0.000000000  2.238000000     0.223413762 -0.223413762  0.223413762
     2.238000000  2.238000000  0.000000000     0.223413762  0.223413762 -0.223413762

  length of vectors
     3.165009953  3.165009953  3.165009953     0.386963987  0.386963987  0.386963987


 
 k-points in units of 2pi/SCALE and weight: KPOINTS created by Atomic Simulation Env
   0.01396336  0.01396336  0.01396336       0.004
  -0.01396336  0.04189008  0.04189008       0.012
  -0.04189008  0.06981680  0.06981680       0.012
  -0.06981680  0.09774352  0.09774352       0.012
   0.12567024 -0.09774352 -0.09774352       0.012
   0.09774352 -0.06981680 -0.06981680       0.012
   0.06981680 -0.04189008 -0.04189008       0.012
   0.04189008 -0.01396336 -0.01396336       0.012
   0.01396336  0.01396336  0.06981680       0.012
  -0.01396336  0.04189008  0.09774352       0.023
  -0.04189008  0.06981680  0.12567024       0.023
   0.15359696 -0.12567024 -0.06981680       0.023
   0.12567024 -0.09774352 -0.04189008       0.023
   0.09774352 -0.06981680 -0.01396336       0.023
   0.06981680 -0.04189008  0.01396336       0.023
   0.01396336  0.01396336  0.12567024       0.012
  -0.01396336  0.04189008  0.15359696       0.023
   0.18152368 -0.15359696 -0.04189008       0.023
   0.15359696 -0.12567024 -0.01396336       0.023
   0.12567024 -0.09774352  0.01396336       0.023
   0.09774352 -0.06981680  0.04189008       0.023
   0.01396336  0.01396336  0.18152368       0.012
   0.20945040 -0.18152368 -0.01396336       0.023
   0.18152368 -0.15359696  0.01396336       0.023
   0.15359696 -0.12567024  0.04189008       0.023
   0.12567024 -0.09774352  0.06981680       0.023
   0.01396336  0.01396336 -0.20945040       0.012
  -0.01396336  0.04189008 -0.18152368       0.023
  -0.04189008  0.06981680 -0.15359696       0.023
   0.01396336  0.01396336 -0.15359696       0.012
  -0.01396336  0.04189008 -0.12567024       0.023
   0.01396336  0.01396336 -0.09774352       0.012
   0.04189008  0.04189008  0.04189008       0.004
   0.01396336  0.06981680  0.06981680       0.012
  -0.01396336  0.09774352  0.09774352       0.012
   0.18152368 -0.09774352 -0.09774352       0.012
   0.15359696 -0.06981680 -0.06981680       0.012
   0.12567024 -0.04189008 -0.04189008       0.012
   0.04189008  0.04189008  0.09774352       0.012
   0.01396336  0.06981680  0.12567024       0.023
   0.20945040 -0.12567024 -0.06981680       0.023
   0.18152368 -0.09774352 -0.04189008       0.023
   0.15359696 -0.06981680 -0.01396336       0.023
   0.04189008  0.04189008  0.15359696       0.012
   0.23737712 -0.15359696 -0.04189008       0.023
   0.20945040 -0.12567024 -0.01396336       0.023
   0.18152368 -0.09774352  0.01396336       0.023
   0.04189008  0.04189008 -0.23737712       0.012
   0.01396336  0.06981680 -0.20945040       0.023
   0.04189008  0.04189008 -0.18152368       0.012
   0.06981680  0.06981680  0.06981680       0.004
   0.04189008  0.09774352  0.09774352       0.012
   0.23737712 -0.09774352 -0.09774352       0.012
   0.20945040 -0.06981680 -0.06981680       0.012
   0.06981680  0.06981680  0.12567024       0.012
   0.26530384 -0.12567024 -0.06981680       0.023
   0.23737712 -0.09774352 -0.04189008       0.023
   0.06981680  0.06981680 -0.26530384       0.012
   0.09774352  0.09774352  0.09774352       0.004
   0.29323056 -0.09774352 -0.09774352       0.012
 
 k-points in reciprocal lattice and weights: KPOINTS created by Atomic Simulation Env
   0.06250000  0.06250000  0.06250000       0.004
   0.18750000  0.06250000  0.06250000       0.012
   0.31250000  0.06250000  0.06250000       0.012
   0.43750000  0.06250000  0.06250000       0.012
  -0.43750000  0.06250000  0.06250000       0.012
  -0.31250000  0.06250000  0.06250000       0.012
  -0.18750000  0.06250000  0.06250000       0.012
  -0.06250000  0.06250000  0.06250000       0.012
   0.18750000  0.18750000  0.06250000       0.012
   0.31250000  0.18750000  0.06250000       0.023
   0.43750000  0.18750000  0.06250000       0.023
  -0.43750000  0.18750000  0.06250000       0.023
  -0.31250000  0.18750000  0.06250000       0.023
  -0.18750000  0.18750000  0.06250000       0.023
  -0.06250000  0.18750000  0.06250000       0.023
   0.31250000  0.31250000  0.06250000       0.012
   0.43750000  0.31250000  0.06250000       0.023
  -0.43750000  0.31250000  0.06250000       0.023
  -0.31250000  0.31250000  0.06250000       0.023
  -0.18750000  0.31250000  0.06250000       0.023
  -0.06250000  0.31250000  0.06250000       0.023
   0.43750000  0.43750000  0.06250000       0.012
  -0.43750000  0.43750000  0.06250000       0.023
  -0.31250000  0.43750000  0.06250000       0.023
  -0.18750000  0.43750000  0.06250000       0.023
  -0.06250000  0.43750000  0.06250000       0.023
  -0.43750000 -0.43750000  0.06250000       0.012
  -0.31250000 -0.43750000  0.06250000       0.023
  -0.18750000 -0.43750000  0.06250000       0.023
  -0.31250000 -0.31250000  0.06250000       0.012
  -0.18750000 -0.31250000  0.06250000       0.023
  -0.18750000 -0.18750000  0.06250000       0.012
   0.18750000  0.18750000  0.18750000       0.004
   0.31250000  0.18750000  0.18750000       0.012
   0.43750000  0.18750000  0.18750000       0.012
  -0.43750000  0.18750000  0.18750000       0.012
  -0.31250000  0.18750000  0.18750000       0.012
  -0.18750000  0.18750000  0.18750000       0.012
   0.31250000  0.31250000  0.18750000       0.012
   0.43750000  0.31250000  0.18750000       0.023
  -0.43750000  0.31250000  0.18750000       0.023
  -0.31250000  0.31250000  0.18750000       0.023
  -0.18750000  0.31250000  0.18750000       0.023
   0.43750000  0.43750000  0.18750000       0.012
  -0.43750000  0.43750000  0.18750000       0.023
  -0.31250000  0.43750000  0.18750000       0.023
  -0.18750000  0.43750000  0.18750000       0.023
  -0.43750000 -0.43750000  0.18750000       0.012
  -0.31250000 -0.43750000  0.18750000       0.023
  -0.31250000 -0.31250000  0.18750000       0.012
   0.31250000  0.31250000  0.31250000       0.004
   0.43750000  0.31250000  0.31250000       0.012
  -0.43750000  0.31250000  0.31250000       0.012
  -0.31250000  0.31250000  0.31250000       0.012
   0.43750000  0.43750000  0.31250000       0.012
  -0.43750000  0.43750000  0.31250000       0.023
  -0.31250000  0.43750000  0.31250000       0.023
  -0.43750000 -0.43750000  0.31250000       0.012
   0.43750000  0.43750000  0.43750000       0.004
  -0.43750000  0.43750000  0.43750000       0.012
 
 position of ions in fractional coordinates (direct lattice) 
   0.50000000  0.50000000  0.50000000
   0.00000000  0.00000000  0.00000000
 
 position of ions in cartesian coordinates  (Angst):
   2.23800000  2.23800000  2.23800000
   0.00000000  0.00000000  0.00000000
 


--------------------------------------------------------------------------------------------------------


 k-point  1 :  0.06250.06250.0625  plane waves:     516
 k-point  2 :  0.18750.06250.0625  plane waves:     501
 k-point  3 :  0.31250.06250.0625  plane waves:     493
 k-point  4 :  0.43750.06250.0625  plane waves:     487
 k-point  5 :  -.43750.06250.0625  plane waves:     481
 k-point  6 :  -.31250.06250.0625  plane waves:     488
 k-point  7 :  -.18750.06250.0625  plane waves:     490
 k-point  8 :  -.06250.06250.0625  plane waves:     508
 k-point  9 :  0.18750.18750.0625  plane waves:     497
 k-point 10 :  0.31250.18750.0625  plane waves:     489
 k-point 11 :  0.43750.18750.0625  plane waves:     487
 k-point 12 :  -.43750.18750.0625  plane waves:     482
 k-point 13 :  -.31250.18750.0625  plane waves:     487
 k-point 14 :  -.18750.18750.0625  plane waves:     489
 k-point 15 :  -.06250.18750.0625  plane waves:     493
 k-point 16 :  0.31250.31250.0625  plane waves:     491
 k-point 17 :  0.43750.31250.0625  plane waves:     477
 k-point 18 :  -.43750.31250.0625  plane waves:     485
 k-point 19 :  -.31250.31250.0625  plane waves:     483
 k-point 20 :  -.18750.31250.0625  plane waves:     488
 k-point 21 :  -.06250.31250.0625  plane waves:     490
 k-point 22 :  0.43750.43750.0625  plane waves:     479
 k-point 23 :  -.43750.43750.0625  plane waves:     481
 k-point 24 :  -.31250.43750.0625  plane waves:     482
 k-point 25 :  -.18750.43750.0625  plane waves:     480
 k-point 26 :  -.06250.43750.0625  plane waves:     485
 k-point 27 :  -.4375-.43750.0625  plane waves:     472
 k-point 28 :  -.3125-.43750.0625  plane waves:     476
 k-point 29 :  -.1875-.43750.0625  plane waves:     485
 k-point 30 :  -.3125-.31250.0625  plane waves:     481
 k-point 31 :  -.1875-.31250.0625  plane waves:     485
 k-point 32 :  -.1875-.18750.0625  plane waves:     488
 k-point 33 :  0.18750.18750.1875  plane waves:     489
 k-point 34 :  0.31250.18750.1875  plane waves:     493
 k-point 35 :  0.43750.18750.1875  plane waves:     489
 k-point 36 :  -.43750.18750.1875  plane waves:     484
 k-point 37 :  -.31250.18750.1875  plane waves:     481
 k-point 38 :  -.18750.18750.1875  plane waves:     490
 k-point 39 :  0.31250.31250.1875  plane waves:     491
 k-point 40 :  0.43750.31250.1875  plane waves:     486
 k-point 41 :  -.43750.31250.1875  plane waves:     485
 k-point 42 :  -.31250.31250.1875  plane waves:     484
 k-point 43 :  -.18750.31250.1875  plane waves:     484
 k-point 44 :  0.43750.43750.1875  plane waves:     483
 k-point 45 :  -.43750.43750.1875  plane waves:     484
 k-point 46 :  -.31250.43750.1875  plane waves:     483
 k-point 47 :  -.18750.43750.1875  plane waves:     487
 k-point 48 :  -.4375-.43750.1875  plane waves:     481
 k-point 49 :  -.3125-.43750.1875  plane waves:     485
 k-point 50 :  -.3125-.31250.1875  plane waves:     482
 k-point 51 :  0.31250.31250.3125  plane waves:     492
 k-point 52 :  0.43750.31250.3125  plane waves:     492
 k-point 53 :  -.43750.31250.3125  plane waves:     489
 k-point 54 :  -.31250.31250.3125  plane waves:     484
 k-point 55 :  0.43750.43750.3125  plane waves:     487
 k-point 56 :  -.43750.43750.3125  plane waves:     486
 k-point 57 :  -.31250.43750.3125  plane waves:     484
 k-point 58 :  -.4375-.43750.3125  plane waves:     484
 k-point 59 :  0.43750.43750.4375  plane waves:     483
 k-point 60 :  -.43750.43750.4375  plane waves:     482

 maximum and minimum number of plane-waves per node :       516      472

 maximum number of plane-waves:       516
 maximum index in each direction: 
   IXMAX=    5   IYMAX=    5   IZMAX=    5
   IXMIN=   -5   IYMIN=   -5   IZMIN=   -5

 NGX is ok and might be reduce to  22
 NGY is ok and might be reduce to  22
 NGZ is ok and might be reduce to  22

 serial   3D FFT for wavefunctions
 parallel 3D FFT for charge:
    minimum data exchange during FFTs selected (reduces bandwidth)


 total amount of memory used by VASP on root node    65663. kBytes
========================================================================

   base      :      30000. kBytes
   nonl-proj :       8932. kBytes
   fftplans  :       3916. kBytes
   grid      :      10266. kBytes
   one-center:         62. kBytes
   wavefun   :      12487. kBytes
 
 Broyden mixing: mesh for mixing (old mesh)
   NGX = 11   NGY = 11   NGZ = 11
  (NGX  = 48   NGY  = 48   NGZ  = 48)
  gives a total of   1331 points

 initial charge density was supplied:
 charge density of overlapping atoms calculated
 number of electron       9.0000000 magnetization       8.0000000
 keeping initial charge density in first step


--------------------------------------------------------------------------------------------------------


 Maximum index for augmentation-charges        40707 (set IRDMAX)


--------------------------------------------------------------------------------------------------------


 First call to EWALD:  gamma=   0.629
 Maximum number of real-space cells 3x 3x 3
 Maximum number of reciprocal cells 3x 3x 3

    FEWALD:  cpu time    0.00: real time    0.00


----------------------------------------- Iteration    1(   1)  ---------------------------------------


    POTLOK:  cpu time    0.38: real time    0.38
    SETDIJ:  cpu time    0.07: real time    0.07
     EDDAV:  cpu time    6.55: real time    6.55
       DOS:  cpu time    0.01: real time    0.01
    --------------------------------------------
      LOOP:  cpu time    7.02: real time    7.02

 eigenvalue-minimisations  :  2920
 total energy-change (2. order) : 0.1117649E+02  (-0.4002724E+03)
 number of electron       9.0000000 magnetization       8.0000000
 augmentation part        9.0000000 magnetization       8.0000000

 Free energy of the ion-electron system (eV)
  ---------------------------------------------------
  alpha Z        PSCENC =        52.70228547
  Ewald energy   TEWEN  =      -372.49100223
  -1/2 Hartree   DENC   =       -15.76250370
  -exchange  EXHF       =         0.00000000
  -V(xc)+E(xc)   XCENC  =       -48.23451785
  PAW double counting   =       180.96821906     -107.89329025
  entropy T*S    EENTRO =        -0.00004305
  eigenvalues    EBANDS =        44.09391759
  atomic energy  EATOM  =       277.79342126
  ---------------------------------------------------
  free energy    TOTEN  =        11.17648629 eV

  energy without entropy =       11.17652935  energy(sigma->0) =       11.17650064


--------------------------------------------------------------------------------------------------------




----------------------------------------- Iteration    1(   2)  ---------------------------------------


     EDDAV:  cpu time    7.73: real time    7.73
       DOS:  cpu time    0.01: real time    0.01
    --------------------------------------------
      LOOP:  cpu time    7.74: real time    7.74

 eigenvalue-minimisations  :  3680
 total energy-change (2. order) :-0.2938138E+02  (-0.2801292E+02)
 number of electron       9.0000000 magnetization       8.0000000
 augmentation part        9.0000000 magnetization       8.0000000

 Free energy of the ion-electron system (eV)
  ---------------------------------------------------
  alpha Z        PSCENC =        52.70228547
  Ewald energy   TEWEN  =      -372.49100223
  -1/2 Hartree   DENC   =       -15.76250370
  -exchange  EXHF       =         0.00000000
  -V(xc)+E(xc)   XCENC  =       -48.23451785
  PAW double counting   =       180.96821906     -107.89329025
  entropy T*S    EENTRO =         0.00006606
  eigenvalues    EBANDS =        14.71242583
  atomic energy  EATOM  =       277.79342126
  ---------------------------------------------------
  free energy    TOTEN  =       -18.20489634 eV

  energy without entropy =      -18.20496241  energy(sigma->0) =      -18.20491836


--------------------------------------------------------------------------------------------------------




----------------------------------------- Iteration    1(   3)  ---------------------------------------


     EDDAV:  cpu time    7.65: real time    7.66
       DOS:  cpu time    0.01: real time    0.01
    --------------------------------------------
      LOOP:  cpu time    7.66: real time    7.68

 eigenvalue-minimisations  :  3632
 total energy-change (2. order) :-0.8860962E+00  (-0.8805962E+00)
 number of electron       9.0000000 magnetization       8.0000000
 augmentation part        9.0000000 magnetization       8.0000000

 Free energy of the ion-electron system (eV)
  ---------------------------------------------------
  alpha Z        PSCENC =        52.70228547
  Ewald energy   TEWEN  =      -372.49100223
  -1/2 Hartree   DENC   =       -15.76250370
  -exchange  EXHF       =         0.00000000
  -V(xc)+E(xc)   XCENC  =       -48.23451785
  PAW double counting   =       180.96821906     -107.89329025
  entropy T*S    EENTRO =         0.00001673
  eigenvalues    EBANDS =        13.82637898
  atomic energy  EATOM  =       277.79342126
  ---------------------------------------------------
  free energy    TOTEN  =       -19.09099253 eV

  energy without entropy =      -19.09100926  energy(sigma->0) =      -19.09099810


--------------------------------------------------------------------------------------------------------




----------------------------------------- Iteration    1(   4)  ---------------------------------------


     EDDAV:  cpu time    6.97: real time    6.97
       DOS:  cpu time    0.01: real time    0.01
    --------------------------------------------
      LOOP:  cpu time    6.98: real time    6.99

 eigenvalue-minimisations  :  3188
 total energy-change (2. order) :-0.2692517E-02  (-0.2692287E-02)
 number of electron       9.0000000 magnetization       8.0000000
 augmentation part        9.0000000 magnetization       8.0000000

 Free energy of the ion-electron system (eV)
  ---------------------------------------------------
  alpha Z        PSCENC =        52.70228547
  Ewald energy   TEWEN  =      -372.49100223
  -1/2 Hartree   DENC   =       -15.76250370
  -exchange  EXHF       =         0.00000000
  -V(xc)+E(xc)   XCENC  =       -48.23451785
  PAW double counting   =       180.96821906     -107.89329025
  entropy T*S    EENTRO =         0.00001694
  eigenvalues    EBANDS =        13.82368625
  atomic energy  EATOM  =       277.79342126
  ---------------------------------------------------
  free energy    TOTEN  =       -19.09368504 eV

  energy without entropy =      -19.09370199  energy(sigma->0) =      -19.09369069


--------------------------------------------------------------------------------------------------------




----------------------------------------- Iteration    1(   5)  ---------------------------------------


     EDDAV:  cpu time    7.71: real time    7.71
       DOS:  cpu time    0.01: real time    0.01
    CHARGE:  cpu time    0.47: real time    0.47
    MIXING:  cpu time    0.01: real time    0.01
    --------------------------------------------
      LOOP:  cpu time    8.19: real time    8.21

 eigenvalue-minimisations  :  3660
 total energy-change (2. order) :-0.9653495E-05  (-0.9653572E-05)
 number of electron       9.0000000 magnetization      -1.7080291
 augmentation part        0.3872673 magnetization      -2.5345510

 Broyden mixing:
  rms(total) = 0.18841E+01    rms(broyden)= 0.18840E+01
  rms(prec ) = 0.43483E+01
  weight for this iteration     100.00

 Free energy of the ion-electron system (eV)
  ---------------------------------------------------
  alpha Z        PSCENC =        52.70228547
  Ewald energy   TEWEN  =      -372.49100223
  -1/2 Hartree   DENC   =       -15.76250370
  -exchange  EXHF       =         0.00000000
  -V(xc)+E(xc)   XCENC  =       -48.23451785
  PAW double counting   =       180.96821906     -107.89329025
  entropy T*S    EENTRO =         0.00001695
  eigenvalues    EBANDS =        13.82367659
  atomic energy  EATOM  =       277.79342126
  ---------------------------------------------------
  free energy    TOTEN  =       -19.09369470 eV

  energy without entropy =      -19.09371165  energy(sigma->0) =      -19.09370035


--------------------------------------------------------------------------------------------------------




----------------------------------------- Iteration    1(   6)  ---------------------------------------


    POTLOK:  cpu time    0.37: real time    0.37
    SETDIJ:  cpu time    0.07: real time    0.07
     EDDAV:  cpu time    7.23: real time    7.23
       DOS:  cpu time    0.01: real time    0.01
    CHARGE:  cpu time    0.52: real time    0.52
    MIXING:  cpu time    0.01: real time    0.01
    --------------------------------------------
      LOOP:  cpu time    8.22: real time    8.23

 eigenvalue-minimisations  :  3220
 total energy-change (2. order) :-0.3016430E+01  (-0.1657783E+01)
 number of electron       9.0000000 magnetization       0.1198408
 augmentation part        0.4596208 magnetization       0.3532821

 Broyden mixing:
  rms(total) = 0.43777E+00    rms(broyden)= 0.43765E+00
  rms(prec ) = 0.77175E+00
  weight for this iteration     100.00

 eigenvalues of (default mixing * dielectric matrix)
  average eigenvalue GAMMA=   0.8190
  0.8190

 Free energy of the ion-electron system (eV)
  ---------------------------------------------------
  alpha Z        PSCENC =        52.70228547
  Ewald energy   TEWEN  =      -372.49100223
  -1/2 Hartree   DENC   =       -24.23063699
  -exchange  EXHF       =         0.00000000
  -V(xc)+E(xc)   XCENC  =       -51.16293417
  PAW double counting   =       212.64182523     -140.06558471
  entropy T*S    EENTRO =        -0.00009646
  eigenvalues    EBANDS =        22.70259776
  atomic energy  EATOM  =       277.79342126
  ---------------------------------------------------
  free energy    TOTEN  =       -22.11012483 eV

  energy without entropy =      -22.11002837  energy(sigma->0) =      -22.11009268


--------------------------------------------------------------------------------------------------------




----------------------------------------- Iteration    1(   7)  ---------------------------------------


    POTLOK:  cpu time    0.37: real time    0.37
    SETDIJ:  cpu time    0.07: real time    0.08
     EDDAV:  cpu time    7.36: real time    7.37
       DOS:  cpu time    0.01: real time    0.01
    CHARGE:  cpu time    0.47: real time    0.47
    MIXING:  cpu time    0.01: real time    0.01
    --------------------------------------------
      LOOP:  cpu time    8.30: real time    8.31

 eigenvalue-minimisations  :  3456
 total energy-change (2. order) :-0.2105270E+00  (-0.6311693E-01)
 number of electron       9.0000000 magnetization      -0.1181762
 augmentation part        0.4526621 magnetization      -0.1118749

 Broyden mixing:
  rms(total) = 0.15452E+00    rms(broyden)= 0.15450E+00
  rms(prec ) = 0.44485E+00
  weight for this iteration     100.00

 eigenvalues of (default mixing * dielectric matrix)
  average eigenvalue GAMMA=   0.8223
  0.8223  0.8223

 Free energy of the ion-electron system (eV)
  ---------------------------------------------------
  alpha Z        PSCENC =        52.70228547
  Ewald energy   TEWEN  =      -372.49100223
  -1/2 Hartree   DENC   =       -23.04356265
  -exchange  EXHF       =         0.00000000
  -V(xc)+E(xc)   XCENC  =       -51.36298191
  PAW double counting   =       229.54837553     -157.18335148
  entropy T*S    EENTRO =         0.00031005
  eigenvalues    EBANDS =        21.71585413
  atomic energy  EATOM  =       277.79342126
  ---------------------------------------------------
  free energy    TOTEN  =       -22.32065182 eV

  energy without entropy =      -22.32096187  energy(sigma->0) =      -22.32075517


--------------------------------------------------------------------------------------------------------




----------------------------------------- Iteration    1(   8)  ---------------------------------------


    POTLOK:  cpu time    0.37: real time    0.37
    SETDIJ:  cpu time    0.07: real time    0.07
     EDDAV:  cpu time    7.11: real time    7.12
       DOS:  cpu time    0.01: real time    0.01
    CHARGE:  cpu time    0.47: real time    0.47
    MIXING:  cpu time    0.01: real time    0.01
    --------------------------------------------
      LOOP:  cpu time    8.05: real time    8.06

 eigenvalue-minimisations  :  3292
 total energy-change (2. order) : 0.5997936E-01  (-0.8155156E-02)
 number of electron       9.0000000 magnetization       0.0351462
 augmentation part        0.4602759 magnetization       0.0244218

 Broyden mixing:
  rms(total) = 0.85856E-01    rms(broyden)= 0.85856E-01
  rms(prec ) = 0.15757E+00
  weight for this iteration     100.00

 eigenvalues of (default mixing * dielectric matrix)
  average eigenvalue GAMMA=   1.2439
  2.1583  0.8501  0.7234

 Free energy of the ion-electron system (eV)
  ---------------------------------------------------
  alpha Z        PSCENC =        52.70228547
  Ewald energy   TEWEN  =      -372.49100223
  -1/2 Hartree   DENC   =       -22.55285436
  -exchange  EXHF       =         0.00000000
  -V(xc)+E(xc)   XCENC  =       -51.23834232
  PAW double counting   =       250.69612356     -178.56180054
  entropy T*S    EENTRO =         0.00030665
  eigenvalues    EBANDS =        21.39119005
  atomic energy  EATOM  =       277.79342126
  ---------------------------------------------------
  free energy    TOTEN  =       -22.26067246 eV

  energy without entropy =      -22.26097911  energy(sigma->0) =      -22.26077468


--------------------------------------------------------------------------------------------------------




----------------------------------------- Iteration    1(   9)  ---------------------------------------


    POTLOK:  cpu time    0.37: real time    0.37
    SETDIJ:  cpu time    0.07: real time    0.07
     EDDAV:  cpu time    7.22: real time    7.23
       DOS:  cpu time    0.01: real time    0.01
    CHARGE:  cpu time    0.47: real time    0.47
    MIXING:  cpu time    0.01: real time    0.01
    --------------------------------------------
      LOOP:  cpu time    8.15: real time    8.17

 eigenvalue-minimisations  :  3364
 total energy-change (2. order) : 0.7276210E-02  (-0.2511463E-02)
 number of electron       9.0000000 magnetization       0.0008146
 augmentation part        0.4655633 magnetization       0.0032203

 Broyden mixing:
  rms(total) = 0.24368E-01    rms(broyden)= 0.24367E-01
  rms(prec ) = 0.36562E-01
  weight for this iteration     100.00

 eigenvalues of (default mixing * dielectric matrix)
  average eigenvalue GAMMA=   1.1997
  2.3768  0.8792  0.8792  0.6637

 Free energy of the ion-electron system (eV)
  ---------------------------------------------------
  alpha Z        PSCENC =        52.70228547
  Ewald energy   TEWEN  =      -372.49100223
  -1/2 Hartree   DENC   =       -22.43992001
  -exchange  EXHF       =         0.00000000
  -V(xc)+E(xc)   XCENC  =       -51.16773459
  PAW double counting   =       264.10557100     -192.10800925
  entropy T*S    EENTRO =         0.00021824
  eigenvalues    EBANDS =        21.35177386
  atomic energy  EATOM  =       277.79342126
  ---------------------------------------------------
  free energy    TOTEN  =       -22.25339625 eV

  energy without entropy =      -22.25361449  energy(sigma->0) =      -22.25346900


--------------------------------------------------------------------------------------------------------




----------------------------------------- Iteration    1(  10)  ---------------------------------------


    POTLOK:  cpu time    0.37: real time    0.37
    SETDIJ:  cpu time    0.07: real time    0.07
     EDDAV:  cpu time    6.97: real time    6.97
       DOS:  cpu time    0.01: real time    0.01
    CHARGE:  cpu time    0.46: real time    0.46
    MIXING:  cpu time    0.01: real time    0.01
    --------------------------------------------
      LOOP:  cpu time    7.90: real time    7.91

 eigenvalue-minimisations  :  3196
 total energy-change (2. order) : 0.2140633E-02  (-0.1212680E-03)
 number of electron       9.0000000 magnetization      -0.0010564
 augmentation part        0.4649772 magnetization      -0.0025651

 Broyden mixing:
  rms(total) = 0.56668E-02    rms(broyden)= 0.56667E-02
  rms(prec ) = 0.11137E-01
  weight for this iteration     100.00

 eigenvalues of (default mixing * dielectric matrix)
  average eigenvalue GAMMA=   1.1147
  2.3207  0.9333  0.9333  0.7493  0.6369

 Free energy of the ion-electron system (eV)
  ---------------------------------------------------
  alpha Z        PSCENC =        52.70228547
  Ewald energy   TEWEN  =      -372.49100223
  -1/2 Hartree   DENC   =       -22.47847732
  -exchange  EXHF       =         0.00000000
  -V(xc)+E(xc)   XCENC  =       -51.17935485
  PAW double counting   =       263.45251468     -191.44835090
  entropy T*S    EENTRO =         0.00024479
  eigenvalues    EBANDS =        21.39746347
  atomic energy  EATOM  =       277.79342126
  ---------------------------------------------------
  free energy    TOTEN  =       -22.25125562 eV

  energy without entropy =      -22.25150040  energy(sigma->0) =      -22.25133721


--------------------------------------------------------------------------------------------------------




----------------------------------------- Iteration    1(  11)  ---------------------------------------


    POTLOK:  cpu time    0.36: real time    0.36
    SETDIJ:  cpu time    0.07: real time    0.07
     EDDAV:  cpu time    6.46: real time    6.48
       DOS:  cpu time    0.01: real time    0.01
    CHARGE:  cpu time    0.47: real time    0.47
    MIXING:  cpu time    0.01: real time    0.01
    --------------------------------------------
      LOOP:  cpu time    7.38: real time    7.41

 eigenvalue-minimisations  :  2888
 total energy-change (2. order) : 0.1622152E-03  (-0.1421963E-04)
 number of electron       9.0000000 magnetization      -0.0011543
 augmentation part        0.4648918 magnetization      -0.0007554

 Broyden mixing:
  rms(total) = 0.32668E-02    rms(broyden)= 0.32668E-02
  rms(prec ) = 0.63516E-02
  weight for this iteration     100.00

 eigenvalues of (default mixing * dielectric matrix)
  average eigenvalue GAMMA=   1.2273
  2.2387  1.9443  0.9186  0.9186  0.7200  0.6236

 Free energy of the ion-electron system (eV)
  ---------------------------------------------------
  alpha Z        PSCENC =        52.70228547
  Ewald energy   TEWEN  =      -372.49100223
  -1/2 Hartree   DENC   =       -22.49611229
  -exchange  EXHF       =         0.00000000
  -V(xc)+E(xc)   XCENC  =       -51.18075595
  PAW double counting   =       264.46682782     -192.47206881
  entropy T*S    EENTRO =         0.00024564
  eigenvalues    EBANDS =        21.42606569
  atomic energy  EATOM  =       277.79342126
  ---------------------------------------------------
  free energy    TOTEN  =       -22.25109340 eV

  energy without entropy =      -22.25133904  energy(sigma->0) =      -22.25117528


--------------------------------------------------------------------------------------------------------




----------------------------------------- Iteration    1(  12)  ---------------------------------------


    POTLOK:  cpu time    0.37: real time    0.37
    SETDIJ:  cpu time    0.07: real time    0.07
     EDDAV:  cpu time    4.69: real time    4.70
       DOS:  cpu time    0.01: real time    0.01
    --------------------------------------------
      LOOP:  cpu time    5.14: real time    5.16

 eigenvalue-minimisations  :  1696
 total energy-change (2. order) : 0.3488191E-04  (-0.3560922E-05)
 number of electron       9.0000000 magnetization      -0.0011543
 augmentation part        0.4648918 magnetization      -0.0007554

 Free energy of the ion-electron system (eV)
  ---------------------------------------------------
  alpha Z        PSCENC =        52.70228547
  Ewald energy   TEWEN  =      -372.49100223
  -1/2 Hartree   DENC   =       -22.50501958
  -exchange  EXHF       =         0.00000000
  -V(xc)+E(xc)   XCENC  =       -51.17940521
  PAW double counting   =       265.69263494     -193.70898282
  entropy T*S    EENTRO =         0.00023918
  eigenvalues    EBANDS =        21.44477047
  atomic energy  EATOM  =       277.79342126
  ---------------------------------------------------
  free energy    TOTEN  =       -22.25105852 eV

  energy without entropy =      -22.25129770  energy(sigma->0) =      -22.25113825


--------------------------------------------------------------------------------------------------------




 average (electrostatic) potential at core
  the test charge radii are     0.6991  1.2538
  (the norm of the test charge is              1.0000)
       1 -46.5702       2 -34.0646
 
 
 
 E-fermi :   8.3247     XC(G=0): -12.9565     alpha+bet :-15.3997


 spin component 1

 k-point   1 :       0.0625    0.0625    0.0625
  band No.  band energies     occupation 
      1      -6.1053      1.00000
      2       6.5808      1.00000
      3       6.9212      1.00000
      4       6.9212      1.00000
      5       7.6608      1.00000
      6       7.6608      1.00000
      7       8.3877     -0.03528
      8       9.9485      0.00000
      9       9.9485      0.00000
     10      15.1380      0.00000
     11      18.8062      0.00000
     12      20.7882      0.00000

 k-point   2 :       0.1875    0.0625    0.0625
  band No.  band energies     occupation 
      1      -5.5787      1.00000
      2       5.0350      1.00000
      3       5.4969      1.00000
      4       5.6603      1.00000
      5       7.6368      1.00000
      6       8.5474      0.00000
      7       9.1918      0.00000
      8      11.0448      0.00000
      9      12.5760      0.00000
     10      16.1340      0.00000
     11      20.0937      0.00000
     12      20.7883      0.00000

 k-point   3 :       0.3125    0.0625    0.0625
  band No.  band energies     occupation 
      1      -4.3941      1.00000
      2       2.8491      1.00000
      3       4.0749      1.00000
      4       4.3759      1.00000
      5       8.7720      0.00000
      6       9.3461      0.00000
      7      10.1147      0.00000
      8      13.7411      0.00000
      9      15.4574      0.00000
     10      17.0979      0.00000
     11      20.7805      0.00000
     12      21.5239      0.00000

 k-point   4 :       0.4375    0.0625    0.0625
  band No.  band energies     occupation 
      1      -2.8761      1.00000
      2       0.8926      1.00000
      3       3.2926      1.00000
      4       3.4574      1.00000
      5      10.2577      0.00000
      6      10.4555      0.00000
      7      11.3862      0.00000
      8      15.4490      0.00000
      9      16.4827      0.00000
     10      17.7949      0.00000
     11      20.7779      0.00000
     12      21.8433      0.00000

 k-point   5 :      -0.4375    0.0625    0.0625
  band No.  band energies     occupation 
      1      -2.0997      1.00000
      2       0.0323      1.00000
      3       3.1367      1.00000
      4       3.1854      1.00000
      5      10.7665      0.00000
      6      11.1649      0.00000
      7      11.9966      0.00000
      8      14.2957      0.00000
      9      17.8299      0.00000
     10      18.1847      0.00000
     11      20.7682      0.00000
     12      20.9030      0.00000

 k-point   6 :      -0.3125    0.0625    0.0625
  band No.  band energies     occupation 
      1      -3.4001      1.00000
      2       1.5059      1.00000
      3       3.4842      1.00000
      4       3.7473      1.00000
      5       9.3847      0.00000
      6      10.5144      0.00000
      7      10.8677      0.00000
      8      15.6964      0.00000
      9      16.0401      0.00000
     10      17.2646      0.00000
     11      20.7756      0.00000
     12      21.7688      0.00000

 k-point   7 :      -0.1875    0.0625    0.0625
  band No.  band energies     occupation 
      1      -4.8521      1.00000
      2       3.4969      1.00000
      3       4.5290      1.00000
      4       4.9168      1.00000
      5       8.0826      1.00000
      6       9.1858      0.00000
      7       9.7429      0.00000
      8      12.9599      0.00000
      9      14.2516      0.00000
     10      17.0831      0.00000
     11      20.7844      0.00000
     12      21.2869      0.00000

 k-point   8 :      -0.0625    0.0625    0.0625
  band No.  band energies     occupation 
      1      -5.8401      1.00000
      2       5.5533      1.00000
      3       6.1379      1.00000
      4       6.3702      1.00000
      5       7.1899      1.00000
      6       8.4813     -0.00004
      7       9.0252      0.00000
      8      10.1790      0.00000
      9      11.5881      0.00000
     10      15.7361      0.00000
     11      19.4941      0.00000
     12      20.7883      0.00000

 k-point   9 :       0.1875    0.1875    0.0625
  band No.  band energies     occupation 
      1      -5.3574      1.00000
      2       4.0657      1.00000
      3       5.6345      1.00000
      4       6.0211      1.00000
      5       6.8116      1.00000
      6       9.2490      0.00000
      7      10.0174      0.00000
      8      10.6898      0.00000
      9      12.8947      0.00000
     10      16.9900      0.00000
     11      20.7162      0.00000
     12      20.7884      0.00000

 k-point  10 :       0.3125    0.1875    0.0625
  band No.  band energies     occupation 
      1      -4.5207      1.00000
      2       2.7679      1.00000
      3       4.6098      1.00000
      4       5.0701      1.00000
      5       7.3413      1.00000
      6      10.1247      0.00000
      7      10.9307      0.00000
      8      12.0408      0.00000
      9      14.7116      0.00000
     10      18.3527      0.00000
     11      20.7847      0.00000
     12      22.1081      0.00000

 k-point  11 :       0.4375    0.1875    0.0625
  band No.  band energies     occupation 
      1      -3.3644      1.00000
      2       1.5608      1.00000
      3       3.5913      1.00000
      4       4.1342      1.00000
      5       8.4363     -0.00352
      6      11.0892      0.00000
      7      11.7565      0.00000
      8      14.2793      0.00000
      9      16.0433      0.00000
     10      18.4426      0.00000
     11      20.7297      0.00000
     12      21.0323      0.00000

 k-point  12 :      -0.4375    0.1875    0.0625
  band No.  band energies     occupation 
      1      -2.4895      1.00000
      2       0.6664      1.00000
      3       3.3384      1.00000
      4       3.5361      1.00000
      5       9.9331      0.00000
      6      11.0041      0.00000
      7      11.9132      0.00000
      8      15.5645      0.00000
      9      16.7613      0.00000
     10      17.7119      0.00000
     11      20.7334      0.00000
     12      20.9805      0.00000

 k-point  13 :      -0.3125    0.1875    0.0625
  band No.  band energies     occupation 
      1      -2.8893      1.00000
      2       1.0652      1.00000
      3       3.4178      1.00000
      4       3.6675      1.00000
      5       9.5713      0.00000
      6      10.9581      0.00000
      7      11.6663      0.00000
      8      14.7654      0.00000
      9      16.3697      0.00000
     10      18.3074      0.00000
     11      20.7703      0.00000
     12      21.5082      0.00000

 k-point  14 :      -0.1875    0.1875    0.0625
  band No.  band energies     occupation 
      1      -4.0694      1.00000
      2       2.3946      1.00000
      3       4.0023      1.00000
      4       4.2675      1.00000
      5       8.3474      0.15556
      6      10.4867      0.00000
      7      11.0211      0.00000
      8      12.5370      0.00000
      9      16.1791      0.00000
     10      17.8648      0.00000
     11      20.7806      0.00000
     12      21.9332      0.00000

 k-point  15 :      -0.0625    0.1875    0.0625
  band No.  band energies     occupation 
      1      -5.1023      1.00000
      2       3.8439      1.00000
      3       4.9675      1.00000
      4       5.2404      1.00000
      5       7.5905      1.00000
      6       9.2968      0.00000
      7       9.9292      0.00000
      8      11.5263      0.00000
      9      13.8768      0.00000
     10      17.0646      0.00000
     11      20.7872      0.00000
     12      21.1036      0.00000

 k-point  16 :       0.3125    0.3125    0.0625
  band No.  band energies     occupation 
      1      -4.2631      1.00000
      2       2.3897      1.00000
      3       4.7960      1.00000
      4       5.9161      1.00000
      5       6.3771      1.00000
      6      10.3533      0.00000
      7      11.9263      0.00000
      8      12.1237      0.00000
      9      14.5625      0.00000
     10      19.7049      0.00000
     11      20.7794      0.00000
     12      21.7583      0.00000

 k-point  17 :       0.4375    0.3125    0.0625
  band No.  band energies     occupation 
      1      -3.7888      1.00000
      2       2.3588      1.00000
      3       4.0700      1.00000
      4       5.2366      1.00000
      5       7.1473      1.00000
      6      11.4094      0.00000
      7      12.3281      0.00000
      8      12.6704      0.00000
      9      15.7592      0.00000
     10      18.8899      0.00000
     11      20.1327      0.00000
     12      20.8004      0.00000

 k-point  18 :      -0.4375    0.3125    0.0625
  band No.  band energies     occupation 
      1      -3.2539      1.00000
      2       2.1575      1.00000
      3       3.5613      1.00000
      4       4.4222      1.00000
      5       8.2132      1.00356
      6      11.5072      0.00000
      7      12.2302      0.00000
      8      14.3932      0.00000
      9      15.7550      0.00000
     10      18.5491      0.00000
     11      20.0720      0.00000
     12      20.8018      0.00000

 k-point  19 :      -0.3125    0.3125    0.0625
  band No.  band energies     occupation 
      1      -2.8843      1.00000
      2       1.5495      1.00000
      3       3.5126      1.00000
      4       3.8358      1.00000
      5       9.8612      0.00000
      6      10.4212      0.00000
      7      12.0524      0.00000
      8      14.0546      0.00000
      9      16.7767      0.00000
     10      19.0916      0.00000
     11      20.7552      0.00000
     12      21.0402      0.00000

 k-point  20 :      -0.1875    0.3125    0.0625
  band No.  band energies     occupation 
      1      -3.1149      1.00000
      2       1.4343      1.00000
      3       3.5921      1.00000
      4       3.7227      1.00000
      5       9.3341      0.00000
      6      11.2652      0.00000
      7      11.6141      0.00000
      8      13.2728      0.00000
      9      16.9753      0.00000
     10      18.4514      0.00000
     11      20.7714      0.00000
     12      21.5849      0.00000

 k-point  21 :      -0.0625    0.3125    0.0625
  band No.  band energies     occupation 
      1      -3.8331      1.00000
      2       2.0544      1.00000
      3       3.7354      1.00000
      4       4.1513      1.00000
      5       8.6748      0.00000
      6      10.2013      0.00000
      7      10.9800      0.00000
      8      14.0825      0.00000
      9      16.1919      0.00000
     10      17.5470      0.00000
     11      20.7763      0.00000
     12      21.6717      0.00000

 k-point  22 :       0.4375    0.4375    0.0625
  band No.  band energies     occupation 
      1      -3.9985      1.00000
      2       3.1518      1.00000
      3       4.1287      1.00000
      4       6.3095      1.00000
      5       6.6230      1.00000
      6      11.1333      0.00000
      7      12.5107      0.00000
      8      12.5256      0.00000
      9      15.9533      0.00000
     10      16.7476      0.00000
     11      20.6253      0.00000
     12      20.7972      0.00000

 k-point  23 :      -0.4375    0.4375    0.0625
  band No.  band energies     occupation 
      1      -3.8517      1.00000
      2       3.5983      1.00000
      3       3.7803      1.00000
      4       5.4415      1.00000
      5       7.2969      1.00000
      6      12.0928      0.00000
      7      12.2972      0.00000
      8      12.4790      0.00000
      9      15.2986      0.00000
     10      17.2471      0.00000
     11      20.4348      0.00000
     12      20.7951      0.00000

 k-point  24 :      -0.3125    0.4375    0.0625
  band No.  band energies     occupation 
      1      -3.3511      1.00000
      2       2.6244      1.00000
      3       3.5826      1.00000
      4       4.5153      1.00000
      5       8.1493      1.00000
      6      11.4263      0.00000
      7      12.3669      0.00000
      8      14.3434      0.00000
      9      14.9083      0.00000
     10      18.9511      0.00000
     11      20.4734      0.00000
     12      20.7997      0.00000

 k-point  25 :      -0.1875    0.4375    0.0625
  band No.  band energies     occupation 
      1      -2.7137      1.00000
      2       1.1521      1.00000
      3       3.4582      1.00000
      4       3.7191      1.00000
      5       9.8896      0.00000
      6      10.6146      0.00000
      7      11.8588      0.00000
      8      15.2913      0.00000
      9      16.6313      0.00000
     10      18.0059      0.00000
     11      20.7431      0.00000
     12      21.0423      0.00000

 k-point  26 :      -0.0625    0.4375    0.0625
  band No.  band energies     occupation 
      1      -2.4920      1.00000
      2       0.5142      1.00000
      3       3.2400      1.00000
      4       3.4182      1.00000
      5      10.0907      0.00000
      6      11.0865      0.00000
      7      11.8061      0.00000
      8      15.1440      0.00000
      9      16.6513      0.00000
     10      18.2334      0.00000
     11      20.7701      0.00000
     12      21.2612      0.00000

 k-point  27 :      -0.4375   -0.4375    0.0625
  band No.  band energies     occupation 
      1      -4.0485      1.00000
      2       3.7338      1.00000
      3       3.9746      1.00000
      4       6.4677      1.00000
      5       6.7355      1.00000
      6      11.3385      0.00000
      7      12.4198      0.00000
      8      12.4704      0.00000
      9      15.3794      0.00000
     10      16.5030      0.00000
     11      20.4416      0.00000
     12      20.7949      0.00000

 k-point  28 :      -0.3125   -0.4375    0.0625
  band No.  band energies     occupation 
      1      -3.7911      1.00000
      2       2.9835      1.00000
      3       3.8862      1.00000
      4       5.3898      1.00000
      5       7.2253      1.00000
      6      11.8298      0.00000
      7      12.3881      0.00000
      8      12.5855      0.00000
      9      16.0511      0.00000
     10      17.2788      0.00000
     11      20.4132      0.00000
     12      20.7970      0.00000

 k-point  29 :      -0.1875   -0.4375    0.0625
  band No.  band energies     occupation 
      1      -3.1872      1.00000
      2       1.6468      1.00000
      3       3.5537      1.00000
      4       4.2571      1.00000
      5       8.2905      0.95431
      6      11.5444      0.00000
      7      12.1105      0.00000
      8      14.3472      0.00000
      9      16.1054      0.00000
     10      18.8372      0.00000
     11      19.8205      0.00000
     12      20.8047      0.00000

 k-point  30 :      -0.3125   -0.3125    0.0625
  band No.  band energies     occupation 
      1      -4.0139      1.00000
      2       2.5307      1.00000
      3       4.4148      1.00000
      4       6.0880      1.00000
      5       6.4599      1.00000
      6      10.7869      0.00000
      7      12.4108      0.00000
      8      12.4986      0.00000
      9      15.2893      0.00000
     10      18.7944      0.00000
     11      20.6560      0.00000
     12      20.8065      0.00000

 k-point  31 :      -0.1875   -0.3125    0.0625
  band No.  band energies     occupation 
      1      -4.0229      1.00000
      2       2.2254      1.00000
      3       4.3147      1.00000
      4       5.0930      1.00000
      5       7.1693      1.00000
      6      10.8406      0.00000
      7      11.8232      0.00000
      8      12.5019      0.00000
      9      15.2485      0.00000
     10      19.3949      0.00000
     11      20.7538      0.00000
     12      21.1760      0.00000

 k-point  32 :      -0.1875   -0.1875    0.0625
  band No.  band energies     occupation 
      1      -4.7692      1.00000
      2       2.9355      1.00000
      3       5.2119      1.00000
      4       5.8771      1.00000
      5       6.4899      1.00000
      6       9.8549      0.00000
      7      11.0601      0.00000
      8      11.4313      0.00000
      9      13.8078      0.00000
     10      18.5432      0.00000
     11      20.7872      0.00000
     12      22.2266      0.00000

 k-point  33 :       0.1875    0.1875    0.1875
  band No.  band energies     occupation 
      1      -5.3217      1.00000
      2       4.4363      1.00000
      3       5.1974      1.00000
      4       5.1974      1.00000
      5       8.2768      1.02007
      6       8.2768      1.02007
      7       9.1280      0.00000
      8      12.7125      0.00000
      9      12.7125      0.00000
     10      16.4140      0.00000
     11      20.5658      0.00000
     12      20.7899      0.00000

 k-point  34 :       0.3125    0.1875    0.1875
  band No.  band energies     occupation 
      1      -4.6368      1.00000
      2       3.2671      1.00000
      3       4.2574      1.00000
      4       4.6087      1.00000
      5       8.2415      1.02020
      6       9.7532      0.00000
      7      10.2483      0.00000
      8      12.0645      0.00000
      9      15.3781      0.00000
     10      17.2394      0.00000
     11      20.7851      0.00000
     12      21.6409      0.00000

 k-point  35 :       0.4375    0.1875    0.1875
  band No.  band energies     occupation 
      1      -3.5297      1.00000
      2       1.8115      1.00000
      3       3.6133      1.00000
      4       3.8974      1.00000
      5       9.1069      0.00000
      6      10.7397      0.00000
      7      11.4544      0.00000
      8      12.9493      0.00000
      9      17.0858      0.00000
     10      17.6897      0.00000
     11      20.7784      0.00000
     12      21.8385      0.00000

 k-point  36 :      -0.4375    0.1875    0.1875
  band No.  band energies     occupation 
      1      -2.6174      1.00000
      2       0.8484      1.00000
      3       3.4693      1.00000
      4       3.4838      1.00000
      5      10.4642      0.00000
      6      10.6101      0.00000
      7      11.4189      0.00000
      8      15.0704      0.00000
      9      16.9427      0.00000
     10      17.9052      0.00000
     11      20.7727      0.00000
     12      21.3608      0.00000

 k-point  37 :      -0.3125    0.1875    0.1875
  band No.  band energies     occupation 
      1      -2.8209      1.00000
      2       1.1068      1.00000
      3       3.3950      1.00000
      4       3.8841      1.00000
      5       8.9338      0.00000
      6      11.4514      0.00000
      7      12.0542      0.00000
      8      15.7442      0.00000
      9      15.7494      0.00000
     10      18.2886      0.00000
     11      20.1978      0.00000
     12      20.8118      0.00000

 k-point  38 :      -0.1875    0.1875    0.1875
  band No.  band energies     occupation 
      1      -3.7867      1.00000
      2       1.9909      1.00000
      3       3.9264      1.00000
      4       4.8010      1.00000
      5       7.5105      1.00000
      6      10.9784      0.00000
      7      11.7330      0.00000
      8      13.4544      0.00000
      9      15.5569      0.00000
     10      18.9434      0.00000
     11      20.6964      0.00000
     12      20.9459      0.00000

 k-point  39 :       0.3125    0.3125    0.1875
  band No.  band energies     occupation 
      1      -4.2772      1.00000
      2       2.5238      1.00000
      3       4.1481      1.00000
      4       4.7801      1.00000
      5       7.7627      1.00000
      6      10.1368      0.00000
      7      10.7724      0.00000
      8      13.2499      0.00000
      9      15.1398      0.00000
     10      18.0825      0.00000
     11      20.7802      0.00000
     12      21.7425      0.00000

 k-point  40 :       0.4375    0.3125    0.1875
  band No.  band energies     occupation 
      1      -3.5950      1.00000
      2       1.8861      1.00000
      3       3.8828      1.00000
      4       4.1853      1.00000
      5       8.2475      1.02572
      6      11.2455      0.00000
      7      11.7479      0.00000
      8      12.8973      0.00000
      9      16.2220      0.00000
     10      18.8021      0.00000
     11      20.7462      0.00000
     12      21.1254      0.00000

 k-point  41 :      -0.4375    0.3125    0.1875
  band No.  band energies     occupation 
      1      -3.0197      1.00000
      2       1.6239      1.00000
      3       3.5709      1.00000
      4       3.8343      1.00000
      5       9.3607      0.00000
      6      10.9727      0.00000
      7      12.0783      0.00000
      8      13.5545      0.00000
      9      16.7824      0.00000
     10      19.0002      0.00000
     11      20.6982      0.00000
     12      20.9427      0.00000

 k-point  42 :      -0.3125    0.3125    0.1875
  band No.  band energies     occupation 
      1      -2.9715      1.00000
      2       1.7467      1.00000
      3       3.4992      1.00000
      4       3.9535      1.00000
      5       9.4050      0.00000
      6      10.5953      0.00000
      7      12.1920      0.00000
      8      15.0718      0.00000
      9      15.5165      0.00000
     10      19.0171      0.00000
     11      20.6534      0.00000
     12      20.8837      0.00000

 k-point  43 :      -0.1875    0.3125    0.1875
  band No.  band energies     occupation 
      1      -3.4033      1.00000
      2       2.0166      1.00000
      3       3.7503      1.00000
      4       4.3156      1.00000
      5       8.2020      1.00142
      6      11.6234      0.00000
      7      12.1834      0.00000
      8      13.0356      0.00000
      9      16.3368      0.00000
     10      19.1623      0.00000
     11      19.9355      0.00000
     12      20.8048      0.00000

 k-point  44 :       0.4375    0.4375    0.1875
  band No.  band energies     occupation 
      1      -3.5670      1.00000
      2       2.0952      1.00000
      3       3.7884      1.00000
      4       4.9441      1.00000
      5       7.3848      1.00000
      6      11.5924      0.00000
      7      12.2498      0.00000
      8      13.4693      0.00000
      9      15.9055      0.00000
     10      18.9803      0.00000
     11      19.6285      0.00000
     12      20.8000      0.00000

 k-point  45 :      -0.4375    0.4375    0.1875
  band No.  band energies     occupation 
      1      -3.4503      1.00000
      2       2.6390      1.00000
      3       3.6568      1.00000
      4       4.4266      1.00000
      5       8.2363      1.01575
      6      11.5626      0.00000
      7      12.3918      0.00000
      8      13.1010      0.00000
      9      15.9256      0.00000
     10      18.5720      0.00000
     11      20.3627      0.00000
     12      20.8016      0.00000

 k-point  46 :      -0.3125    0.4375    0.1875
  band No.  band energies     occupation 
      1      -3.2754      1.00000
      2       2.9328      1.00000
      3       3.5314      1.00000
      4       3.8311      1.00000
      5       9.4366      0.00000
      6      10.5865      0.00000
      7      12.4566      0.00000
      8      13.5388      0.00000
      9      14.8305      0.00000
     10      20.4079      0.00000
     11      20.8193      0.00000
     12      21.1527      0.00000

 k-point  47 :      -0.1875    0.4375    0.1875
  band No.  band energies     occupation 
      1      -3.1497      1.00000
      2       2.2542      1.00000
      3       3.5368      1.00000
      4       3.9660      1.00000
      5       9.3965      0.00000
      6      10.5875      0.00000
      7      12.3761      0.00000
      8      13.7242      0.00000
      9      15.6852      0.00000
     10      19.8562      0.00000
     11      20.6710      0.00000
     12      20.8772      0.00000

 k-point  48 :      -0.4375   -0.4375    0.1875
  band No.  band energies     occupation 
      1      -3.6586      1.00000
      2       3.1698      1.00000
      3       3.6790      1.00000
      4       5.2726      1.00000
      5       7.2608      1.00000
      6      11.9349      0.00000
      7      12.4184      0.00000
      8      13.3709      0.00000
      9      15.1230      0.00000
     10      17.7941      0.00000
     11      20.3687      0.00000
     12      20.7958      0.00000

 k-point  49 :      -0.3125   -0.4375    0.1875
  band No.  band energies     occupation 
      1      -3.5358      1.00000
      2       3.2977      1.00000
      3       3.6221      1.00000
      4       4.3444      1.00000
      5       8.2832      0.99719
      6      11.5380      0.00000
      7      12.4546      0.00000
      8      13.0779      0.00000
      9      15.0703      0.00000
     10      18.7687      0.00000
     11      20.6362      0.00000
     12      20.7993      0.00000

 k-point  50 :      -0.3125   -0.3125    0.1875
  band No.  band energies     occupation 
      1      -3.5872      1.00000
      2       2.6574      1.00000
      3       3.7040      1.00000
      4       5.1351      1.00000
      5       7.3273      1.00000
      6      11.8926      0.00000
      7      12.3427      0.00000
      8      13.3906      0.00000
      9      15.9407      0.00000
     10      17.7215      0.00000
     11      20.1235      0.00000
     12      20.7972      0.00000

 k-point  51 :       0.3125    0.3125    0.3125
  band No.  band energies     occupation 
      1      -3.9482      1.00000
      2       2.2155      1.00000
      3       3.8655      1.00000
      4       3.8655      1.00000
      5       9.6155      0.00000
      6       9.6155      0.00000
      7      10.0058      0.00000
      8      15.5853      0.00000
      9      15.5853      0.00000
     10      16.7562      0.00000
     11      20.7764      0.00000
     12      21.5844      0.00000

 k-point  52 :       0.4375    0.3125    0.3125
  band No.  band energies     occupation 
      1      -3.2984      1.00000
      2       1.4490      1.00000
      3       3.4709      1.00000
      4       3.7725      1.00000
      5       9.5560      0.00000
[...]
      5       7.7621      1.00000
      6      10.1360      0.00000
      7      10.7717      0.00000
      8      13.2501      0.00000
      9      15.1401      0.00000
     10      18.0825      0.00000
     11      20.7799      0.00000
     12      21.7415      0.00000

 k-point  40 :       0.4375    0.3125    0.1875
  band No.  band energies     occupation 
      1      -3.5945      1.00000
      2       1.8861      1.00000
      3       3.8827      1.00000
      4       4.1854      1.00000
      5       8.2470      1.02524
      6      11.2448      0.00000
      7      11.7471      0.00000
      8      12.8972      0.00000
      9      16.2221      0.00000
     10      18.8023      0.00000
     11      20.7462      0.00000
     12      21.1253      0.00000

 k-point  41 :      -0.4375    0.3125    0.1875
  band No.  band energies     occupation 
      1      -3.0191      1.00000
      2       1.6239      1.00000
      3       3.5708      1.00000
      4       3.8344      1.00000
      5       9.3601      0.00000
      6      10.9718      0.00000
      7      12.0775      0.00000
      8      13.5545      0.00000
      9      16.7826      0.00000
     10      19.0001      0.00000
     11      20.6984      0.00000
     12      20.9424      0.00000

 k-point  42 :      -0.3125    0.3125    0.1875
  band No.  band energies     occupation 
      1      -2.9710      1.00000
      2       1.7466      1.00000
      3       3.4992      1.00000
      4       3.9537      1.00000
      5       9.4044      0.00000
      6      10.5945      0.00000
      7      12.1909      0.00000
      8      15.0720      0.00000
      9      15.5167      0.00000
     10      19.0166      0.00000
     11      20.6538      0.00000
     12      20.8833      0.00000

 k-point  43 :      -0.1875    0.3125    0.1875
  band No.  band energies     occupation 
      1      -3.4028      1.00000
      2       2.0166      1.00000
      3       3.7500      1.00000
      4       4.3158      1.00000
      5       8.2016      1.00138
      6      11.6225      0.00000
      7      12.1826      0.00000
      8      13.0355      0.00000
      9      16.3370      0.00000
     10      19.1624      0.00000
     11      19.9355      0.00000
     12      20.8044      0.00000

 k-point  44 :       0.4375    0.4375    0.1875
  band No.  band energies     occupation 
      1      -3.5665      1.00000
      2       2.0952      1.00000
      3       3.7882      1.00000
      4       4.9443      1.00000
      5       7.3845      1.00000
      6      11.5915      0.00000
      7      12.2489      0.00000
      8      13.4693      0.00000
      9      15.9057      0.00000
     10      18.9803      0.00000
     11      19.6284      0.00000
     12      20.7996      0.00000

 k-point  45 :      -0.4375    0.4375    0.1875
  band No.  band energies     occupation 
      1      -3.4498      1.00000
      2       2.6390      1.00000
      3       3.6565      1.00000
      4       4.4268      1.00000
      5       8.2362      1.01561
      6      11.5617      0.00000
      7      12.3907      0.00000
      8      13.1010      0.00000
      9      15.9258      0.00000
     10      18.5719      0.00000
     11      20.3625      0.00000
     12      20.8012      0.00000

 k-point  46 :      -0.3125    0.4375    0.1875
  band No.  band energies     occupation 
      1      -3.2748      1.00000
      2       2.9328      1.00000
      3       3.5314      1.00000
      4       3.8312      1.00000
      5       9.4363      0.00000
      6      10.5859      0.00000
      7      12.4553      0.00000
      8      13.5386      0.00000
      9      14.8308      0.00000
     10      20.4083      0.00000
     11      20.8189      0.00000
     12      21.1520      0.00000

 k-point  47 :      -0.1875    0.4375    0.1875
  band No.  band energies     occupation 
      1      -3.1492      1.00000
      2       2.2542      1.00000
      3       3.5367      1.00000
      4       3.9662      1.00000
      5       9.3961      0.00000
      6      10.5868      0.00000
      7      12.3750      0.00000
      8      13.7242      0.00000
      9      15.6855      0.00000
     10      19.8558      0.00000
     11      20.6713      0.00000
     12      20.8768      0.00000

 k-point  48 :      -0.4375   -0.4375    0.1875
  band No.  band energies     occupation 
      1      -3.6581      1.00000
      2       3.1695      1.00000
      3       3.6790      1.00000
      4       5.2729      1.00000
      5       7.2606      1.00000
      6      11.9337      0.00000
      7      12.4174      0.00000
      8      13.3710      0.00000
      9      15.1230      0.00000
     10      17.7943      0.00000
     11      20.3681      0.00000
     12      20.7954      0.00000

 k-point  49 :      -0.3125   -0.4375    0.1875
  band No.  band energies     occupation 
      1      -3.5353      1.00000
      2       3.2976      1.00000
      3       3.6220      1.00000
      4       4.3446      1.00000
      5       8.2831      0.99748
      6      11.5371      0.00000
      7      12.4533      0.00000
      8      13.0778      0.00000
      9      15.0704      0.00000
     10      18.7689      0.00000
     11      20.6356      0.00000
     12      20.7990      0.00000

 k-point  50 :      -0.3125   -0.3125    0.1875
  band No.  band energies     occupation 
      1      -3.5867      1.00000
      2       2.6574      1.00000
      3       3.7038      1.00000
      4       5.1354      1.00000
      5       7.3271      1.00000
      6      11.8916      0.00000
      7      12.3416      0.00000
      8      13.3907      0.00000
      9      15.9410      0.00000
     10      17.7214      0.00000
     11      20.1233      0.00000
     12      20.7968      0.00000

 k-point  51 :       0.3125    0.3125    0.3125
  band No.  band energies     occupation 
      1      -3.9478      1.00000
      2       2.2155      1.00000
      3       3.8656      1.00000
      4       3.8656      1.00000
      5       9.6146      0.00000
      6       9.6146      0.00000
      7      10.0052      0.00000
      8      15.5858      0.00000
      9      15.5858      0.00000
     10      16.7558      0.00000
     11      20.7762      0.00000
     12      21.5835      0.00000

 k-point  52 :       0.4375    0.3125    0.3125
  band No.  band energies     occupation 
      1      -3.2979      1.00000
      2       1.4490      1.00000
      3       3.4710      1.00000
      4       3.7724      1.00000
      5       9.5551      0.00000
      6      10.2207      0.00000
      7      11.4925      0.00000
      8      14.5025      0.00000
      9      16.5332      0.00000
     10      17.7319      0.00000
     11      20.7766      0.00000
     12      21.8783      0.00000

 k-point  53 :      -0.4375    0.3125    0.3125
  band No.  band energies     occupation 
      1      -2.8257      1.00000
      2       1.2277      1.00000
      3       3.5565      1.00000
      4       3.5980      1.00000
      5      10.1192      0.00000
      6      10.7224      0.00000
      7      11.6273      0.00000
      8      13.6789      0.00000
      9      17.8887      0.00000
     10      17.9454      0.00000
     11      20.7733      0.00000
     12      21.1991      0.00000

 k-point  54 :      -0.3125    0.3125    0.3125
  band No.  band energies     occupation 
      1      -3.0664      1.00000
      2       1.9576      1.00000
      3       3.5279      1.00000
      4       4.1864      1.00000
      5       8.7609      0.00000
      6      11.1268      0.00000
      7      12.1730      0.00000
      8      14.4857      0.00000
      9      15.9050      0.00000
     10      19.1968      0.00000
     11      20.5086      0.00000
     12      20.8043      0.00000

 k-point  55 :       0.4375    0.4375    0.3125
  band No.  band energies     occupation 
      1      -2.9505      1.00000
      2       1.0409      1.00000
      3       3.3572      1.00000
      4       3.7594      1.00000
      5       9.1066      0.00000
      6      11.1988      0.00000
      7      11.7783      0.00000
      8      15.5815      0.00000
      9      15.7301      0.00000
     10      18.2260      0.00000
     11      20.7454      0.00000
     12      21.0928      0.00000

 k-point  56 :      -0.4375    0.4375    0.3125
  band No.  band energies     occupation 
      1      -2.8149      1.00000
      2       1.2161      1.00000
      3       3.4573      1.00000
      4       3.7774      1.00000
      5       9.4595      0.00000
      6      10.9616      0.00000
      7      11.9311      0.00000
      8      14.9410      0.00000
      9      16.4422      0.00000
     10      18.3400      0.00000
     11      20.6981      0.00000
     12      20.9378      0.00000

 k-point  57 :      -0.3125    0.4375    0.3125
  band No.  band energies     occupation 
      1      -3.1104      1.00000
      2       2.2233      1.00000
      3       3.5210      1.00000
      4       4.0146      1.00000
      5       9.3627      0.00000
      6      10.5284      0.00000
      7      12.3561      0.00000
      8      14.2275      0.00000
      9      15.2898      0.00000
     10      20.1345      0.00000
     11      20.7327      0.00000
     12      20.9312      0.00000

 k-point  58 :      -0.4375   -0.4375    0.3125
  band No.  band energies     occupation 
      1      -2.9405      1.00000
      2       1.5579      1.00000
      3       3.4814      1.00000
      4       4.0585      1.00000
      5       8.8384      0.00000
      6      11.3200      0.00000
      7      11.9757      0.00000
      8      15.5282      0.00000
      9      15.8243      0.00000
     10      18.2638      0.00000
     11      20.2936      0.00000
     12      20.8109      0.00000

 k-point  59 :       0.4375    0.4375    0.4375
  band No.  band energies     occupation 
      1      -2.3784      1.00000
      2       0.3117      1.00000
      3       3.1813      1.00000
      4       3.1813      1.00000
      5      10.9035      0.00000
      6      10.9035      0.00000
      7      11.5237      0.00000
      8      14.5868      0.00000
      9      17.8363      0.00000
     10      17.8363      0.00000
     11      20.7831      0.00000
     12      21.2699      0.00000

 k-point  60 :      -0.4375    0.4375    0.4375
  band No.  band energies     occupation 
      1      -2.2832      1.00000
      2       0.3248      1.00000
      3       3.2955      1.00000
      4       3.2999      1.00000
      5      10.5901      0.00000
      6      10.9303      0.00000
      7      11.7179      0.00000
      8      15.1624      0.00000
      9      17.1850      0.00000
     10      17.8509      0.00000
     11      20.7689      0.00000
     12      21.1113      0.00000


--------------------------------------------------------------------------------------------------------


 soft charge-density along one line, spin component           1
         0         1         2         3         4         5         6         7         8         9
 total charge-density along one line
 
 soft charge-density along one line, spin component           2
         0         1         2         3         4         5         6         7         8         9
 total charge-density along one line
 
 pseudopotential strength for first ion, spin component:           1
  9.512  -0.003   0.000   0.000   0.000   0.000   0.000   0.000
 -0.003  -0.002   0.000   0.000   0.000   0.000   0.000   0.000
  0.000   0.000  -3.725   0.000   0.000  -0.007   0.000   0.000
  0.000   0.000   0.000  -3.725   0.000   0.000  -0.007   0.000
  0.000   0.000   0.000   0.000  -3.725   0.000   0.000  -0.007
  0.000   0.000  -0.007   0.000   0.000  -0.758   0.000   0.000
  0.000   0.000   0.000  -0.007   0.000   0.000  -0.758   0.000
  0.000   0.000   0.000   0.000  -0.007   0.000   0.000  -0.758
 pseudopotential strength for first ion, spin component:           2
  9.512  -0.003   0.000   0.000   0.000   0.000   0.000   0.000
 -0.003  -0.002   0.000   0.000   0.000   0.000   0.000   0.000
  0.000   0.000  -3.724   0.000   0.000  -0.007   0.000   0.000
  0.000   0.000   0.000  -3.724   0.000   0.000  -0.007   0.000
  0.000   0.000   0.000   0.000  -3.724   0.000   0.000  -0.007
  0.000   0.000  -0.007   0.000   0.000  -0.758   0.000   0.000
  0.000   0.000   0.000  -0.007   0.000   0.000  -0.758   0.000
  0.000   0.000   0.000   0.000  -0.007   0.000   0.000  -0.758
 total augmentation occupancy for first ion, spin component:           1
  1.520  -0.816   0.000   0.000   0.000   0.000   0.000   0.000
 -0.816   0.501   0.000   0.000   0.000   0.000   0.000   0.000
  0.000   0.000   1.026   0.000   0.000   0.129   0.000   0.000
  0.000   0.000   0.000   1.026   0.000   0.000   0.129   0.000
  0.000   0.000   0.000   0.000   1.026   0.000   0.000   0.129
  0.000   0.000   0.129   0.000   0.000   0.018   0.000   0.000
  0.000   0.000   0.000   0.129   0.000   0.000   0.018   0.000
  0.000   0.000   0.000   0.000   0.129   0.000   0.000   0.018
 total augmentation occupancy for first ion, spin component:           2
  0.000   0.000   0.000   0.000   0.000   0.000   0.000   0.000
  0.000   0.000   0.000   0.000   0.000   0.000   0.000   0.000
  0.000   0.000   0.000   0.000   0.000   0.000   0.000   0.000
  0.000   0.000   0.000   0.000   0.000   0.000   0.000   0.000
  0.000   0.000   0.000   0.000   0.000   0.000   0.000   0.000
  0.000   0.000   0.000   0.000   0.000   0.000   0.000   0.000
  0.000   0.000   0.000   0.000   0.000   0.000   0.000   0.000
  0.000   0.000   0.000   0.000   0.000   0.000   0.000   0.000


------------------------ aborting loop because EDIFF is reached ----------------------------------------


 


 total charge     
 
# of ion     s       p       d       tot
----------------------------------------
  1        0.866   1.575   0.000   2.441
  2        0.587   0.982   3.517   5.085
------------------------------------------------
tot        1.453   2.557   3.517   7.526
 


 magnetization (x)
 
# of ion     s       p       d       tot
----------------------------------------
  1        0.000   0.000   0.000   0.000
  2        0.000   0.000   0.000   0.000
------------------------------------------------
tot        0.000   0.000   0.000   0.000
 
    CHARGE:  cpu time    0.47: real time    0.47
    FORLOC:  cpu time    0.01: real time    0.01
    FORNL :  cpu time    0.73: real time    0.73
    STRESS:  cpu time    1.27: real time    1.27
    FORCOR:  cpu time    0.36: real time    0.36
    FORHAR:  cpu time    0.05: real time    0.05
    MIXING:  cpu time    0.01: real time    0.01

  FORCE on cell =-STRESS in cart. coord.  units (eV):
  Direction    XX          YY          ZZ          XY          YZ          ZX
  --------------------------------------------------------------------------------------
  Alpha Z    52.70229    52.70229    52.70229
  Ewald    -124.16371  -124.16371  -124.16371     0.00000     0.00000     0.00000
  Hartree     7.50025     7.50025     7.50025     0.00000     0.00000     0.00000
  E(xc)     -37.72136   -37.72136   -37.72136     0.00000     0.00000     0.00000
  Local     -13.29481   -13.29481   -13.29481     0.00000     0.00000     0.00000
  n-local    -5.90186    -9.01689    -2.33710     0.76227    -0.81086    -0.01337
  augment     2.60459     2.60459     2.60459     0.00000     0.00000     0.00000
  Kinetic   121.08289   124.09583   109.05546     3.63118    -4.15392     0.00537
  Fock        0.00000     0.00000     0.00000     0.00000     0.00000     0.00000
  -------------------------------------------------------------------------------------
  Total      -0.04665    -0.04665    -0.04665     0.00000     0.00000     0.00000
  in kB      -3.33376    -3.33376    -3.33376     0.00000     0.00000     0.00000
  external pressure =       -3.33 kB  Pullay stress =        0.00 kB


 VOLUME and BASIS-vectors are now :
 -----------------------------------------------------------------------------
  energy-cutoff  :      450.00
  volume of cell :       22.42
      direct lattice vectors                 reciprocal lattice vectors
     0.000000000  2.238000000  2.238000000    -0.223413762  0.223413762  0.223413762
     2.238000000  0.000000000  2.238000000     0.223413762 -0.223413762  0.223413762
     2.238000000  2.238000000  0.000000000     0.223413762  0.223413762 -0.223413762

  length of vectors
     3.165009953  3.165009953  3.165009953     0.386963987  0.386963987  0.386963987


 FORCES acting on ions
    electron-ion (+dipol)            ewald-force                    non-local-force                 convergence-correction
 -----------------------------------------------------------------------------------------------
   -.311E-13 -.208E-12 0.890E-13   0.150E-14 0.609E-15 0.137E-14   -.103E-24 0.517E-24 -.414E-24   -.319E-14 -.311E-14 -.423E-14
   -.150E-14 -.325E-14 -.348E-14   -.131E-14 -.349E-15 -.184E-14   0.414E-24 0.000E+00 0.827E-24   0.187E-15 0.742E-15 0.151E-15
 -----------------------------------------------------------------------------------------------
   -.326E-13 -.211E-12 0.855E-13   0.199E-15 0.259E-15 -.471E-15   0.310E-24 0.517E-24 0.414E-24   -.300E-14 -.236E-14 -.408E-14
 
 
 POSITION                                       TOTAL-FORCE (eV/Angst)
 -----------------------------------------------------------------------------------
      2.23800      2.23800      2.23800         0.000000      0.000000      0.000000
      0.00000      0.00000      0.00000         0.000000      0.000000      0.000000
 -----------------------------------------------------------------------------------
    total drift:                                0.000000      0.000000      0.000000


--------------------------------------------------------------------------------------------------------



  FREE ENERGIE OF THE ION-ELECTRON SYSTEM (eV)
  ---------------------------------------------------
  free  energy   TOTEN  =       -22.251059 eV

  energy  without entropy=      -22.251298  energy(sigma->0) =      -22.251138
 


--------------------------------------------------------------------------------------------------------


    POTLOK:  cpu time    0.44: real time    0.44


--------------------------------------------------------------------------------------------------------


 writing wavefunctions
     LOOP+:  cpu time   94.64: real time   94.95
    4ORBIT:  cpu time    0.00: real time    0.00
 


 total charge     
 
# of ion     s       p       d       tot
----------------------------------------
  1        0.866   1.575   0.000   2.441
  2        0.587   0.982   3.517   5.085
------------------------------------------------
tot        1.453   2.557   3.517   7.526
 


 magnetization (x)
 
# of ion     s       p       d       tot
----------------------------------------
  1        0.000   0.000   0.000   0.000
  2        0.000   0.000   0.000   0.000
------------------------------------------------
tot        0.000   0.000   0.000   0.000
 

 total amount of memory used by VASP on root node    65663. kBytes
========================================================================

   base      :      30000. kBytes
   nonl-proj :       8932. kBytes
   fftplans  :       3916. kBytes
   grid      :      10266. kBytes
   one-center:         62. kBytes
   wavefun   :      12487. kBytes
 
  
  
 General timing and accounting informations for this job:
 ========================================================
  
                  Total CPU time used (sec):       95.969
                            User time (sec):       95.726
                          System time (sec):        0.243
                         Elapsed time (sec):       96.361
  
                   Maximum memory used (kb):           0.
                   Average memory used (kb):           0.
  
                          Minor page faults:        23579
                          Major page faults:            0
                 Voluntary context switches:          909
