    2    2   50    1
  0.4851000E+03  0.9800000E-09  0.9900000E-09  0.1000000E-08  0.5000000E-15
  1.000000000000000E-004
  CAR 
 unknown system                          
   12    1   10
 
  0.0000000E+00  0.0000000E+00  0.0000000E+00  0.1000000E+01
   1      -31.932508
   2      -19.836529
   3      -12.973259
   4      -12.407437
   5      -12.407276
   6       -5.933353
   7       -5.933341
   8       -0.307040
   9        0.945487
  10        1.129247
