       N       E                     dE             d eps       ncg     rms          rms(c)
DAV:   1     0.586312606621E+02    0.58631E+02   -0.26720E+03    28   0.564E+02
DAV:   2     0.741695069539E+01   -0.51214E+02   -0.51167E+02    28   0.146E+02
DAV:   3    -0.600880106310E+01   -0.13426E+02   -0.13275E+02    40   0.404E+01
DAV:   4    -0.900685981307E+01   -0.29981E+01   -0.29878E+01    28   0.151E+01
DAV:   5    -0.904962426151E+01   -0.42764E-01   -0.36336E-01    24   0.194E+00    0.437E+00
DAV:   6    -0.879407294360E+01    0.25555E+00   -0.33068E-01    24   0.560E+00    0.230E+00
DAV:   7    -0.877250973578E+01    0.21563E-01   -0.34992E-01    20   0.469E+00    0.573E+00
DAV:   8    -0.864075568648E+01    0.13175E+00   -0.11049E-01    24   0.146E+00    0.107E+00
DAV:   9    -0.874401696367E+01   -0.10326E+00   -0.22038E-02    24   0.105E+00    0.964E-01
DAV:  10    -0.873877734100E+01    0.52396E-02   -0.12219E-02    24   0.237E-01    0.502E-01
DAV:  11    -0.874579852961E+01   -0.70212E-02   -0.41724E-03    24   0.293E-01    0.319E-01
DAV:  12    -0.874567182950E+01    0.12670E-03   -0.55275E-04    24   0.189E-01    0.636E-02
DAV:  13    -0.874671266065E+01   -0.10408E-02   -0.99244E-05    20   0.986E-02    0.421E-02
DAV:  14    -0.874678856703E+01   -0.75906E-04   -0.33914E-05    20   0.256E-02
   1 F= -.87467886E+01 E0= -.87373855E+01  d E =-.874679E+01
       N       E                     dE             d eps       ncg     rms          rms(c)
DAV:   1    -0.871862670196E+01    0.28086E-01   -0.38070E+00    24   0.192E+01    0.470E-01
DAV:   2    -0.871817984682E+01    0.44686E-03   -0.42526E-02    24   0.217E+00    0.239E-01
DAV:   3    -0.871836876268E+01   -0.18892E-03   -0.56469E-03    24   0.551E-01    0.815E-01
DAV:   4    -0.871327489837E+01    0.50939E-02   -0.47414E-03    20   0.223E-01    0.247E-01
DAV:   5    -0.871800703460E+01   -0.47321E-02   -0.73921E-04    20   0.237E-01    0.886E-02
DAV:   6    -0.871807592469E+01   -0.68890E-04   -0.11674E-04    20   0.819E-02
   2 F= -.87180759E+01 E0= -.87086731E+01  d E =0.287126E-01
       N       E                     dE             d eps       ncg     rms          rms(c)
DAV:   1    -0.874749165409E+01   -0.29485E-01   -0.26610E+00    24   0.161E+01    0.368E-01
DAV:   2    -0.874806336314E+01   -0.57171E-03   -0.33266E-02    20   0.189E+00    0.217E-01
DAV:   3    -0.874783016361E+01    0.23320E-03   -0.39884E-03    22   0.503E-01    0.558E-01
DAV:   4    -0.874523806791E+01    0.25921E-02   -0.45093E-03    24   0.191E-01    0.317E-01
DAV:   5    -0.874725217245E+01   -0.20141E-02   -0.57617E-04    20   0.240E-01    0.626E-02
DAV:   6    -0.874786034094E+01   -0.60817E-03   -0.96301E-05    20   0.907E-02    0.505E-02
DAV:   7    -0.874780022384E+01    0.60117E-04   -0.52145E-06    20   0.281E-02
   3 F= -.87478002E+01 E0= -.87383971E+01  d E =-.297243E-01
