<?xml version="1.0" encoding="ISO-8859-1"?>
<modeling>
 <generator>
  <i name="program" type="string">vasp </i>
  <i name="version" type="string">5.2.12  </i>
  <i name="subversion" type="string">11Nov11 complex                                                      parallel </i>
  <i name="platform" type="string">LinuxIFC </i>
  <i name="date" type="string">2012 10 09 </i>
  <i name="time" type="string">20:13:03 </i>
 </generator>
 <incar>
  <i type="string" name="PREC">accurate</i>
  <i type="int" name="IBRION">     1</i>
  <i name="EDIFFG">     -0.05000000</i>
  <i type="int" name="NSW">    50</i>
  <i type="int" name="ISIF">     2</i>
  <i name="ENCUT">    450.00000000</i>
  <i type="logical" name="LREAL"> F  </i>
  <i type="int" name="ISMEAR">     1</i>
  <i name="SIGMA">      0.05000000</i>
 </incar>
 <kpoints>
  <generation param="Monkhorst-Pack">
   <v type="int" name="divisions">       1        1        1 </v>
   <v name="usershift">      0.00000000       0.00000000       0.00000000 </v>
   <v name="genvec1">      1.00000000       0.00000000       0.00000000 </v>
   <v name="genvec2">      0.00000000       1.00000000       0.00000000 </v>
   <v name="genvec3">      0.00000000       0.00000000       1.00000000 </v>
   <v name="shift">      0.00000000       0.00000000       0.00000000 </v>
  </generation>
  <varray name="kpointlist" >
   <v>       0.00000000       0.00000000       0.00000000 </v>
  </varray>
  <varray name="weights" >
   <v>       1.00000000 </v>
  </varray>
 </kpoints>
 <parameters>
  <separator name="general" >
   <i type="string" name="SYSTEM">unknown system</i>
   <i type="logical" name="LCOMPAT"> F  </i>
  </separator>
  <separator name="electronic" >
   <i type="string" name="PREC">accura</i>
   <i name="ENMAX">    450.00000000</i>
   <i name="ENAUG">    605.39200000</i>
   <i name="EDIFF">      0.00010000</i>
   <i type="int" name="IALGO">    38</i>
   <i type="int" name="IWAVPR">    11</i>
   <i type="int" name="NBANDS">    10</i>
   <i name="NELECT">     12.00000000</i>
   <i type="int" name="TURBO">     0</i>
   <i type="int" name="IRESTART">     0</i>
   <i type="int" name="NREBOOT">     0</i>
   <i type="int" name="NMIN">     0</i>
   <i name="EREF">      0.00000000</i>
   <separator name="electronic smearing" >
    <i type="int" name="ISMEAR">     1</i>
    <i name="SIGMA">      0.05000000</i>
    <i name="KSPACING">      0.50000000</i>
    <i type="logical" name="KGAMMA"> T  </i>
   </separator>
   <separator name="electronic projectors" >
    <i type="logical" name="LREAL"> F  </i>
    <v name="ROPT">      0.00000000</v>
    <i type="int" name="LMAXPAW">  -100</i>
    <i type="int" name="LMAXMIX">     2</i>
    <i type="logical" name="NLSPLINE"> F  </i>
   </separator>
   <separator name="electronic startup" >
    <i type="int" name="ISTART">     0</i>
    <i type="int" name="ICHARG">     2</i>
    <i type="int" name="INIWAV">     1</i>
   </separator>
   <separator name="electronic spin" >
    <i type="int" name="ISPIN">     1</i>
    <i type="logical" name="LNONCOLLINEAR"> F  </i>
    <v name="MAGMOM">      1.00000000      1.00000000</v>
    <i name="NUPDOWN">     -1.00000000</i>
    <i type="logical" name="LSORBIT"> F  </i>
    <v name="SAXIS">      0.00000000      0.00000000      1.00000000</v>
    <i type="logical" name="LSPIRAL"> F  </i>
    <v name="QSPIRAL">      0.00000000      0.00000000      0.00000000</v>
    <i type="logical" name="LZEROZ"> F  </i>
   </separator>
   <separator name="electronic exchange-correlation" >
    <i type="logical" name="LASPH"> F  </i>
    <i type="logical" name="LMETAGGA"> F  </i>
   </separator>
   <separator name="electronic convergence" >
    <i type="int" name="NELM">    60</i>
    <i type="int" name="NELMDL">    -5</i>
    <i type="int" name="NELMIN">     2</i>
    <i name="ENINI">    450.00000000</i>
    <separator name="electronic convergence detail" >
     <i type="logical" name="LDIAG"> T  </i>
     <i type="logical" name="LSUBROT"> T  </i>
     <i name="WEIMIN">      0.00100000</i>
     <i name="EBREAK">      0.00000250</i>
     <i name="DEPER">      0.30000000</i>
     <i type="int" name="NRMM">     4</i>
     <i name="TIME">      0.40000000</i>
    </separator>
   </separator>
   <separator name="electronic mixer" >
    <i name="AMIX">      0.40000000</i>
    <i name="BMIX">      1.00000000</i>
    <i name="AMIN">      0.10000000</i>
    <i name="AMIX_MAG">      1.60000000</i>
    <i name="BMIX_MAG">      1.00000000</i>
    <separator name="electronic mixer details" >
     <i type="int" name="IMIX">     4</i>
     <i type="int" name="MAXMIX">   -45</i>
     <i name="WC">    100.00000000</i>
     <i type="int" name="INIMIX">     1</i>
     <i type="int" name="MIXPRE">     1</i>
     <i type="int" name="MREMOVE">     5</i>
    </separator>
   </separator>
   <separator name="electronic dipolcorrection" >
    <i type="logical" name="LDIPOL"> F  </i>
    <i type="logical" name="LMONO"> F  </i>
    <i type="int" name="IDIPOL">     0</i>
    <i name="EPSILON">      1.00000000</i>
    <v name="DIPOL">   -100.00000000   -100.00000000   -100.00000000</v>
    <i name="EFIELD">      0.00000000</i>
   </separator>
  </separator>
  <separator name="grids" >
   <i type="int" name="NGX">    70</i>
   <i type="int" name="NGY">    70</i>
   <i type="int" name="NGZ">    70</i>
   <i type="int" name="NGXF">   140</i>
   <i type="int" name="NGYF">   140</i>
   <i type="int" name="NGZF">   140</i>
   <i type="logical" name="ADDGRID"> F  </i>
  </separator>
  <separator name="ionic" >
   <i type="int" name="NSW">    50</i>
   <i type="int" name="IBRION">     1</i>
   <i type="int" name="ISIF">     2</i>
   <i name="PSTRESS">      0.00000000</i>
   <i name="EDIFFG">     -0.05000000</i>
   <i type="int" name="NFREE">     0</i>
   <i name="POTIM">      0.50000000</i>
   <i name="SMASS">     -3.00000000</i>
   <i name="SCALEE">      1.00000000</i>
  </separator>
  <separator name="ionic md" >
   <i name="TEBEG">      0.00010000</i>
   <i name="TEEND">      0.00010000</i>
   <i type="int" name="NBLOCK">     1</i>
   <i type="int" name="KBLOCK">    50</i>
   <i type="int" name="NPACO">   256</i>
   <i name="APACO">     16.00000000</i>
  </separator>
  <separator name="symmetry" >
   <i type="int" name="ISYM">     2</i>
   <i name="SYMPREC">      0.00001000</i>
  </separator>
  <separator name="dos" >
   <i type="logical" name="LORBIT"> F  </i>
   <v name="RWIGS">     -1.00000000</v>
   <i type="int" name="NEDOS">   301</i>
   <i name="EMIN">     10.00000000</i>
   <i name="EMAX">    -10.00000000</i>
   <i name="EFERMI">      0.00000000</i>
  </separator>
  <separator name="writing" >
   <i type="int" name="NWRITE">     2</i>
   <i type="logical" name="LWAVE"> T  </i>
   <i type="logical" name="LCHARG"> T  </i>
   <i type="logical" name="LPARD"> F  </i>
   <i type="logical" name="LVTOT"> F  </i>
   <i type="logical" name="LVHAR"> F  </i>
   <i type="logical" name="LELF"> F  </i>
   <i type="logical" name="LOPTICS"> F  </i>
   <v name="STM">      0.00000000      0.00000000      0.00000000      0.00000000      0.00000000      0.00000000      0.00000000</v>
  </separator>
  <separator name="performance" >
   <i type="int" name="NPAR">     1</i>
   <i type="int" name="NSIM">     4</i>
   <i type="int" name="NBLK">    -1</i>
   <i type="logical" name="LPLANE"> T  </i>
   <i type="logical" name="LSCALAPACK"> F  </i>
   <i type="logical" name="LSCAAWARE"> F  </i>
   <i type="logical" name="LSCALU"> F  </i>
   <i type="logical" name="LASYNC"> F  </i>
   <i type="logical" name="LORBITALREAL"> F  </i>
  </separator>
  <separator name="miscellaneous" >
   <i type="int" name="IDIOT">     3</i>
   <i type="logical" name="LMUSIC"> F  </i>
   <v name="POMASS">     16.00000000</v>
   <v name="DARWINR">      0.00000000</v>
   <v name="DARWINV">      1.00000000</v>
   <i type="logical" name="LCORR"> T  </i>
  </separator>
  <i type="logical" name="GGA_COMPAT"> T  </i>
  <i type="logical" name="LBERRY"> F  </i>
  <i type="int" name="ICORELEVEL">     0</i>
  <i type="logical" name="LDAU"> F  </i>
  <i type="int" name="I_CONSTRAINED_M">     0</i>
  <separator name="electronic exchange-correlation" >
   <i type="string" name="GGA">--</i>
   <i type="int" name="VOSKOWN">     0</i>
   <i type="logical" name="LHFCALC"> F  </i>
   <i type="string" name="PRECFOCK"></i>
   <i type="logical" name="LHFONE"> F  </i>
   <i type="logical" name="LRHFCALC"> F  </i>
   <i type="logical" name="LTHOMAS"> F  </i>
   <i type="logical" name="LMODELHF"> F  </i>
   <i name="ENCUT4O">     -1.00000000</i>
   <i type="int" name="EXXOEP">     0</i>
   <i type="int" name="FOURORBIT">     0</i>
   <i name="AEXX">      0.00000000</i>
   <i name="HFALPHA">      0.00000000</i>
   <i name="ALDAX">      1.00000000</i>
   <i name="AGGAX">      1.00000000</i>
   <i name="ALDAC">      1.00000000</i>
   <i name="AGGAC">      1.00000000</i>
   <i type="int" name="NKREDX">     1</i>
   <i type="int" name="NKREDY">     1</i>
   <i type="int" name="NKREDZ">     1</i>
   <i type="logical" name="SHIFTRED"> F  </i>
   <i type="logical" name="ODDONLY"> F  </i>
   <i type="logical" name="EVENONLY"> F  </i>
   <i type="int" name="LMAXFOCK">     0</i>
   <i type="int" name="NMAXFOCKAE">     0</i>
   <i type="logical" name="LFOCKAEDFT"> F  </i>
   <i name="HFSCREEN">      0.00000000</i>
   <i name="HFSCREENC">      0.00000000</i>
  </separator>
  <separator name="vdW DFT" >
   <i type="logical" name="LUSE_VDW"> F  </i>
   <i name="Zab_VDW">     -0.84910000</i>
   <i name="PARAM1">      0.12340000</i>
   <i name="PARAM2">      1.00000000</i>
   <i name="PARAM3">      0.00000000</i>
  </separator>
  <separator name="model GW" >
   <i type="int" name="MODEL_GW">     0</i>
   <i name="MODEL_EPS0">    291.06000000</i>
   <i name="MODEL_ALPHA">      1.00000000</i>
  </separator>
  <separator name="linear response parameters" >
   <i type="logical" name="LEPSILON"> F  </i>
   <i type="logical" name="LRPA"> F  </i>
   <i type="logical" name="LNABLA"> F  </i>
   <i type="logical" name="LVEL"> F  </i>
   <i type="int" name="KINTER">     0</i>
   <i name="CSHIFT">      0.10000000</i>
   <i name="OMEGAMAX">     -1.00000000</i>
  </separator>
  <separator name="orbital magnetization" >
   <i type="logical" name="NUCIND"> F  </i>
   <v name="MAGPOS">      0.00000000      0.00000000      0.00000000</v>
   <i type="logical" name="LNICSALL"> T  </i>
   <i type="logical" name="ORBITALMAG"> F  </i>
   <i type="logical" name="LMAGBLOCH"> F  </i>
   <i type="logical" name="LCHIMAG"> F  </i>
   <i type="logical" name="LGAUGE"> T  </i>
   <i type="int" name="MAGATOM">     0</i>
   <v name="MAGDIPOL">      0.00000000      0.00000000      0.00000000</v>
   <v name="AVECCONST">      0.00000000      0.00000000      0.00000000</v>
  </separator>
  <separator name="response functions" >
   <i type="logical" name="LADDER"> F  </i>
   <i type="logical" name="LHARTREE"> T  </i>
   <i type="int" name="IBSE">     0</i>
   <i type="logical" name="LTCTE"> F  </i>
   <i type="logical" name="LTETE"> F  </i>
   <i type="logical" name="LFXCEPS"> F  </i>
   <i type="logical" name="L2ORDER"> F  </i>
   <i type="logical" name="LUSEW"> F  </i>
   <i name="ENCUTGW">     -2.00000000</i>
   <i name="ENCUTGWSOFT">     -2.00000000</i>
   <i name="ENCUTLF">     -1.00000000</i>
   <i type="int" name="LMAXMP2">    -1</i>
   <i name="SCISSOR">      0.00000000</i>
   <i type="int" name="NOMEGA">     0</i>
   <i type="int" name="NOMEGAR">     0</i>
   <i type="int" name="NBANDSGW">    -1</i>
   <i type="int" name="NBANDSO">    -1</i>
   <i type="int" name="NBANDSV">    -1</i>
   <i name="OPTEMAX">      0.00000000</i>
   <i type="int" name="NELM">     1</i>
   <i type="int" name="DIM">     3</i>
   <i type="int" name="ANTIRES">     0</i>
   <i name="OMEGAMAX">    -30.00000000</i>
   <i name="OMEGATL">   -200.00000000</i>
   <i type="int" name="OMEGAGRID">     0</i>
   <i name="CSHIFT">     -0.10000000</i>
   <i type="logical" name="SELFENERGY"> F  </i>
   <i type="logical" name="LSPECTRAL"> F  </i>
   <i type="logical" name="ODDONLYGW"> F  </i>
   <i type="logical" name="EVENONLYGW"> F  </i>
   <i type="int" name="NKREDLFX">     1</i>
   <i type="int" name="NKREDLFY">     1</i>
   <i type="int" name="NKREDLFZ">     1</i>
   <i type="int" name="MAXMEM">  1800</i>
   <i type="int" name="TELESCOPE">     0</i>
  </separator>
 </parameters>
 <atominfo>
  <atoms>       2 </atoms>
  <types>       1 </types>
  <array name="atoms" >
   <dimension dim="1">ion</dimension>
   <field type="string">element</field>
   <field type="int">atomtype</field>
   <set>
    <rc><c>O </c><c>   1</c></rc>
    <rc><c>O </c><c>   1</c></rc>
   </set>
  </array>
  <array name="atomtypes" >
   <dimension dim="1">type</dimension>
   <field type="int">atomspertype</field>
   <field type="string">element</field>
   <field>mass</field>
   <field>valence</field>
   <field type="string">pseudopotential</field>
   <set>
    <rc><c>   2</c><c>O </c><c>     16.00000000</c><c>      6.00000000</c><c> PAW_PBE O 08Apr2002                    </c></rc>
   </set>
  </array>
 </atominfo>
 <structure name="initialpos" >
  <crystal>
   <varray name="basis" >
    <v>       9.80000000       0.00000000       0.00000000 </v>
    <v>       0.00000000       9.90000000       0.00000000 </v>
    <v>       0.00000000       0.00000000      10.00000000 </v>
   </varray>
   <i name="volume">    970.20000000 </i>
   <varray name="rec_basis" >
    <v>       0.10204082       0.00000000       0.00000000 </v>
    <v>       0.00000000       0.10101010       0.00000000 </v>
    <v>       0.00000000       0.00000000       0.10000000 </v>
   </varray>
  </crystal>
  <varray name="positions" >
   <v>       0.00000000       0.00000000       0.00000000 </v>
   <v>       0.12551020       0.00000000       0.00000000 </v>
  </varray>
 </structure>
 <calculation>
  <scstep>
   <time name="dav">    4.46    6.50</time>
   <time name="total">   11.48   17.17</time>
   <energy>
    <i name="alphaZ">      0.57280012 </i>
    <i name="ewald">    126.15054829 </i>
    <i name="hartreedc">   -854.30024460 </i>
    <i name="XCdc">     54.46669089 </i>
    <i name="pawpsdc">    491.99680524 </i>
    <i name="pawaedc">   -495.69617649 </i>
    <i name="eentropy">      0.00289895 </i>
    <i name="bandstr">   -129.24177670 </i>
    <i name="atom">    864.67971496 </i>
    <i name="e_fr_energy">     58.63126066 </i>
    <i name="e_wo_entrp">     58.62836171 </i>
    <i name="e_0_energy">     58.63029434 </i>
   </energy>
  </scstep>
  <scstep>
   <time name="dav">    4.65    7.24</time>
   <time name="total">    4.65    7.29</time>
   <energy>
    <i name="e_fr_energy">      7.41695070 </i>
    <i name="e_wo_entrp">      7.41405174 </i>
    <i name="e_0_energy">      7.41598438 </i>
   </energy>
  </scstep>
  <scstep>
   <time name="dav">    5.76    8.69</time>
   <time name="total">    5.76    8.76</time>
   <energy>
    <i name="e_fr_energy">     -6.00880106 </i>
    <i name="e_wo_entrp">     -6.01170002 </i>
    <i name="e_0_energy">     -6.00976738 </i>
   </energy>
  </scstep>
  <scstep>
   <time name="dav">    4.54    5.78</time>
   <time name="total">    4.54    5.79</time>
   <energy>
    <i name="e_fr_energy">     -9.00685981 </i>
    <i name="e_wo_entrp">     -8.98550116 </i>
    <i name="e_0_energy">     -8.99974026 </i>
   </energy>
  </scstep>
  <scstep>
   <time name="dav">    3.27    4.50</time>
   <time name="total">    4.53    6.39</time>
   <energy>
    <i name="e_fr_energy">     -9.04962426 </i>
    <i name="e_wo_entrp">     -9.02142548 </i>
    <i name="e_0_energy">     -9.04022467 </i>
   </energy>
  </scstep>
  <scstep>
   <time name="dav">    3.44    3.44</time>
   <time name="total">   10.80   11.61</time>
   <energy>
    <i name="e_fr_energy">     -8.79407294 </i>
    <i name="e_wo_entrp">     -8.76603693 </i>
    <i name="e_0_energy">     -8.78472761 </i>
   </energy>
  </scstep>
  <scstep>
   <time name="dav">    2.80    2.80</time>
   <time name="total">    9.38    9.42</time>
   <energy>
    <i name="e_fr_energy">     -8.77250974 </i>
    <i name="e_wo_entrp">     -8.76669235 </i>
    <i name="e_0_energy">     -8.77057061 </i>
   </energy>
  </scstep>
  <scstep>
   <time name="dav">    3.07    3.07</time>
   <time name="total">    9.26    9.28</time>
   <energy>
    <i name="e_fr_energy">     -8.64075569 </i>
    <i name="e_wo_entrp">     -8.61282413 </i>
    <i name="e_0_energy">     -8.63144517 </i>
   </energy>
  </scstep>
  <scstep>
   <time name="dav">    3.65    3.65</time>
   <time name="total">   11.09   11.59</time>
   <energy>
    <i name="e_fr_energy">     -8.74401696 </i>
    <i name="e_wo_entrp">     -8.71640642 </i>
    <i name="e_0_energy">     -8.73481345 </i>
   </energy>
  </scstep>
  <scstep>
   <time name="dav">    3.36    4.50</time>
   <time name="total">   10.53   13.62</time>
   <energy>
    <i name="e_fr_energy">     -8.73877734 </i>
    <i name="e_wo_entrp">     -8.71071403 </i>
    <i name="e_0_energy">     -8.72942290 </i>
   </energy>
  </scstep>
  <scstep>
   <time name="dav">    4.04    4.63</time>
   <time name="total">   11.63   14.51</time>
   <energy>
    <i name="e_fr_energy">     -8.74579853 </i>
    <i name="e_wo_entrp">     -8.71765170 </i>
    <i name="e_0_energy">     -8.73641625 </i>
   </energy>
  </scstep>
  <scstep>
   <time name="dav">    4.28    6.65</time>
   <time name="total">   10.94   16.81</time>
   <energy>
    <i name="e_fr_energy">     -8.74567183 </i>
    <i name="e_wo_entrp">     -8.71746420 </i>
    <i name="e_0_energy">     -8.73626929 </i>
   </energy>
  </scstep>
  <scstep>
   <time name="dav">    3.65    6.53</time>
   <time name="total">   11.71   20.75</time>
   <energy>
    <i name="e_fr_energy">     -8.74671266 </i>
    <i name="e_wo_entrp">     -8.71850421 </i>
    <i name="e_0_energy">     -8.73730984 </i>
   </energy>
  </scstep>
  <scstep>
   <time name="dav">    3.76    6.88</time>
   <time name="total">   10.41   18.94</time>
   <energy>
    <i name="alphaZ">      0.57280012 </i>
    <i name="ewald">    126.15054829 </i>
    <i name="hartreedc">   -860.17373591 </i>
    <i name="XCdc">     55.01676679 </i>
    <i name="pawpsdc">    565.89488201 </i>
    <i name="pawaedc">   -569.57611525 </i>
    <i name="eentropy">     -0.02820916 </i>
    <i name="bandstr">   -191.28344042 </i>
    <i name="atom">    864.67971496 </i>
    <i name="e_fr_energy">     -8.74678857 </i>
    <i name="e_wo_entrp">     -8.71857941 </i>
    <i name="e_0_energy">     -8.73738551 </i>
   </energy>
  </scstep>
  <parameters_embedded>
   <separator name="dft+d2" >
    <i type="logical" name="LVDW"> F  </i>
   </separator>
  </parameters_embedded>
  <structure>
   <crystal>
    <varray name="basis" >
     <v>       9.80000000       0.00000000       0.00000000 </v>
     <v>       0.00000000       9.90000000       0.00000000 </v>
     <v>       0.00000000       0.00000000      10.00000000 </v>
    </varray>
    <i name="volume">    970.20000000 </i>
    <varray name="rec_basis" >
     <v>       0.10204082       0.00000000       0.00000000 </v>
     <v>       0.00000000       0.10101010       0.00000000 </v>
     <v>       0.00000000       0.00000000       0.10000000 </v>
    </varray>
   </crystal>
   <varray name="positions" >
    <v>       0.00000000       0.00000000       0.00000000 </v>
    <v>       0.12551020       0.00000000       0.00000000 </v>
   </varray>
  </structure>
  <varray name="forces" >
   <v>      -0.36375414       0.00000000       0.00000000 </v>
   <v>       0.36375414       0.00000000       0.00000000 </v>
  </varray>
  <varray name="stress" >
   <v>       0.19652350       0.00000000       0.00000000 </v>
   <v>       0.00000000      -0.72804641       0.00000000 </v>
   <v>       0.00000000       0.00000000      -0.77016910 </v>
  </varray>
  <energy>
   <i name="e_fr_energy">     -8.74678857 </i>
   <i name="e_wo_entrp">     -8.73738551 </i>
   <i name="e_0_energy">     -0.02820916 </i>
  </energy>
  <time name="totalsc">  144.27  201.09</time>
 </calculation>
 <calculation>
  <scstep>
   <time name="dav">    4.24    6.35</time>
   <time name="total">   12.23   18.88</time>
   <energy>
    <i name="alphaZ">      0.57280012 </i>
    <i name="ewald">    114.56552313 </i>
    <i name="hartreedc">   -851.62158328 </i>
    <i name="XCdc">     54.86694763 </i>
    <i name="pawpsdc">    565.91326311 </i>
    <i name="pawaedc">   -569.59431015 </i>
    <i name="eentropy">     -0.02820944 </i>
    <i name="bandstr">   -188.07277279 </i>
    <i name="atom">    864.67971496 </i>
    <i name="e_fr_energy">     -8.71862670 </i>
    <i name="e_wo_entrp">     -8.69041727 </i>
    <i name="e_0_energy">     -8.70922356 </i>
   </energy>
  </scstep>
  <scstep>
   <time name="dav">    3.98    6.01</time>
   <time name="total">   11.52   17.32</time>
   <energy>
    <i name="e_fr_energy">     -8.71817985 </i>
    <i name="e_wo_entrp">     -8.68997474 </i>
    <i name="e_0_energy">     -8.70877815 </i>
   </energy>
  </scstep>
  <scstep>
   <time name="dav">    3.90    4.65</time>
   <time name="total">   10.79   14.60</time>
   <energy>
    <i name="e_fr_energy">     -8.71836876 </i>
    <i name="e_wo_entrp">     -8.69058610 </i>
    <i name="e_0_energy">     -8.70910788 </i>
   </energy>
  </scstep>
  <scstep>
   <time name="dav">    2.79    2.83</time>
   <time name="total">    9.12   10.10</time>
   <energy>
    <i name="e_fr_energy">     -8.71327490 </i>
    <i name="e_wo_entrp">     -8.68509449 </i>
    <i name="e_0_energy">     -8.70388143 </i>
   </energy>
  </scstep>
  <scstep>
   <time name="dav">    2.80    2.86</time>
   <time name="total">    9.19    9.35</time>
   <energy>
    <i name="e_fr_energy">     -8.71800703 </i>
    <i name="e_wo_entrp">     -8.68980163 </i>
    <i name="e_0_energy">     -8.70860523 </i>
   </energy>
  </scstep>
  <scstep>
   <time name="dav">    3.04    3.40</time>
   <time name="total">    8.62    9.21</time>
   <energy>
    <i name="alphaZ">      0.57280012 </i>
    <i name="ewald">    114.56552313 </i>
    <i name="hartreedc">   -850.11023923 </i>
    <i name="XCdc">     54.76773801 </i>
    <i name="pawpsdc">    555.47154838 </i>
    <i name="pawaedc">   -559.10538895 </i>
    <i name="eentropy">     -0.02820840 </i>
    <i name="bandstr">   -189.53156394 </i>
    <i name="atom">    864.67971496 </i>
    <i name="e_fr_energy">     -8.71807592 </i>
    <i name="e_wo_entrp">     -8.68986753 </i>
    <i name="e_0_energy">     -8.70867312 </i>
   </energy>
  </scstep>
  <structure>
   <crystal>
    <varray name="basis" >
     <v>       9.80000000       0.00000000       0.00000000 </v>
     <v>       0.00000000       9.90000000       0.00000000 </v>
     <v>       0.00000000       0.00000000      10.00000000 </v>
    </varray>
    <i name="volume">    970.20000000 </i>
    <varray name="rec_basis" >
     <v>       0.10204082       0.00000000       0.00000000 </v>
     <v>       0.00000000       0.10101010       0.00000000 </v>
     <v>       0.00000000       0.00000000       0.10000000 </v>
    </varray>
   </crystal>
   <varray name="positions" >
    <v>      -0.00179066       0.00000000       0.00000000 </v>
    <v>       0.12730086       0.00000000       0.00000000 </v>
   </varray>
  </structure>
  <varray name="forces" >
   <v>       1.90276205       0.00000000       0.00000000 </v>
   <v>      -1.90276205       0.00000000       0.00000000 </v>
  </varray>
  <varray name="stress" >
   <v>      -4.50137205       0.00000000       0.00000000 </v>
   <v>       0.00000000      -0.71134306       0.00000000 </v>
   <v>       0.00000000       0.00000000      -0.81486832 </v>
  </varray>
  <energy>
   <i name="e_fr_energy">     -8.71807592 </i>
   <i name="e_wo_entrp">     -8.70867312 </i>
   <i name="e_0_energy">     -0.02820840 </i>
  </energy>
  <time name="totalsc">   71.56   91.61</time>
 </calculation>
 <calculation>
  <scstep>
   <time name="dav">    3.80    5.15</time>
   <time name="total">   11.09   14.14</time>
   <energy>
    <i name="alphaZ">      0.57280012 </i>
    <i name="ewald">    124.24629622 </i>
    <i name="hartreedc">   -857.27703061 </i>
    <i name="XCdc">     54.89247446 </i>
    <i name="pawpsdc">    555.42288399 </i>
    <i name="pawaedc">   -559.05652611 </i>
    <i name="eentropy">     -0.02820945 </i>
    <i name="bandstr">   -192.19989524 </i>
    <i name="atom">    864.67971496 </i>
    <i name="e_fr_energy">     -8.74749165 </i>
    <i name="e_wo_entrp">     -8.71928221 </i>
    <i name="e_0_energy">     -8.73808851 </i>
   </energy>
  </scstep>
  <scstep>
   <time name="dav">    3.83    5.40</time>
   <time name="total">   11.80   15.96</time>
   <energy>
    <i name="e_fr_energy">     -8.74806336 </i>
    <i name="e_wo_entrp">     -8.71985607 </i>
    <i name="e_0_energy">     -8.73866093 </i>
   </energy>
  </scstep>
  <scstep>
   <time name="dav">    4.05    5.87</time>
   <time name="total">   11.69   17.80</time>
   <energy>
    <i name="e_fr_energy">     -8.74783016 </i>
    <i name="e_wo_entrp">     -8.71981898 </i>
    <i name="e_0_energy">     -8.73849310 </i>
   </energy>
  </scstep>
  <scstep>
   <time name="dav">    4.69    7.28</time>
   <time name="total">   12.79   19.95</time>
   <energy>
    <i name="e_fr_energy">     -8.74523807 </i>
    <i name="e_wo_entrp">     -8.71708709 </i>
    <i name="e_0_energy">     -8.73585441 </i>
   </energy>
  </scstep>
  <scstep>
   <time name="dav">    4.04    6.07</time>
   <time name="total">   12.51   20.79</time>
   <energy>
    <i name="e_fr_energy">     -8.74725217 </i>
    <i name="e_wo_entrp">     -8.71904398 </i>
    <i name="e_0_energy">     -8.73784944 </i>
   </energy>
  </scstep>
  <scstep>
   <time name="dav">    3.69    5.75</time>
   <time name="total">   11.21   18.76</time>
   <energy>
    <i name="e_fr_energy">     -8.74786034 </i>
    <i name="e_wo_entrp">     -8.71965265 </i>
    <i name="e_0_energy">     -8.73845778 </i>
   </energy>
  </scstep>
  <scstep>
   <time name="dav">    3.53    5.76</time>
   <time name="total">    9.85   15.38</time>
   <energy>
    <i name="alphaZ">      0.57280012 </i>
    <i name="ewald">    124.24629622 </i>
    <i name="hartreedc">   -858.53988644 </i>
    <i name="XCdc">     54.97514322 </i>
    <i name="pawpsdc">    564.15991257 </i>
    <i name="pawaedc">   -567.83285970 </i>
    <i name="eentropy">     -0.02820948 </i>
    <i name="bandstr">   -190.98071170 </i>
    <i name="atom">    864.67971496 </i>
    <i name="e_fr_energy">     -8.74780022 </i>
    <i name="e_wo_entrp">     -8.71959075 </i>
    <i name="e_0_energy">     -8.73839706 </i>
   </energy>
  </scstep>
  <structure>
   <crystal>
    <varray name="basis" >
     <v>       9.80000000       0.00000000       0.00000000 </v>
     <v>       0.00000000       9.90000000       0.00000000 </v>
     <v>       0.00000000       0.00000000      10.00000000 </v>
    </varray>
    <i name="volume">    970.20000000 </i>
    <varray name="rec_basis" >
     <v>       0.10204082       0.00000000       0.00000000 </v>
     <v>       0.00000000       0.10101010       0.00000000 </v>
     <v>       0.00000000       0.00000000       0.10000000 </v>
    </varray>
   </crystal>
   <varray name="positions" >
    <v>      -0.00028738       0.00000000       0.00000000 </v>
    <v>       0.12579759       0.00000000       0.00000000 </v>
   </varray>
  </structure>
  <varray name="forces" >
   <v>       0.04064481       0.00000000       0.00000000 </v>
   <v>      -0.04064481       0.00000000       0.00000000 </v>
  </varray>
  <varray name="stress" >
   <v>      -0.62700562       0.00000000       0.00000000 </v>
   <v>       0.00000000      -0.76814858       0.00000000 </v>
   <v>       0.00000000       0.00000000      -0.73063854 </v>
  </varray>
  <energy>
   <i name="e_fr_energy">     -8.74780022 </i>
   <i name="e_wo_entrp">     -8.73839706 </i>
   <i name="e_0_energy">     -0.02820948 </i>
  </energy>
  <time name="totalsc">   91.70  138.62</time>
  <eigenvalues>
   <array>
    <dimension dim="1">band</dimension>
    <dimension dim="2">kpoint</dimension>
    <dimension dim="3">spin</dimension>
    <field>eigene</field>
    <field>occ</field>
    <set>
     <set comment="spin 1">
      <set comment="kpoint 1">
       <r>  -31.9325    1.0000 </r>
       <r>  -19.8365    1.0000 </r>
       <r>  -12.9733    1.0000 </r>
       <r>  -12.4074    1.0000 </r>
       <r>  -12.4073    1.0000 </r>
       <r>   -5.9334    0.5001 </r>
       <r>   -5.9333    0.4999 </r>
       <r>   -0.3070    0.0000 </r>
       <r>    0.9455    0.0000 </r>
       <r>    1.1292    0.0000 </r>
      </set>
     </set>
    </set>
   </array>
  </eigenvalues>
  <separator name="orbital magnetization" >
   <v name="MAGDIPOLOUT">      0.00000000      0.00000000      0.00000000</v>
  </separator>
 </calculation>
 <structure name="finalpos" >
  <crystal>
   <varray name="basis" >
    <v>       9.80000000       0.00000000       0.00000000 </v>
    <v>       0.00000000       9.90000000       0.00000000 </v>
    <v>       0.00000000       0.00000000      10.00000000 </v>
   </varray>
   <i name="volume">    970.20000000 </i>
   <varray name="rec_basis" >
    <v>       0.10204082       0.00000000       0.00000000 </v>
    <v>       0.00000000       0.10101010       0.00000000 </v>
    <v>       0.00000000       0.00000000       0.10000000 </v>
   </varray>
  </crystal>
  <varray name="positions" >
   <v>      -0.00028738       0.00000000       0.00000000 </v>
   <v>       0.12579759       0.00000000       0.00000000 </v>
  </varray>
 </structure>
</modeling>
