   4   4   1   0
  0.8797333E+01  0.2461200E-09  0.2461200E-09  0.6707900E-09  0.5000000E-15
  1.000000000000000E-004
  CAR 
 unknown system                          
     20.55440613    -16.68080982  301      4.72616044      1.00000000
    -16.681  0.0000E+00  0.0000E+00  0.0000E+00  0.0000E+00
    -16.557  0.0000E+00  0.0000E+00  0.0000E+00  0.0000E+00
    -16.433  0.0000E+00  0.0000E+00  0.0000E+00  0.0000E+00
    -16.308  0.0000E+00  0.0000E+00  0.0000E+00  0.0000E+00
    -16.184  0.0000E+00  0.0000E+00  0.0000E+00  0.0000E+00
    -16.060  0.0000E+00  0.0000E+00  0.0000E+00  0.0000E+00
    -15.936  0.0000E+00  0.0000E+00  0.0000E+00  0.0000E+00
    -15.812  0.0000E+00  0.0000E+00  0.0000E+00  0.0000E+00
    -15.688  0.0000E+00  0.0000E+00  0.0000E+00  0.0000E+00
    -15.564  0.0000E+00  0.0000E+00  0.0000E+00  0.0000E+00
    -15.440 -0.6733E-37 -0.8087E-38 -0.8357E-38 -0.1004E-38
    -15.316 -0.3494E-20 -0.7518E-21 -0.4336E-21 -0.9331E-22
    -15.191 -0.7059E-09 -0.2738E-09 -0.8761E-10 -0.3399E-10
    -15.067 -0.4003E-03 -0.2952E-03 -0.4969E-04 -0.3664E-04
    -14.943  0.2850E-01  0.2598E-01  0.3488E-02  0.3188E-02
    -14.819  0.8898E-01  0.7623E-01  0.1453E-01  0.1265E-01
    -14.695  0.2981E+00  0.3025E+00  0.5153E-01  0.5019E-01
    -14.571  0.2064E+00  0.2047E+00  0.7715E-01  0.7560E-01
    -14.447  0.3326E+00  0.3307E+00  0.1184E+00  0.1166E+00
    -14.323  0.2603E+00  0.2525E+00  0.1507E+00  0.1480E+00
    -14.198  0.5169E+00  0.5176E+00  0.2149E+00  0.2122E+00
    -14.074  0.2537E+00  0.2608E+00  0.2464E+00  0.2446E+00
    -13.950  0.1422E+00  0.1572E+00  0.2640E+00  0.2641E+00
    -13.826  0.1233E+00  0.9364E-01  0.2793E+00  0.2757E+00
    -13.702  0.5296E+00  0.5413E+00  0.3451E+00  0.3429E+00
    -13.578  0.4598E+00  0.4466E+00  0.4021E+00  0.3983E+00
    -13.454  0.4189E+00  0.4358E+00  0.4541E+00  0.4524E+00
    -13.330  0.2104E+00  0.2152E+00  0.4802E+00  0.4791E+00
    -13.206  0.2658E+00  0.2686E+00  0.5132E+00  0.5125E+00
    -13.081  0.9317E-03  0.7897E-02  0.5134E+00  0.5135E+00
    -12.957  0.2149E+00  0.2014E+00  0.5400E+00  0.5384E+00
    -12.833  0.4281E+00  0.3971E+00  0.5932E+00  0.5877E+00
    -12.709  0.7641E+00  0.7882E+00  0.6880E+00  0.6856E+00
    -12.585  0.5477E+00  0.5435E+00  0.7560E+00  0.7530E+00
    -12.461  0.6244E-01  0.8681E-01  0.7637E+00  0.7638E+00
    -12.337  0.1494E+00  0.1319E+00  0.7823E+00  0.7802E+00
    -12.213  0.2446E+00  0.2522E+00  0.8126E+00  0.8115E+00
    -12.088  0.2763E+00  0.2805E+00  0.8469E+00  0.8463E+00
    -11.964 -0.4707E-02  0.2076E-02  0.8464E+00  0.8465E+00
    -11.840  0.4158E+00  0.3849E+00  0.8980E+00  0.8943E+00
    -11.716  0.4700E+00  0.4770E+00  0.9563E+00  0.9535E+00
    -11.592  0.5081E+00  0.5152E+00  0.1019E+01  0.1017E+01
    -11.468  0.5967E+00  0.5923E+00  0.1093E+01  0.1091E+01
    -11.344  0.5685E+00  0.5567E+00  0.1164E+01  0.1160E+01
    -11.220  0.1340E+00  0.1656E+00  0.1181E+01  0.1181E+01
    -11.096 -0.3656E-03 -0.5637E-03  0.1181E+01  0.1181E+01
    -10.971  0.1551E-01  0.7923E-02  0.1182E+01  0.1182E+01
    -10.847  0.3135E+00  0.3109E+00  0.1221E+01  0.1220E+01
    -10.723  0.3003E+00  0.2978E+00  0.1259E+01  0.1257E+01
    -10.599  0.2424E+00  0.2394E+00  0.1289E+01  0.1287E+01
    -10.475  0.5102E+00  0.4751E+00  0.1352E+01  0.1346E+01
    -10.351  0.7953E+00  0.8232E+00  0.1451E+01  0.1448E+01
    -10.227  0.5202E+00  0.5429E+00  0.1515E+01  0.1515E+01
    -10.103 -0.1521E-01 -0.2047E-01  0.1513E+01  0.1513E+01
     -9.978  0.6470E+00  0.6282E+00  0.1594E+01  0.1591E+01
     -9.854  0.6672E+00  0.6708E+00  0.1677E+01  0.1674E+01
     -9.730  0.3148E-01  0.5236E-01  0.1680E+01  0.1681E+01
     -9.606  0.9114E-01  0.7847E-01  0.1692E+01  0.1690E+01
     -9.482  0.2487E+00  0.2588E+00  0.1723E+01  0.1722E+01
     -9.358 -0.3634E-02 -0.1205E-02  0.1722E+01  0.1722E+01
     -9.234 -0.3087E-02 -0.1242E-01  0.1722E+01  0.1721E+01
     -9.110  0.1211E+01  0.1162E+01  0.1872E+01  0.1865E+01
     -8.986  0.8066E+00  0.8553E+00  0.1972E+01  0.1971E+01
     -8.861 -0.7552E-03  0.9522E-02  0.1972E+01  0.1972E+01
     -8.737 -0.8579E-05 -0.1563E-04  0.1972E+01  0.1972E+01
     -8.613 -0.5480E-02 -0.5843E-02  0.1972E+01  0.1971E+01
     -8.489  0.3014E+00  0.2918E+00  0.2009E+01  0.2008E+01
     -8.365  0.3991E-01  0.4985E-01  0.2014E+01  0.2014E+01
     -8.241 -0.6849E-02 -0.5832E-02  0.2013E+01  0.2013E+01
     -8.117  0.4549E+00  0.4244E+00  0.2070E+01  0.2066E+01
     -7.993  0.2166E+00  0.2477E+00  0.2096E+01  0.2097E+01
     -7.868  0.9681E+00  0.8984E+00  0.2217E+01  0.2208E+01
     -7.744  0.8414E+00  0.9058E+00  0.2321E+01  0.2321E+01
     -7.620 -0.1237E-01 -0.8843E-02  0.2319E+01  0.2319E+01
     -7.496 -0.3020E-05 -0.4886E-05  0.2319E+01  0.2319E+01
     -7.372 -0.1013E-01 -0.8197E-02  0.2318E+01  0.2318E+01
     -7.248  0.6099E+00  0.5667E+00  0.2394E+01  0.2389E+01
     -7.124  0.7709E+00  0.8054E+00  0.2490E+01  0.2489E+01
     -7.000  0.3708E+00  0.3643E+00  0.2536E+01  0.2534E+01
     -6.876  0.2775E+00  0.2917E+00  0.2570E+01  0.2570E+01
     -6.751  0.2199E+00  0.1837E+00  0.2597E+01  0.2593E+01
     -6.627  0.9141E+00  0.9146E+00  0.2711E+01  0.2706E+01
     -6.503  0.2046E+00  0.2397E+00  0.2736E+01  0.2736E+01
     -6.379 -0.6728E-03 -0.9735E-03  0.2736E+01  0.2736E+01
     -6.255 -0.3162E-10 -0.7341E-10  0.2736E+01  0.2736E+01
     -6.131 -0.3662E-04 -0.2240E-04  0.2736E+01  0.2736E+01
     -6.007  0.3143E-01  0.1721E-01  0.2740E+01  0.2738E+01
     -5.883  0.8702E+00  0.8450E+00  0.2848E+01  0.2843E+01
     -5.758  0.1304E+01  0.1327E+01  0.3010E+01  0.3008E+01
     -5.634  0.3200E-01  0.4898E-01  0.3014E+01  0.3014E+01
     -5.510 -0.5376E-04 -0.8979E-04  0.3014E+01  0.3014E+01
     -5.386 -0.2118E-12 -0.5989E-12  0.3014E+01  0.3014E+01
     -5.262 -0.1210E-12 -0.6578E-13  0.3014E+01  0.3014E+01
     -5.138 -0.5568E-04 -0.4024E-04  0.3014E+01  0.3014E+01
     -5.014  0.3991E-01  0.2499E-01  0.3019E+01  0.3017E+01
     -4.890  0.1615E+01  0.1597E+01  0.3219E+01  0.3215E+01
     -4.766  0.1063E+01  0.1051E+01  0.3351E+01  0.3346E+01
     -4.641  0.6494E+00  0.6961E+00  0.3432E+01  0.3432E+01
     -4.517 -0.9875E-02 -0.1186E-01  0.3431E+01  0.3431E+01
     -4.393 -0.1550E-03 -0.1196E-03  0.3431E+01  0.3431E+01
     -4.269  0.9316E-01  0.7854E-01  0.3442E+01  0.3440E+01
     -4.145  0.5893E+00  0.6046E+00  0.3515E+01  0.3515E+01
     -4.021 -0.1086E-01 -0.1165E-01  0.3514E+01  0.3514E+01
     -3.897 -0.1551E-01 -0.1376E-01  0.3512E+01  0.3512E+01
     -3.773  0.7689E+00  0.7272E+00  0.3607E+01  0.3602E+01
     -3.648  0.6230E+00  0.6613E+00  0.3685E+01  0.3685E+01
     -3.524  0.3472E+00  0.3220E+00  0.3728E+01  0.3724E+01
     -3.400  0.4828E+00  0.4953E+00  0.3788E+01  0.3786E+01
     -3.276  0.1226E+01  0.1218E+01  0.3940E+01  0.3937E+01
     -3.152  0.3134E+00  0.3276E+00  0.3979E+01  0.3978E+01
     -3.028  0.4461E+00  0.4049E+00  0.4034E+01  0.4028E+01
     -2.904  0.5285E+00  0.5698E+00  0.4100E+01  0.4099E+01
     -2.780  0.2844E+00  0.2388E+00  0.4135E+01  0.4128E+01
     -2.656  0.1812E+01  0.1847E+01  0.4360E+01  0.4358E+01
     -2.531  0.2254E+00  0.2415E+00  0.4388E+01  0.4388E+01
     -2.407  0.1761E+00  0.1362E+00  0.4410E+01  0.4404E+01
     -2.283  0.2665E+00  0.3004E+00  0.4443E+01  0.4442E+01
     -2.159  0.1049E+01  0.9950E+00  0.4573E+01  0.4565E+01
     -2.035  0.6845E+00  0.7033E+00  0.4658E+01  0.4653E+01
     -1.911  0.2278E+00  0.2477E+00  0.4686E+01  0.4683E+01
     -1.787  0.1602E+01  0.1590E+01  0.4885E+01  0.4881E+01
     -1.663  0.2113E+01  0.2045E+01  0.5147E+01  0.5134E+01
     -1.538  0.8433E+00  0.9265E+00  0.5252E+01  0.5249E+01
     -1.414  0.7480E+00  0.7409E+00  0.5345E+01  0.5341E+01
     -1.290  0.2749E+00  0.2738E+00  0.5379E+01  0.5375E+01
     -1.166  0.1603E+01  0.1566E+01  0.5578E+01  0.5570E+01
     -1.042  0.8348E+00  0.8464E+00  0.5681E+01  0.5675E+01
     -0.918  0.4624E+00  0.4945E+00  0.5739E+01  0.5736E+01
     -0.794  0.2545E+00  0.2815E+00  0.5770E+01  0.5771E+01
     -0.670  0.3231E+00  0.2732E+00  0.5811E+01  0.5805E+01
     -0.546  0.9413E+00  0.9538E+00  0.5927E+01  0.5923E+01
     -0.421  0.2883E+00  0.3039E+00  0.5963E+01  0.5961E+01
     -0.297  0.1463E+01  0.1405E+01  0.6145E+01  0.6135E+01
     -0.173  0.9593E+00  0.1008E+01  0.6264E+01  0.6261E+01
     -0.049  0.2677E+00  0.2663E+00  0.6297E+01  0.6294E+01
      0.075  0.1034E+01  0.1020E+01  0.6425E+01  0.6420E+01
      0.199  0.2344E+00  0.1993E+00  0.6454E+01  0.6445E+01
      0.323  0.5026E+00  0.5356E+00  0.6517E+01  0.6511E+01
      0.447  0.3937E+00  0.3909E+00  0.6566E+01  0.6560E+01
      0.572  0.5254E+00  0.5255E+00  0.6631E+01  0.6625E+01
      0.696  0.9315E+00  0.9288E+00  0.6747E+01  0.6741E+01
      0.820  0.5063E+00  0.5207E+00  0.6809E+01  0.6805E+01
      0.944  0.3626E+00  0.3520E+00  0.6854E+01  0.6849E+01
      1.068  0.6319E+00  0.6268E+00  0.6933E+01  0.6927E+01
      1.192  0.4653E+00  0.4950E+00  0.6991E+01  0.6988E+01
      1.316  0.2109E+00  0.1792E+00  0.7017E+01  0.7010E+01
      1.440  0.1154E+01  0.1157E+01  0.7160E+01  0.7154E+01
      1.564  0.5229E+00  0.5639E+00  0.7225E+01  0.7224E+01
      1.689  0.3460E+00  0.3069E+00  0.7268E+01  0.7262E+01
      1.813  0.7998E+00  0.8220E+00  0.7367E+01  0.7364E+01
      1.937  0.3112E+00  0.3194E+00  0.7406E+01  0.7404E+01
      2.061  0.3603E+00  0.3469E+00  0.7450E+01  0.7447E+01
      2.185  0.3401E+00  0.3350E+00  0.7493E+01  0.7488E+01
      2.309  0.3039E+00  0.3350E+00  0.7530E+01  0.7530E+01
      2.433  0.3088E+00  0.2926E+00  0.7569E+01  0.7566E+01
      2.557  0.3682E+00  0.3268E+00  0.7614E+01  0.7607E+01
      2.682  0.6392E+00  0.5963E+00  0.7694E+01  0.7681E+01
      2.806  0.4881E+00  0.5878E+00  0.7754E+01  0.7754E+01
      2.930  0.3200E+00  0.3039E+00  0.7794E+01  0.7791E+01
      3.054  0.2183E+00  0.2222E+00  0.7821E+01  0.7819E+01
      3.178  0.2485E+00  0.2238E+00  0.7852E+01  0.7847E+01
      3.302  0.2414E+00  0.2880E+00  0.7882E+01  0.7882E+01
      3.426  0.1122E+00  0.1081E+00  0.7896E+01  0.7896E+01
      3.550  0.1113E+00  0.1073E+00  0.7910E+01  0.7909E+01
      3.674  0.1160E+00  0.1118E+00  0.7924E+01  0.7923E+01
      3.799  0.1918E+00  0.1524E+00  0.7948E+01  0.7942E+01
      3.923  0.1988E+00  0.2491E+00  0.7973E+01  0.7973E+01
      4.047 -0.3254E-02 -0.5742E-02  0.7972E+01  0.7972E+01
      4.171  0.3738E-01  0.3951E-01  0.7977E+01  0.7977E+01
      4.295  0.2475E-01  0.2390E-01  0.7980E+01  0.7980E+01
      4.419  0.1795E-01  0.1822E-01  0.7982E+01  0.7982E+01
      4.543  0.9725E-02  0.1034E-01  0.7983E+01  0.7984E+01
      4.667  0.2047E-01  0.4900E-02  0.7986E+01  0.7984E+01
      4.791  0.2403E+00  0.2473E+00  0.8016E+01  0.8015E+01
      4.916  0.7191E-02  0.1567E-01  0.8017E+01  0.8017E+01
      5.040  0.6861E-02  0.5691E-02  0.8017E+01  0.8018E+01
      5.164  0.1788E-01  0.1644E-01  0.8020E+01  0.8020E+01
      5.288  0.1896E-01  0.1912E-01  0.8022E+01  0.8022E+01
      5.412  0.2091E-01  0.2316E-01  0.8025E+01  0.8025E+01
      5.536  0.2616E-01  0.2371E-01  0.8028E+01  0.8028E+01
      5.660 -0.4472E-03 -0.2691E-03  0.8028E+01  0.8028E+01
      5.784  0.1146E-01 -0.6901E-02  0.8029E+01  0.8027E+01
      5.909  0.4493E+00  0.4294E+00  0.8085E+01  0.8080E+01
      6.033  0.2244E+00  0.2373E+00  0.8113E+01  0.8110E+01
      6.157  0.3872E+00  0.3544E+00  0.8161E+01  0.8154E+01
      6.281  0.5485E+00  0.5577E+00  0.8229E+01  0.8223E+01
      6.405  0.4871E+00  0.4814E+00  0.8289E+01  0.8283E+01
      6.529  0.6161E+00  0.6508E+00  0.8366E+01  0.8363E+01
      6.653  0.1723E+00  0.1713E+00  0.8387E+01  0.8385E+01
      6.777  0.1530E+00  0.1475E+00  0.8406E+01  0.8403E+01
      6.901  0.1828E+00  0.1554E+00  0.8429E+01  0.8422E+01
      7.026  0.4983E+00  0.4942E+00  0.8491E+01  0.8484E+01
      7.150  0.4840E+00  0.4570E+00  0.8551E+01  0.8540E+01
      7.274  0.4769E+00  0.5012E+00  0.8610E+01  0.8603E+01
      7.398  0.3481E+00  0.3709E+00  0.8653E+01  0.8649E+01
      7.522  0.2750E+00  0.2792E+00  0.8687E+01  0.8683E+01
      7.646  0.3715E+00  0.3281E+00  0.8733E+01  0.8724E+01
      7.770  0.2891E+00  0.3401E+00  0.8769E+01  0.8766E+01
      7.894  0.2223E+00  0.2209E+00  0.8797E+01  0.8794E+01
      8.019  0.7256E-01  0.8380E-01  0.8806E+01  0.8804E+01
      8.143  0.4161E+00  0.3991E+00  0.8858E+01  0.8854E+01
      8.267  0.1753E+00  0.1874E+00  0.8879E+01  0.8877E+01
      8.391  0.1303E+00  0.1425E+00  0.8896E+01  0.8894E+01
      8.515  0.1145E+00  0.1192E+00  0.8910E+01  0.8909E+01
      8.639  0.1115E+00  0.1100E+00  0.8924E+01  0.8923E+01
      8.763  0.1126E+00  0.1103E+00  0.8938E+01  0.8937E+01
      8.887  0.2171E+00  0.1610E+00  0.8964E+01  0.8957E+01
      9.011  0.5965E+00  0.6118E+00  0.9039E+01  0.9033E+01
      9.136  0.1952E+00  0.2222E+00  0.9063E+01  0.9060E+01
      9.260  0.2348E+00  0.2127E+00  0.9092E+01  0.9087E+01
      9.384  0.3846E+00  0.3920E+00  0.9140E+01  0.9135E+01
      9.508  0.3986E+00  0.3643E+00  0.9189E+01  0.9180E+01
      9.632  0.2153E+00  0.2780E+00  0.9216E+01  0.9215E+01
      9.756  0.1166E+00  0.1194E+00  0.9230E+01  0.9230E+01
      9.880  0.1243E+00  0.1139E+00  0.9246E+01  0.9244E+01
     10.004  0.2034E+00  0.2065E+00  0.9271E+01  0.9269E+01
     10.129  0.1227E+00  0.1115E+00  0.9286E+01  0.9283E+01
     10.253  0.1070E+00  0.1308E+00  0.9299E+01  0.9300E+01
     10.377  0.1113E+00  0.7579E-01  0.9313E+01  0.9309E+01
     10.501  0.5954E+00  0.5896E+00  0.9387E+01  0.9382E+01
     10.625  0.2280E+00  0.2456E+00  0.9415E+01  0.9413E+01
     10.749  0.2450E+00  0.2503E+00  0.9446E+01  0.9444E+01
     10.873  0.2644E+00  0.2499E+00  0.9479E+01  0.9475E+01
     10.997  0.3972E+00  0.3735E+00  0.9528E+01  0.9521E+01
     11.121  0.6671E+00  0.6684E+00  0.9611E+01  0.9604E+01
     11.246  0.1387E+00  0.1776E+00  0.9628E+01  0.9626E+01
     11.370  0.1516E+00  0.1313E+00  0.9647E+01  0.9642E+01
     11.494  0.2632E+00  0.2912E+00  0.9680E+01  0.9678E+01
     11.618  0.1796E+00  0.1675E+00  0.9702E+01  0.9699E+01
     11.742  0.3324E+00  0.3298E+00  0.9743E+01  0.9740E+01
     11.866  0.2281E+00  0.2289E+00  0.9771E+01  0.9769E+01
     11.990  0.2631E+00  0.2673E+00  0.9804E+01  0.9802E+01
     12.114  0.4105E+00  0.3911E+00  0.9855E+01  0.9850E+01
     12.239  0.5940E+00  0.6001E+00  0.9929E+01  0.9925E+01
     12.363  0.6266E+00  0.5984E+00  0.1001E+02  0.9999E+01
     12.487  0.5853E+00  0.6281E+00  0.1008E+02  0.1008E+02
     12.611  0.3555E+00  0.3761E+00  0.1012E+02  0.1012E+02
     12.735  0.7601E+00  0.5884E+00  0.1022E+02  0.1020E+02
     12.859  0.1288E+01  0.1380E+01  0.1038E+02  0.1037E+02
     12.983  0.1077E+01  0.1071E+01  0.1051E+02  0.1050E+02
     13.107  0.1810E+01  0.1728E+01  0.1074E+02  0.1072E+02
     13.231  0.1912E+01  0.2014E+01  0.1097E+02  0.1097E+02
     13.356  0.1142E+01  0.1183E+01  0.1111E+02  0.1111E+02
     13.480  0.5812E+00  0.5677E+00  0.1119E+02  0.1118E+02
     13.604  0.1655E+01  0.1645E+01  0.1139E+02  0.1139E+02
     13.728  0.2649E+00  0.2868E+00  0.1143E+02  0.1142E+02
     13.852  0.1135E+01  0.1133E+01  0.1157E+02  0.1156E+02
     13.976  0.7449E+00  0.7522E+00  0.1166E+02  0.1166E+02
     14.100  0.3186E+00  0.3141E+00  0.1170E+02  0.1170E+02
     14.224  0.4358E+00  0.4289E+00  0.1175E+02  0.1175E+02
     14.349  0.4487E+00  0.4308E+00  0.1181E+02  0.1180E+02
     14.473  0.4066E+00  0.4137E+00  0.1186E+02  0.1185E+02
     14.597  0.7710E+00  0.7494E+00  0.1195E+02  0.1195E+02
     14.721  0.1448E+01  0.1414E+01  0.1213E+02  0.1212E+02
     14.845  0.1546E+01  0.1529E+01  0.1233E+02  0.1231E+02
     14.969  0.9086E+00  0.9866E+00  0.1244E+02  0.1243E+02
     15.093  0.4180E+00  0.4330E+00  0.1249E+02  0.1249E+02
     15.217  0.8554E+00  0.7994E+00  0.1260E+02  0.1259E+02
     15.341  0.1302E+01  0.1390E+01  0.1276E+02  0.1276E+02
     15.466  0.6683E+00  0.6216E+00  0.1284E+02  0.1284E+02
     15.590  0.3886E+00  0.4111E+00  0.1289E+02  0.1289E+02
     15.714  0.5226E+00  0.5024E+00  0.1295E+02  0.1295E+02
     15.838  0.2593E+00  0.2884E+00  0.1299E+02  0.1299E+02
     15.962  0.6454E+00  0.5854E+00  0.1307E+02  0.1306E+02
     16.086  0.3830E+00  0.4319E+00  0.1311E+02  0.1311E+02
     16.210  0.6075E+00  0.5986E+00  0.1319E+02  0.1319E+02
     16.334  0.5118E+00  0.4666E+00  0.1325E+02  0.1324E+02
     16.459  0.7103E+00  0.7134E+00  0.1334E+02  0.1333E+02
     16.583  0.6906E+00  0.7391E+00  0.1343E+02  0.1342E+02
     16.707  0.4613E+00  0.4214E+00  0.1348E+02  0.1348E+02
     16.831  0.3903E+00  0.4287E+00  0.1353E+02  0.1353E+02
     16.955  0.6494E+00  0.6173E+00  0.1361E+02  0.1361E+02
     17.079  0.5943E+00  0.6474E+00  0.1369E+02  0.1369E+02
     17.203  0.5746E+00  0.5924E+00  0.1376E+02  0.1376E+02
     17.327  0.7520E+00  0.7471E+00  0.1385E+02  0.1385E+02
     17.451  0.4379E+00  0.4623E+00  0.1391E+02  0.1391E+02
     17.576  0.2630E+00  0.2232E+00  0.1394E+02  0.1394E+02
     17.700  0.1757E+00  0.1717E+00  0.1396E+02  0.1396E+02
     17.824  0.7955E-01  0.8033E-01  0.1397E+02  0.1397E+02
     17.948  0.1066E-01  0.9969E-02  0.1397E+02  0.1397E+02
     18.072  0.5293E-01  0.5763E-01  0.1398E+02  0.1398E+02
     18.196  0.5160E-01  0.4177E-01  0.1398E+02  0.1398E+02
     18.320  0.7068E-01  0.7933E-01  0.1399E+02  0.1399E+02
     18.444 -0.1192E-02 -0.5991E-03  0.1399E+02  0.1399E+02
     18.569  0.1864E-01  0.1834E-01  0.1400E+02  0.1400E+02
     18.693 -0.6112E-03 -0.5362E-03  0.1400E+02  0.1400E+02
     18.817  0.1917E-01  0.1923E-01  0.1400E+02  0.1400E+02
     18.941  0.1886E-01  0.1873E-01  0.1400E+02  0.1400E+02
     19.065 -0.4477E-03 -0.4196E-03  0.1400E+02  0.1400E+02
     19.189 -0.1373E-08 -0.1061E-08  0.1400E+02  0.1400E+02
     19.313  0.0000E+00  0.0000E+00  0.1400E+02  0.1400E+02
     19.437  0.0000E+00  0.0000E+00  0.1400E+02  0.1400E+02
     19.561  0.0000E+00  0.0000E+00  0.1400E+02  0.1400E+02
     19.686  0.0000E+00  0.0000E+00  0.1400E+02  0.1400E+02
     19.810  0.0000E+00  0.0000E+00  0.1400E+02  0.1400E+02
     19.934  0.0000E+00  0.0000E+00  0.1400E+02  0.1400E+02
     20.058  0.0000E+00  0.0000E+00  0.1400E+02  0.1400E+02
     20.182  0.0000E+00  0.0000E+00  0.1400E+02  0.1400E+02
     20.306  0.0000E+00  0.0000E+00  0.1400E+02  0.1400E+02
     20.430  0.0000E+00  0.0000E+00  0.1400E+02  0.1400E+02
     20.554  0.0000E+00  0.0000E+00  0.1400E+02  0.1400E+02
     20.55440613    -16.68080982  301      4.72616044      1.00000000
    -16.681  0.0000E+00  0.0000E+00  0.0000E+00  0.0000E+00  0.0000E+00  0.0000E+00  0.0000E+00  0.0000E+00  0.0000E+00  0.0000E+00  0.0000E+00  0.0000E+00  0.0000E+00  0.0000E+00  0.0000E+00  0.0000E+00  0.0000E+00  0.0000E+00
    -16.557  0.0000E+00  0.0000E+00  0.0000E+00  0.0000E+00  0.0000E+00  0.0000E+00  0.0000E+00  0.0000E+00  0.0000E+00  0.0000E+00  0.0000E+00  0.0000E+00  0.0000E+00  0.0000E+00  0.0000E+00  0.0000E+00  0.0000E+00  0.0000E+00
    -16.433  0.0000E+00  0.0000E+00  0.0000E+00  0.0000E+00  0.0000E+00  0.0000E+00  0.0000E+00  0.0000E+00  0.0000E+00  0.0000E+00  0.0000E+00  0.0000E+00  0.0000E+00  0.0000E+00  0.0000E+00  0.0000E+00  0.0000E+00  0.0000E+00
    -16.308  0.0000E+00  0.0000E+00  0.0000E+00  0.0000E+00  0.0000E+00  0.0000E+00  0.0000E+00  0.0000E+00  0.0000E+00  0.0000E+00  0.0000E+00  0.0000E+00  0.0000E+00  0.0000E+00  0.0000E+00  0.0000E+00  0.0000E+00  0.0000E+00
    -16.184  0.0000E+00  0.0000E+00  0.0000E+00  0.0000E+00  0.0000E+00  0.0000E+00  0.0000E+00  0.0000E+00  0.0000E+00  0.0000E+00  0.0000E+00  0.0000E+00  0.0000E+00  0.0000E+00  0.0000E+00  0.0000E+00  0.0000E+00  0.0000E+00
    -16.060  0.0000E+00  0.0000E+00  0.0000E+00  0.0000E+00  0.0000E+00  0.0000E+00  0.0000E+00  0.0000E+00  0.0000E+00  0.0000E+00  0.0000E+00  0.0000E+00  0.0000E+00  0.0000E+00  0.0000E+00  0.0000E+00  0.0000E+00  0.0000E+00
    -15.936  0.0000E+00  0.0000E+00  0.0000E+00  0.0000E+00  0.0000E+00  0.0000E+00  0.0000E+00  0.0000E+00  0.0000E+00  0.0000E+00  0.0000E+00  0.0000E+00  0.0000E+00  0.0000E+00  0.0000E+00  0.0000E+00  0.0000E+00  0.0000E+00
    -15.812  0.0000E+00  0.0000E+00  0.0000E+00  0.0000E+00  0.0000E+00  0.0000E+00  0.0000E+00  0.0000E+00  0.0000E+00  0.0000E+00  0.0000E+00  0.0000E+00  0.0000E+00  0.0000E+00  0.0000E+00  0.0000E+00  0.0000E+00  0.0000E+00
    -15.688  0.0000E+00  0.0000E+00  0.0000E+00  0.0000E+00  0.0000E+00  0.0000E+00  0.0000E+00  0.0000E+00  0.0000E+00  0.0000E+00  0.0000E+00  0.0000E+00  0.0000E+00  0.0000E+00  0.0000E+00  0.0000E+00  0.0000E+00  0.0000E+00
    -15.564  0.0000E+00  0.0000E+00  0.0000E+00  0.0000E+00  0.0000E+00  0.0000E+00  0.0000E+00  0.0000E+00  0.0000E+00  0.0000E+00  0.0000E+00  0.0000E+00  0.0000E+00  0.0000E+00  0.0000E+00  0.0000E+00  0.0000E+00  0.0000E+00
    -15.440 -0.1070E-37 -0.1284E-38 -0.1966E-51 -0.8455E-54 -0.3127E-43 -0.3687E-44 -0.6372E-51 -0.2380E-53  0.0000E+00  0.0000E+00  0.0000E+00  0.0000E+00  0.0000E+00  0.0000E+00  0.0000E+00  0.0000E+00  0.0000E+00  0.0000E+00
    -15.316 -0.5553E-21 -0.1194E-21 -0.8981E-35 -0.6955E-37 -0.2342E-26 -0.4939E-27 -0.2895E-34 -0.2163E-36  0.0000E+00  0.0000E+00  0.0000E+00  0.0000E+00  0.0000E+00  0.0000E+00  0.0000E+00  0.0000E+00  0.0000E+00  0.0000E+00
    -15.191 -0.1122E-09 -0.4350E-10 -0.1503E-23 -0.2155E-25 -0.7511E-15 -0.2831E-15 -0.4800E-23 -0.7623E-25  0.0000E+00  0.0000E+00  0.0000E+00  0.0000E+00  0.0000E+00  0.0000E+00  0.0000E+00  0.0000E+00  0.0000E+00  0.0000E+00
    -15.067 -0.6371E-04 -0.4693E-04 -0.1120E-14 -0.3573E-15 -0.1072E-08 -0.7307E-09 -0.3359E-14 -0.1072E-14  0.0000E+00  0.0000E+00  0.0000E+00  0.0000E+00  0.0000E+00  0.0000E+00  0.0000E+00  0.0000E+00  0.0000E+00  0.0000E+00
    -14.943  0.4541E-02  0.4134E-02 -0.5420E-07 -0.3159E-07  0.1465E-06  0.1208E-06 -0.1626E-06 -0.9478E-07  0.0000E+00  0.0000E+00  0.0000E+00  0.0000E+00  0.0000E+00  0.0000E+00  0.0000E+00  0.0000E+00  0.0000E+00  0.0000E+00
    -14.819  0.1415E-01  0.1212E-01  0.2385E-04  0.1791E-04  0.8514E-06  0.7877E-06  0.7156E-04  0.5372E-04  0.0000E+00  0.0000E+00  0.0000E+00  0.0000E+00  0.0000E+00  0.0000E+00  0.0000E+00  0.0000E+00  0.0000E+00  0.0000E+00
    -14.695  0.4750E-01  0.4811E-01  0.1117E-03  0.1141E-03  0.4216E-05  0.4052E-05  0.3350E-03  0.3423E-03  0.0000E+00  0.0000E+00  0.0000E+00  0.0000E+00  0.0000E+00  0.0000E+00  0.0000E+00  0.0000E+00  0.0000E+00  0.0000E+00
    -14.571  0.3333E-01  0.3300E-01  0.7923E-04  0.7954E-04  0.4478E-05  0.4538E-05  0.2613E-03  0.2560E-03  0.0000E+00  0.0000E+00  0.0000E+00  0.0000E+00  0.0000E+00  0.0000E+00  0.0000E+00  0.0000E+00  0.0000E+00  0.0000E+00
    -14.447  0.5289E-01  0.5263E-01  0.7332E-03  0.6795E-03  0.1693E-05  0.1705E-05  0.4371E-03  0.4361E-03  0.0000E+00  0.0000E+00  0.0000E+00  0.0000E+00  0.0000E+00  0.0000E+00  0.0000E+00  0.0000E+00  0.0000E+00  0.0000E+00
    -14.323  0.4063E-01  0.3937E-01  0.9036E-03  0.9062E-03  0.4407E-05  0.4271E-05  0.5500E-03  0.4872E-03  0.0000E+00  0.0000E+00  0.0000E+00  0.0000E+00  0.0000E+00  0.0000E+00  0.0000E+00  0.0000E+00  0.0000E+00  0.0000E+00
    -14.198  0.8117E-01  0.8112E-01  0.1465E-02  0.1457E-02  0.6838E-05  0.6811E-05  0.1694E-02  0.1717E-02  0.0000E+00  0.0000E+00  0.0000E+00  0.0000E+00  0.0000E+00  0.0000E+00  0.0000E+00  0.0000E+00  0.0000E+00  0.0000E+00
    -14.074  0.4003E-01  0.4111E-01  0.5382E-03  0.5804E-03  0.4238E-05  0.4343E-05  0.1175E-02  0.1162E-02  0.0000E+00  0.0000E+00  0.0000E+00  0.0000E+00  0.0000E+00  0.0000E+00  0.0000E+00  0.0000E+00  0.0000E+00  0.0000E+00
    -13.950  0.2259E-01  0.2494E-01  0.2508E-03  0.2782E-03  0.6382E-06  0.7735E-06  0.7579E-03  0.8389E-03  0.0000E+00  0.0000E+00  0.0000E+00  0.0000E+00  0.0000E+00  0.0000E+00  0.0000E+00  0.0000E+00  0.0000E+00  0.0000E+00
    -13.826  0.1848E-01  0.1401E-01  0.8443E-03  0.6463E-03  0.2221E-06  0.1231E-06  0.6279E-03  0.4772E-03  0.0000E+00  0.0000E+00  0.0000E+00  0.0000E+00  0.0000E+00  0.0000E+00  0.0000E+00  0.0000E+00  0.0000E+00  0.0000E+00
    -13.702  0.7988E-01  0.8149E-01  0.3618E-02  0.3701E-02  0.6756E-05  0.6429E-05  0.2716E-02  0.2778E-02  0.0000E+00  0.0000E+00  0.0000E+00  0.0000E+00  0.0000E+00  0.0000E+00  0.0000E+00  0.0000E+00  0.0000E+00  0.0000E+00
    -13.578  0.7060E-01  0.6841E-01  0.3214E-02  0.3121E-02  0.7672E-05  0.7831E-05  0.2386E-02  0.2323E-02  0.0000E+00  0.0000E+00  0.0000E+00  0.0000E+00  0.0000E+00  0.0000E+00  0.0000E+00  0.0000E+00  0.0000E+00  0.0000E+00
    -13.454  0.6348E-01  0.6610E-01  0.2326E-02  0.2497E-02  0.1692E-05  0.1760E-05  0.3383E-02  0.3385E-02  0.0000E+00  0.0000E+00  0.0000E+00  0.0000E+00  0.0000E+00  0.0000E+00  0.0000E+00  0.0000E+00  0.0000E+00  0.0000E+00
    -13.330  0.3140E-01  0.3203E-01  0.8042E-03  0.8208E-03  0.4002E-05  0.3938E-05  0.2435E-02  0.2495E-02  0.0000E+00  0.0000E+00  0.0000E+00  0.0000E+00  0.0000E+00  0.0000E+00  0.0000E+00  0.0000E+00  0.0000E+00  0.0000E+00
    -13.206  0.4029E-01  0.4063E-01  0.1040E-02  0.1052E-02  0.2425E-05  0.2596E-05  0.3118E-02  0.3155E-02  0.0000E+00  0.0000E+00  0.0000E+00  0.0000E+00  0.0000E+00  0.0000E+00  0.0000E+00  0.0000E+00  0.0000E+00  0.0000E+00
    -13.081  0.1797E-03  0.1232E-02 -0.4436E-04 -0.8347E-05 -0.3948E-07 -0.2805E-07  0.4033E-04  0.1174E-03  0.0000E+00  0.0000E+00  0.0000E+00  0.0000E+00  0.0000E+00  0.0000E+00  0.0000E+00  0.0000E+00  0.0000E+00  0.0000E+00
    -12.957  0.3098E-01  0.2898E-01  0.3245E-02  0.3043E-02  0.1089E-05  0.9390E-06  0.1079E-02  0.1015E-02  0.0000E+00  0.0000E+00  0.0000E+00  0.0000E+00  0.0000E+00  0.0000E+00  0.0000E+00  0.0000E+00  0.0000E+00  0.0000E+00
    -12.833  0.6182E-01  0.5728E-01  0.5489E-02  0.5189E-02  0.4396E-05  0.4208E-05  0.3509E-02  0.3144E-02  0.0000E+00  0.0000E+00  0.0000E+00  0.0000E+00  0.0000E+00  0.0000E+00  0.0000E+00  0.0000E+00  0.0000E+00  0.0000E+00
    -12.709  0.1110E+00  0.1143E+00  0.9273E-02  0.9577E-02  0.8561E-05  0.8498E-05  0.7114E-02  0.7346E-02  0.0000E+00  0.0000E+00  0.0000E+00  0.0000E+00  0.0000E+00  0.0000E+00  0.0000E+00  0.0000E+00  0.0000E+00  0.0000E+00
    -12.585  0.8023E-01  0.7944E-01  0.5829E-02  0.5798E-02  0.5591E-05  0.5858E-05  0.6346E-02  0.6295E-02  0.0000E+00  0.0000E+00  0.0000E+00  0.0000E+00  0.0000E+00  0.0000E+00  0.0000E+00  0.0000E+00  0.0000E+00  0.0000E+00
    -12.461  0.9215E-02  0.1278E-01  0.6763E-03  0.9379E-03  0.4072E-07  0.1046E-06  0.7139E-03  0.1002E-02  0.0000E+00  0.0000E+00  0.0000E+00  0.0000E+00  0.0000E+00  0.0000E+00  0.0000E+00  0.0000E+00  0.0000E+00  0.0000E+00
    -12.337  0.2088E-01  0.1840E-01  0.9792E-03  0.8658E-03  0.4639E-06  0.3664E-06  0.2940E-02  0.2601E-02  0.0000E+00  0.0000E+00  0.0000E+00  0.0000E+00  0.0000E+00  0.0000E+00  0.0000E+00  0.0000E+00  0.0000E+00  0.0000E+00
    -12.213  0.3450E-01  0.3548E-01  0.1618E-02  0.1670E-02  0.3384E-05  0.3306E-05  0.4854E-02  0.5011E-02  0.0000E+00  0.0000E+00  0.0000E+00  0.0000E+00  0.0000E+00  0.0000E+00  0.0000E+00  0.0000E+00  0.0000E+00  0.0000E+00
    -12.088  0.3962E-01  0.4013E-01  0.1856E-02  0.1888E-02  0.2088E-05  0.2239E-05  0.5569E-02  0.5663E-02  0.0000E+00  0.0000E+00  0.0000E+00  0.0000E+00  0.0000E+00  0.0000E+00  0.0000E+00  0.0000E+00  0.0000E+00  0.0000E+00
    -11.964 -0.6192E-03  0.3448E-03 -0.1245E-03 -0.5857E-04 -0.4239E-07 -0.3353E-07 -0.3054E-04  0.9280E-04  0.0000E+00  0.0000E+00  0.0000E+00  0.0000E+00  0.0000E+00  0.0000E+00  0.0000E+00  0.0000E+00  0.0000E+00  0.0000E+00
    -11.840  0.5661E-01  0.5229E-01  0.8312E-02  0.7710E-02  0.1655E-05  0.1407E-05  0.4604E-02  0.4271E-02  0.0000E+00  0.0000E+00  0.0000E+00  0.0000E+00  0.0000E+00  0.0000E+00  0.0000E+00  0.0000E+00  0.0000E+00  0.0000E+00
    -11.716  0.6483E-01  0.6559E-01  0.9494E-02  0.9647E-02  0.6644E-05  0.6580E-05  0.5256E-02  0.5343E-02  0.0000E+00  0.0000E+00  0.0000E+00  0.0000E+00  0.0000E+00  0.0000E+00  0.0000E+00  0.0000E+00  0.0000E+00  0.0000E+00
    -11.592  0.7100E-01  0.7191E-01  0.1020E-01  0.1045E-01  0.2441E-05  0.2701E-05  0.6014E-02  0.5986E-02  0.0000E+00  0.0000E+00  0.0000E+00  0.0000E+00  0.0000E+00  0.0000E+00  0.0000E+00  0.0000E+00  0.0000E+00  0.0000E+00
    -11.468  0.8066E-01  0.7984E-01  0.8573E-02  0.8524E-02  0.4304E-05  0.4011E-05  0.1154E-01  0.1149E-01  0.0000E+00  0.0000E+00  0.0000E+00  0.0000E+00  0.0000E+00  0.0000E+00  0.0000E+00  0.0000E+00  0.0000E+00  0.0000E+00
    -11.344  0.7837E-01  0.7651E-01  0.8347E-02  0.8189E-02  0.5395E-05  0.5569E-05  0.1105E-01  0.1085E-01  0.0000E+00  0.0000E+00  0.0000E+00  0.0000E+00  0.0000E+00  0.0000E+00  0.0000E+00  0.0000E+00  0.0000E+00  0.0000E+00
    -11.220  0.1862E-01  0.2295E-01  0.1978E-02  0.2450E-02  0.2042E-06  0.3022E-06  0.2617E-02  0.3243E-02  0.0000E+00  0.0000E+00  0.0000E+00  0.0000E+00  0.0000E+00  0.0000E+00  0.0000E+00  0.0000E+00  0.0000E+00  0.0000E+00
    -11.096 -0.5069E-04 -0.7809E-04 -0.5306E-05 -0.8292E-05 -0.4652E-09 -0.7544E-09 -0.7301E-05 -0.1113E-04  0.0000E+00  0.0000E+00  0.0000E+00  0.0000E+00  0.0000E+00  0.0000E+00  0.0000E+00  0.0000E+00  0.0000E+00  0.0000E+00
    -10.971  0.2050E-02  0.1043E-02  0.1480E-03  0.7583E-04 -0.1175E-07 -0.1893E-07  0.4440E-03  0.2275E-03  0.0000E+00  0.0000E+00  0.0000E+00  0.0000E+00  0.0000E+00  0.0000E+00  0.0000E+00  0.0000E+00  0.0000E+00  0.0000E+00
    -10.847  0.4167E-01  0.4117E-01  0.2996E-02  0.2980E-02  0.1914E-05  0.1789E-05  0.8987E-02  0.8942E-02  0.0000E+00  0.0000E+00  0.0000E+00  0.0000E+00  0.0000E+00  0.0000E+00  0.0000E+00  0.0000E+00  0.0000E+00  0.0000E+00
    -10.723  0.4084E-01  0.4034E-01  0.2816E-02  0.2818E-02  0.2180E-05  0.2276E-05  0.8692E-02  0.8639E-02  0.0000E+00  0.0000E+00  0.0000E+00  0.0000E+00  0.0000E+00  0.0000E+00  0.0000E+00  0.0000E+00  0.0000E+00  0.0000E+00
    -10.599  0.3145E-01  0.3107E-01  0.6805E-02  0.6429E-02  0.6332E-06  0.5635E-06  0.3364E-02  0.3585E-02  0.0000E+00  0.0000E+00  0.0000E+00  0.0000E+00  0.0000E+00  0.0000E+00  0.0000E+00  0.0000E+00  0.0000E+00  0.0000E+00
    -10.475  0.6607E-01  0.6132E-01  0.1452E-01  0.1370E-01  0.3092E-05  0.2964E-05  0.7420E-02  0.6785E-02  0.0000E+00  0.0000E+00  0.0000E+00  0.0000E+00  0.0000E+00  0.0000E+00  0.0000E+00  0.0000E+00  0.0000E+00  0.0000E+00