    4    4    1    2
  0.8797333E+01  0.2461200E-09  0.2461200E-09  0.6707900E-09  0.5000000E-15
  1.000000000000000E-004
  CAR 
 unknown system                          
   16  133   14
 
  0.0000000E+00  0.0000000E+00  0.0000000E+00  0.5787037E-03
   1      -14.988300    -14.982449
   2      -14.689201    -14.683492
   3       -3.827975     -3.815655
   4       -1.871647     -1.857767
   5        1.723731      1.726099
   6        1.723752      1.726119
   7        1.728449      1.730842
   8        1.728470      1.730862
   9        8.983145      8.989492
  10       13.143584     13.146390
  11       13.143594     13.146401
  12       13.206731     13.209399
  13       13.206741     13.209408
  14       15.320188     15.328883
 
  0.8333333E-01  0.0000000E+00  0.0000000E+00  0.3472222E-02
   1      -14.822360    -14.816526
   2      -14.525946    -14.520251
   3       -3.626194     -3.613840
   4       -1.685125     -1.671202
   5        1.047736      1.050386
   6        1.077987      1.080640
   7        1.360150      1.362536
   8        1.391518      1.393901
   9        9.183644      9.189986
  10       13.183311     13.186540
  11       13.259829     13.262772
  12       13.843342     13.846149
  13       13.885642     13.888333
  14       15.460344     15.484917
 
  0.1666667E+00 -0.1387779E-16  0.0000000E+00  0.3472222E-02
   1      -14.325448    -14.319663
   2      -14.037920    -14.032267
   3       -3.024264     -3.011826
   4       -1.125038     -1.110968
   5       -0.617000     -0.613756
   6       -0.554234     -0.551011
   7        0.555866      0.558264
   8        0.599831      0.602205
   9        9.788900      9.795230
  10       13.071645     13.076411
  11       13.243065     13.247127
  12       13.991329     14.007512
  13       14.400306     14.420031
  14       15.716236     15.731453
 
  0.2500000E+00 -0.1387779E-16  0.0000000E+00  0.3472222E-02
   1      -13.503672    -13.497971
   2      -13.230472    -13.224886
   3       -2.742158     -2.738359
   4       -2.639055     -2.635281
   5       -2.042025     -2.029445
   6       -0.329934     -0.327536
   7       -0.279500     -0.277124
   8       -0.216145     -0.201801
   9       10.791755     10.798053
  10       11.743408     11.758422
  11       12.392134     12.410964
  12       12.732025     12.738438
  13       13.019879     13.025267
  14       16.631547     16.643320
 
  0.3333333E+00  0.0000000E+00  0.0000000E+00  0.3472222E-02
   1      -12.369505    -12.363912
   2      -12.116707    -12.111206
   3       -4.976979     -4.972746
   4       -4.843789     -4.839619
   5       -1.070715     -1.068317
   6       -1.015177     -1.012806
   7       -0.712713     -0.699997
   8        0.979476      0.994416
   9        9.264228      9.277658
  10       10.175886     10.193945
  11       12.096079     12.101544
  12       12.382463     12.391249
  13       12.767923     12.773755
  14       17.512875     17.525293
 
  0.4166667E+00  0.2775558E-16  0.0000000E+00  0.3472222E-02
   1      -10.953611    -10.948126
   2      -10.727689    -10.722200
   3       -7.102713     -7.098241
   4       -6.938909     -6.934477
   5       -1.548111     -1.545712
   6       -1.494860     -1.492504
   7        0.840274      0.852778
   8        2.200570      2.217138
   9        7.104029      7.114789
  10        8.092689      8.110959
  11       12.061863     12.069216
  12       12.433173     12.440672
  13       14.027381     14.033647
  14       18.249841     18.258952
 
  0.5000000E+00 -0.2775558E-16  0.0000000E+00  0.1736111E-02
   1       -9.631810     -9.626689
   2       -9.522708     -9.515763
   3       -8.568680     -8.565511
   4       -8.486824     -8.482057
   5       -1.712164     -1.709766
   6       -1.654874     -1.652519
   7        1.939879      1.949452
   8        2.624117      2.645441
   9        6.249232      6.254090
  10        6.904680      6.926655
  11       11.967713     11.975356
  12       12.366342     12.373869
  13       16.027113     16.027796
  14       16.146154     16.158596
 
  0.8333333E-01  0.8333333E-01  0.0000000E+00  0.3472222E-02
   1      -14.490725    -14.484925
   2      -14.200184    -14.194517
   3       -3.223686     -3.211274
   4       -1.309938     -1.295925
   5        0.007548      0.010566
   6        0.036628      0.039732
   7        0.683376      0.685769
   8        0.704235      0.706682
   9        9.588339      9.594674
  10       13.477286     13.480907
  11       13.569010     13.572055
  12       14.526215     14.543453
  13       14.723604     14.727724
  14       14.789818     14.793719
 
  0.1666667E+00  0.8333333E-01  0.0000000E+00  0.6944444E-02
   1      -13.831460    -13.825726
   2      -13.552557    -13.546946
   3       -2.431026     -2.418502
   4       -1.729784     -1.726207
   5       -1.659279     -1.655667
   6       -0.574034     -0.559808
   7       -0.329210     -0.326725
   8       -0.288886     -0.286398
   9       10.397614     10.403937
  10       12.684758     12.700819
  11       13.148213     13.166916
  12       13.544914     13.550051
  13       13.769196     13.773380
  14       16.220286     16.227447
 
  0.2500000E+00  0.8333333E-01  0.0000000E+00  0.6944444E-02
   1      -12.853248    -12.847612
   2      -12.592110    -12.586578
   3       -3.834960     -3.830903
   4       -3.725693     -3.721663
   5       -1.271201     -1.258533
   6       -1.228807     -1.226243
   7       -1.170303     -1.167769
   8        0.483182      0.497828
   9       10.386309     10.400945
  10       11.100663     11.118715
  11       11.597528     11.603795
  12       13.235172     13.241921
  13       13.574962     13.580501
  14       16.998623     17.010910
 
  0.3333333E+00  0.8333333E-01  0.0000000E+00  0.6944444E-02
   1      -11.575528    -11.570007
   2      -11.337731    -11.332272
   3       -5.988280     -5.983878
   4       -5.840928     -5.836582
   5       -1.869179     -1.866572
   6       -1.806896     -1.804336
   7        0.194200      0.206924
   8        1.752094      1.767666
   9        8.062678      8.075466
  10        8.977030      8.994705
  11       12.858896     12.864469
  12       13.100487     13.109574
  13       13.442665     13.448213
  14       17.737040     17.750097
 
  0.4166667E+00  0.8333333E-01  0.0000000E+00  0.6944444E-02
   1      -10.068664    -10.063218
   2       -9.872098     -9.866403
   3       -7.945811     -7.941466
   4       -7.785132     -7.780656
   5       -2.200126     -2.197498
   6       -2.134495     -2.131921
   7        1.713810      1.725289
   8        2.714780      2.733598
   9        6.426591      6.434873
  10        7.192069      7.211573
  11       12.710159     12.717470
  12       13.118803     13.126111
  13       15.146496     15.152619
  14       17.235050     17.242137
 
  0.1666667E+00  0.1666667E+00  0.0000000E+00  0.3472222E-02
   1      -13.015750    -13.010098
   2      -12.751762    -12.746220
   3       -3.060512     -3.056548
   4       -3.004183     -3.000008
   5       -1.701895     -1.699361
   6       -1.661887     -1.659235
   7       -1.457466     -1.444812
   8        0.317858      0.332402
   9       10.917542     10.933316
  10       11.409138     11.415445
  11       11.412911     11.430431
  12       14.725939     14.731127
  13       14.963374     14.966500
  14       16.322477     16.334323
 
  0.2500000E+00  0.1666667E+00  0.0000000E+00  0.6944444E-02
   1      -11.891673    -11.886129
   2      -11.648686    -11.643224
   3       -4.819608     -4.815250
   4       -4.716387     -4.711955
   5       -2.779037     -2.776282
   6       -2.708382     -2.705597
   7       -0.144097     -0.131334
   8        1.494667      1.509846
   9        8.885585      8.900501
  10        9.514414      9.531140
  11       12.801537     12.807785
  12       14.841143     14.847843
  13       15.285627     15.290639
  14       17.476871     17.069846
 
  0.3333333E+00  0.1666667E+00  0.0000000E+00  0.6944444E-02
   1      -10.495148    -10.489717
   2      -10.280380    -10.274936
   3       -6.764180     -6.759627
   4       -6.615819     -6.611265
   5       -3.366819     -3.363884
   6       -3.277220     -3.274323
   7        1.406207      1.418667
   8        2.745523      2.762413
   9        6.930833      6.943764
  10        7.675134      7.691777
  11       14.458078     14.462195
  12       14.641177     14.651103
  13       15.136012     15.141637
  14       17.200307     17.212799
 
  0.4166667E+00  0.1666667E+00  0.0000000E+00  0.3472222E-02
   1       -9.206420     -9.201431
   2       -9.100531     -9.093716
   3       -8.164733     -8.161437
   4       -8.089900     -8.084953
   5       -3.555010     -3.552026
   6       -3.458473     -3.455533
   7        2.544323      2.553168
   8        3.211924      3.234497
   9        6.177985      6.182467
  10        6.463936      6.486703
  11       14.475854     14.482678
  12       15.012111     15.019171
  13       16.391441     16.392537
  14       16.555546     16.567704
 
  0.2500000E+00  0.2500000E+00  0.0000000E+00  0.3472222E-02
   1      -10.644616    -10.639188
   2      -10.425825    -10.420419
   3       -5.846784     -5.842045
   4       -5.770030     -5.764984
   5       -4.263866     -4.261253
   6       -4.204995     -4.202134
   7        1.289412      1.302075
   8        2.730100      2.746402
   9        7.264924      7.280652
  10        7.871828      7.886510
  11       14.336796     14.342913
  12       16.656318     16.665621
  13       16.671852     16.683862
  14       16.891579     16.893697
 
  0.3333333E+00  0.2500000E+00  0.0000000E+00  0.6944444E-02
   1       -9.196943     -9.191657
   2       -9.017110     -9.011502
   3       -7.299818     -7.295014
   4       -7.175117     -7.170156
   5       -4.995746     -4.992886
   6       -4.899443     -4.896504
   7        2.835276      2.845925
   8        3.841970      3.862621
   9        5.810018      5.826635
  10        6.355452      6.366810
  11       16.043847     16.048453
  12       16.284770     16.295128
  13       16.437277     16.445351
  14       16.547186     16.555654
 
  0.3333333E+00  0.3333333E+00  0.0000000E+00  0.1157407E-02
   1       -7.977195     -7.978769
   2       -7.885896     -7.873405
   3       -7.885894     -7.873403
   4       -7.785211     -7.786696
   5       -5.848925     -5.846549
   6       -5.848923     -5.846547
   7        4.086951      4.078336
   8        4.686361      4.725018
   9        4.686361      4.725019
  10        5.458812      5.449541
  11       15.867245     15.876150
  12       15.867247     15.876152
  13       17.003852     17.000024
  14       17.301156     17.314163
 
  0.0000000E+00  0.0000000E+00  0.8333333E-01  0.1157407E-02
   1      -14.983699    -14.977850
   2      -14.694659    -14.688947
   3       -3.800033     -3.787694
   4       -1.915164     -1.901333
   5        1.712488      1.714846
   6        1.712509      1.714866
   7        1.724031      1.726424
   8        1.724052      1.726444
   9        9.068898      9.075311
  10       13.135559     13.138343
  11       13.135570     13.138353
  12       13.181959     13.184635
  13       13.181970     13.184645
  14       15.141014     15.150047
 
  0.8333333E-01  0.0000000E+00  0.8333333E-01  0.6944444E-02
   1      -14.817619    -14.811787
   2      -14.531338    -14.525640
   3       -3.598226     -3.585856
   4       -1.726410     -1.712535
   5        1.048180      1.050830
   6        1.077018      1.079670
   7        1.364471      1.366859
   8        1.391156      1.393539
   9        9.269366      9.275776
  10       13.183917     13.187151
  11       13.258638     13.261585
  12       13.845274     13.848083
  13       13.885138     13.887829
  14       15.442340     15.305232
 
  0.1666667E+00 -0.1387779E-16  0.8333333E-01  0.6944444E-02
   1      -14.320837    -14.315055
   2      -14.043071    -14.037415
   3       -2.998611     -2.986159
   4       -1.165083     -1.151059
   5       -0.615559     -0.612316
   6       -0.555162     -0.551937
   7        0.563392      0.565796
   8        0.599195      0.601570
   9        9.872358      9.878763
  10       13.074618     13.079405
  11       13.239884     13.243962
  12       14.002308     14.018369
  13       14.396298     14.416032
  14       15.716330     15.722530
 
  0.2500000E+00 -0.1387779E-16  0.8333333E-01  0.6944444E-02
   1      -13.499289    -13.493590
   2      -13.235333    -13.229746
   3       -2.740472     -2.736673
   4       -2.644014     -2.640243
   5       -2.013461     -2.000866
   6       -0.329983     -0.327584
   7       -0.280507     -0.278132
   8       -0.254851     -0.240557
   9       10.866822     10.873302
  10       11.755455     11.770375
  11       12.368808     12.387512
  12       12.736876     12.743302
  13       13.019988     13.025476
  14       16.492293     16.503851
 
  0.3333333E+00  0.0000000E+00  0.8333333E-01  0.6944444E-02
   1      -12.365501    -12.359910
   2      -12.121500    -12.115997
   3       -4.974754     -4.970521
   4       -4.846320     -4.842148
   5       -1.070811     -1.068413
   6       -1.016385     -1.014013
   7       -0.688137     -0.675399
   8        0.939475      0.954355
   9        9.274696      9.288224
  10       10.162418     10.180372
  11       12.149510     12.154897
  12       12.395721     12.404679
  13       12.778326     12.784148
  14       17.387614     17.399803
 
  0.4166667E+00  0.2775558E-16  0.8333333E-01  0.6944444E-02
   1      -10.949912    -10.944426
   2      -10.732460    -10.726974
   3       -7.100439     -7.095964
   4       -6.941908     -6.937477
   5       -1.547775     -1.545376
   6       -1.493257     -1.490896
   7        0.862222      0.874764
   8        2.176436      2.192902
   9        7.113541      7.124453
  10        8.074544      8.092672
  11       12.067507     12.074880
  12       12.426561     12.434059
  13       14.098192     14.104531
  14       18.189217     18.198791
 
  0.5000000E+00 -0.2775558E-16  0.8333333E-01  0.3472222E-02
   1       -9.629402     -9.624254
   2       -9.524185     -9.517277
   3       -8.567904     -8.564703
   4       -8.488813     -8.484068
   5       -1.711163     -1.708765
   6       -1.655759     -1.653402
   7        1.954989      1.964698
   8        2.618194      2.639275
   9        6.246335      6.251513
  10        6.888093      6.909805
  11       11.974174     11.981823
  12       12.360375     12.367910
  13       16.094533     16.095203
  14       16.194225     16.206803
 
  0.8333333E-01  0.8333333E-01  0.8333333E-01  0.6944444E-02
   1      -14.486129    -14.480331
   2      -14.205475    -14.199806
   3       -3.196777     -3.184354
   4       -1.350924     -1.336954
   5        0.008223      0.011243
   6        0.035761      0.038864
   7        0.685468      0.687864
   8        0.704281      0.706731
   9        9.672484      9.678891
  10       13.476754     13.480403
  11       13.567405     13.570466
  12       14.534668     14.551129
  13       14.725019     14.729133
  14       14.775291     14.779187
 
  0.1666667E+00  0.8333333E-01  0.8333333E-01  0.1388889E-01
   1      -13.826983    -13.821251
   2      -13.557684    -13.552071
   3       -2.403607     -2.391064
   4       -1.727788     -1.724212
   5       -1.660041     -1.656429
   6       -0.613118     -0.598948
   7       -0.329373     -0.326889
   8       -0.288487     -0.285999
   9       10.478627     10.485040
  10       12.690229     12.706309
  11       13.131230     13.149780
  12       13.547360     13.552512
  13       13.773973     13.778266
  14       16.190193     16.157895
 
  0.2500000E+00  0.8333333E-01  0.8333333E-01  0.1388889E-01
   1      -12.848998    -12.843363
   2      -12.596791    -12.591257
   3       -3.833604     -3.829549
   4       -3.725261     -3.721226
   5       -1.244784     -1.232203
   6       -1.227344     -1.224671
   7       -1.173119     -1.170585
   8        0.449275      0.463854
   9       10.397536     10.412257
  10       11.075145     11.093128
  11       11.677637     11.683949
  12       13.240760     13.247514
  13       13.573295     13.578853
  14       16.873974     16.886024
 
  0.3333333E+00  0.8333333E-01  0.8333333E-01  0.1388889E-01
   1      -11.571189    -11.565668
   2      -11.341580    -11.336118
   3       -5.984449     -5.980046
   4       -5.843727     -5.839381
   5       -1.867403     -1.864796
   6       -1.807369     -1.804807
   7        0.218452      0.231195
   8        1.719372      1.734878
   9        8.073086      8.085976
  10        8.963776      8.981363
  11       12.875001     12.880809
  12       13.125105     13.133950
  13       13.478338     13.483974
  14       17.636528     17.649318
 
  0.4166667E+00  0.8333333E-01  0.8333333E-01  0.1388889E-01
   1      -10.065287    -10.059837
   2       -9.875506     -9.869816
   3       -7.943063     -7.938714
   4       -7.788182     -7.783706
   5       -2.199709     -2.197084
   6       -2.136953     -2.134380
   7        1.731656      1.743209
   8        2.700192      2.718837
   9        6.425561      6.434052
  10        7.170897      7.190252
  11       12.715696     12.723024
  12       13.111982     13.119303
  13       15.205676     15.211914
  14       17.255683     17.262830
 
  0.1666667E+00  0.1666667E+00  0.8333333E-01  0.6944444E-02
   1      -13.011416    -13.005767
   2      -12.756511    -12.750967
   3       -3.059625     -3.055659
   4       -3.005166     -3.000993
   5       -1.700299     -1.697765
   6       -1.662022     -1.659366
   7       -1.431838     -1.419165
   8        0.283252      0.297738
   9       10.928432     10.944246
  10       11.393742     11.411208
  11       11.493975     11.500369
  12       14.727325     14.732498
  13       14.960297     14.963483
  14       16.323207     16.337292
 
  0.2500000E+00  0.1666667E+00  0.8333333E-01  0.1388889E-01
   1      -11.887731    -11.882188
   2      -11.652680    -11.647216
   3       -4.818746     -4.814387
   4       -4.717826     -4.713397
   5       -2.777177     -2.774422
   6       -2.709434     -2.706650
   7       -0.118336     -0.105549
   8        1.461352      1.476463
   9        8.891271      8.906221
  10        9.504525      9.521267
  11       12.869170     12.875474
  12       14.845431     14.852160
  13       15.280495     15.285529
  14       16.964670     16.974567
 
  0.3333333E+00  0.1666667E+00  0.8333333E-01  0.1388889E-01
   1      -10.491952    -10.486522
   2      -10.284215    -10.278772
   3       -6.761663     -6.757112
   4       -6.618889     -6.614332
   5       -3.365312     -3.362379
   6       -3.277366     -3.274466
   7        1.427634      1.440134
   8        2.718504      2.735282
   9        6.935992      6.949002
  10        7.662518      7.679140
  11       14.489219     14.493372
  12       14.652977     14.663096
  13       15.133114     15.138670
  14       17.106247     17.118150
 
  0.4166667E+00  0.1666667E+00  0.8333333E-01  0.6944444E-02
   1       -9.204452     -9.199438
   2       -9.102088     -9.095307
   3       -8.164220     -8.160894
   4       -8.091710     -8.086784
   5       -3.553824     -3.550842
   6       -3.460859     -3.457919
   7        2.559232      2.568240
   8        3.205739      3.228032
   9        6.166310      6.171141
  10        6.456899      6.479425
  11       14.481358     14.488256
  12       15.000097     15.007236
  13       16.415767     16.417326
  14       16.464997     16.476319
 
  0.2500000E+00  0.2500000E+00  0.8333333E-01  0.6944444E-02
   1      -10.641822    -10.636395
   2      -10.430133    -10.424726
   3       -5.846377     -5.841633
   4       -5.773042     -5.768007
   5       -4.264586     -4.261967
   6       -4.209084     -4.206236
   7        1.306926      1.319616
   8        2.698401      2.714631
   9        7.269680      7.285438
  10        7.860650      7.875388
  11       14.374705     14.380969
  12       16.449586     16.461006
  13       16.837585     16.847634
  14       16.883679     16.885821
 
  0.3333333E+00  0.2500000E+00  0.8333333E-01  0.1388889E-01
   1       -9.194275     -9.188984
   2       -9.020341     -9.014740
   3       -7.297786     -7.292977
   4       -7.177402     -7.172444
   5       -4.994051     -4.991188
   6       -4.902252     -4.899316
   7        2.854697      2.865399
   8        3.830067      3.850530
   9        5.813509      5.830206
  10        6.348140      6.359585
  11       15.885974     15.893208
  12       16.152845     16.163988
  13       16.474140     16.476753
  14       16.773643     16.783517
 
  0.3333333E+00  0.3333333E+00  0.8333333E-01  0.2314815E-02
   1       -7.973743     -7.975313
   2       -7.885500     -7.873009
   3       -7.885498     -7.873007
   4       -7.788437     -7.789922
   5       -5.849083     -5.846707
   6       -5.849081     -5.846705
   7        4.115211      4.106595
   8        4.696580      4.735259
   9        4.696580      4.735260
  10        5.440608      5.431354
  11       15.754711     15.763828
  12       15.754712     15.763829
  13       17.060744     17.057069
  14       17.460078     17.472792
 
  0.0000000E+00  0.0000000E+00  0.1666667E+00  0.1157407E-02
   1      -14.969637    -14.963794
   2      -14.710566    -14.704846
   3       -3.716584     -3.704200
   4       -2.034578     -2.020879
   5        1.712122      1.714480
   6        1.712143      1.714501
   7        1.722846      1.725237
   8        1.722867      1.725257
   9        9.322226      9.328829
  10       13.137790     13.140570
  11       13.137801     13.140580
  12       13.178284     13.180965
  13       13.178295     13.180975
  14       14.659017     14.668303
 
  0.8333333E-01  0.0000000E+00  0.1666667E+00  0.6944444E-02
   1      -14.803668    -14.797843
   2      -14.547062    -14.541357
   3       -3.515185     -3.502772
   4       -1.844847     -1.831106
   5        1.047912      1.050562
   6        1.075519      1.078171
   7        1.364546      1.366931
   8        1.388011      1.390397
   9        9.520930      9.527534
  10       13.184906     13.188162
  11       13.255017     13.257973
  12       13.843884     13.846684
  13       13.881390     13.884085
  14       14.824935     14.833268
 
  0.1666667E+00 -0.1387779E-16  0.1666667E+00  0.6944444E-02
   1      -14.307278    -14.301501
   2      -14.058314    -14.052651
   3       -2.918144     -2.905643
   4       -1.280907     -1.267026
   5       -0.612611     -0.609370
   6       -0.558685     -0.555459
   7        0.562527      0.564926
   8        0.597459      0.599835
   9       10.117189     10.123808
  10       13.075582     13.080450
  11       13.230053     13.234170
  12       14.020494     14.036206
  13       14.360063     14.379893
  14       15.329476     15.339898
 
  0.2500000E+00 -0.1387779E-16  0.1666667E+00  0.6944444E-02
   1      -13.486398    -13.480704
   2      -13.249750    -13.244155
   3       -2.735485     -2.731688
   4       -2.651970     -2.648205
   5       -1.934985     -1.922344
   6       -0.364976     -0.350818
   7       -0.321300     -0.318896
   8       -0.282695     -0.280319
   9       11.081675     11.088836
  10       11.797048     11.811496
  11       12.325680     12.344097
  12       12.749955     12.756403
  13       13.019917     13.025653
  14       16.089065     16.100058
 
  0.3333333E+00  0.0000000E+00  0.1666667E+00  0.6944444E-02
   1      -12.353207    -12.347619
   2      -12.134651    -12.129144
   3       -4.968001     -4.963767
   4       -4.850010     -4.845830
   5       -1.062162     -1.059758
   6       -1.020894     -1.018529
   7       -0.611875     -0.599067
   8        0.840471      0.855163
   9        9.310907      9.324698
  10       10.100500     10.118167
  11       12.270910     12.276269
  12       12.448138     12.457251
  13       12.842750     12.848690
  14       17.049117     17.060688
 
  0.4166667E+00  0.2775558E-16  0.1666667E+00  0.6944444E-02
   1      -10.939135    -10.933650
   2      -10.743887    -10.738400
   3       -7.090799     -7.086322
   4       -6.951087     -6.946654
   5       -1.538369     -1.535965
   6       -1.495034     -1.492671
   7        0.926228      0.938883
   8        2.107667      2.123838
   9        7.138836      7.150167
  10        8.005782      8.023527
  11       12.086205     12.093627
  12       12.408708     12.416208
  13       14.306731     14.313290
  14       17.980019     17.991760
 
  0.5000000E+00 -0.2775558E-16  0.1666667E+00  0.3472222E-02
   1       -9.624228     -9.619004
   2       -9.528613     -9.521810
   3       -8.565569     -8.562271
   4       -8.494541     -8.489862
   5       -1.702984     -1.700583
   6       -1.659161     -1.656803
   7        1.999902      2.009994
   8        2.602831      2.623227
   9        6.238471      6.244554
  10        6.821189      6.842168
  11       11.992682     12.000358
  12       12.338017     12.345573
  13       16.285951     16.286610
  14       16.333839     16.346789
 
  0.8333333E-01  0.8333333E-01  0.1666667E+00  0.6944444E-02
   1      -14.472441    -14.466648
   2      -14.220859    -14.215182
   3       -3.115309     -3.102841
   4       -1.467647     -1.453812
   5        0.009917      0.012940
   6        0.034346      0.037442
   7        0.689727      0.692128
   8        0.704220      0.706670
   9        9.919891      9.926503
  10       13.475137     13.478893
  11       13.562664     13.565756
  12       14.548734     14.564276
  13       14.729612     14.733815
  14       14.773432     14.777385
 
  0.1666667E+00  0.8333333E-01  0.1666667E+00  0.1388889E-01
   1      -13.813810    -13.808084
   2      -13.572443    -13.566822
   3       -2.325718     -2.313128
   4       -1.724444     -1.720868
   5       -1.665210     -1.661599
   6       -0.725589     -0.711558
   7       -0.327436     -0.324954
   8       -0.290172     -0.287682
   9       10.715999     10.722675
  10       12.706335     12.722449
  11       13.099681     13.117860
  12       13.556445     13.561609
  13       13.774536     13.779112
  14       15.734530     15.740941
 
  0.2500000E+00  0.8333333E-01  0.1666667E+00  0.1388889E-01
   1      -12.836597    -12.830966
   2      -12.610480    -12.604939
   3       -3.827855     -3.823800
   4       -3.732003     -3.727971
   5       -1.224747     -1.222183
   6       -1.176364     -1.173721
   7       -1.167502     -1.154866
   8        0.346326      0.360746
   9       10.415190     10.430133
  10       11.031911     11.049714
  11       11.908322     11.914769
  12       13.255426     13.262211
  13       13.567491     13.573088
  14       16.522550     16.534003
 
  0.3333333E+00  0.8333333E-01  0.1666667E+00  0.1388889E-01
   1      -11.559850    -11.554332
   2      -11.353983    -11.348518
   3       -5.977375     -5.972973
   4       -5.850351     -5.845999
   5       -1.863510     -1.860906
   6       -1.809175     -1.806609
   7        0.289013      0.301850
   8        1.635109      1.650385
   9        8.107449      8.120619
  10        8.905280      8.922618
  11       12.905641     12.911937
  12       13.163008     13.171197
  13       13.621836     13.627891
  14       17.362831     17.375036
 
  0.4166667E+00  0.8333333E-01  0.1666667E+00  0.1388889E-01
   1      -10.055609    -10.050148
   2       -9.885684     -9.880010
   3       -7.935736     -7.931374
   4       -7.796819     -7.792348
   5       -2.199061     -2.196441
   6       -2.140631     -2.138055
   7        1.785561      1.797341
   8        2.661742      2.679897
   9        6.435241      6.444375
  10        7.113889      7.132767
  11       12.733469     12.740839
  12       13.090192     13.097540
  13       15.378811     15.385403
  14       17.302922     17.310395
 
  0.1666667E+00  0.1666667E+00  0.1666667E+00  0.6944444E-02
   1      -12.998953    -12.993308
   2      -12.770464    -12.764913
   3       -3.057073     -3.053097
   4       -3.008474     -3.004313
   5       -1.698598     -1.696057
   6       -1.664428     -1.661778
   7       -1.358323     -1.345591
   8        0.175972      0.190306
   9       10.951765     10.967693
  10       11.368129     11.386180
  11       11.717784     11.723697
  12       14.728361     14.733527
  13       14.960571     14.963905
  14       16.316623     16.321895
 
  0.2500000E+00  0.1666667E+00  0.1666667E+00  0.1388889E-01
   1      -11.876264    -11.870724
   2      -11.665533    -11.660064
   3       -4.813980     -4.809618
   4       -4.722897     -4.718472
   5       -2.774391     -2.771636
   6       -2.712561     -2.709777
   7       -0.048670     -0.035803
   8        1.368258      1.383174
   9        8.920288      8.935367
  10        9.472043      9.488777
  11       13.066195     13.072686
  12       14.855057     14.861846
  13       15.268228     15.273330
  14       16.710230     16.722174
 
  0.3333333E+00  0.1666667E+00  0.1666667E+00  0.1388889E-01
   1      -10.481577    -10.476146
   2      -10.295425    -10.289983
   3       -6.754569     -6.750016
   4       -6.626676     -6.622119
   5       -3.360651     -3.357718
   6       -3.281727     -3.278824
   7        1.491857      1.504490
   8        2.650972      2.667423
   9        6.962875      6.976150
  10        7.619369      7.635897
  11       14.561655     14.566451
  12       14.705752     14.715899
  13       15.139313     15.144656
  14       16.906673     16.917827
 
  0.4166667E+00  0.1666667E+00  0.1666667E+00  0.6944444E-02
   1       -9.198536     -9.193446
   2       -9.106356     -9.099679
   3       -8.162194     -8.158770
   4       -8.096803     -8.091944
   5       -3.549062     -3.546081
   6       -3.468088     -3.465149
   7        2.604136      2.613576
   8        3.192449      3.213951
   9        6.151551      6.157389
  10        6.416568      6.438424
  11       14.500927     14.508010
  12       14.961664     14.969022