Automatically generated mesh
     133
Reciprocal lattice
    0.00000000000000    0.00000000000000    0.00000000000000             1
    0.08333333333333    0.00000000000000    0.00000000000000             6
    0.16666666666667    0.00000000000000    0.00000000000000             6
    0.25000000000000    0.00000000000000    0.00000000000000             6
    0.33333333333333    0.00000000000000    0.00000000000000             6
    0.41666666666667    0.00000000000000    0.00000000000000             6
    0.50000000000000    0.00000000000000    0.00000000000000             3
    0.08333333333333    0.08333333333333    0.00000000000000             6
    0.16666666666667    0.08333333333333    0.00000000000000            12
    0.25000000000000    0.08333333333333    0.00000000000000            12
    0.33333333333333    0.08333333333333    0.00000000000000            12
    0.41666666666667    0.08333333333333    0.00000000000000            12
    0.16666666666667    0.16666666666667    0.00000000000000             6
    0.25000000000000    0.16666666666667    0.00000000000000            12
    0.33333333333333    0.16666666666667    0.00000000000000            12
    0.41666666666667    0.16666666666667    0.00000000000000             6
    0.25000000000000    0.25000000000000    0.00000000000000             6
    0.33333333333333    0.25000000000000    0.00000000000000            12
    0.33333333333333    0.33333333333333    0.00000000000000             2
    0.00000000000000    0.00000000000000    0.08333333333333             2
    0.08333333333333    0.00000000000000    0.08333333333333            12
    0.16666666666667    0.00000000000000    0.08333333333333            12
    0.25000000000000    0.00000000000000    0.08333333333333            12
    0.33333333333333    0.00000000000000    0.08333333333333            12
    0.41666666666667    0.00000000000000    0.08333333333333            12
    0.50000000000000    0.00000000000000    0.08333333333333             6
    0.08333333333333    0.08333333333333    0.08333333333333            12
    0.16666666666667    0.08333333333333    0.08333333333333            24
    0.25000000000000    0.08333333333333    0.08333333333333            24
    0.33333333333333    0.08333333333333    0.08333333333333            24
    0.41666666666667    0.08333333333333    0.08333333333333            24
    0.16666666666667    0.16666666666667    0.08333333333333            12
    0.25000000000000    0.16666666666667    0.08333333333333            24
    0.33333333333333    0.16666666666667    0.08333333333333            24
    0.41666666666667    0.16666666666667    0.08333333333333            12
    0.25000000000000    0.25000000000000    0.08333333333333            12
    0.33333333333333    0.25000000000000    0.08333333333333            24
    0.33333333333333    0.33333333333333    0.08333333333333             4
    0.00000000000000    0.00000000000000    0.16666666666667             2
    0.08333333333333    0.00000000000000    0.16666666666667            12
    0.16666666666667    0.00000000000000    0.16666666666667            12
    0.25000000000000    0.00000000000000    0.16666666666667            12
    0.33333333333333    0.00000000000000    0.16666666666667            12
    0.41666666666667    0.00000000000000    0.16666666666667            12
    0.50000000000000    0.00000000000000    0.16666666666667             6
    0.08333333333333    0.08333333333333    0.16666666666667            12
    0.16666666666667    0.08333333333333    0.16666666666667            24
    0.25000000000000    0.08333333333333    0.16666666666667            24
    0.33333333333333    0.08333333333333    0.16666666666667            24
    0.41666666666667    0.08333333333333    0.16666666666667            24
    0.16666666666667    0.16666666666667    0.16666666666667            12
    0.25000000000000    0.16666666666667    0.16666666666667            24
    0.33333333333333    0.16666666666667    0.16666666666667            24
    0.41666666666667    0.16666666666667    0.16666666666667            12
    0.25000000000000    0.25000000000000    0.16666666666667            12
    0.33333333333333    0.25000000000000    0.16666666666667            24
    0.33333333333333    0.33333333333333    0.16666666666667             4
    0.00000000000000    0.00000000000000    0.25000000000000             2
    0.08333333333333    0.00000000000000    0.25000000000000            12
    0.16666666666667    0.00000000000000    0.25000000000000            12
    0.25000000000000    0.00000000000000    0.25000000000000            12
    0.33333333333333    0.00000000000000    0.25000000000000            12
    0.41666666666667    0.00000000000000    0.25000000000000            12
    0.50000000000000    0.00000000000000    0.25000000000000             6
    0.08333333333333    0.08333333333333    0.25000000000000            12
    0.16666666666667    0.08333333333333    0.25000000000000            24
    0.25000000000000    0.08333333333333    0.25000000000000            24
    0.33333333333333    0.08333333333333    0.25000000000000            24
    0.41666666666667    0.08333333333333    0.25000000000000            24
    0.16666666666667    0.16666666666667    0.25000000000000            12
    0.25000000000000    0.16666666666667    0.25000000000000            24
    0.33333333333333    0.16666666666667    0.25000000000000            24
    0.41666666666667    0.16666666666667    0.25000000000000            12
    0.25000000000000    0.25000000000000    0.25000000000000            12
    0.33333333333333    0.25000000000000    0.25000000000000            24
    0.33333333333333    0.33333333333333    0.25000000000000             4
    0.00000000000000    0.00000000000000    0.33333333333333             2
    0.08333333333333    0.00000000000000    0.33333333333333            12
    0.16666666666667    0.00000000000000    0.33333333333333            12
    0.25000000000000    0.00000000000000    0.33333333333333            12
    0.33333333333333    0.00000000000000    0.33333333333333            12
    0.41666666666667    0.00000000000000    0.33333333333333            12
    0.50000000000000    0.00000000000000    0.33333333333333             6
    0.08333333333333    0.08333333333333    0.33333333333333            12
    0.16666666666667    0.08333333333333    0.33333333333333            24
    0.25000000000000    0.08333333333333    0.33333333333333            24
    0.33333333333333    0.08333333333333    0.33333333333333            24
    0.41666666666667    0.08333333333333    0.33333333333333            24
    0.16666666666667    0.16666666666667    0.33333333333333            12
    0.25000000000000    0.16666666666667    0.33333333333333            24
    0.33333333333333    0.16666666666667    0.33333333333333            24
    0.41666666666667    0.16666666666667    0.33333333333333            12
    0.25000000000000    0.25000000000000    0.33333333333333            12
    0.33333333333333    0.25000000000000    0.33333333333333            24
    0.33333333333333    0.33333333333333    0.33333333333333             4
    0.00000000000000    0.00000000000000    0.41666666666667             2
    0.08333333333333    0.00000000000000    0.41666666666667            12
    0.16666666666667    0.00000000000000    0.41666666666667            12
    0.25000000000000    0.00000000000000    0.41666666666667            12
    0.33333333333333    0.00000000000000    0.41666666666667            12
    0.41666666666667    0.00000000000000    0.41666666666667            12
    0.50000000000000    0.00000000000000    0.41666666666667             6
    0.08333333333333    0.08333333333333    0.41666666666667            12
    0.16666666666667    0.08333333333333    0.41666666666667            24
    0.25000000000000    0.08333333333333    0.41666666666667            24
    0.33333333333333    0.08333333333333    0.41666666666667            24
    0.41666666666667    0.08333333333333    0.41666666666667            24
    0.16666666666667    0.16666666666667    0.41666666666667            12
    0.25000000000000    0.16666666666667    0.41666666666667            24
    0.33333333333333    0.16666666666667    0.41666666666667            24
    0.41666666666667    0.16666666666667    0.41666666666667            12
    0.25000000000000    0.25000000000000    0.41666666666667            12
    0.33333333333333    0.25000000000000    0.41666666666667            24
    0.33333333333333    0.33333333333333    0.41666666666667             4
    0.00000000000000    0.00000000000000    0.50000000000000             1
    0.08333333333333    0.00000000000000    0.50000000000000             6
    0.16666666666667    0.00000000000000    0.50000000000000             6
    0.25000000000000    0.00000000000000    0.50000000000000             6
    0.33333333333333    0.00000000000000    0.50000000000000             6
    0.41666666666667    0.00000000000000    0.50000000000000             6
    0.50000000000000    0.00000000000000    0.50000000000000             3
    0.08333333333333    0.08333333333333    0.50000000000000             6
    0.16666666666667    0.08333333333333    0.50000000000000            12
    0.25000000000000    0.08333333333333    0.50000000000000            12
    0.33333333333333    0.08333333333333    0.50000000000000            12
    0.41666666666667    0.08333333333333    0.50000000000000            12
    0.16666666666667    0.16666666666667    0.50000000000000             6
    0.25000000000000    0.16666666666667    0.50000000000000            12
    0.33333333333333    0.16666666666667    0.50000000000000            12
    0.41666666666667    0.16666666666667    0.50000000000000             6
    0.25000000000000    0.25000000000000    0.50000000000000             6
    0.33333333333333    0.25000000000000    0.50000000000000            12
    0.33333333333333    0.33333333333333    0.50000000000000             2
