       N       E                     dE             d eps       ncg     rms          rms(c)
DAV:   1     0.230926578767E+02    0.23093E+02   -0.65264E+03  7488   0.753E+02
DAV:   2    -0.353487320266E+02   -0.58441E+02   -0.53615E+02 10116   0.175E+02
DAV:   3    -0.375864693129E+02   -0.22377E+01   -0.22281E+01  9788   0.331E+01
DAV:   4    -0.376069938335E+02   -0.20525E-01   -0.20516E-01  9164   0.360E+00
DAV:   5    -0.376074078204E+02   -0.41399E-03   -0.41372E-03  9892   0.487E-01    0.122E+01
DAV:   6    -0.368988675607E+02    0.70854E+00   -0.20972E+00  8150   0.925E+00    0.475E+00
DAV:   7    -0.369492228923E+02   -0.50355E-01   -0.13066E+00  8528   0.737E+00    0.188E+00
DAV:   8    -0.368940314225E+02    0.55191E-01   -0.24902E-01  9098   0.357E+00    0.655E-01
DAV:   9    -0.369055305415E+02   -0.11499E-01   -0.18362E-02  8408   0.118E+00    0.325E-01
DAV:  10    -0.369060958632E+02   -0.56532E-03   -0.17049E-03  9424   0.424E-01    0.128E-01
DAV:  11    -0.369063050429E+02   -0.20918E-03   -0.50312E-04  8498   0.203E-01    0.485E-02
DAV:  12    -0.369063587159E+02   -0.53673E-04   -0.94321E-05  6962   0.834E-02
   1 F= -.36906359E+02 E0= -.36906277E+02  d E =-.244534E-03  mag=     0.0147
