 vasp.5.2.12 11Nov11 complex                                                    
  
 executed on             LinuxIFC date 2012.10.17  09:39:31
 running on    1 nodes
 distr:  one band on    1 nodes,    1 groups


--------------------------------------------------------------------------------------------------------


 INCAR:
 POTCAR:   PAW_PBE C 08Apr2002                    
 POTCAR:   PAW_PBE C 08Apr2002                    
   VRHFIN =C: s2p2                                                              
   LEXCH  = PE                                                                  
   EATOM  =   147.1560 eV,   10.8157 Ry                                         
                                                                                
   TITEL  = PAW_PBE C 08Apr2002                                                 
   LULTRA =        F    use ultrasoft PP ?                                      
   IUNSCR =        0    unscreen: 0-lin 1-nonlin 2-no                           
   RPACOR =     .000    partial core radius                                     
   POMASS =   12.011; ZVAL   =    4.000    mass and valenz                      
   RCORE  =    1.500    outmost cutoff radius                                   
   RWIGS  =    1.630; RWIGS  =     .863    wigner-seitz radius (au A)           
   ENMAX  =  400.000; ENMIN  =  300.000 eV                                      
   ICORE  =        2    local potential                                         
   LCOR   =        T    correct aug charges                                     
   LPAW   =        T    paw PP                                                  
   EAUG   =  644.873                                                            
   DEXC   =     .000                                                            
   RMAX   =    2.266    core radius for proj-oper                               
   RAUG   =    1.300    factor for augmentation sphere                          
   RDEP   =    1.501    radius for radial grids                                 
   RDEPT  =    1.300    core radius for aug-charge                              
   QCUT   =   -5.516; QGAM   =   11.032    optimization parameters              
                                                                                
   Description                                                                  
     l     E      TYP  RCUT    TYP  RCUT                                        
     0   .000     23  1.200                                                     
     0   .000     23  1.200                                                     
     1   .000     23  1.500                                                     
     1  2.500     23  1.500                                                     
     2   .000      7  1.500                                                     
  local pseudopotential read in
  atomic valenz-charges read in
  non local Contribution for L=           0  read in
    real space projection operators read in
  non local Contribution for L=           0  read in
    real space projection operators read in
  non local Contribution for L=           1  read in
    real space projection operators read in
  non local Contribution for L=           1  read in
    real space projection operators read in
    PAW grid and wavefunctions read in
 
   number of l-projection  operators is LMAX  =           4
   number of lm-projection operators is LMMAX =           8
 
 PAW_PBE C 08Apr2002                    :
 energy of atom  1       EATOM= -147.1560
 kinetic energy error for atom=    0.0854 (will be added to EATOM!!)
 
 
 POSCAR:  C                                      
  positions in cartesian coordinates
  No initial velocities read in
 exchange correlation table for  LEXCH =        8
   RHO(1)=    0.500       N(1)  =     2000
   RHO(2)=  100.500       N(2)  =     4000
 


--------------------------------------------------------------------------------------------------------


 ion  position               nearest neighbor table
   1  0.000  0.000  0.000-   2 1.42   2 1.42   2 1.42
   2  0.333  0.667  0.000-   1 1.42   1 1.42   1 1.42
   3  0.333  0.667  0.500-   4 1.42   4 1.42   4 1.42
   4  0.667  0.333  0.500-   3 1.42   3 1.42   3 1.42
 
  LATTYP: Found a hexagonal cell.
 ALAT       =     2.4612000000
 C/A-ratio  =     2.7254591256
  
  Lattice vectors:
  
 A1 = (   2.4612000000,   0.0000000000,   0.0000000000)
 A2 = (  -1.2306000000,   2.1314617238,   0.0000000000)
 A3 = (   0.0000000000,   0.0000000000,   6.7079000000)
 Subroutine PRICEL returns:
 Original cell was already a primitive cell.
 

Analysis of symmetry for initial positions (statically):

 Routine SETGRP: Setting up the symmetry group for a 
 hexagonal supercell.


 Subroutine GETGRP returns: Found 24 space group operations
 (whereof 12 operations were pure point group operations)
 out of a pool of 24 trial point group operations.


The static configuration has the point symmetry D_3h.
 The point group associated with its full space group is D_6h.

Analysis of symmetry for dynamics (positions and initial velocities):

 Subroutine DYNSYM returns: Found 24 space group operations
 (whereof 12 operations were pure point group operations)
 out of a pool of 24 trial space group operations
 (whereof 12 operations were pure point group operations)
 and found also     1 'primitive' translations


The dynamic configuration has the point symmetry D_3h.
 The point group associated with its full space group is D_6h.

Analysis of magnetic symmetry:

 Subroutine MAGSYM returns: Found 24 space group operations
 (whereof 12 operations were pure point group operations)
 out of a pool of 24 trial space group operations
 (whereof 12 operations were pure point group operations)
 and found also     1 'primitive' translations


The magnetic configuration has the point symmetry D_3h.
 The point group associated with its full space group is D_6h.
 
 
 KPOINTS: KPOINTS created by Atomic Simulation Env

Automatic generation of k-mesh.
 
 Subroutine IBZKPT returns following result:
 ===========================================
 
 Found    133 irreducible k-points:
 
 Following reciprocal coordinates:
            Coordinates               Weight
  0.000000  0.000000  0.000000      1.000000
  0.083333  0.000000  0.000000      6.000000
  0.166667  0.000000  0.000000      6.000000
  0.250000  0.000000  0.000000      6.000000
  0.333333  0.000000  0.000000      6.000000
  0.416667  0.000000  0.000000      6.000000
  0.500000  0.000000  0.000000      3.000000
  0.083333  0.083333  0.000000      6.000000
  0.166667  0.083333  0.000000     12.000000
  0.250000  0.083333  0.000000     12.000000
  0.333333  0.083333  0.000000     12.000000
  0.416667  0.083333  0.000000     12.000000
  0.166667  0.166667  0.000000      6.000000
  0.250000  0.166667  0.000000     12.000000
  0.333333  0.166667  0.000000     12.000000
  0.416667  0.166667  0.000000      6.000000
  0.250000  0.250000  0.000000      6.000000
  0.333333  0.250000  0.000000     12.000000
  0.333333  0.333333  0.000000      2.000000
  0.000000  0.000000  0.083333      2.000000
  0.083333  0.000000  0.083333     12.000000
  0.166667  0.000000  0.083333     12.000000
  0.250000  0.000000  0.083333     12.000000
  0.333333  0.000000  0.083333     12.000000
  0.416667  0.000000  0.083333     12.000000
  0.500000  0.000000  0.083333      6.000000
  0.083333  0.083333  0.083333     12.000000
  0.166667  0.083333  0.083333     24.000000
  0.250000  0.083333  0.083333     24.000000
  0.333333  0.083333  0.083333     24.000000
  0.416667  0.083333  0.083333     24.000000
  0.166667  0.166667  0.083333     12.000000
  0.250000  0.166667  0.083333     24.000000
  0.333333  0.166667  0.083333     24.000000
  0.416667  0.166667  0.083333     12.000000
  0.250000  0.250000  0.083333     12.000000
  0.333333  0.250000  0.083333     24.000000
  0.333333  0.333333  0.083333      4.000000
  0.000000  0.000000  0.166667      2.000000
  0.083333  0.000000  0.166667     12.000000
  0.166667  0.000000  0.166667     12.000000
  0.250000  0.000000  0.166667     12.000000
  0.333333  0.000000  0.166667     12.000000
  0.416667  0.000000  0.166667     12.000000
  0.500000  0.000000  0.166667      6.000000
  0.083333  0.083333  0.166667     12.000000
  0.166667  0.083333  0.166667     24.000000
  0.250000  0.083333  0.166667     24.000000
  0.333333  0.083333  0.166667     24.000000
  0.416667  0.083333  0.166667     24.000000
  0.166667  0.166667  0.166667     12.000000
  0.250000  0.166667  0.166667     24.000000
  0.333333  0.166667  0.166667     24.000000
  0.416667  0.166667  0.166667     12.000000
  0.250000  0.250000  0.166667     12.000000
  0.333333  0.250000  0.166667     24.000000
  0.333333  0.333333  0.166667      4.000000
  0.000000  0.000000  0.250000      2.000000
  0.083333  0.000000  0.250000     12.000000
  0.166667  0.000000  0.250000     12.000000
  0.250000  0.000000  0.250000     12.000000
  0.333333  0.000000  0.250000     12.000000
  0.416667  0.000000  0.250000     12.000000
  0.500000  0.000000  0.250000      6.000000
  0.083333  0.083333  0.250000     12.000000
  0.166667  0.083333  0.250000     24.000000
  0.250000  0.083333  0.250000     24.000000
  0.333333  0.083333  0.250000     24.000000
  0.416667  0.083333  0.250000     24.000000
  0.166667  0.166667  0.250000     12.000000
  0.250000  0.166667  0.250000     24.000000
  0.333333  0.166667  0.250000     24.000000
  0.416667  0.166667  0.250000     12.000000
  0.250000  0.250000  0.250000     12.000000
  0.333333  0.250000  0.250000     24.000000
  0.333333  0.333333  0.250000      4.000000
  0.000000  0.000000  0.333333      2.000000
  0.083333  0.000000  0.333333     12.000000
  0.166667  0.000000  0.333333     12.000000
  0.250000  0.000000  0.333333     12.000000
  0.333333  0.000000  0.333333     12.000000
  0.416667  0.000000  0.333333     12.000000
  0.500000  0.000000  0.333333      6.000000
  0.083333  0.083333  0.333333     12.000000
  0.166667  0.083333  0.333333     24.000000
  0.250000  0.083333  0.333333     24.000000
  0.333333  0.083333  0.333333     24.000000
  0.416667  0.083333  0.333333     24.000000
  0.166667  0.166667  0.333333     12.000000
  0.250000  0.166667  0.333333     24.000000
  0.333333  0.166667  0.333333     24.000000
  0.416667  0.166667  0.333333     12.000000
  0.250000  0.250000  0.333333     12.000000
  0.333333  0.250000  0.333333     24.000000
  0.333333  0.333333  0.333333      4.000000
  0.000000  0.000000  0.416667      2.000000
  0.083333  0.000000  0.416667     12.000000
  0.166667  0.000000  0.416667     12.000000
  0.250000  0.000000  0.416667     12.000000
  0.333333  0.000000  0.416667     12.000000
  0.416667  0.000000  0.416667     12.000000
  0.500000  0.000000  0.416667      6.000000
  0.083333  0.083333  0.416667     12.000000
  0.166667  0.083333  0.416667     24.000000
  0.250000  0.083333  0.416667     24.000000
  0.333333  0.083333  0.416667     24.000000
  0.416667  0.083333  0.416667     24.000000
  0.166667  0.166667  0.416667     12.000000
  0.250000  0.166667  0.416667     24.000000
  0.333333  0.166667  0.416667     24.000000
  0.416667  0.166667  0.416667     12.000000
  0.250000  0.250000  0.416667     12.000000
  0.333333  0.250000  0.416667     24.000000
  0.333333  0.333333  0.416667      4.000000
  0.000000  0.000000  0.500000      1.000000
  0.083333  0.000000  0.500000      6.000000
  0.166667  0.000000  0.500000      6.000000
  0.250000  0.000000  0.500000      6.000000
  0.333333  0.000000  0.500000      6.000000
  0.416667  0.000000  0.500000      6.000000
  0.500000  0.000000  0.500000      3.000000
  0.083333  0.083333  0.500000      6.000000
  0.166667  0.083333  0.500000     12.000000
  0.250000  0.083333  0.500000     12.000000
  0.333333  0.083333  0.500000     12.000000
  0.416667  0.083333  0.500000     12.000000
  0.166667  0.166667  0.500000      6.000000
  0.250000  0.166667  0.500000     12.000000
  0.333333  0.166667  0.500000     12.000000
  0.416667  0.166667  0.500000      6.000000
  0.250000  0.250000  0.500000      6.000000
  0.333333  0.250000  0.500000     12.000000
  0.333333  0.333333  0.500000      2.000000
 
 Following cartesian coordinates:
            Coordinates               Weight
  0.000000  0.000000  0.000000      1.000000
  0.033859  0.019548  0.000000      6.000000
  0.067718  0.039097  0.000000      6.000000
  0.101576  0.058645  0.000000      6.000000
  0.135435  0.078194  0.000000      6.000000
  0.169294  0.097742  0.000000      6.000000
  0.203153  0.117290  0.000000      3.000000
  0.033859  0.058645  0.000000      6.000000
  0.067718  0.078194  0.000000     12.000000
  0.101576  0.097742  0.000000     12.000000
  0.135435  0.117290  0.000000     12.000000
  0.169294  0.136839  0.000000     12.000000
  0.067718  0.117290  0.000000      6.000000
  0.101576  0.136839  0.000000     12.000000
  0.135435  0.156387  0.000000     12.000000
  0.169294  0.175936  0.000000      6.000000
  0.101576  0.175936  0.000000      6.000000
  0.135435  0.195484  0.000000     12.000000
  0.135435  0.234581  0.000000      2.000000
  0.000000  0.000000  0.012423      2.000000
  0.033859  0.019548  0.012423     12.000000
  0.067718  0.039097  0.012423     12.000000
  0.101576  0.058645  0.012423     12.000000
  0.135435  0.078194  0.012423     12.000000
  0.169294  0.097742  0.012423     12.000000
  0.203153  0.117290  0.012423      6.000000
  0.033859  0.058645  0.012423     12.000000
  0.067718  0.078194  0.012423     24.000000
  0.101576  0.097742  0.012423     24.000000
  0.135435  0.117290  0.012423     24.000000
  0.169294  0.136839  0.012423     24.000000
  0.067718  0.117290  0.012423     12.000000
  0.101576  0.136839  0.012423     24.000000
  0.135435  0.156387  0.012423     24.000000
  0.169294  0.175936  0.012423     12.000000
  0.101576  0.175936  0.012423     12.000000
  0.135435  0.195484  0.012423     24.000000
  0.135435  0.234581  0.012423      4.000000
  0.000000  0.000000  0.024846      2.000000
  0.033859  0.019548  0.024846     12.000000
  0.067718  0.039097  0.024846     12.000000
  0.101576  0.058645  0.024846     12.000000
  0.135435  0.078194  0.024846     12.000000
  0.169294  0.097742  0.024846     12.000000
  0.203153  0.117290  0.024846      6.000000
  0.033859  0.058645  0.024846     12.000000
  0.067718  0.078194  0.024846     24.000000
  0.101576  0.097742  0.024846     24.000000
  0.135435  0.117290  0.024846     24.000000
  0.169294  0.136839  0.024846     24.000000
  0.067718  0.117290  0.024846     12.000000
  0.101576  0.136839  0.024846     24.000000
  0.135435  0.156387  0.024846     24.000000
  0.169294  0.175936  0.024846     12.000000
  0.101576  0.175936  0.024846     12.000000
  0.135435  0.195484  0.024846     24.000000
  0.135435  0.234581  0.024846      4.000000
  0.000000  0.000000  0.037269      2.000000
  0.033859  0.019548  0.037269     12.000000
  0.067718  0.039097  0.037269     12.000000
  0.101576  0.058645  0.037269     12.000000
  0.135435  0.078194  0.037269     12.000000
  0.169294  0.097742  0.037269     12.000000
  0.203153  0.117290  0.037269      6.000000
  0.033859  0.058645  0.037269     12.000000
  0.067718  0.078194  0.037269     24.000000
  0.101576  0.097742  0.037269     24.000000
  0.135435  0.117290  0.037269     24.000000
  0.169294  0.136839  0.037269     24.000000
  0.067718  0.117290  0.037269     12.000000
  0.101576  0.136839  0.037269     24.000000
  0.135435  0.156387  0.037269     24.000000
  0.169294  0.175936  0.037269     12.000000
  0.101576  0.175936  0.037269     12.000000
  0.135435  0.195484  0.037269     24.000000
  0.135435  0.234581  0.037269      4.000000
  0.000000  0.000000  0.049693      2.000000
  0.033859  0.019548  0.049693     12.000000
  0.067718  0.039097  0.049693     12.000000
  0.101576  0.058645  0.049693     12.000000
  0.135435  0.078194  0.049693     12.000000
  0.169294  0.097742  0.049693     12.000000
  0.203153  0.117290  0.049693      6.000000
  0.033859  0.058645  0.049693     12.000000
  0.067718  0.078194  0.049693     24.000000
  0.101576  0.097742  0.049693     24.000000
  0.135435  0.117290  0.049693     24.000000
  0.169294  0.136839  0.049693     24.000000
  0.067718  0.117290  0.049693     12.000000
  0.101576  0.136839  0.049693     24.000000
  0.135435  0.156387  0.049693     24.000000
  0.169294  0.175936  0.049693     12.000000
  0.101576  0.175936  0.049693     12.000000
  0.135435  0.195484  0.049693     24.000000
  0.135435  0.234581  0.049693      4.000000
  0.000000  0.000000  0.062116      2.000000
  0.033859  0.019548  0.062116     12.000000
  0.067718  0.039097  0.062116     12.000000
  0.101576  0.058645  0.062116     12.000000
  0.135435  0.078194  0.062116     12.000000
  0.169294  0.097742  0.062116     12.000000
  0.203153  0.117290  0.062116      6.000000
  0.033859  0.058645  0.062116     12.000000
  0.067718  0.078194  0.062116     24.000000
  0.101576  0.097742  0.062116     24.000000
  0.135435  0.117290  0.062116     24.000000
  0.169294  0.136839  0.062116     24.000000
  0.067718  0.117290  0.062116     12.000000
  0.101576  0.136839  0.062116     24.000000
  0.135435  0.156387  0.062116     24.000000
  0.169294  0.175936  0.062116     12.000000
  0.101576  0.175936  0.062116     12.000000
  0.135435  0.195484  0.062116     24.000000
  0.135435  0.234581  0.062116      4.000000
  0.000000  0.000000  0.074539      1.000000
  0.033859  0.019548  0.074539      6.000000
  0.067718  0.039097  0.074539      6.000000
  0.101576  0.058645  0.074539      6.000000
  0.135435  0.078194  0.074539      6.000000
  0.169294  0.097742  0.074539      6.000000
  0.203153  0.117290  0.074539      3.000000
  0.033859  0.058645  0.074539      6.000000
  0.067718  0.078194  0.074539     12.000000
  0.101576  0.097742  0.074539     12.000000
  0.135435  0.117290  0.074539     12.000000
  0.169294  0.136839  0.074539     12.000000
  0.067718  0.117290  0.074539      6.000000
  0.101576  0.136839  0.074539     12.000000
  0.135435  0.156387  0.074539     12.000000
  0.169294  0.175936  0.074539      6.000000
  0.101576  0.175936  0.074539      6.000000
  0.135435  0.195484  0.074539     12.000000
  0.135435  0.234581  0.074539      2.000000
 


--------------------------------------------------------------------------------------------------------




 Dimension of arrays:
   k-points           NKPTS =    133   k-points in BZ     NKDIM =    133   number of bands    NBANDS=     14
   number of dos      NEDOS =    301   number of ions     NIONS =      4
   non local maximal  LDIM  =      4   non local SUM 2l+1 LMDIM =      8
   total plane-waves  NPLWV =  10752
   max r-space proj   IRMAX =      1   max aug-charges    IRDMAX=   3805
   dimension x,y,z NGX =    16 NGY =   16 NGZ =   42
   dimension x,y,z NGXF=    32 NGYF=   32 NGZF=   84
   support grid    NGXF=    32 NGYF=   32 NGZF=   84
   ions per type =               4
 NGX,Y,Z   is equivalent  to a cutoff of  10.81, 10.81, 10.41 a.u.
 NGXF,Y,Z  is equivalent  to a cutoff of  21.61, 21.61, 20.82 a.u.


 I would recommend the setting:
   dimension x,y,z NGX =    15 NGY =   15 NGZ =   41
 SYSTEM =  unknown system                          
 POSCAR =   C                                      

 Startparameter for this run:
   NWRITE =      2    write-flag & timer
   PREC   = accura    normal or accurate (medium, high low for compatibility)
   ISTART =      0    job   : 0-new  1-cont  2-samecut
   ICHARG =      2    charge: 1-file 2-atom 10-const
   ISPIN  =      2    spin polarized calculation?
   LNONCOLLINEAR =      F non collinear calculations
   LSORBIT =      F    spin-orbit coupling
   INIWAV =      1    electr: 0-lowe 1-rand  2-diag
   LASPH  =      F    aspherical Exc in radial PAW
   METAGGA=      F    non-selfconsistent MetaGGA calc.

 Electronic Relaxation 1
   ENCUT  =  350.0 eV  25.72 Ry    5.07 a.u.   3.75  3.75 10.23*2*pi/ulx,y,z
   ENINI  =  350.0     initial cutoff
   ENAUG  =  644.9 eV  augmentation charge cutoff
   NELM   =     60;   NELMIN=  2; NELMDL= -5     # of ELM steps 
   EDIFF  = 0.1E-03   stopping-criterion for ELM
   LREAL  =      F    real-space projection
   NLSPLINE    = F    spline interpolate recip. space projectors
   LCOMPAT=      F    compatible to vasp.4.4
   GGA_COMPAT  = T    GGA compatible to vasp.4.4-vasp.4.6
   LMAXPAW     = -100 max onsite density
   LMAXMIX     =    2 max onsite mixed and CHGCAR
   VOSKOWN=      0    Vosko Wilk Nusair interpolation
   ROPT   =    0.00000
 Ionic relaxation
   EDIFFG = 0.1E-02   stopping-criterion for IOM
   NSW    =      0    number of steps for IOM
   NBLOCK =      1;   KBLOCK =      1    inner block; outer block 
   IBRION =     -1    ionic relax: 0-MD 1-quasi-New 2-CG
   NFREE  =      0    steps in history (QN), initial steepest desc. (CG)
   ISIF   =      2    stress and relaxation
   IWAVPR =     10    prediction:  0-non 1-charg 2-wave 3-comb
   ISYM   =      2    0-nonsym 1-usesym 2-fastsym
   LCORR  =      T    Harris-Foulkes like correction to forces

   POTIM  = 0.5000    time-step for ionic-motion
   TEIN   =    0.0    initial temperature
   TEBEG  =    0.0;   TEEND  =   0.0 temperature during run
   SMASS  =  -3.00    Nose mass-parameter (am)
   estimated Nose-frequenzy (Omega)   =  0.10E-29 period in steps =****** mass=  -0.138E-27a.u.
   SCALEE = 1.0000    scale energy and forces
   NPACO  =    256;   APACO  = 16.0  distance and # of slots for P.C.
   PSTRESS=    0.0 pullay stress

  Mass of Ions in am
   POMASS =  12.01
  Ionic Valenz
   ZVAL   =   4.00
  Atomic Wigner-Seitz radii
   RWIGS  =  -1.00
  virtual crystal weights 
   VCA    =   1.00
   NELECT =      16.0000    total number of electrons
   NUPDOWN=      -1.0000    fix difference up-down

 DOS related values:
   EMIN   =  10.00;   EMAX   =-10.00  energy-range for DOS
   EFERMI =   0.00
   ISMEAR =     1;   SIGMA  =   0.05  broadening in eV -4-tet -1-fermi 0-gaus

 Electronic relaxation 2 (details)
   IALGO  =     38    algorithm
   LDIAG  =      T    sub-space diagonalisation (order eigenvalues)
   LSUBROT=      T    optimize rotation matrix (better conditioning)
   TURBO    =      0    0=normal 1=particle mesh
   IRESTART =      0    0=no restart 2=restart with 2 vectors
   NREBOOT  =      0    no. of reboots
   NMIN     =      0    reboot dimension
   EREF     =   0.00    reference energy to select bands
   IMIX   =      4    mixing-type and parameters
     AMIX     =   0.40;   BMIX     =  1.00
     AMIX_MAG =   1.60;   BMIX_MAG =  1.00
     AMIN     =   0.10
     WC   =   100.;   INIMIX=   1;  MIXPRE=   1

 Intra band minimization:
   WEIMIN = 0.0000     energy-eigenvalue tresh-hold
   EBREAK =  0.18E-05  absolut break condition
   DEPER  =   0.30     relativ break condition  

   TIME   =   0.40     timestep for ELM

  volume/ion in A,a.u.               =       8.80        59.37
  Fermi-wavevector in a.u.,A,eV,Ry     =   1.258861  2.378903 21.561578  1.584731
  Thomas-Fermi vector in A             =   2.392450
 
 Write flags
   LWAVE  =      T    write WAVECAR
   LCHARG =      T    write CHGCAR
   LVTOT  =      F    write LOCPOT, total local potential
   LVHAR  =      F    write LOCPOT, Hartree potential only
   LELF   =      F    write electronic localiz. function (ELF)
   LORBIT =     11    0 simple, 1 ext, 2 COOP (PROOUT)


 Dipole corrections
   LMONO  =      F    monopole corrections only (constant potential shift)
   LDIPOL =      F    correct potential (dipole corrections)
   IDIPOL =      0    1-x, 2-y, 3-z, 4-all directions 
   EPSILON=  1.0000000 bulk dielectric constant

 Exchange correlation treatment:
   GGA     =    --    GGA type
   LEXCH   =     8    internal setting for exchange type
   VOSKOWN=      0    Vosko Wilk Nusair interpolation
   LHFCALC =     F    Hartree Fock is set to
   LHFONE  =     F    Hartree Fock one center treatment
   AEXX    =    0.0000 exact exchange contribution

 Linear response parameters
   LEPSILON=     F    determine dielectric tensor
   LRPA    =     F    only Hartree local field effects (RPA)
   LNABLA  =     F    use nabla operator in PAW spheres
   LVEL    =     F    velocity operator in full k-point grid
   LINTERFAST=   F  fast interpolation
   KINTER  =     0    interpolate to denser k-point grid
   CSHIFT  =0.1000    complex shift for real part using Kramers Kronig
   OMEGAMAX=  -1.0    maximum frequency
   RTIME   =    0.100 relaxation time in fs

 Orbital magnetization related:
   ORBITALMAG=     F  switch on orbital magnetization
   LCHIMAG   =     F  perturbation theory with respect to B field
   DQ        =  0.001000  dq finite difference perturbation B field



--------------------------------------------------------------------------------------------------------


 Static calculation
 charge density and potential will be updated during run
 spin polarized calculation
 Variant of blocked Davidson
 Davidson routine will perform the subspace rotation
 perform sub-space diagonalisation
    after iterative eigenvector-optimisation
 modified Broyden-mixing scheme, WC =      100.0
 initial mixing is a Kerker type mixing with AMIX =  0.4000 and BMIX =      1.0000
 Hartree-type preconditioning will be used
 using additional bands            6
 reciprocal scheme for non local part
 calculate Harris-corrections to forces 
   (improved forces if not selfconsistent)
 use gradient corrections 
 use of overlap-Matrix (Vanderbilt PP)
 Methfessel and Paxton  Order N= 1 SIGMA  =   0.05


--------------------------------------------------------------------------------------------------------


  energy-cutoff  :      350.00
  volume of cell :       35.19
      direct lattice vectors                 reciprocal lattice vectors
     2.461200000  0.000000000  0.000000000     0.406305867  0.234580802  0.000000000
    -1.230600000  2.131461724  0.000000000     0.000000000  0.469161603  0.000000000
     0.000000000  0.000000000  6.707900000     0.000000000  0.000000000  0.149077953

  length of vectors
     2.461200000  2.461200000  6.707900000     0.469161603  0.469161603  0.149077953


 
 k-points in units of 2pi/SCALE and weight: KPOINTS created by Atomic Simulation Env
   0.00000000  0.00000000  0.00000000       0.001
   0.03385882  0.01954840  0.00000000       0.003
   0.06771764  0.03909680  0.00000000       0.003
   0.10157647  0.05864520  0.00000000       0.003
   0.13543529  0.07819360  0.00000000       0.003
   0.16929411  0.09774200  0.00000000       0.003
   0.20315293  0.11729040  0.00000000       0.002
   0.03385882  0.05864520  0.00000000       0.003
   0.06771764  0.07819360  0.00000000       0.007
   0.10157647  0.09774200  0.00000000       0.007
   0.13543529  0.11729040  0.00000000       0.007
   0.16929411  0.13683880  0.00000000       0.007
   0.06771764  0.11729040  0.00000000       0.003
   0.10157647  0.13683880  0.00000000       0.007
   0.13543529  0.15638720  0.00000000       0.007
   0.16929411  0.17593560  0.00000000       0.003
   0.10157647  0.17593560  0.00000000       0.003
   0.13543529  0.19548400  0.00000000       0.007
   0.13543529  0.23458080  0.00000000       0.001
   0.00000000  0.00000000  0.01242316       0.001
   0.03385882  0.01954840  0.01242316       0.007
   0.06771764  0.03909680  0.01242316       0.007
   0.10157647  0.05864520  0.01242316       0.007
   0.13543529  0.07819360  0.01242316       0.007
   0.16929411  0.09774200  0.01242316       0.007
   0.20315293  0.11729040  0.01242316       0.003
   0.03385882  0.05864520  0.01242316       0.007
   0.06771764  0.07819360  0.01242316       0.014
   0.10157647  0.09774200  0.01242316       0.014
   0.13543529  0.11729040  0.01242316       0.014
   0.16929411  0.13683880  0.01242316       0.014
   0.06771764  0.11729040  0.01242316       0.007
   0.10157647  0.13683880  0.01242316       0.014
   0.13543529  0.15638720  0.01242316       0.014
   0.16929411  0.17593560  0.01242316       0.007
   0.10157647  0.17593560  0.01242316       0.007
   0.13543529  0.19548400  0.01242316       0.014
   0.13543529  0.23458080  0.01242316       0.002
   0.00000000  0.00000000  0.02484633       0.001
   0.03385882  0.01954840  0.02484633       0.007
   0.06771764  0.03909680  0.02484633       0.007
   0.10157647  0.05864520  0.02484633       0.007
   0.13543529  0.07819360  0.02484633       0.007
   0.16929411  0.09774200  0.02484633       0.007
   0.20315293  0.11729040  0.02484633       0.003
   0.03385882  0.05864520  0.02484633       0.007
   0.06771764  0.07819360  0.02484633       0.014
   0.10157647  0.09774200  0.02484633       0.014
   0.13543529  0.11729040  0.02484633       0.014
   0.16929411  0.13683880  0.02484633       0.014
   0.06771764  0.11729040  0.02484633       0.007
   0.10157647  0.13683880  0.02484633       0.014
   0.13543529  0.15638720  0.02484633       0.014
   0.16929411  0.17593560  0.02484633       0.007
   0.10157647  0.17593560  0.02484633       0.007
   0.13543529  0.19548400  0.02484633       0.014
   0.13543529  0.23458080  0.02484633       0.002
   0.00000000  0.00000000  0.03726949       0.001
   0.03385882  0.01954840  0.03726949       0.007
   0.06771764  0.03909680  0.03726949       0.007
   0.10157647  0.05864520  0.03726949       0.007
   0.13543529  0.07819360  0.03726949       0.007
   0.16929411  0.09774200  0.03726949       0.007
   0.20315293  0.11729040  0.03726949       0.003
   0.03385882  0.05864520  0.03726949       0.007
   0.06771764  0.07819360  0.03726949       0.014
   0.10157647  0.09774200  0.03726949       0.014
   0.13543529  0.11729040  0.03726949       0.014
   0.16929411  0.13683880  0.03726949       0.014
   0.06771764  0.11729040  0.03726949       0.007
   0.10157647  0.13683880  0.03726949       0.014
   0.13543529  0.15638720  0.03726949       0.014
   0.16929411  0.17593560  0.03726949       0.007
   0.10157647  0.17593560  0.03726949       0.007
   0.13543529  0.19548400  0.03726949       0.014
   0.13543529  0.23458080  0.03726949       0.002
   0.00000000  0.00000000  0.04969265       0.001
   0.03385882  0.01954840  0.04969265       0.007
   0.06771764  0.03909680  0.04969265       0.007
   0.10157647  0.05864520  0.04969265       0.007
   0.13543529  0.07819360  0.04969265       0.007
   0.16929411  0.09774200  0.04969265       0.007
   0.20315293  0.11729040  0.04969265       0.003
   0.03385882  0.05864520  0.04969265       0.007
   0.06771764  0.07819360  0.04969265       0.014
   0.10157647  0.09774200  0.04969265       0.014
   0.13543529  0.11729040  0.04969265       0.014
   0.16929411  0.13683880  0.04969265       0.014
   0.06771764  0.11729040  0.04969265       0.007
   0.10157647  0.13683880  0.04969265       0.014
   0.13543529  0.15638720  0.04969265       0.014
   0.16929411  0.17593560  0.04969265       0.007
   0.10157647  0.17593560  0.04969265       0.007
   0.13543529  0.19548400  0.04969265       0.014
   0.13543529  0.23458080  0.04969265       0.002
   0.00000000  0.00000000  0.06211581       0.001
   0.03385882  0.01954840  0.06211581       0.007
   0.06771764  0.03909680  0.06211581       0.007
   0.10157647  0.05864520  0.06211581       0.007
   0.13543529  0.07819360  0.06211581       0.007
   0.16929411  0.09774200  0.06211581       0.007
   0.20315293  0.11729040  0.06211581       0.003
   0.03385882  0.05864520  0.06211581       0.007
   0.06771764  0.07819360  0.06211581       0.014
   0.10157647  0.09774200  0.06211581       0.014
   0.13543529  0.11729040  0.06211581       0.014
   0.16929411  0.13683880  0.06211581       0.014
   0.06771764  0.11729040  0.06211581       0.007
   0.10157647  0.13683880  0.06211581       0.014
   0.13543529  0.15638720  0.06211581       0.014
   0.16929411  0.17593560  0.06211581       0.007
   0.10157647  0.17593560  0.06211581       0.007
   0.13543529  0.19548400  0.06211581       0.014
   0.13543529  0.23458080  0.06211581       0.002
   0.00000000  0.00000000  0.07453898       0.001
   0.03385882  0.01954840  0.07453898       0.003
   0.06771764  0.03909680  0.07453898       0.003
   0.10157647  0.05864520  0.07453898       0.003
   0.13543529  0.07819360  0.07453898       0.003
   0.16929411  0.09774200  0.07453898       0.003
   0.20315293  0.11729040  0.07453898       0.002
   0.03385882  0.05864520  0.07453898       0.003
   0.06771764  0.07819360  0.07453898       0.007
   0.10157647  0.09774200  0.07453898       0.007
   0.13543529  0.11729040  0.07453898       0.007
   0.16929411  0.13683880  0.07453898       0.007
   0.06771764  0.11729040  0.07453898       0.003
   0.10157647  0.13683880  0.07453898       0.007
   0.13543529  0.15638720  0.07453898       0.007
   0.16929411  0.17593560  0.07453898       0.003
   0.10157647  0.17593560  0.07453898       0.003
   0.13543529  0.19548400  0.07453898       0.007
   0.13543529  0.23458080  0.07453898       0.001
 
 k-points in reciprocal lattice and weights: KPOINTS created by Atomic Simulation Env
   0.00000000  0.00000000  0.00000000       0.001
   0.08333333  0.00000000  0.00000000       0.003
   0.16666667  0.00000000  0.00000000       0.003
   0.25000000  0.00000000  0.00000000       0.003
   0.33333333  0.00000000  0.00000000       0.003
   0.41666667  0.00000000  0.00000000       0.003
   0.50000000  0.00000000  0.00000000       0.002
   0.08333333  0.08333333  0.00000000       0.003
   0.16666667  0.08333333  0.00000000       0.007
   0.25000000  0.08333333  0.00000000       0.007
   0.33333333  0.08333333  0.00000000       0.007
   0.41666667  0.08333333  0.00000000       0.007
   0.16666667  0.16666667  0.00000000       0.003
   0.25000000  0.16666667  0.00000000       0.007
   0.33333333  0.16666667  0.00000000       0.007
   0.41666667  0.16666667  0.00000000       0.003
   0.25000000  0.25000000  0.00000000       0.003
   0.33333333  0.25000000  0.00000000       0.007
   0.33333333  0.33333333  0.00000000       0.001
   0.00000000  0.00000000  0.08333333       0.001
   0.08333333  0.00000000  0.08333333       0.007
   0.16666667  0.00000000  0.08333333       0.007
   0.25000000  0.00000000  0.08333333       0.007
   0.33333333  0.00000000  0.08333333       0.007
   0.41666667  0.00000000  0.08333333       0.007
   0.50000000  0.00000000  0.08333333       0.003
   0.08333333  0.08333333  0.08333333       0.007
   0.16666667  0.08333333  0.08333333       0.014
   0.25000000  0.08333333  0.08333333       0.014
   0.33333333  0.08333333  0.08333333       0.014
   0.41666667  0.08333333  0.08333333       0.014
   0.16666667  0.16666667  0.08333333       0.007
   0.25000000  0.16666667  0.08333333       0.014
   0.33333333  0.16666667  0.08333333       0.014
   0.41666667  0.16666667  0.08333333       0.007
   0.25000000  0.25000000  0.08333333       0.007
   0.33333333  0.25000000  0.08333333       0.014
   0.33333333  0.33333333  0.08333333       0.002
   0.00000000  0.00000000  0.16666667       0.001
   0.08333333  0.00000000  0.16666667       0.007
   0.16666667  0.00000000  0.16666667       0.007
   0.25000000  0.00000000  0.16666667       0.007
   0.33333333  0.00000000  0.16666667       0.007
   0.41666667  0.00000000  0.16666667       0.007
   0.50000000  0.00000000  0.16666667       0.003
   0.08333333  0.08333333  0.16666667       0.007
   0.16666667  0.08333333  0.16666667       0.014
   0.25000000  0.08333333  0.16666667       0.014
   0.33333333  0.08333333  0.16666667       0.014
   0.41666667  0.08333333  0.16666667       0.014
   0.16666667  0.16666667  0.16666667       0.007
   0.25000000  0.16666667  0.16666667       0.014
   0.33333333  0.16666667  0.16666667       0.014
   0.41666667  0.16666667  0.16666667       0.007
   0.25000000  0.25000000  0.16666667       0.007
   0.33333333  0.25000000  0.16666667       0.014
   0.33333333  0.33333333  0.16666667       0.002
   0.00000000  0.00000000  0.25000000       0.001
   0.08333333  0.00000000  0.25000000       0.007
   0.16666667  0.00000000  0.25000000       0.007
   0.25000000  0.00000000  0.25000000       0.007
   0.33333333  0.00000000  0.25000000       0.007
   0.41666667  0.00000000  0.25000000       0.007
   0.50000000  0.00000000  0.25000000       0.003
   0.08333333  0.08333333  0.25000000       0.007
   0.16666667  0.08333333  0.25000000       0.014
   0.25000000  0.08333333  0.25000000       0.014
   0.33333333  0.08333333  0.25000000       0.014
   0.41666667  0.08333333  0.25000000       0.014
   0.16666667  0.16666667  0.25000000       0.007
   0.25000000  0.16666667  0.25000000       0.014
   0.33333333  0.16666667  0.25000000       0.014
   0.41666667  0.16666667  0.25000000       0.007
   0.25000000  0.25000000  0.25000000       0.007
   0.33333333  0.25000000  0.25000000       0.014
   0.33333333  0.33333333  0.25000000       0.002
   0.00000000  0.00000000  0.33333333       0.001
   0.08333333  0.00000000  0.33333333       0.007
   0.16666667  0.00000000  0.33333333       0.007
   0.25000000  0.00000000  0.33333333       0.007
   0.33333333  0.00000000  0.33333333       0.007
   0.41666667  0.00000000  0.33333333       0.007
   0.50000000  0.00000000  0.33333333       0.003
   0.08333333  0.08333333  0.33333333       0.007
   0.16666667  0.08333333  0.33333333       0.014
   0.25000000  0.08333333  0.33333333       0.014
   0.33333333  0.08333333  0.33333333       0.014
   0.41666667  0.08333333  0.33333333       0.014
   0.16666667  0.16666667  0.33333333       0.007
   0.25000000  0.16666667  0.33333333       0.014
   0.33333333  0.16666667  0.33333333       0.014
   0.41666667  0.16666667  0.33333333       0.007
   0.25000000  0.25000000  0.33333333       0.007
   0.33333333  0.25000000  0.33333333       0.014
   0.33333333  0.33333333  0.33333333       0.002
   0.00000000  0.00000000  0.41666667       0.001
   0.08333333  0.00000000  0.41666667       0.007
   0.16666667  0.00000000  0.41666667       0.007
   0.25000000  0.00000000  0.41666667       0.007
   0.33333333  0.00000000  0.41666667       0.007
   0.41666667  0.00000000  0.41666667       0.007
   0.50000000  0.00000000  0.41666667       0.003
   0.08333333  0.08333333  0.41666667       0.007
   0.16666667  0.08333333  0.41666667       0.014
   0.25000000  0.08333333  0.41666667       0.014
   0.33333333  0.08333333  0.41666667       0.014
   0.41666667  0.08333333  0.41666667       0.014
   0.16666667  0.16666667  0.41666667       0.007
   0.25000000  0.16666667  0.41666667       0.014
   0.33333333  0.16666667  0.41666667       0.014
   0.41666667  0.16666667  0.41666667       0.007
   0.25000000  0.25000000  0.41666667       0.007
   0.33333333  0.25000000  0.41666667       0.014
   0.33333333  0.33333333  0.41666667       0.002
   0.00000000  0.00000000  0.50000000       0.001
   0.08333333  0.00000000  0.50000000       0.003
   0.16666667  0.00000000  0.50000000       0.003
   0.25000000  0.00000000  0.50000000       0.003
   0.33333333  0.00000000  0.50000000       0.003
   0.41666667  0.00000000  0.50000000       0.003
   0.50000000  0.00000000  0.50000000       0.002
   0.08333333  0.08333333  0.50000000       0.003
   0.16666667  0.08333333  0.50000000       0.007
   0.25000000  0.08333333  0.50000000       0.007
   0.33333333  0.08333333  0.50000000       0.007
   0.41666667  0.08333333  0.50000000       0.007
   0.16666667  0.16666667  0.50000000       0.003
   0.25000000  0.16666667  0.50000000       0.007
   0.33333333  0.16666667  0.50000000       0.007
   0.41666667  0.16666667  0.50000000       0.003
   0.25000000  0.25000000  0.50000000       0.003
   0.33333333  0.25000000  0.50000000       0.007
   0.33333333  0.33333333  0.50000000       0.001
 
 position of ions in fractional coordinates (direct lattice) 
   0.00000000  0.00000000  0.00000000
   0.33333333  0.66666667  0.00000000
   0.33333333  0.66666667  0.50000000
   0.66666667  0.33333333  0.50000000
 
 position of ions in cartesian coordinates  (Angst):
   0.00000000  0.00000000  0.00000000
   0.00000000  1.42097448  0.00000000
   0.00000000  1.42097448  3.35395000
   1.23060000  0.71048724  3.35395000
 


--------------------------------------------------------------------------------------------------------


 k-point  1 :  0.00000.00000.0000  plane waves:     513
 k-point  2 :  0.08330.00000.0000  plane waves:     525
 k-point  3 :  0.16670.00000.0000  plane waves:     525
 k-point  4 :  0.25000.00000.0000  plane waves:     515
 k-point  5 :  0.33330.00000.0000  plane waves:     524
 k-point  6 :  0.41670.00000.0000  plane waves:     530
 k-point  7 :  0.50000.00000.0000  plane waves:     526
 k-point  8 :  0.08330.08330.0000  plane waves:     521
 k-point  9 :  0.16670.08330.0000  plane waves:     520
 k-point 10 :  0.25000.08330.0000  plane waves:     521
 k-point 11 :  0.33330.08330.0000  plane waves:     524
 k-point 12 :  0.41670.08330.0000  plane waves:     526
 k-point 13 :  0.16670.16670.0000  plane waves:     518
 k-point 14 :  0.25000.16670.0000  plane waves:     519
 k-point 15 :  0.33330.16670.0000  plane waves:     524
 k-point 16 :  0.41670.16670.0000  plane waves:     530
 k-point 17 :  0.25000.25000.0000  plane waves:     516
 k-point 18 :  0.33330.25000.0000  plane waves:     528
 k-point 19 :  0.33330.33330.0000  plane waves:     534
 k-point 20 :  0.00000.00000.0833  plane waves:     525
 k-point 21 :  0.08330.00000.0833  plane waves:     525
 k-point 22 :  0.16670.00000.0833  plane waves:     524
 k-point 23 :  0.25000.00000.0833  plane waves:     516
 k-point 24 :  0.33330.00000.0833  plane waves:     527
 k-point 25 :  0.41670.00000.0833  plane waves:     530
 k-point 26 :  0.50000.00000.0833  plane waves:     524
 k-point 27 :  0.08330.08330.0833  plane waves:     522
 k-point 28 :  0.16670.08330.0833  plane waves:     520
 k-point 29 :  0.25000.08330.0833  plane waves:     520
 k-point 30 :  0.33330.08330.0833  plane waves:     520
 k-point 31 :  0.41670.08330.0833  plane waves:     527
 k-point 32 :  0.16670.16670.0833  plane waves:     517
 k-point 33 :  0.25000.16670.0833  plane waves:     518
 k-point 34 :  0.33330.16670.0833  plane waves:     526
 k-point 35 :  0.41670.16670.0833  plane waves:     531
 k-point 36 :  0.25000.25000.0833  plane waves:     526
 k-point 37 :  0.33330.25000.0833  plane waves:     528
 k-point 38 :  0.33330.33330.0833  plane waves:     525
 k-point 39 :  0.00000.00000.1667  plane waves:     525
 k-point 40 :  0.08330.00000.1667  plane waves:     526
 k-point 41 :  0.16670.00000.1667  plane waves:     527
 k-point 42 :  0.25000.00000.1667  plane waves:     516
 k-point 43 :  0.33330.00000.1667  plane waves:     521
 k-point 44 :  0.41670.00000.1667  plane waves:     526
 k-point 45 :  0.50000.00000.1667  plane waves:     526
 k-point 46 :  0.08330.08330.1667  plane waves:     522
 k-point 47 :  0.16670.08330.1667  plane waves:     522
 k-point 48 :  0.25000.08330.1667  plane waves:     519
 k-point 49 :  0.33330.08330.1667  plane waves:     517
 k-point 50 :  0.41670.08330.1667  plane waves:     526
 k-point 51 :  0.16670.16670.1667  plane waves:     521
 k-point 52 :  0.25000.16670.1667  plane waves:     518
 k-point 53 :  0.33330.16670.1667  plane waves:     524
 k-point 54 :  0.41670.16670.1667  plane waves:     531
 k-point 55 :  0.25000.25000.1667  plane waves:     523
 k-point 56 :  0.33330.25000.1667  plane waves:     524
 k-point 57 :  0.33330.33330.1667  plane waves:     531
 k-point 58 :  0.00000.00000.2500  plane waves:     524
 k-point 59 :  0.08330.00000.2500  plane waves:     525
 k-point 60 :  0.16670.00000.2500  plane waves:     526
 k-point 61 :  0.25000.00000.2500  plane waves:     515
 k-point 62 :  0.33330.00000.2500  plane waves:     519
 k-point 63 :  0.41670.00000.2500  plane waves:     526
 k-point 64 :  0.50000.00000.2500  plane waves:     526
 k-point 65 :  0.08330.08330.2500  plane waves:     527
 k-point 66 :  0.16670.08330.2500  plane waves:     524
 k-point 67 :  0.25000.08330.2500  plane waves:     519
 k-point 68 :  0.33330.08330.2500  plane waves:     523
 k-point 69 :  0.41670.08330.2500  plane waves:     526
 k-point 70 :  0.16670.16670.2500  plane waves:     518
 k-point 71 :  0.25000.16670.2500  plane waves:     517
 k-point 72 :  0.33330.16670.2500  plane waves:     523
 k-point 73 :  0.41670.16670.2500  plane waves:     527
 k-point 74 :  0.25000.25000.2500  plane waves:     521
 k-point 75 :  0.33330.25000.2500  plane waves:     523
 k-point 76 :  0.33330.33330.2500  plane waves:     528
 k-point 77 :  0.00000.00000.3333  plane waves:     530
 k-point 78 :  0.08330.00000.3333  plane waves:     524
 k-point 79 :  0.16670.00000.3333  plane waves:     523
 k-point 80 :  0.25000.00000.3333  plane waves:     522
 k-point 81 :  0.33330.00000.3333  plane waves:     518
 k-point 82 :  0.41670.00000.3333  plane waves:     524
 k-point 83 :  0.50000.00000.3333  plane waves:     518
 k-point 84 :  0.08330.08330.3333  plane waves:     531
 k-point 85 :  0.16670.08330.3333  plane waves:     524
 k-point 86 :  0.25000.08330.3333  plane waves:     518
 k-point 87 :  0.33330.08330.3333  plane waves:     518
 k-point 88 :  0.41670.08330.3333  plane waves:     528
 k-point 89 :  0.16670.16670.3333  plane waves:     518
 k-point 90 :  0.25000.16670.3333  plane waves:     516
 k-point 91 :  0.33330.16670.3333  plane waves:     527
 k-point 92 :  0.41670.16670.3333  plane waves:     531
 k-point 93 :  0.25000.25000.3333  plane waves:     522
 k-point 94 :  0.33330.25000.3333  plane waves:     527
 k-point 95 :  0.33330.33330.3333  plane waves:     531
 k-point 96 :  0.00000.00000.4167  plane waves:     536
 k-point 97 :  0.08330.00000.4167  plane waves:     533
 k-point 98 :  0.16670.00000.4167  plane waves:     526
 k-point 99 :  0.25000.00000.4167  plane waves:     524
 k-point ** :  0.33330.00000.4167  plane waves:     520
 k-point ** :  0.41670.00000.4167  plane waves:     524
 k-point ** :  0.50000.00000.4167  plane waves:     522
 k-point ** :  0.08330.08330.4167  plane waves:     528
 k-point ** :  0.16670.08330.4167  plane waves:     522
 k-point ** :  0.25000.08330.4167  plane waves:     519
 k-point ** :  0.33330.08330.4167  plane waves:     520
 k-point ** :  0.41670.08330.4167  plane waves:     526
 k-point ** :  0.16670.16670.4167  plane waves:     518
 k-point ** :  0.25000.16670.4167  plane waves:     517
 k-point ** :  0.33330.16670.4167  plane waves:     527
 k-point ** :  0.41670.16670.4167  plane waves:     525
 k-point ** :  0.25000.25000.4167  plane waves:     520
 k-point ** :  0.33330.25000.4167  plane waves:     530
 k-point ** :  0.33330.33330.4167  plane waves:     531
 k-point ** :  0.00000.00000.5000  plane waves:     536
 k-point ** :  0.08330.00000.5000  plane waves:     536
 k-point ** :  0.16670.00000.5000  plane waves:     522
 k-point ** :  0.25000.00000.5000  plane waves:     524
 k-point ** :  0.33330.00000.5000  plane waves:     526
 k-point ** :  0.41670.00000.5000  plane waves:     518
 k-point ** :  0.50000.00000.5000  plane waves:     528
 k-point ** :  0.08330.08330.5000  plane waves:     530
 k-point ** :  0.16670.08330.5000  plane waves:     522
 k-point ** :  0.25000.08330.5000  plane waves:     518
 k-point ** :  0.33330.08330.5000  plane waves:     520
 k-point ** :  0.41670.08330.5000  plane waves:     526
 k-point ** :  0.16670.16670.5000  plane waves:     510
 k-point ** :  0.25000.16670.5000  plane waves:     514
 k-point ** :  0.33330.16670.5000  plane waves:     526
 k-point ** :  0.41670.16670.5000  plane waves:     528
 k-point ** :  0.25000.25000.5000  plane waves:     518
 k-point ** :  0.33330.25000.5000  plane waves:     530
 k-point ** :  0.33330.33330.5000  plane waves:     540

 maximum and minimum number of plane-waves per node :       540      510

 maximum number of plane-waves:       540
 maximum index in each direction: 
   IXMAX=    3   IYMAX=    3   IZMAX=   10
   IXMIN=   -4   IYMIN=   -4   IZMIN=  -10

 NGX is ok and might be reduce to  16
 NGY is ok and might be reduce to  16
 NGZ is ok and might be reduce to  42

 serial   3D FFT for wavefunctions
 parallel 3D FFT for charge:
    minimum data exchange during FFTs selected (reduces bandwidth)


 total amount of memory used by VASP on root node    78909. kBytes
========================================================================

   base      :      30000. kBytes
   nonl-proj :       4631. kBytes
   fftplans  :       2996. kBytes
   grid      :       7176. kBytes
   one-center:         24. kBytes
   wavefun   :      34082. kBytes
 
 Broyden mixing: mesh for mixing (old mesh)
   NGX =  7   NGY =  7   NGZ = 21
  (NGX  = 32   NGY  = 32   NGZ  = 84)
  gives a total of   1029 points

 initial charge density was supplied:
 charge density of overlapping atoms calculated
 number of electron      16.0000000 magnetization       4.0000000
 keeping initial charge density in first step


--------------------------------------------------------------------------------------------------------


 Maximum index for augmentation-charges         3509 (set IRDMAX)


--------------------------------------------------------------------------------------------------------


 First call to EWALD:  gamma=   0.541
 Maximum number of real-space cells 4x 4x 2
 Maximum number of reciprocal cells 2x 2x 5

    FEWALD:  cpu time    0.00: real time    0.00


----------------------------------------- Iteration    1(   1)  ---------------------------------------


    POTLOK:  cpu time    0.30: real time    0.30
    SETDIJ:  cpu time    0.04: real time    0.04
     EDDAV:  cpu time   14.44: real time   14.45
       DOS:  cpu time    0.03: real time    0.03
    --------------------------------------------
      LOOP:  cpu time   14.81: real time   14.82

 eigenvalue-minimisations  :  7488
 total energy-change (2. order) : 0.2309266E+02  (-0.6526380E+03)
 number of electron      16.0000000 magnetization       4.0000000
 augmentation part       16.0000000 magnetization       4.0000000

 Free energy of the ion-electron system (eV)
  ---------------------------------------------------
  alpha Z        PSCENC =        37.04766603
  Ewald energy   TEWEN  =      -460.60042082
  -1/2 Hartree   DENC   =      -148.78490797
  -exchange  EXHF       =         0.00000000
  -V(xc)+E(xc)   XCENC  =        56.10990993
  PAW double counting   =       150.95130483     -155.51722924
  entropy T*S    EENTRO =         0.00006498
  eigenvalues    EBANDS =       -44.39619374
  atomic energy  EATOM  =       588.28246388
  ---------------------------------------------------
  free energy    TOTEN  =        23.09265788 eV

  energy without entropy =       23.09259290  energy(sigma->0) =       23.09263622


--------------------------------------------------------------------------------------------------------




----------------------------------------- Iteration    1(   2)  ---------------------------------------


     EDDAV:  cpu time   18.19: real time   18.20
       DOS:  cpu time    0.02: real time    0.02
    --------------------------------------------
      LOOP:  cpu time   18.21: real time   18.28

 eigenvalue-minimisations  : 10116
 total energy-change (2. order) :-0.5844139E+02  (-0.5361482E+02)
 number of electron      16.0000000 magnetization       4.0000000
 augmentation part       16.0000000 magnetization       4.0000000

 Free energy of the ion-electron system (eV)
  ---------------------------------------------------
  alpha Z        PSCENC =        37.04766603
  Ewald energy   TEWEN  =      -460.60042082
  -1/2 Hartree   DENC   =      -148.78490797
  -exchange  EXHF       =         0.00000000
  -V(xc)+E(xc)   XCENC  =        56.10990993
  PAW double counting   =       150.95130483     -155.51722924
  entropy T*S    EENTRO =         0.00003697
  eigenvalues    EBANDS =      -102.83755563
  atomic energy  EATOM  =       588.28246388
  ---------------------------------------------------
  free energy    TOTEN  =       -35.34873203 eV

  energy without entropy =      -35.34876900  energy(sigma->0) =      -35.34874435


--------------------------------------------------------------------------------------------------------




----------------------------------------- Iteration    1(   3)  ---------------------------------------


     EDDAV:  cpu time   17.30: real time   17.32
       DOS:  cpu time    0.02: real time    0.02
    --------------------------------------------
      LOOP:  cpu time   17.33: real time   17.36

 eigenvalue-minimisations  :  9788
 total energy-change (2. order) :-0.2237737E+01  (-0.2228084E+01)
 number of electron      16.0000000 magnetization       4.0000000
 augmentation part       16.0000000 magnetization       4.0000000

 Free energy of the ion-electron system (eV)
  ---------------------------------------------------
  alpha Z        PSCENC =        37.04766603
  Ewald energy   TEWEN  =      -460.60042082
  -1/2 Hartree   DENC   =      -148.78490797
  -exchange  EXHF       =         0.00000000
  -V(xc)+E(xc)   XCENC  =        56.10990993
  PAW double counting   =       150.95130483     -155.51722924
  entropy T*S    EENTRO =         0.00005463
  eigenvalues    EBANDS =      -105.07531058
  atomic energy  EATOM  =       588.28246388
  ---------------------------------------------------
  free energy    TOTEN  =       -37.58646931 eV

  energy without entropy =      -37.58652394  energy(sigma->0) =      -37.58648752


--------------------------------------------------------------------------------------------------------




----------------------------------------- Iteration    1(   4)  ---------------------------------------


     EDDAV:  cpu time   16.55: real time   16.55
       DOS:  cpu time    0.02: real time    0.02
    --------------------------------------------
      LOOP:  cpu time   16.57: real time   16.59

 eigenvalue-minimisations  :  9164
 total energy-change (2. order) :-0.2052452E-01  (-0.2051595E-01)
 number of electron      16.0000000 magnetization       4.0000000
 augmentation part       16.0000000 magnetization       4.0000000

 Free energy of the ion-electron system (eV)
  ---------------------------------------------------
  alpha Z        PSCENC =        37.04766603
  Ewald energy   TEWEN  =      -460.60042082
  -1/2 Hartree   DENC   =      -148.78490797
  -exchange  EXHF       =         0.00000000
  -V(xc)+E(xc)   XCENC  =        56.10990993
  PAW double counting   =       150.95130483     -155.51722924
  entropy T*S    EENTRO =         0.00005339
  eigenvalues    EBANDS =      -105.09583386
  atomic energy  EATOM  =       588.28246388
  ---------------------------------------------------
  free energy    TOTEN  =       -37.60699383 eV

  energy without entropy =      -37.60704722  energy(sigma->0) =      -37.60701163


--------------------------------------------------------------------------------------------------------




----------------------------------------- Iteration    1(   5)  ---------------------------------------


     EDDAV:  cpu time   17.50: real time   17.50
       DOS:  cpu time    0.02: real time    0.02
    CHARGE:  cpu time    1.15: real time    1.15
    MIXING:  cpu time    0.01: real time    0.01
    --------------------------------------------
      LOOP:  cpu time   18.68: real time   18.70

 eigenvalue-minimisations  :  9892
 total energy-change (2. order) :-0.4139869E-03  (-0.4137191E-03)
 number of electron      15.9999998 magnetization       1.0505524
 augmentation part        0.4141325 magnetization       1.0002009

 Broyden mixing:
  rms(total) = 0.12179E+01    rms(broyden)= 0.12174E+01
  rms(prec ) = 0.15618E+01
  weight for this iteration     100.00

 Free energy of the ion-electron system (eV)
  ---------------------------------------------------
  alpha Z        PSCENC =        37.04766603
  Ewald energy   TEWEN  =      -460.60042082
  -1/2 Hartree   DENC   =      -148.78490797
  -exchange  EXHF       =         0.00000000
  -V(xc)+E(xc)   XCENC  =        56.10990993
  PAW double counting   =       150.95130483     -155.51722924
  entropy T*S    EENTRO =         0.00005336
  eigenvalues    EBANDS =      -105.09624782
  atomic energy  EATOM  =       588.28246388
  ---------------------------------------------------
  free energy    TOTEN  =       -37.60740782 eV

  energy without entropy =      -37.60746118  energy(sigma->0) =      -37.60742561


--------------------------------------------------------------------------------------------------------




----------------------------------------- Iteration    1(   6)  ---------------------------------------


    POTLOK:  cpu time    0.30: real time    0.30
    SETDIJ:  cpu time    0.04: real time    0.04
     EDDAV:  cpu time   14.89: real time   14.90
       DOS:  cpu time    0.02: real time    0.02
    CHARGE:  cpu time    1.15: real time    1.15
    MIXING:  cpu time    0.01: real time    0.01
    --------------------------------------------
      LOOP:  cpu time   16.41: real time   16.43

 eigenvalue-minimisations  :  8150
 total energy-change (2. order) : 0.7085403E+00  (-0.2097150E+00)
 number of electron      15.9999999 magnetization       0.0811767
 augmentation part        0.3973955 magnetization       0.0427456

 Broyden mixing:
  rms(total) = 0.47503E+00    rms(broyden)= 0.47495E+00
  rms(prec ) = 0.69710E+00
  weight for this iteration     100.00

 eigenvalues of (default mixing * dielectric matrix)
  average eigenvalue GAMMA=   0.9544
  0.9544

 Free energy of the ion-electron system (eV)
  ---------------------------------------------------
  alpha Z        PSCENC =        37.04766603
  Ewald energy   TEWEN  =      -460.60042082
  -1/2 Hartree   DENC   =      -165.08817444
  -exchange  EXHF       =         0.00000000
  -V(xc)+E(xc)   XCENC  =        56.79687833
  PAW double counting   =       206.12200414     -211.03368831
  entropy T*S    EENTRO =        -0.00002403
  eigenvalues    EBANDS =       -88.42557234
  atomic energy  EATOM  =       588.28246388
  ---------------------------------------------------
  free energy    TOTEN  =       -36.89886756 eV

  energy without entropy =      -36.89884353  energy(sigma->0) =      -36.89885955


--------------------------------------------------------------------------------------------------------




----------------------------------------- Iteration    1(   7)  ---------------------------------------


    POTLOK:  cpu time    0.29: real time    0.29
    SETDIJ:  cpu time    0.04: real time    0.04
     EDDAV:  cpu time   15.43: real time   15.43
       DOS:  cpu time    0.02: real time    0.03
    CHARGE:  cpu time    1.13: real time    1.13
    MIXING:  cpu time    0.01: real time    0.01
    --------------------------------------------
      LOOP:  cpu time   16.93: real time   16.95

 eigenvalue-minimisations  :  8528
 total energy-change (2. order) :-0.5035533E-01  (-0.1306577E+00)
 number of electron      15.9999999 magnetization      -0.1228274
 augmentation part        0.3839885 magnetization      -0.1432076

 Broyden mixing:
  rms(total) = 0.18760E+00    rms(broyden)= 0.18754E+00
  rms(prec ) = 0.26807E+00
  weight for this iteration     100.00

 eigenvalues of (default mixing * dielectric matrix)
  average eigenvalue GAMMA=   1.1942
  0.8377  1.5506

 Free energy of the ion-electron system (eV)
  ---------------------------------------------------
  alpha Z        PSCENC =        37.04766603
  Ewald energy   TEWEN  =      -460.60042082
  -1/2 Hartree   DENC   =      -176.53600371
  -exchange  EXHF       =         0.00000000
  -V(xc)+E(xc)   XCENC  =        57.23083291
  PAW double counting   =       248.79266682     -253.87254766
  entropy T*S    EENTRO =        -0.00005610
  eigenvalues    EBANDS =       -77.29382425
  atomic energy  EATOM  =       588.28246388
  ---------------------------------------------------
  free energy    TOTEN  =       -36.94922289 eV

  energy without entropy =      -36.94916679  energy(sigma->0) =      -36.94920419


--------------------------------------------------------------------------------------------------------




----------------------------------------- Iteration    1(   8)  ---------------------------------------


    POTLOK:  cpu time    0.30: real time    0.30
    SETDIJ:  cpu time    0.04: real time    0.04
     EDDAV:  cpu time   16.22: real time   16.26
       DOS:  cpu time    0.03: real time    0.03
    CHARGE:  cpu time    1.13: real time    1.13
    MIXING:  cpu time    0.01: real time    0.01
    --------------------------------------------
      LOOP:  cpu time   17.73: real time   17.77

 eigenvalue-minimisations  :  9098
 total energy-change (2. order) : 0.5519147E-01  (-0.2490229E-01)
 number of electron      15.9999999 magnetization      -0.0128049
 augmentation part        0.3771030 magnetization      -0.0292715

 Broyden mixing:
  rms(total) = 0.65493E-01    rms(broyden)= 0.65430E-01
  rms(prec ) = 0.77618E-01
  weight for this iteration     100.00

 eigenvalues of (default mixing * dielectric matrix)
  average eigenvalue GAMMA=   1.1841
  1.8057  0.9719  0.7747

 Free energy of the ion-electron system (eV)
  ---------------------------------------------------
  alpha Z        PSCENC =        37.04766603
  Ewald energy   TEWEN  =      -460.60042082
  -1/2 Hartree   DENC   =      -182.53206514
  -exchange  EXHF       =         0.00000000
  -V(xc)+E(xc)   XCENC  =        57.63099231
  PAW double counting   =       273.94999456     -279.08674766
  entropy T*S    EENTRO =        -0.00014226
  eigenvalues    EBANDS =       -71.58577232
  atomic energy  EATOM  =       588.28246388
  ---------------------------------------------------
  free energy    TOTEN  =       -36.89403142 eV

  energy without entropy =      -36.89388916  energy(sigma->0) =      -36.89398400


--------------------------------------------------------------------------------------------------------




----------------------------------------- Iteration    1(   9)  ---------------------------------------


    POTLOK:  cpu time    0.30: real time    0.30
    SETDIJ:  cpu time    0.04: real time    0.04
     EDDAV:  cpu time   15.25: real time   15.25
       DOS:  cpu time    0.03: real time    0.03
    CHARGE:  cpu time    1.13: real time    1.13
    MIXING:  cpu time    0.01: real time    0.01
    --------------------------------------------
      LOOP:  cpu time   16.76: real time   16.78

 eigenvalue-minimisations  :  8408
 total energy-change (2. order) :-0.1149912E-01  (-0.1836163E-02)
 number of electron      15.9999999 magnetization       0.0210167
 augmentation part        0.3757762 magnetization       0.0147058

 Broyden mixing:
  rms(total) = 0.32533E-01    rms(broyden)= 0.32518E-01
  rms(prec ) = 0.38808E-01
  weight for this iteration     100.00

 eigenvalues of (default mixing * dielectric matrix)
  average eigenvalue GAMMA=   1.2652
  2.1398  1.3341  0.9052  0.6818

 Free energy of the ion-electron system (eV)
  ---------------------------------------------------
  alpha Z        PSCENC =        37.04766603
  Ewald energy   TEWEN  =      -460.60042082
  -1/2 Hartree   DENC   =      -183.20843444
  -exchange  EXHF       =         0.00000000
  -V(xc)+E(xc)   XCENC  =        57.66916404
  PAW double counting   =       278.42282138     -283.53989101
  entropy T*S    EENTRO =        -0.00030590
  eigenvalues    EBANDS =       -70.97859369
  atomic energy  EATOM  =       588.28246388
  ---------------------------------------------------
  free energy    TOTEN  =       -36.90553054 eV

  energy without entropy =      -36.90522464  energy(sigma->0) =      -36.90542858


--------------------------------------------------------------------------------------------------------




----------------------------------------- Iteration    1(  10)  ---------------------------------------


    POTLOK:  cpu time    0.30: real time    0.30
    SETDIJ:  cpu time    0.04: real time    0.04
     EDDAV:  cpu time   16.65: real time   16.66
       DOS:  cpu time    0.03: real time    0.03
    CHARGE:  cpu time    1.13: real time    1.13
    MIXING:  cpu time    0.01: real time    0.01
    --------------------------------------------
      LOOP:  cpu time   18.16: real time   18.18

 eigenvalue-minimisations  :  9424
 total energy-change (2. order) :-0.5653216E-03  (-0.1704882E-03)
 number of electron      15.9999999 magnetization       0.0209109
 augmentation part        0.3756707 magnetization       0.0084000

 Broyden mixing:
  rms(total) = 0.12839E-01    rms(broyden)= 0.12836E-01
  rms(prec ) = 0.15603E-01
  weight for this iteration     100.00

 eigenvalues of (default mixing * dielectric matrix)
  average eigenvalue GAMMA=   1.2356
  2.2957  1.4961  0.8667  0.8667  0.6528

 Free energy of the ion-electron system (eV)
  ---------------------------------------------------
  alpha Z        PSCENC =        37.04766603
  Ewald energy   TEWEN  =      -460.60042082
  -1/2 Hartree   DENC   =      -183.43811383
  -exchange  EXHF       =         0.00000000
  -V(xc)+E(xc)   XCENC  =        57.68641745
  PAW double counting   =       280.52284519     -285.62084693
  entropy T*S    EENTRO =        -0.00027270
  eigenvalues    EBANDS =       -70.78583413
  atomic energy  EATOM  =       588.28246388
  ---------------------------------------------------
  free energy    TOTEN  =       -36.90609586 eV

  energy without entropy =      -36.90582316  energy(sigma->0) =      -36.90600496


--------------------------------------------------------------------------------------------------------




----------------------------------------- Iteration    1(  11)  ---------------------------------------


    POTLOK:  cpu time    0.29: real time    0.29
    SETDIJ:  cpu time    0.04: real time    0.04
     EDDAV:  cpu time   15.37: real time   15.37
       DOS:  cpu time    0.03: real time    0.03
    CHARGE:  cpu time    1.13: real time    1.13
    MIXING:  cpu time    0.01: real time    0.01
    --------------------------------------------
      LOOP:  cpu time   16.88: real time   16.89

 eigenvalue-minimisations  :  8498
 total energy-change (2. order) :-0.2091797E-03  (-0.5031182E-04)
 number of electron      15.9999999 magnetization       0.0163468
 augmentation part        0.3757079 magnetization       0.0023939

 Broyden mixing:
  rms(total) = 0.48532E-02    rms(broyden)= 0.48521E-02
  rms(prec ) = 0.58970E-02
  weight for this iteration     100.00

 eigenvalues of (default mixing * dielectric matrix)
  average eigenvalue GAMMA=   1.3136
  2.4700  1.8809  1.2321  0.9203  0.7508  0.6278

 Free energy of the ion-electron system (eV)
  ---------------------------------------------------
  alpha Z        PSCENC =        37.04766603
  Ewald energy   TEWEN  =      -460.60042082
  -1/2 Hartree   DENC   =      -183.47135480
  -exchange  EXHF       =         0.00000000
  -V(xc)+E(xc)   XCENC  =        57.68973580
  PAW double counting   =       281.04334373     -286.13111681
  entropy T*S    EENTRO =        -0.00025610
  eigenvalues    EBANDS =       -70.76636595
  atomic energy  EATOM  =       588.28246388
  ---------------------------------------------------
  free energy    TOTEN  =       -36.90630504 eV

  energy without entropy =      -36.90604894  energy(sigma->0) =      -36.90621968


--------------------------------------------------------------------------------------------------------




----------------------------------------- Iteration    1(  12)  ---------------------------------------


    POTLOK:  cpu time    0.29: real time    0.29
    SETDIJ:  cpu time    0.04: real time    0.04
     EDDAV:  cpu time   13.50: real time   13.51
       DOS:  cpu time    0.03: real time    0.03
    --------------------------------------------
      LOOP:  cpu time   13.87: real time   13.88

 eigenvalue-minimisations  :  6962
 total energy-change (2. order) :-0.5367295E-04  (-0.9432126E-05)
 number of electron      15.9999999 magnetization       0.0163468
 augmentation part        0.3757079 magnetization       0.0023939

 Free energy of the ion-electron system (eV)
  ---------------------------------------------------
  alpha Z        PSCENC =        37.04766603
  Ewald energy   TEWEN  =      -460.60042082
  -1/2 Hartree   DENC   =      -183.48004081
  -exchange  EXHF       =         0.00000000
  -V(xc)+E(xc)   XCENC  =        57.69088929
  PAW double counting   =       281.11501485     -286.19869493
  entropy T*S    EENTRO =        -0.00024453
  eigenvalues    EBANDS =       -70.76299167
  atomic energy  EATOM  =       588.28246388
  ---------------------------------------------------
  free energy    TOTEN  =       -36.90635872 eV

  energy without entropy =      -36.90611418  energy(sigma->0) =      -36.90627720


--------------------------------------------------------------------------------------------------------




 average (electrostatic) potential at core
  the test charge radii are     0.6991
  (the norm of the test charge is              1.0000)
       1 -50.7216       2 -50.7519       3 -50.7519       4 -50.7216
 
 
 
 E-fermi :   4.7262     XC(G=0): -10.3258     alpha+bet :-11.4114


 spin component 1

 k-point   1 :       0.0000    0.0000    0.0000
  band No.  band energies     occupation 
      1     -14.9883      1.00000
      2     -14.6892      1.00000
      3      -3.8280      1.00000
      4      -1.8716      1.00000
      5       1.7237      1.00000
      6       1.7238      1.00000
      7       1.7284      1.00000
      8       1.7285      1.00000
      9       8.9831      0.00000
     10      13.1436      0.00000
     11      13.1436      0.00000
     12      13.2067      0.00000
     13      13.2067      0.00000
     14      15.3202      0.00000

 k-point   2 :       0.0833    0.0000    0.0000
  band No.  band energies     occupation 
      1     -14.8224      1.00000
      2     -14.5259      1.00000
      3      -3.6262      1.00000
      4      -1.6851      1.00000
      5       1.0477      1.00000
      6       1.0780      1.00000
      7       1.3601      1.00000
      8       1.3915      1.00000
      9       9.1836      0.00000
     10      13.1833      0.00000
     11      13.2598      0.00000
     12      13.8433      0.00000
     13      13.8856      0.00000
     14      15.4603      0.00000

 k-point   3 :       0.1667    0.0000    0.0000
  band No.  band energies     occupation 
      1     -14.3254      1.00000
      2     -14.0379      1.00000
      3      -3.0243      1.00000
      4      -1.1250      1.00000
      5      -0.6170      1.00000
      6      -0.5542      1.00000
      7       0.5559      1.00000
      8       0.5998      1.00000
      9       9.7889      0.00000
     10      13.0716      0.00000
     11      13.2431      0.00000
     12      13.9913      0.00000
     13      14.4003      0.00000
     14      15.7162      0.00000

 k-point   4 :       0.2500    0.0000    0.0000
  band No.  band energies     occupation 
      1     -13.5037      1.00000
      2     -13.2305      1.00000
      3      -2.7422      1.00000
      4      -2.6391      1.00000
      5      -2.0420      1.00000
      6      -0.3299      1.00000
      7      -0.2795      1.00000
      8      -0.2161      1.00000
      9      10.7918      0.00000
     10      11.7434      0.00000
     11      12.3921      0.00000
     12      12.7320      0.00000
     13      13.0199      0.00000
     14      16.6315      0.00000

 k-point   5 :       0.3333    0.0000    0.0000
  band No.  band energies     occupation 
      1     -12.3695      1.00000
      2     -12.1167      1.00000
      3      -4.9770      1.00000
      4      -4.8438      1.00000
      5      -1.0707      1.00000
      6      -1.0152      1.00000
      7      -0.7127      1.00000
      8       0.9795      1.00000
      9       9.2642      0.00000
     10      10.1759      0.00000
     11      12.0961      0.00000
     12      12.3825      0.00000
     13      12.7679      0.00000
     14      17.5129      0.00000

 k-point   6 :       0.4167    0.0000    0.0000
  band No.  band energies     occupation 
      1     -10.9536      1.00000
      2     -10.7277      1.00000
      3      -7.1027      1.00000
      4      -6.9389      1.00000
      5      -1.5481      1.00000
      6      -1.4949      1.00000
      7       0.8403      1.00000
      8       2.2006      1.00000
      9       7.1040      0.00000
     10       8.0927      0.00000
     11      12.0619      0.00000
     12      12.4332      0.00000
     13      14.0274      0.00000
     14      18.2498      0.00000

 k-point   7 :       0.5000    0.0000    0.0000
  band No.  band energies     occupation 
      1      -9.6318      1.00000
      2      -9.5227      1.00000
      3      -8.5687      1.00000
      4      -8.4868      1.00000
      5      -1.7122      1.00000
      6      -1.6549      1.00000
      7       1.9399      1.00000
      8       2.6241      1.00000
      9       6.2492      0.00000
     10       6.9047      0.00000
     11      11.9677      0.00000
     12      12.3663      0.00000
     13      16.0271      0.00000
     14      16.1462      0.00000

 k-point   8 :       0.0833    0.0833    0.0000
  band No.  band energies     occupation 
      1     -14.4907      1.00000
      2     -14.2002      1.00000
      3      -3.2237      1.00000
      4      -1.3099      1.00000
      5       0.0075      1.00000
      6       0.0366      1.00000
      7       0.6834      1.00000
      8       0.7042      1.00000
      9       9.5883      0.00000
     10      13.4773      0.00000
     11      13.5690      0.00000
     12      14.5262      0.00000
     13      14.7236      0.00000
     14      14.7898      0.00000

 k-point   9 :       0.1667    0.0833    0.0000
  band No.  band energies     occupation 
      1     -13.8315      1.00000
      2     -13.5526      1.00000
      3      -2.4310      1.00000
      4      -1.7298      1.00000
      5      -1.6593      1.00000
      6      -0.5740      1.00000
      7      -0.3292      1.00000
      8      -0.2889      1.00000
      9      10.3976      0.00000
     10      12.6848      0.00000
     11      13.1482      0.00000
     12      13.5449      0.00000
     13      13.7692      0.00000
     14      16.2203      0.00000

 k-point  10 :       0.2500    0.0833    0.0000
  band No.  band energies     occupation 
      1     -12.8532      1.00000
      2     -12.5921      1.00000
      3      -3.8350      1.00000
      4      -3.7257      1.00000
      5      -1.2712      1.00000
      6      -1.2288      1.00000
      7      -1.1703      1.00000
      8       0.4832      1.00000
      9      10.3863      0.00000
     10      11.1007      0.00000
     11      11.5975      0.00000
     12      13.2352      0.00000
     13      13.5750      0.00000
     14      16.9986      0.00000

 k-point  11 :       0.3333    0.0833    0.0000
  band No.  band energies     occupation 
      1     -11.5755      1.00000
      2     -11.3377      1.00000
      3      -5.9883      1.00000
      4      -5.8409      1.00000
      5      -1.8692      1.00000
      6      -1.8069      1.00000
      7       0.1942      1.00000
      8       1.7521      1.00000
      9       8.0627      0.00000
     10       8.9770      0.00000
     11      12.8589      0.00000
     12      13.1005      0.00000
     13      13.4427      0.00000
     14      17.7370      0.00000

 k-point  12 :       0.4167    0.0833    0.0000
  band No.  band energies     occupation 
      1     -10.0687      1.00000
      2      -9.8721      1.00000
      3      -7.9458      1.00000
      4      -7.7851      1.00000
      5      -2.2001      1.00000
      6      -2.1345      1.00000
      7       1.7138      1.00000
      8       2.7148      1.00000
      9       6.4266      0.00000
     10       7.1921      0.00000
     11      12.7102      0.00000
     12      13.1188      0.00000
     13      15.1465      0.00000
     14      17.2351      0.00000

 k-point  13 :       0.1667    0.1667    0.0000
  band No.  band energies     occupation 
      1     -13.0157      1.00000
      2     -12.7518      1.00000
      3      -3.0605      1.00000
      4      -3.0042      1.00000
      5      -1.7019      1.00000
      6      -1.6619      1.00000
      7      -1.4575      1.00000
      8       0.3179      1.00000
      9      10.9175      0.00000
     10      11.4091      0.00000
     11      11.4129      0.00000
     12      14.7259      0.00000
     13      14.9634      0.00000
     14      16.3225      0.00000

 k-point  14 :       0.2500    0.1667    0.0000
  band No.  band energies     occupation 
      1     -11.8917      1.00000
      2     -11.6487      1.00000
      3      -4.8196      1.00000
      4      -4.7164      1.00000
      5      -2.7790      1.00000
      6      -2.7084      1.00000
      7      -0.1441      1.00000
      8       1.4947      1.00000
      9       8.8856      0.00000
     10       9.5144      0.00000
     11      12.8015      0.00000
     12      14.8411      0.00000
     13      15.2856      0.00000
     14      17.4769      0.00000

 k-point  15 :       0.3333    0.1667    0.0000
  band No.  band energies     occupation 
      1     -10.4951      1.00000
      2     -10.2804      1.00000
      3      -6.7642      1.00000
      4      -6.6158      1.00000
      5      -3.3668      1.00000
      6      -3.2772      1.00000
      7       1.4062      1.00000
      8       2.7455      1.00000
      9       6.9308      0.00000
     10       7.6751      0.00000
     11      14.4581      0.00000
     12      14.6412      0.00000
     13      15.1360      0.00000
     14      17.2003      0.00000

 k-point  16 :       0.4167    0.1667    0.0000
  band No.  band energies     occupation 
      1      -9.2064      1.00000
      2      -9.1005      1.00000
      3      -8.1647      1.00000
      4      -8.0899      1.00000
      5      -3.5550      1.00000
      6      -3.4585      1.00000
      7       2.5443      1.00000
      8       3.2119      1.00000
      9       6.1780      0.00000
     10       6.4639      0.00000
     11      14.4759      0.00000
     12      15.0121      0.00000
     13      16.3914      0.00000
     14      16.5555      0.00000

 k-point  17 :       0.2500    0.2500    0.0000
  band No.  band energies     occupation 
      1     -10.6446      1.00000
      2     -10.4258      1.00000
      3      -5.8468      1.00000
      4      -5.7700      1.00000
      5      -4.2639      1.00000
      6      -4.2050      1.00000
      7       1.2894      1.00000
      8       2.7301      1.00000
      9       7.2649      0.00000
     10       7.8718      0.00000
     11      14.3368      0.00000
     12      16.6563      0.00000
     13      16.6719      0.00000
     14      16.8916      0.00000

 k-point  18 :       0.3333    0.2500    0.0000
  band No.  band energies     occupation 
      1      -9.1969      1.00000
      2      -9.0171      1.00000
      3      -7.2998      1.00000
      4      -7.1751      1.00000
      5      -4.9957      1.00000
      6      -4.8994      1.00000
      7       2.8353      1.00000
      8       3.8420      1.00000
      9       5.8100      0.00000
     10       6.3555      0.00000
     11      16.0438      0.00000
     12      16.2848      0.00000
     13      16.4373      0.00000
     14      16.5472      0.00000

 k-point  19 :       0.3333    0.3333    0.0000
  band No.  band energies     occupation 
      1      -7.9772      1.00000
      2      -7.8859      1.00000
      3      -7.8859      1.00000
      4      -7.7852      1.00000
      5      -5.8489      1.00000
      6      -5.8489      1.00000
      7       4.0870      1.00000
      8       4.6864      0.98901
      9       4.6864      0.98901
     10       5.4588      0.00000
     11      15.8672      0.00000
     12      15.8672      0.00000
     13      17.0039      0.00000
     14      17.3012      0.00000

 k-point  20 :       0.0000    0.0000    0.0833
  band No.  band energies     occupation 
      1     -14.9837      1.00000
      2     -14.6947      1.00000
      3      -3.8000      1.00000
      4      -1.9152      1.00000
[...]
      3      -2.7406      1.00000
      4      -2.7406      1.00000
      5       1.0632      1.00000
      6       1.0632      1.00000
      7       1.3776      1.00000
      8       1.3776      1.00000
      9      11.8118      0.00000
     10      11.8118      0.00000
     11      13.2341      0.00000
     12      13.2341      0.00000
     13      13.8589      0.00000
     14      13.8589      0.00000

 k-point 117 :       0.1667    0.0000    0.5000
  band No.  band energies     occupation 
      1     -14.1804      1.00000
      2     -14.1804      1.00000
      3      -2.1524      1.00000
      4      -2.1524      1.00000
      5      -0.5813      1.00000
      6      -0.5813      1.00000
      7       0.5838      1.00000
      8       0.5838      1.00000
      9      12.3196      0.00000
     10      12.3196      0.00000
     11      13.2200      0.00000
     12      13.2200      0.00000
     13      14.2356      0.00000
     14      14.2356      0.00000

 k-point 118 :       0.2500    0.0000    0.5000
  band No.  band energies     occupation 
      1     -13.3653      1.00000
      2     -13.3653      1.00000
      3      -2.6912      1.00000
      4      -2.6912      1.00000
      5      -1.1988      1.00000
      6      -1.1988      1.00000
      7      -0.3048      1.00000
      8      -0.3048      1.00000
      9      11.9780      0.00000
     10      11.9780      0.00000
     11      12.7776      0.00000
     12      12.7776      0.00000
     13      13.5062      0.00000
     14      13.5062      0.00000

 k-point 119 :       0.3333    0.0000    0.5000
  band No.  band energies     occupation 
      1     -12.2410      1.00000
      2     -12.2410      1.00000
      3      -4.9069      1.00000
      4      -4.9069      1.00000
      5      -1.0418      1.00000
      6      -1.0418      1.00000
      7       0.0753      1.00000
      8       0.0753      1.00000
      9       9.6729      0.00000
     10       9.6729      0.00000
     11      12.4917      0.00000
     12      12.4917      0.00000
     13      14.6432      0.00000
     14      14.6432      0.00000

 k-point 120 :       0.4167    0.0000    0.5000
  band No.  band energies     occupation 
      1     -10.8381      1.00000
      2     -10.8381      1.00000
      3      -7.0169      1.00000
      4      -7.0169      1.00000
      5      -1.5123      1.00000
      6      -1.5123      1.00000
      7       1.5120      1.00000
      8       1.5120      1.00000
      9       7.5201      0.00000
     10       7.5201      0.00000
     11      12.2544      0.00000
     12      12.2544      0.00000
     13      16.1197      0.00000
     14      16.1197      0.00000

 k-point 121 :       0.5000    0.0000    0.5000
  band No.  band energies     occupation 
      1      -9.5665      1.00000
      2      -9.5665      1.00000
      3      -8.5346      1.00000
      4      -8.5346      1.00000
      5      -1.6764      1.00000
      6      -1.6764      1.00000
      7       2.3617      1.00000
      8       2.3617      1.00000
      9       6.3967      0.00000
     10       6.3967      0.00000
     11      12.1675      0.00000
     12      12.1675      0.00000
     13      17.3509      0.00000
     14      17.3509      0.00000

 k-point 122 :       0.0833    0.0833    0.5000
  band No.  band energies     occupation 
      1     -14.3445      1.00000
      2     -14.3445      1.00000
      3      -2.3484      1.00000
      4      -2.3484      1.00000
      5       0.0269      1.00000
      6       0.0269      1.00000
      7       0.6969      1.00000
      8       0.6969      1.00000
      9      12.1675      0.00000
     10      12.1675      0.00000
     11      13.5505      0.00000
     12      13.5505      0.00000
     13      14.7040      0.00000
     14      14.7102      0.00000

 k-point 123 :       0.1667    0.0833    0.5000
  band No.  band energies     occupation 
      1     -13.6905      1.00000
      2     -13.6905      1.00000
      3      -1.6951      1.00000
      4      -1.6951      1.00000
      5      -1.5727      1.00000
      6      -1.5727      1.00000
      7      -0.3056      1.00000
      8      -0.3056      1.00000
      9      12.7434      0.00000
     10      12.7434      0.00000
     11      13.0011      0.00000
     12      13.0011      0.00000
     13      13.7824      0.00000
     14      13.7824      0.00000

 k-point 124 :       0.2500    0.0833    0.5000
  band No.  band energies     occupation 
      1     -12.7206      1.00000
      2     -12.7206      1.00000
      3      -3.7762      1.00000
      4      -3.7762      1.00000
      5      -1.1977      1.00000
      6      -1.1977      1.00000
      7      -0.4529      1.00000
      8      -0.4529      1.00000
      9      10.7113      0.00000
     10      10.7113      0.00000
     11      13.3076      0.00000
     12      13.3076      0.00000
     13      14.1337      0.00000
     14      14.1337      0.00000

 k-point 125 :       0.3333    0.0833    0.5000
  band No.  band energies     occupation 
      1     -11.4536      1.00000
      2     -11.4536      1.00000
      3      -5.9113      1.00000
      4      -5.9113      1.00000
      5      -1.8356      1.00000
      6      -1.8356      1.00000
      7       0.9344      1.00000
      8       0.9344      1.00000
      9       8.4762      0.00000
     10       8.4762      0.00000
     11      13.0755      0.00000
     12      13.0755      0.00000
     13      15.3821      0.00000
     14      15.3821      0.00000

 k-point 126 :       0.4167    0.0833    0.5000
  band No.  band energies     occupation 
      1      -9.9664      1.00000
      2      -9.9664      1.00000
      3      -7.8639      1.00000
      4      -7.8639      1.00000
      5      -2.1663      1.00000
      6      -2.1663      1.00000
      7       2.2566      1.00000
      8       2.2566      1.00000
      9       6.6837      0.00000
     10       6.6837      0.00000
     11      12.9125      0.00000
     12      12.9125      0.00000
     13      16.7169      0.00000
     14      16.7169      0.00000

 k-point 127 :       0.1667    0.1667    0.5000
  band No.  band energies     occupation 
      1     -12.8816      1.00000
      2     -12.8816      1.00000
      3      -3.0251      1.00000
      4      -3.0251      1.00000
      5      -1.6766      1.00000
      6      -1.6766      1.00000
      7      -0.6322      1.00000
      8      -0.6322      1.00000
      9      11.1735      0.00000
     10      11.1735      0.00000
     11      13.7134      0.00000
     12      13.7134      0.00000
     13      14.9685      0.00000
     14      14.9685      0.00000

 k-point 128 :       0.2500    0.1667    0.5000
  band No.  band energies     occupation 
      1     -11.7678      1.00000
      2     -11.7678      1.00000
      3      -4.7633      1.00000
      4      -4.7633      1.00000
      5      -2.7413      1.00000
      6      -2.7413      1.00000
      7       0.6262      1.00000
      8       0.6262      1.00000
      9       9.2030      0.00000
     10       9.2030      0.00000
     11      14.6431      0.00000
     12      14.6431      0.00000
     13      15.2728      0.00000
     14      15.2728      0.00000

 k-point 129 :       0.3333    0.1667    0.5000
  band No.  band energies     occupation 
      1     -10.3850      1.00000
      2     -10.3850      1.00000
      3      -6.6873      1.00000
      4      -6.6873      1.00000
      5      -3.3197      1.00000
      6      -3.3197      1.00000
      7       2.0627      1.00000
      8       2.0627      1.00000
      9       7.2659      0.00000
     10       7.2659      0.00000
     11      14.7643      0.00000
     12      14.7643      0.00000
     13      15.8977      0.00000
     14      15.8977      0.00000

 k-point 130 :       0.4167    0.1667    0.5000
  band No.  band energies     occupation 
      1      -9.1421      1.00000
      2      -9.1421      1.00000
      3      -8.1319      1.00000
      4      -8.1319      1.00000
      5      -3.5056      1.00000
      6      -3.5056      1.00000
      7       2.9689      1.00000
      8       2.9689      1.00000
      9       6.1832      0.00000
     10       6.1832      0.00000
     11      14.6886      0.00000
     12      14.6886      0.00000
     13      16.2756      0.00000
     14      16.2756      0.00000

 k-point 131 :       0.2500    0.2500    0.5000
  band No.  band energies     occupation 
      1     -10.5331      1.00000
      2     -10.5331      1.00000
      3      -5.8022      1.00000
      4      -5.8022      1.00000
      5      -4.2352      1.00000
      6      -4.2352      1.00000
      7       1.9774      1.00000
      8       1.9774      1.00000
      9       7.5811      0.00000
     10       7.5811      0.00000
     11      15.2867      0.00000
     12      15.2867      0.00000
     13      17.2421      0.00000
     14      17.2423      0.00000

 k-point 132 :       0.3333    0.2500    0.5000
  band No.  band energies     occupation 
      1      -9.1025      1.00000
      2      -9.1025      1.00000
      3      -7.2349      1.00000
      4      -7.2349      1.00000
      5      -4.9474      1.00000
      6      -4.9474      1.00000
      7       3.3772      1.00000
      8       3.3772      1.00000
      9       6.0394      0.00000
     10       6.0394      0.00000
     11      15.2379      0.00000
     12      15.2379      0.00000
     13      17.2465      0.00000
     14      17.2465      0.00000

 k-point 133 :       0.3333    0.3333    0.5000
  band No.  band energies     occupation 
      1      -7.8854      1.00000
      2      -7.8854      1.00000
      3      -7.8718      1.00000
      4      -7.8718      1.00000
      5      -5.8519      1.00000
      6      -5.8519      1.00000
      7       4.7184      0.63009
      8       4.7184      0.63007
      9       4.7616      0.03711
     10       4.7616      0.03711
     11      14.9089      0.00000
     12      14.9089      0.00000
     13      18.4805      0.00000
     14      18.4805      0.00000


--------------------------------------------------------------------------------------------------------


 soft charge-density along one line, spin component           1
         0         1         2         3         4         5         6         7         8         9
 total charge-density along one line
 
 soft charge-density along one line, spin component           2
         0         1         2         3         4         5         6         7         8         9
 total charge-density along one line
 
 pseudopotential strength for first ion, spin component:           1
  9.768   0.005   0.000   0.000   0.000   0.000   0.000   0.000
  0.005  -0.002   0.000   0.000   0.000   0.000   0.000   0.000
  0.000   0.000  -3.947   0.000   0.000  -0.015   0.000   0.000
  0.000   0.000   0.000  -3.941   0.000   0.000  -0.012   0.000
  0.000   0.000   0.000   0.000  -3.947   0.000   0.000  -0.015
  0.000   0.000  -0.015   0.000   0.000  -0.764   0.000   0.000
  0.000   0.000   0.000  -0.012   0.000   0.000  -0.764   0.000
  0.000   0.000   0.000   0.000  -0.015   0.000   0.000  -0.764
 pseudopotential strength for first ion, spin component:           2
  9.766   0.005   0.000   0.000   0.000   0.000   0.000   0.000
  0.005  -0.002   0.000   0.000   0.000   0.000   0.000   0.000
  0.000   0.000  -3.947   0.000   0.000  -0.015   0.000   0.000
  0.000   0.000   0.000  -3.939   0.000   0.000  -0.011   0.000
  0.000   0.000   0.000   0.000  -3.947   0.000   0.000  -0.015
  0.000   0.000  -0.015   0.000   0.000  -0.764   0.000   0.000
  0.000   0.000   0.000  -0.011   0.000   0.000  -0.764   0.000
  0.000   0.000   0.000   0.000  -0.015   0.000   0.000  -0.764
 total augmentation occupancy for first ion, spin component:           1
  1.474  -1.119   0.000   0.000   0.000   0.000   0.000   0.000
 -1.119   1.055   0.000   0.000   0.000   0.000   0.000   0.000
  0.000   0.000   1.215   0.000   0.000   0.245   0.000   0.000
  0.000   0.000   0.000   0.923   0.000   0.000   0.128   0.000
  0.000   0.000   0.000   0.000   1.215   0.000   0.000   0.245
  0.000   0.000   0.245   0.000   0.000   0.055   0.000   0.000
  0.000   0.000   0.000   0.128   0.000   0.000   0.019   0.000
  0.000   0.000   0.000   0.000   0.245   0.000   0.000   0.055
 total augmentation occupancy for first ion, spin component:           2
  0.001  -0.001   0.000   0.000   0.000   0.000   0.000   0.000
 -0.001   0.001   0.000   0.000   0.000   0.000   0.000   0.000
  0.000   0.000   0.000   0.000   0.000   0.000   0.000   0.000
  0.000   0.000   0.000   0.011   0.000   0.000   0.001   0.000
  0.000   0.000   0.000   0.000   0.000   0.000   0.000   0.000
  0.000   0.000   0.000   0.000   0.000   0.000   0.000   0.000
  0.000   0.000   0.000   0.001   0.000   0.000   0.000   0.000
  0.000   0.000   0.000   0.000   0.000   0.000   0.000   0.000


------------------------ aborting loop because EDIFF is reached ----------------------------------------


 


 total charge     
 
# of ion     s       p       d       tot
----------------------------------------
  1        0.866   1.804   0.000   2.670
  2        0.867   1.800   0.000   2.667
  3        0.867   1.800   0.000   2.667
  4        0.866   1.804   0.000   2.670
------------------------------------------------
tot        3.466   7.207   0.000  10.673
 


 magnetization (x)
 
# of ion     s       p       d       tot
----------------------------------------
  1        0.000   0.006   0.000   0.007
  2        0.000  -0.002   0.000  -0.003
  3        0.000  -0.002   0.000  -0.003
  4        0.000   0.006   0.000   0.007
------------------------------------------------
tot        0.000   0.008   0.000   0.008
 
    CHARGE:  cpu time    1.14: real time    1.14
    FORLOC:  cpu time    0.01: real time    0.01
    FORNL :  cpu time    1.48: real time    1.48
    STRESS:  cpu time    1.71: real time    1.71
    FORHAR:  cpu time    0.04: real time    0.04
    MIXING:  cpu time    0.01: real time    0.01

  FORCE on cell =-STRESS in cart. coord.  units (eV):
  Direction    XX          YY          ZZ          XY          YZ          ZX
  --------------------------------------------------------------------------------------
  Alpha Z    37.04767    37.04767    37.04767
  Ewald      78.34827    78.34827  -617.29730     0.00000     0.00000     0.00000
  Hartree   161.12681   161.12681  -138.74010     0.00000     0.00000     0.00000
  E(xc)     -58.50709   -58.50709   -60.65035     0.00000     0.00000     0.00000
  Local    -443.66526  -443.66531   517.50954    -0.00004     0.00000     0.00000
  n-local   -13.47815   -14.47225   -12.78505    -0.70462     0.02508     0.02657
  augment    -1.51743    -1.51739    -1.39200     0.00004     0.00000     0.00000
  Kinetic   236.75598   244.39647   275.34016     6.31040    -0.33629    -0.39004
  Fock        0.00000     0.00000     0.00000     0.00000     0.00000     0.00000
  -------------------------------------------------------------------------------------
  Total      -0.56601    -0.56601    -0.96744     0.00000     0.00000     0.00000
  in kB     -25.77074   -25.77074   -44.04780     0.00000     0.00000     0.00000
  external pressure =      -31.86 kB  Pullay stress =        0.00 kB


 VOLUME and BASIS-vectors are now :
 -----------------------------------------------------------------------------
  energy-cutoff  :      350.00
  volume of cell :       35.19
      direct lattice vectors                 reciprocal lattice vectors
     2.461200000  0.000000000  0.000000000     0.406305867  0.234580802  0.000000000
    -1.230600000  2.131461724  0.000000000     0.000000000  0.469161603  0.000000000
     0.000000000  0.000000000  6.707900000     0.000000000  0.000000000  0.149077953

  length of vectors
     2.461200000  2.461200000  6.707900000     0.469161603  0.469161603  0.149077953


 FORCES acting on ions
    electron-ion (+dipol)            ewald-force                    non-local-force                 convergence-correction
 -----------------------------------------------------------------------------------------------
   0.136E-06 -.786E-07 0.187E-13   0.624E-11 -.358E-11 -.182E-13   0.278E-16 0.555E-16 0.000E+00   0.170E-06 -.982E-07 -.731E-13
   -.173E-05 0.999E-06 -.280E-12   -.624E-11 0.358E-11 -.182E-13   -.416E-16 -.555E-16 0.000E+00   -.173E-06 0.997E-07 -.710E-13
   -.165E-05 0.954E-06 -.920E-13   -.126E-10 0.731E-11 0.182E-13   -.694E-16 0.555E-16 0.000E+00   0.173E-06 -.997E-07 0.124E-12
   0.166E-05 -.957E-06 -.894E-12   0.126E-10 -.731E-11 0.182E-13   -.555E-16 -.555E-16 0.000E+00   -.170E-06 0.982E-07 0.122E-12
 -----------------------------------------------------------------------------------------------
   -.159E-05 0.917E-06 -.125E-11   0.658E-14 -.737E-15 0.316E-29   -.139E-15 0.000E+00 0.000E+00   -.655E-10 0.378E-10 0.102E-12
 
 
 POSITION                                       TOTAL-FORCE (eV/Angst)
 -----------------------------------------------------------------------------------
      0.00000      0.00000      0.00000         0.000000      0.000000      0.000000
      0.00000      1.42097      0.00000         0.000000      0.000000      0.000000
      0.00000      1.42097      3.35395         0.000000      0.000000      0.000000
      1.23060      0.71049      3.35395         0.000000      0.000000      0.000000
 -----------------------------------------------------------------------------------
    total drift:                               -0.000002      0.000001      0.000000


--------------------------------------------------------------------------------------------------------



  FREE ENERGIE OF THE ION-ELECTRON SYSTEM (eV)
  ---------------------------------------------------
  free  energy   TOTEN  =       -36.906359 eV

  energy  without entropy=      -36.906114  energy(sigma->0) =      -36.906277
 


--------------------------------------------------------------------------------------------------------


    POTLOK:  cpu time    0.34: real time    0.34


--------------------------------------------------------------------------------------------------------


 writing wavefunctions
     LOOP+:  cpu time  207.64: real time  208.16
    4ORBIT:  cpu time    0.00: real time    0.00
 


 total charge     
 
# of ion     s       p       d       tot
----------------------------------------
  1        0.866   1.804   0.000   2.670
  2        0.867   1.800   0.000   2.667
  3        0.867   1.800   0.000   2.667
  4        0.866   1.804   0.000   2.670
------------------------------------------------
tot        3.466   7.207   0.000  10.673
 


 magnetization (x)
 
# of ion     s       p       d       tot
----------------------------------------
  1        0.000   0.006   0.000   0.007
  2        0.000  -0.002   0.000  -0.003
  3        0.000  -0.002   0.000  -0.003
  4        0.000   0.006   0.000   0.007
------------------------------------------------
tot        0.000   0.008   0.000   0.008
 

 total amount of memory used by VASP on root node    78909. kBytes
========================================================================

   base      :      30000. kBytes
   nonl-proj :       4631. kBytes
   fftplans  :       2996. kBytes
   grid      :       7176. kBytes
   one-center:         24. kBytes
   wavefun   :      34082. kBytes
 
  
  
 General timing and accounting informations for this job:
 ========================================================
  
                  Total CPU time used (sec):      209.399
                            User time (sec):      209.024
                          System time (sec):        0.375
                         Elapsed time (sec):      210.096
  
                   Maximum memory used (kb):           0.
                   Average memory used (kb):           0.
  
                          Minor page faults:        48923
                          Major page faults:            0
                 Voluntary context switches:         2184
