PROCAR lm decomposed
# of k-points:  133         # of bands:  14         # of ions:   4

 k-point    1 :    0.00000000 0.00000000 0.00000000     weight = 0.00057870

band   1 # energy  -14.98830000 # occ.  1.00000000
 
ion      s     py     pz     px    dxy    dyz    dz2    dxz    dx2    tot
  1  0.159  0.000  0.000  0.000  0.000  0.000  0.000  0.000  0.000  0.159
  2  0.159  0.000  0.000  0.000  0.000  0.000  0.000  0.000  0.000  0.159
  3  0.159  0.000  0.000  0.000  0.000  0.000  0.000  0.000  0.000  0.159
  4  0.159  0.000  0.000  0.000  0.000  0.000  0.000  0.000  0.000  0.159
tot  0.635  0.000  0.000  0.000  0.000  0.000  0.000  0.000  0.000  0.635
 
band   2 # energy  -14.68920138 # occ.  1.00000000
 
ion      s     py     pz     px    dxy    dyz    dz2    dxz    dx2    tot
  1  0.165  0.000  0.000  0.000  0.000  0.000  0.000  0.000  0.000  0.165
  2  0.165  0.000  0.000  0.000  0.000  0.000  0.000  0.000  0.000  0.165
  3  0.165  0.000  0.000  0.000  0.000  0.000  0.000  0.000  0.000  0.165
  4  0.165  0.000  0.000  0.000  0.000  0.000  0.000  0.000  0.000  0.165
tot  0.659  0.000  0.000  0.000  0.000  0.000  0.000  0.000  0.000  0.659
 
band   3 # energy   -3.82797454 # occ.  1.00000000
 
ion      s     py     pz     px    dxy    dyz    dz2    dxz    dx2    tot
  1  0.000  0.000  0.097  0.000  0.000  0.000  0.000  0.000  0.000  0.097
  2  0.000  0.000  0.097  0.000  0.000  0.000  0.000  0.000  0.000  0.097
  3  0.000  0.000  0.097  0.000  0.000  0.000  0.000  0.000  0.000  0.097
  4  0.000  0.000  0.097  0.000  0.000  0.000  0.000  0.000  0.000  0.097
tot  0.000  0.000  0.387  0.000  0.000  0.000  0.000  0.000  0.000  0.387
 
band   4 # energy   -1.87164666 # occ.  1.00000000
 
ion      s     py     pz     px    dxy    dyz    dz2    dxz    dx2    tot
  1  0.000  0.000  0.127  0.000  0.000  0.000  0.000  0.000  0.000  0.127
  2  0.000  0.000  0.126  0.000  0.000  0.000  0.000  0.000  0.000  0.126
  3  0.000  0.000  0.126  0.000  0.000  0.000  0.000  0.000  0.000  0.126
  4  0.000  0.000  0.127  0.000  0.000  0.000  0.000  0.000  0.000  0.127
tot  0.000  0.000  0.506  0.000  0.000  0.000  0.000  0.000  0.000  0.506
 
band   5 # energy    1.72373148 # occ.  1.00000000
 
ion      s     py     pz     px    dxy    dyz    dz2    dxz    dx2    tot
  1  0.000  0.052  0.000  0.156  0.000  0.000  0.000  0.000  0.000  0.207
  2  0.000  0.052  0.000  0.156  0.000  0.000  0.000  0.000  0.000  0.208
  3  0.000  0.052  0.000  0.156  0.000  0.000  0.000  0.000  0.000  0.208
  4  0.000  0.052  0.000  0.155  0.000  0.000  0.000  0.000  0.000  0.207
tot  0.000  0.208  0.000  0.623  0.000  0.000  0.000  0.000  0.000  0.831
 
band   6 # energy    1.72375181 # occ.  1.00000000
 
ion      s     py     pz     px    dxy    dyz    dz2    dxz    dx2    tot
  1  0.000  0.156  0.000  0.052  0.000  0.000  0.000  0.000  0.000  0.207
  2  0.000  0.156  0.000  0.052  0.000  0.000  0.000  0.000  0.000  0.208
  3  0.000  0.156  0.000  0.052  0.000  0.000  0.000  0.000  0.000  0.208
  4  0.000  0.155  0.000  0.052  0.000  0.000  0.000  0.000  0.000  0.207
tot  0.000  0.623  0.000  0.208  0.000  0.000  0.000  0.000  0.000  0.831
 
band   7 # energy    1.72844927 # occ.  1.00000000
 
ion      s     py     pz     px    dxy    dyz    dz2    dxz    dx2    tot
  1  0.000  0.052  0.000  0.156  0.000  0.000  0.000  0.000  0.000  0.208
  2  0.000  0.052  0.000  0.156  0.000  0.000  0.000  0.000  0.000  0.208
  3  0.000  0.052  0.000  0.156  0.000  0.000  0.000  0.000  0.000  0.208
  4  0.000  0.052  0.000  0.156  0.000  0.000  0.000  0.000  0.000  0.208
tot  0.000  0.208  0.000  0.623  0.000  0.000  0.000  0.000  0.000  0.831
 
band   8 # energy    1.72847016 # occ.  1.00000000
 
ion      s     py     pz     px    dxy    dyz    dz2    dxz    dx2    tot
  1  0.000  0.156  0.000  0.052  0.000  0.000  0.000  0.000  0.000  0.208
  2  0.000  0.156  0.000  0.052  0.000  0.000  0.000  0.000  0.000  0.208
  3  0.000  0.156  0.000  0.052  0.000  0.000  0.000  0.000  0.000  0.208
  4  0.000  0.156  0.000  0.052  0.000  0.000  0.000  0.000  0.000  0.208
tot  0.000  0.623  0.000  0.208  0.000  0.000  0.000  0.000  0.000  0.831
 
band   9 # energy    8.98314468 # occ.  0.00000000
 
ion      s     py     pz     px    dxy    dyz    dz2    dxz    dx2    tot
  1  0.021  0.000  0.000  0.000  0.000  0.000  0.000  0.000  0.000  0.021
  2  0.020  0.000  0.000  0.000  0.000  0.000  0.000  0.000  0.000  0.020
  3  0.020  0.000  0.000  0.000  0.000  0.000  0.000  0.000  0.000  0.020
  4  0.021  0.000  0.000  0.000  0.000  0.000  0.000  0.000  0.000  0.021
tot  0.082  0.000  0.000  0.000  0.000  0.000  0.000  0.000  0.000  0.082
 
band  10 # energy   13.14358353 # occ.  0.00000000
 
ion      s     py     pz     px    dxy    dyz    dz2    dxz    dx2    tot
  1  0.000  0.033  0.000  0.098  0.000  0.000  0.000  0.000  0.000  0.131
  2  0.000  0.033  0.000  0.099  0.000  0.000  0.000  0.000  0.000  0.133
  3  0.000  0.033  0.000  0.099  0.000  0.000  0.000  0.000  0.000  0.133
  4  0.000  0.033  0.000  0.098  0.000  0.000  0.000  0.000  0.000  0.131
tot  0.000  0.132  0.000  0.395  0.000  0.000  0.000  0.000  0.000  0.526
 
band  11 # energy   13.14359408 # occ.  0.00000000
 
ion      s     py     pz     px    dxy    dyz    dz2    dxz    dx2    tot
  1  0.000  0.098  0.000  0.033  0.000  0.000  0.000  0.000  0.000  0.131
  2  0.000  0.099  0.000  0.033  0.000  0.000  0.000  0.000  0.000  0.133
  3  0.000  0.099  0.000  0.033  0.000  0.000  0.000  0.000  0.000  0.133
  4  0.000  0.098  0.000  0.033  0.000  0.000  0.000  0.000  0.000  0.131
tot  0.000  0.395  0.000  0.132  0.000  0.000  0.000  0.000  0.000  0.526
 
band  12 # energy   13.20673113 # occ.  0.00000000
 
ion      s     py     pz     px    dxy    dyz    dz2    dxz    dx2    tot
  1  0.000  0.033  0.000  0.100  0.000  0.000  0.000  0.000  0.000  0.134
  2  0.000  0.033  0.000  0.098  0.000  0.000  0.000  0.000  0.000  0.131
  3  0.000  0.033  0.000  0.098  0.000  0.000  0.000  0.000  0.000  0.131
  4  0.000  0.033  0.000  0.100  0.000  0.000  0.000  0.000  0.000  0.134
tot  0.000  0.132  0.000  0.397  0.000  0.000  0.000  0.000  0.000  0.530
 
band  13 # energy   13.20674106 # occ.  0.00000000
 
ion      s     py     pz     px    dxy    dyz    dz2    dxz    dx2    tot
  1  0.000  0.100  0.000  0.033  0.000  0.000  0.000  0.000  0.000  0.134
  2  0.000  0.098  0.000  0.033  0.000  0.000  0.000  0.000  0.000  0.131
  3  0.000  0.098  0.000  0.033  0.000  0.000  0.000  0.000  0.000  0.131
  4  0.000  0.100  0.000  0.033  0.000  0.000  0.000  0.000  0.000  0.134
tot  0.000  0.397  0.000  0.132  0.000  0.000  0.000  0.000  0.000  0.530
 
band  14 # energy   15.32018837 # occ.  0.00000000
 
ion      s     py     pz     px    dxy    dyz    dz2    dxz    dx2    tot
  1  0.000  0.000  0.065  0.000  0.000  0.000  0.000  0.000  0.000  0.065
  2  0.000  0.000  0.087  0.000  0.000  0.000  0.000  0.000  0.000  0.087
  3  0.000  0.000  0.091  0.000  0.000  0.000  0.000  0.000  0.000  0.091
  4  0.000  0.000  0.062  0.000  0.000  0.000  0.000  0.000  0.000  0.062
tot  0.000  0.000  0.305  0.000  0.000  0.000  0.000  0.000  0.000  0.305
 

 k-point    2 :    0.08333333 0.00000000 0.00000000     weight = 0.00347222

band   1 # energy  -14.82235952 # occ.  1.00000000
 
ion      s     py     pz     px    dxy    dyz    dz2    dxz    dx2    tot
  1  0.158  0.000  0.000  0.001  0.000  0.000  0.000  0.000  0.000  0.159
  2  0.158  0.000  0.000  0.001  0.000  0.000  0.000  0.000  0.000  0.160
  3  0.158  0.000  0.000  0.001  0.000  0.000  0.000  0.000  0.000  0.160
  4  0.158  0.000  0.000  0.001  0.000  0.000  0.000  0.000  0.000  0.159
tot  0.631  0.002  0.000  0.005  0.000  0.000  0.000  0.000  0.000  0.638
 
band   2 # energy  -14.52594595 # occ.  1.00000000
 
ion      s     py     pz     px    dxy    dyz    dz2    dxz    dx2    tot
  1  0.163  0.000  0.000  0.001  0.000  0.000  0.000  0.000  0.000  0.165
  2  0.163  0.000  0.000  0.001  0.000  0.000  0.000  0.000  0.000  0.165
  3  0.163  0.000  0.000  0.001  0.000  0.000  0.000  0.000  0.000  0.165
  4  0.163  0.000  0.000  0.001  0.000  0.000  0.000  0.000  0.000  0.165
tot  0.653  0.002  0.000  0.005  0.000  0.000  0.000  0.000  0.000  0.660
 
band   3 # energy   -3.62619435 # occ.  1.00000000
 
ion      s     py     pz     px    dxy    dyz    dz2    dxz    dx2    tot
  1  0.000  0.000  0.097  0.000  0.000  0.000  0.000  0.000  0.000  0.097
  2  0.000  0.000  0.097  0.000  0.000  0.000  0.000  0.000  0.000  0.097
  3  0.000  0.000  0.097  0.000  0.000  0.000  0.000  0.000  0.000  0.097
  4  0.000  0.000  0.097  0.000  0.000  0.000  0.000  0.000  0.000  0.097
tot  0.000  0.000  0.388  0.000  0.000  0.000  0.000  0.000  0.000  0.388
 
band   4 # energy   -1.68512490 # occ.  1.00000000
 
ion      s     py     pz     px    dxy    dyz    dz2    dxz    dx2    tot
  1  0.000  0.000  0.127  0.000  0.000  0.000  0.000  0.000  0.000  0.127
  2  0.000  0.000  0.126  0.000  0.000  0.000  0.000  0.000  0.000  0.126
  3  0.000  0.000  0.126  0.000  0.000  0.000  0.000  0.000  0.000  0.126
  4  0.000  0.000  0.127  0.000  0.000  0.000  0.000  0.000  0.000  0.127
tot  0.000  0.000  0.507  0.000  0.000  0.000  0.000  0.000  0.000  0.507
 
band   5 # energy    1.04773561 # occ.  1.00000000
 
ion      s     py     pz     px    dxy    dyz    dz2    dxz    dx2    tot
  1  0.009  0.049  0.000  0.146  0.000  0.000  0.000  0.000  0.000  0.204
  2  0.009  0.049  0.000  0.146  0.000  0.000  0.000  0.000  0.000  0.204
  3  0.009  0.049  0.000  0.146  0.000  0.000  0.000  0.000  0.000  0.204
  4  0.009  0.049  0.000  0.146  0.000  0.000  0.000  0.000  0.000  0.204
tot  0.035  0.195  0.000  0.585  0.000  0.000  0.000  0.000  0.000  0.815
 
band   6 # energy    1.07798667 # occ.  1.00000000
 
ion      s     py     pz     px    dxy    dyz    dz2    dxz    dx2    tot
  1  0.009  0.049  0.000  0.147  0.000  0.000  0.000  0.000  0.000  0.205
  2  0.009  0.049  0.000  0.147  0.000  0.000  0.000  0.000  0.000  0.205
  3  0.009  0.049  0.000  0.147  0.000  0.000  0.000  0.000  0.000  0.205
  4  0.009  0.049  0.000  0.147  0.000  0.000  0.000  0.000  0.000  0.205
tot  0.036  0.196  0.000  0.587  0.000  0.000  0.000  0.000  0.000  0.819
 
band   7 # energy    1.36014970 # occ.  1.00000000
 
ion      s     py     pz     px    dxy    dyz    dz2    dxz    dx2    tot
  1  0.000  0.154  0.000  0.051  0.000  0.000  0.000  0.000  0.000  0.205
  2  0.000  0.154  0.000  0.051  0.000  0.000  0.000  0.000  0.000  0.205
  3  0.000  0.154  0.000  0.051  0.000  0.000  0.000  0.000  0.000  0.205
  4  0.000  0.154  0.000  0.051  0.000  0.000  0.000  0.000  0.000  0.205
tot  0.000  0.615  0.000  0.205  0.000  0.000  0.000  0.000  0.000  0.821
 
band   8 # energy    1.39151755 # occ.  1.00000000
 
ion      s     py     pz     px    dxy    dyz    dz2    dxz    dx2    tot
  1  0.000  0.154  0.000  0.051  0.000  0.000  0.000  0.000  0.000  0.206
  2  0.000  0.154  0.000  0.051  0.000  0.000  0.000  0.000  0.000  0.206
  3  0.000  0.155  0.000  0.051  0.000  0.000  0.000  0.000  0.000  0.206
  4  0.000  0.154  0.000  0.051  0.000  0.000  0.000  0.000  0.000  0.206
tot  0.000  0.618  0.000  0.206  0.000  0.000  0.000  0.000  0.000  0.824
 
band   9 # energy    9.18364406 # occ.  0.00000000
 
ion      s     py     pz     px    dxy    dyz    dz2    dxz    dx2    tot
  1  0.020  0.000  0.000  0.001  0.000  0.000  0.000  0.000  0.000  0.021
  2  0.020  0.000  0.000  0.001  0.000  0.000  0.000  0.000  0.000  0.021
  3  0.020  0.000  0.000  0.001  0.000  0.000  0.000  0.000  0.000  0.021
  4  0.020  0.000  0.000  0.001  0.000  0.000  0.000  0.000  0.000  0.021
tot  0.079  0.001  0.000  0.003  0.000  0.000  0.000  0.000  0.000  0.083
 
band  10 # energy   13.18331132 # occ.  0.00000000
 
ion      s     py     pz     px    dxy    dyz    dz2    dxz    dx2    tot
  1  0.006  0.030  0.000  0.090  0.000  0.000  0.000  0.000  0.000  0.126
  2  0.006  0.031  0.000  0.093  0.000  0.000  0.000  0.000  0.000  0.130
  3  0.006  0.031  0.000  0.093  0.000  0.000  0.000  0.000  0.000  0.130
  4  0.006  0.030  0.000  0.090  0.000  0.000  0.000  0.000  0.000  0.126
tot  0.025  0.122  0.000  0.365  0.000  0.000  0.000  0.000  0.000  0.512
 
band  11 # energy   13.25982911 # occ.  0.00000000
 
ion      s     py     pz     px    dxy    dyz    dz2    dxz    dx2    tot
  1  0.007  0.031  0.000  0.093  0.000  0.000  0.000  0.000  0.000  0.131
  2  0.007  0.030  0.000  0.090  0.000  0.000  0.000  0.000  0.000  0.127
  3  0.007  0.030  0.000  0.090  0.000  0.000  0.000  0.000  0.000  0.127
  4  0.007  0.031  0.000  0.093  0.000  0.000  0.000  0.000  0.000  0.131
tot  0.028  0.122  0.000  0.367  0.000  0.000  0.000  0.000  0.000  0.518
 
band  12 # energy   13.84334197 # occ.  0.00000000
 
ion      s     py     pz     px    dxy    dyz    dz2    dxz    dx2    tot
  1  0.000  0.100  0.000  0.033  0.000  0.000  0.000  0.000  0.000  0.133
  2  0.000  0.102  0.000  0.034  0.000  0.000  0.000  0.000  0.000  0.136
  3  0.000  0.102  0.000  0.034  0.000  0.000  0.000  0.000  0.000  0.136
  4  0.000  0.100  0.000  0.033  0.000  0.000  0.000  0.000  0.000  0.133
tot  0.000  0.403  0.000  0.134  0.000  0.000  0.000  0.000  0.000  0.538
 
band  13 # energy   13.88564181 # occ.  0.00000000
 
ion      s     py     pz     px    dxy    dyz    dz2    dxz    dx2    tot
  1  0.000  0.102  0.000  0.034  0.000  0.000  0.000  0.000  0.000  0.137
  2  0.000  0.101  0.000  0.034  0.000  0.000  0.000  0.000  0.000  0.134
  3  0.000  0.101  0.000  0.034  0.000  0.000  0.000  0.000  0.000  0.134
  4  0.000  0.103  0.000  0.034  0.000  0.000  0.000  0.000  0.000  0.137
tot  0.000  0.406  0.000  0.135  0.000  0.000  0.000  0.000  0.000  0.541
 
band  14 # energy   15.46034380 # occ.  0.00000000
 
ion      s     py     pz     px    dxy    dyz    dz2    dxz    dx2    tot
  1  0.000  0.000  0.012  0.000  0.000  0.000  0.000  0.000  0.000  0.012
  2  0.000  0.000  0.159  0.000  0.000  0.000  0.000  0.000  0.000  0.159
  3  0.000  0.000  0.209  0.000  0.000  0.000  0.000  0.000  0.000  0.209
  4  0.000  0.000  0.003  0.000  0.000  0.000  0.000  0.000  0.000  0.003
tot  0.000  0.000  0.382  0.000  0.000  0.000  0.000  0.000  0.000  0.383
 

 k-point    3 :    0.16666667 0.00000000 0.00000000     weight = 0.00347222

band   1 # energy  -14.32544759 # occ.  1.00000000
 
ion      s     py     pz     px    dxy    dyz    dz2    dxz    dx2    tot
  1  0.154  0.002  0.000  0.005  0.000  0.000  0.000  0.000  0.000  0.161
  2  0.154  0.002  0.000  0.005  0.000  0.000  0.000  0.000  0.000  0.161
  3  0.154  0.002  0.000  0.005  0.000  0.000  0.000  0.000  0.000  0.161
  4  0.154  0.002  0.000  0.005  0.000  0.000  0.000  0.000  0.000  0.161
tot  0.615  0.007  0.000  0.020  0.000  0.000  0.000  0.000  0.000  0.643
 
band   2 # energy  -14.03791958 # occ.  1.00000000
 
ion      s     py     pz     px    dxy    dyz    dz2    dxz    dx2    tot
  1  0.159  0.002  0.000  0.005  0.000  0.000  0.000  0.000  0.000  0.166
  2  0.159  0.002  0.000  0.005  0.000  0.000  0.000  0.000  0.000  0.166
  3  0.159  0.002  0.000  0.005  0.000  0.000  0.000  0.000  0.000  0.166
  4  0.159  0.002  0.000  0.005  0.000  0.000  0.000  0.000  0.000  0.166
tot  0.636  0.007  0.000  0.021  0.000  0.000  0.000  0.000  0.000  0.664
 
band   3 # energy   -3.02426421 # occ.  1.00000000
 
ion      s     py     pz     px    dxy    dyz    dz2    dxz    dx2    tot
  1  0.000  0.000  0.098  0.000  0.000  0.000  0.000  0.000  0.000  0.098
  2  0.000  0.000  0.098  0.000  0.000  0.000  0.000  0.000  0.000  0.098
  3  0.000  0.000  0.098  0.000  0.000  0.000  0.000  0.000  0.000  0.098
  4  0.000  0.000  0.098  0.000  0.000  0.000  0.000  0.000  0.000  0.098
tot  0.000  0.000  0.392  0.000  0.000  0.000  0.000  0.000  0.000  0.392
 
band   4 # energy   -1.12503819 # occ.  1.00000000
 
ion      s     py     pz     px    dxy    dyz    dz2    dxz    dx2    tot
  1  0.000  0.000  0.128  0.000  0.000  0.000  0.000  0.000  0.000  0.128
  2  0.000  0.000  0.127  0.000  0.000  0.000  0.000  0.000  0.000  0.127
  3  0.000  0.000  0.127  0.000  0.000  0.000  0.000  0.000  0.000  0.127
  4  0.000  0.000  0.128  0.000  0.000  0.000  0.000  0.000  0.000  0.128
tot  0.000  0.000  0.510  0.000  0.000  0.000  0.000  0.000  0.000  0.510
 
band   5 # energy   -0.61700049 # occ.  1.00000000
 
ion      s     py     pz     px    dxy    dyz    dz2    dxz    dx2    tot
  1  0.029  0.042  0.000  0.126  0.000  0.000  0.000  0.000  0.000  0.197
  2  0.028  0.042  0.000  0.126  0.000  0.000  0.000  0.000  0.000  0.197
  3  0.028  0.042  0.000  0.126  0.000  0.000  0.000  0.000  0.000  0.197
  4  0.029  0.042  0.000  0.126  0.000  0.000  0.000  0.000  0.000  0.197
tot  0.114  0.168  0.000  0.505  0.000  0.000  0.000  0.000  0.000  0.787
 
band   6 # energy   -0.55423389 # occ.  1.00000000
 
ion      s     py     pz     px    dxy    dyz    dz2    dxz    dx2    tot
  1  0.029  0.042  0.000  0.127  0.000  0.000  0.000  0.000  0.000  0.199
  2  0.029  0.042  0.000  0.127  0.000  0.000  0.000  0.000  0.000  0.199
  3  0.029  0.042  0.000  0.127  0.000  0.000  0.000  0.000  0.000  0.199
  4  0.029  0.042  0.000  0.127  0.000  0.000  0.000  0.000  0.000  0.199
tot  0.117  0.170  0.000  0.509  0.000  0.000  0.000  0.000  0.000  0.795
 
band   7 # energy    0.55586637 # occ.  1.00000000
 
ion      s     py     pz     px    dxy    dyz    dz2    dxz    dx2    tot
  1  0.000  0.151  0.000  0.050  0.000  0.000  0.000  0.000  0.000  0.201
  2  0.000  0.151  0.000  0.050  0.000  0.000  0.000  0.000  0.000  0.202
  3  0.000  0.151  0.000  0.050  0.000  0.000  0.000  0.000  0.000  0.202
  4  0.000  0.151  0.000  0.050  0.000  0.000  0.000  0.000  0.000  0.201
tot  0.000  0.605  0.000  0.202  0.000  0.000  0.000  0.000  0.000  0.806
 
band   8 # energy    0.59983076 # occ.  1.00000000
 
ion      s     py     pz     px    dxy    dyz    dz2    dxz    dx2    tot
  1  0.000  0.152  0.000  0.051  0.000  0.000  0.000  0.000  0.000  0.202
  2  0.000  0.152  0.000  0.051  0.000  0.000  0.000  0.000  0.000  0.203
  3  0.000  0.152  0.000  0.051  0.000  0.000  0.000  0.000  0.000  0.203
  4  0.000  0.152  0.000  0.051  0.000  0.000  0.000  0.000  0.000  0.202
tot  0.000  0.608  0.000  0.203  0.000  0.000  0.000  0.000  0.000  0.810
 
band   9 # energy    9.78889971 # occ.  0.00000000
 
ion      s     py     pz     px    dxy    dyz    dz2    dxz    dx2    tot
  1  0.017  0.001  0.000  0.003  0.000  0.000  0.000  0.000  0.000  0.021
  2  0.017  0.001  0.000  0.003  0.000  0.000  0.000  0.000  0.000  0.021
  3  0.017  0.001  0.000  0.003  0.000  0.000  0.000  0.000  0.000  0.021
  4  0.017  0.001  0.000  0.003  0.000  0.000  0.000  0.000  0.000  0.021
tot  0.068  0.004  0.000  0.012  0.000  0.000  0.000  0.000  0.000  0.085
 
band  10 # energy   13.07164517 # occ.  0.00000000
 
ion      s     py     pz     px    dxy    dyz    dz2    dxz    dx2    tot
  1  0.030  0.022  0.000  0.066  0.000  0.000  0.000  0.000  0.000  0.118
  2  0.032  0.023  0.000  0.069  0.000  0.000  0.000  0.000  0.000  0.124
  3  0.032  0.023  0.000  0.069  0.000  0.000  0.000  0.000  0.000  0.124
  4  0.030  0.022  0.000  0.066  0.000  0.000  0.000  0.000  0.000  0.118
tot  0.124  0.090  0.000  0.269  0.000  0.000  0.000  0.000  0.000  0.483
 
band  11 # energy   13.24306514 # occ.  0.00000000
 
ion      s     py     pz     px    dxy    dyz    dz2    dxz    dx2    tot
  1  0.034  0.023  0.000  0.070  0.000  0.000  0.000  0.000  0.000  0.127
  2  0.032  0.022  0.000  0.067  0.000  0.000  0.000  0.000  0.000  0.121
  3  0.032  0.022  0.000  0.067  0.000  0.000  0.000  0.000  0.000  0.121
  4  0.034  0.023  0.000  0.070  0.000  0.000  0.000  0.000  0.000  0.127
tot  0.134  0.091  0.000  0.273  0.000  0.000  0.000  0.000  0.000  0.497
 
band  12 # energy   13.99132915 # occ.  0.00000000
 
ion      s     py     pz     px    dxy    dyz    dz2    dxz    dx2    tot
  1  0.000  0.000  0.155  0.000  0.000  0.000  0.000  0.000  0.000  0.155
  2  0.000  0.000  0.180  0.000  0.000  0.000  0.000  0.000  0.000  0.180
  3  0.000  0.000  0.180  0.000  0.000  0.000  0.000  0.000  0.000  0.180
  4  0.000  0.000  0.155  0.000  0.000  0.000  0.000  0.000  0.000  0.155
tot  0.000  0.000  0.670  0.000  0.000  0.000  0.000  0.000  0.000  0.670
 
band  13 # energy   14.40030597 # occ.  0.00000000
 
ion      s     py     pz     px    dxy    dyz    dz2    dxz    dx2    tot
  1  0.000  0.000  0.183  0.000  0.000  0.000  0.000  0.000  0.000  0.183
  2  0.000  0.000  0.171  0.000  0.000  0.000  0.000  0.000  0.000  0.171
  3  0.000  0.000  0.171  0.000  0.000  0.000  0.000  0.000  0.000  0.171
  4  0.000  0.000  0.183  0.000  0.000  0.000  0.000  0.000  0.000  0.183
tot  0.000  0.000  0.708  0.000  0.000  0.000  0.000  0.000  0.000  0.708
 
band  14 # energy   15.71623571 # occ.  0.00000000
 
ion      s     py     pz     px    dxy    dyz    dz2    dxz    dx2    tot
  1  0.000  0.049  0.000  0.016  0.000  0.000  0.000  0.000  0.000  0.065
  2  0.000  0.050  0.000  0.017  0.000  0.000  0.000  0.000  0.000  0.067
  3  0.000  0.163  0.000  0.054  0.000  0.000  0.000  0.000  0.000  0.217
  4  0.000  0.162  0.000  0.054  0.000  0.000  0.000  0.000  0.000  0.215
tot  0.000  0.423  0.000  0.141  0.000  0.000  0.000  0.000  0.000  0.565
 

 k-point    4 :    0.25000000 0.00000000 0.00000000     weight = 0.00347222

band   1 # energy  -13.50367207 # occ.  1.00000000
 
ion      s     py     pz     px    dxy    dyz    dz2    dxz    dx2    tot
  1  0.147  0.004  0.000  0.011  0.000  0.000  0.000  0.000  0.000  0.163
  2  0.148  0.004  0.000  0.011  0.000  0.000  0.000  0.000  0.000  0.163
  3  0.148  0.004  0.000  0.011  0.000  0.000  0.000  0.000  0.000  0.163
  4  0.147  0.004  0.000  0.011  0.000  0.000  0.000  0.000  0.000  0.163
tot  0.590  0.015  0.000  0.045  0.000  0.000  0.000  0.000  0.000  0.651
 
band   2 # energy  -13.23047154 # occ.  1.00000000
 
ion      s     py     pz     px    dxy    dyz    dz2    dxz    dx2    tot
  1  0.152  0.004  0.000  0.012  0.000  0.000  0.000  0.000  0.000  0.168
  2  0.152  0.004  0.000  0.012  0.000  0.000  0.000  0.000  0.000  0.168
  3  0.152  0.004  0.000  0.012  0.000  0.000  0.000  0.000  0.000  0.168
  4  0.152  0.004  0.000  0.012  0.000  0.000  0.000  0.000  0.000  0.168
tot  0.609  0.016  0.000  0.047  0.000  0.000  0.000  0.000  0.000  0.672
 
band   3 # energy   -2.74215834 # occ.  1.00000000
 
ion      s     py     pz     px    dxy    dyz    dz2    dxz    dx2    tot
  1  0.049  0.035  0.000  0.105  0.000  0.000  0.000  0.000  0.000  0.189
  2  0.049  0.035  0.000  0.105  0.000  0.000  0.000  0.000  0.000  0.190
  3  0.049  0.035  0.000  0.105  0.000  0.000  0.000  0.000  0.000  0.190
  4  0.049  0.035  0.000  0.105  0.000  0.000  0.000  0.000  0.000  0.189
tot  0.198  0.140  0.000  0.420  0.000  0.000  0.000  0.000  0.000  0.757
 
band   4 # energy   -2.63905529 # occ.  1.00000000
 
ion      s     py     pz     px    dxy    dyz    dz2    dxz    dx2    tot
  1  0.050  0.035  0.000  0.106  0.000  0.000  0.000  0.000  0.000  0.192
  2  0.050  0.035  0.000  0.106  0.000  0.000  0.000  0.000  0.000  0.192
  3  0.050  0.035  0.000  0.106  0.000  0.000  0.000  0.000  0.000  0.192
  4  0.050  0.035  0.000  0.106  0.000  0.000  0.000  0.000  0.000  0.192
tot  0.201  0.142  0.000  0.426  0.000  0.000  0.000  0.000  0.000  0.768
 
band   5 # energy   -2.04202545 # occ.  1.00000000
 
ion      s     py     pz     px    dxy    dyz    dz2    dxz    dx2    tot
  1  0.000  0.000  0.100  0.000  0.000  0.000  0.000  0.000  0.000  0.100
  2  0.000  0.000  0.101  0.000  0.000  0.000  0.000  0.000  0.000  0.101
  3  0.000  0.000  0.101  0.000  0.000  0.000  0.000  0.000  0.000  0.101
  4  0.000  0.000  0.100  0.000  0.000  0.000  0.000  0.000  0.000  0.100
tot  0.000  0.000  0.400  0.000  0.000  0.000  0.000  0.000  0.000  0.400
 
band   6 # energy   -0.32993425 # occ.  1.00000000
 
ion      s     py     pz     px    dxy    dyz    dz2    dxz    dx2    tot
  1  0.000  0.149  0.000  0.050  0.000  0.000  0.000  0.000  0.000  0.199
  2  0.000  0.149  0.000  0.050  0.000  0.000  0.000  0.000  0.000  0.199
  3  0.000  0.149  0.000  0.050  0.000  0.000  0.000  0.000  0.000  0.199
  4  0.000  0.149  0.000  0.050  0.000  0.000  0.000  0.000  0.000  0.199
tot  0.000  0.597  0.000  0.199  0.000  0.000  0.000  0.000  0.000  0.796
 
band   7 # energy   -0.27949972 # occ.  1.00000000
 
ion      s     py     pz     px    dxy    dyz    dz2    dxz    dx2    tot
  1  0.000  0.150  0.000  0.050  0.000  0.000  0.000  0.000  0.000  0.200
  2  0.000  0.150  0.000  0.050  0.000  0.000  0.000  0.000  0.000  0.200
  3  0.000  0.150  0.000  0.050  0.000  0.000  0.000  0.000  0.000  0.200
  4  0.000  0.150  0.000  0.050  0.000  0.000  0.000  0.000  0.000  0.200
tot  0.000  0.601  0.000  0.200  0.000  0.000  0.000  0.000  0.000  0.801
 
band   8 # energy   -0.21614527 # occ.  1.00000000
 
ion      s     py     pz     px    dxy    dyz    dz2    dxz    dx2    tot
  1  0.000  0.000  0.130  0.000  0.000  0.000  0.000  0.000  0.000  0.130
  2  0.000  0.000  0.128  0.000  0.000  0.000  0.000  0.000  0.000  0.128
  3  0.000  0.000  0.128  0.000  0.000  0.000  0.000  0.000  0.000  0.128
  4  0.000  0.000  0.130  0.000  0.000  0.000  0.000  0.000  0.000  0.130
tot  0.000  0.000  0.517  0.000  0.000  0.000  0.000  0.000  0.000  0.517
 
band   9 # energy   10.79175477 # occ.  0.00000000
 
ion      s     py     pz     px    dxy    dyz    dz2    dxz    dx2    tot
  1  0.014  0.002  0.000  0.007  0.000  0.000  0.000  0.000  0.000  0.023
  2  0.013  0.002  0.000  0.007  0.000  0.000  0.000  0.000  0.000  0.022
  3  0.013  0.002  0.000  0.007  0.000  0.000  0.000  0.000  0.000  0.022
  4  0.014  0.002  0.000  0.007  0.000  0.000  0.000  0.000  0.000  0.023
tot  0.053  0.009  0.000  0.028  0.000  0.000  0.000  0.000  0.000  0.090
 
band  10 # energy   11.74340829 # occ.  0.00000000
 
ion      s     py     pz     px    dxy    dyz    dz2    dxz    dx2    tot
  1  0.000  0.000  0.135  0.000  0.000  0.000  0.000  0.000  0.000  0.135
  2  0.000  0.000  0.156  0.000  0.000  0.000  0.000  0.000  0.000  0.156
  3  0.000  0.000  0.156  0.000  0.000  0.000  0.000  0.000  0.000  0.156
  4  0.000  0.000  0.135  0.000  0.000  0.000  0.000  0.000  0.000  0.135
tot  0.000  0.000  0.582  0.000  0.000  0.000  0.000  0.000  0.000  0.582
 
band  11 # energy   12.39213397 # occ.  0.00000000
 
ion      s     py     pz     px    dxy    dyz    dz2    dxz    dx2    tot
  1  0.000  0.000  0.171  0.000  0.000  0.000  0.000  0.000  0.000  0.171
  2  0.000  0.000  0.154  0.000  0.000  0.000  0.000  0.000  0.000  0.154
  3  0.000  0.000  0.154  0.000  0.000  0.000  0.000  0.000  0.000  0.154
  4  0.000  0.000  0.171  0.000  0.000  0.000  0.000  0.000  0.000  0.171
tot  0.000  0.000  0.651  0.000  0.000  0.000  0.000  0.000  0.000  0.651
 
band  12 # energy   12.73202476 # occ.  0.00000000
 
ion      s     py     pz     px    dxy    dyz    dz2    dxz    dx2    tot
  1  0.054  0.014  0.000  0.041  0.000  0.000  0.000  0.000  0.000  0.110
  2  0.062  0.014  0.000  0.043  0.000  0.000  0.000  0.000  0.000  0.120
  3  0.062  0.014  0.000  0.043  0.000  0.000  0.000  0.000  0.000  0.120
  4  0.054  0.014  0.000  0.041  0.000  0.000  0.000  0.000  0.000  0.110
tot  0.233  0.056  0.000  0.169  0.000  0.000  0.000  0.000  0.000  0.459
 
band  13 # energy   13.01987865 # occ.  0.00000000
 
ion      s     py     pz     px    dxy    dyz    dz2    dxz    dx2    tot
  1  0.066  0.014  0.000  0.042  0.000  0.000  0.000  0.000  0.000  0.123
  2  0.060  0.014  0.000  0.041  0.000  0.000  0.000  0.000  0.000  0.114
  3  0.060  0.014  0.000  0.041  0.000  0.000  0.000  0.000  0.000  0.114
  4  0.066  0.014  0.000  0.042  0.000  0.000  0.000  0.000  0.000  0.123
tot  0.252  0.055  0.000  0.166  0.000  0.000  0.000  0.000  0.000  0.474
 
band  14 # energy   16.63154742 # occ.  0.00000000
 
ion      s     py     pz     px    dxy    dyz    dz2    dxz    dx2    tot
  1  0.000  0.000  0.086  0.000  0.000  0.000  0.000  0.000  0.000  0.086
  2  0.000  0.000  0.072  0.000  0.000  0.000  0.000  0.000  0.000  0.072
  3  0.000  0.000  0.072  0.000  0.000  0.000  0.000  0.000  0.000  0.072
  4  0.000  0.000  0.086  0.000  0.000  0.000  0.000  0.000  0.000  0.086
tot  0.000  0.000  0.315  0.000  0.000  0.000  0.000  0.000  0.000  0.315
 

 k-point    5 :    0.33333333 0.00000000 0.00000000     weight = 0.00347222

band   1 # energy  -12.36950457 # occ.  1.00000000
 
ion      s     py     pz     px    dxy    dyz    dz2    dxz    dx2    tot
  1  0.140  0.007  0.000  0.020  0.000  0.000  0.000  0.000  0.000  0.166
  2  0.140  0.007  0.000  0.020  0.000  0.000  0.000  0.000  0.000  0.166
  3  0.140  0.007  0.000  0.020  0.000  0.000  0.000  0.000  0.000  0.166
  4  0.140  0.007  0.000  0.020  0.000  0.000  0.000  0.000  0.000  0.166
tot  0.560  0.026  0.000  0.078  0.000  0.000  0.000  0.000  0.000  0.664
 
band   2 # energy  -12.11670740 # occ.  1.00000000
 
ion      s     py     pz     px    dxy    dyz    dz2    dxz    dx2    tot
  1  0.144  0.007  0.000  0.020  0.000  0.000  0.000  0.000  0.000  0.171
  2  0.143  0.007  0.000  0.020  0.000  0.000  0.000  0.000  0.000  0.171
  3  0.143  0.007  0.000  0.020  0.000  0.000  0.000  0.000  0.000  0.171
  4  0.144  0.007  0.000  0.020  0.000  0.000  0.000  0.000  0.000  0.171
tot  0.575  0.027  0.000  0.081  0.000  0.000  0.000  0.000  0.000  0.683
 
band   3 # energy   -4.97697906 # occ.  1.00000000
 
ion      s     py     pz     px    dxy    dyz    dz2    dxz    dx2    tot
  1  0.068  0.029  0.000  0.086  0.000  0.000  0.000  0.000  0.000  0.183
  2  0.068  0.029  0.000  0.086  0.000  0.000  0.000  0.000  0.000  0.183
  3  0.068  0.029  0.000  0.086  0.000  0.000  0.000  0.000  0.000  0.183
  4  0.068  0.029  0.000  0.086  0.000  0.000  0.000  0.000  0.000  0.183
tot  0.273  0.114  0.000  0.343  0.000  0.000  0.000  0.000  0.000  0.731
 
band   4 # energy   -4.84378906 # occ.  1.00000000
 