<?xml version="1.0" encoding="ISO-8859-1"?>
<modeling>
 <generator>
  <i name="program" type="string">vasp </i>
  <i name="version" type="string">5.2.12  </i>
  <i name="subversion" type="string">11Nov11 complex                                                      parallel </i>
  <i name="platform" type="string">LinuxIFC </i>
  <i name="date" type="string">2012 10 17 </i>
  <i name="time" type="string">09:39:31 </i>
 </generator>
 <incar>
  <i type="string" name="PREC">accurate</i>
  <i type="int" name="ISPIN">     2</i>
  <i name="ENCUT">    350.00000000</i>
  <i type="logical" name="LREAL"> F  </i>
  <i type="int" name="ISMEAR">     1</i>
  <i name="SIGMA">      0.05000000</i>
  <i type="logical" name="LORBIT"> F  </i>
 </incar>
 <kpoints>
  <generation param="Gamma">
   <v type="int" name="divisions">      12       12       12 </v>
   <v name="usershift">      0.00000000       0.00000000       0.00000000 </v>
   <v name="genvec1">      0.08333333       0.00000000       0.00000000 </v>
   <v name="genvec2">      0.00000000       0.08333333       0.00000000 </v>
   <v name="genvec3">      0.00000000       0.00000000       0.08333333 </v>
   <v name="shift">      0.00000000       0.00000000       0.00000000 </v>
  </generation>
  <varray name="kpointlist" >
   <v>       0.00000000       0.00000000       0.00000000 </v>
   <v>       0.08333333       0.00000000       0.00000000 </v>
   <v>       0.16666667       0.00000000       0.00000000 </v>
   <v>       0.25000000       0.00000000       0.00000000 </v>
   <v>       0.33333333       0.00000000       0.00000000 </v>
   <v>       0.41666667       0.00000000       0.00000000 </v>
   <v>       0.50000000       0.00000000       0.00000000 </v>
   <v>       0.08333333       0.08333333       0.00000000 </v>
   <v>       0.16666667       0.08333333       0.00000000 </v>
   <v>       0.25000000       0.08333333       0.00000000 </v>
   <v>       0.33333333       0.08333333       0.00000000 </v>
   <v>       0.41666667       0.08333333       0.00000000 </v>
   <v>       0.16666667       0.16666667       0.00000000 </v>
   <v>       0.25000000       0.16666667       0.00000000 </v>
   <v>       0.33333333       0.16666667       0.00000000 </v>
   <v>       0.41666667       0.16666667       0.00000000 </v>
   <v>       0.25000000       0.25000000       0.00000000 </v>
   <v>       0.33333333       0.25000000       0.00000000 </v>
   <v>       0.33333333       0.33333333       0.00000000 </v>
   <v>       0.00000000       0.00000000       0.08333333 </v>
   <v>       0.08333333       0.00000000       0.08333333 </v>
   <v>       0.16666667       0.00000000       0.08333333 </v>
   <v>       0.25000000       0.00000000       0.08333333 </v>
   <v>       0.33333333       0.00000000       0.08333333 </v>
   <v>       0.41666667       0.00000000       0.08333333 </v>
   <v>       0.50000000       0.00000000       0.08333333 </v>
   <v>       0.08333333       0.08333333       0.08333333 </v>
   <v>       0.16666667       0.08333333       0.08333333 </v>
   <v>       0.25000000       0.08333333       0.08333333 </v>
   <v>       0.33333333       0.08333333       0.08333333 </v>
   <v>       0.41666667       0.08333333       0.08333333 </v>
   <v>       0.16666667       0.16666667       0.08333333 </v>
   <v>       0.25000000       0.16666667       0.08333333 </v>
   <v>       0.33333333       0.16666667       0.08333333 </v>
   <v>       0.41666667       0.16666667       0.08333333 </v>
   <v>       0.25000000       0.25000000       0.08333333 </v>
   <v>       0.33333333       0.25000000       0.08333333 </v>
   <v>       0.33333333       0.33333333       0.08333333 </v>
   <v>       0.00000000       0.00000000       0.16666667 </v>
   <v>       0.08333333       0.00000000       0.16666667 </v>
   <v>       0.16666667       0.00000000       0.16666667 </v>
   <v>       0.25000000       0.00000000       0.16666667 </v>
   <v>       0.33333333       0.00000000       0.16666667 </v>
   <v>       0.41666667       0.00000000       0.16666667 </v>
   <v>       0.50000000       0.00000000       0.16666667 </v>
   <v>       0.08333333       0.08333333       0.16666667 </v>
   <v>       0.16666667       0.08333333       0.16666667 </v>
   <v>       0.25000000       0.08333333       0.16666667 </v>
   <v>       0.33333333       0.08333333       0.16666667 </v>
   <v>       0.41666667       0.08333333       0.16666667 </v>
   <v>       0.16666667       0.16666667       0.16666667 </v>
   <v>       0.25000000       0.16666667       0.16666667 </v>
   <v>       0.33333333       0.16666667       0.16666667 </v>
   <v>       0.41666667       0.16666667       0.16666667 </v>
   <v>       0.25000000       0.25000000       0.16666667 </v>
   <v>       0.33333333       0.25000000       0.16666667 </v>
   <v>       0.33333333       0.33333333       0.16666667 </v>
   <v>       0.00000000       0.00000000       0.25000000 </v>
   <v>       0.08333333       0.00000000       0.25000000 </v>
   <v>       0.16666667       0.00000000       0.25000000 </v>
   <v>       0.25000000       0.00000000       0.25000000 </v>
   <v>       0.33333333       0.00000000       0.25000000 </v>
   <v>       0.41666667       0.00000000       0.25000000 </v>
   <v>       0.50000000       0.00000000       0.25000000 </v>
   <v>       0.08333333       0.08333333       0.25000000 </v>
   <v>       0.16666667       0.08333333       0.25000000 </v>
   <v>       0.25000000       0.08333333       0.25000000 </v>
   <v>       0.33333333       0.08333333       0.25000000 </v>
   <v>       0.41666667       0.08333333       0.25000000 </v>
   <v>       0.16666667       0.16666667       0.25000000 </v>
   <v>       0.25000000       0.16666667       0.25000000 </v>
   <v>       0.33333333       0.16666667       0.25000000 </v>
   <v>       0.41666667       0.16666667       0.25000000 </v>
   <v>       0.25000000       0.25000000       0.25000000 </v>
   <v>       0.33333333       0.25000000       0.25000000 </v>
   <v>       0.33333333       0.33333333       0.25000000 </v>
   <v>       0.00000000       0.00000000       0.33333333 </v>
   <v>       0.08333333       0.00000000       0.33333333 </v>
   <v>       0.16666667       0.00000000       0.33333333 </v>
   <v>       0.25000000       0.00000000       0.33333333 </v>
   <v>       0.33333333       0.00000000       0.33333333 </v>
   <v>       0.41666667       0.00000000       0.33333333 </v>
   <v>       0.50000000       0.00000000       0.33333333 </v>
   <v>       0.08333333       0.08333333       0.33333333 </v>
   <v>       0.16666667       0.08333333       0.33333333 </v>
   <v>       0.25000000       0.08333333       0.33333333 </v>
   <v>       0.33333333       0.08333333       0.33333333 </v>
   <v>       0.41666667       0.08333333       0.33333333 </v>
   <v>       0.16666667       0.16666667       0.33333333 </v>
   <v>       0.25000000       0.16666667       0.33333333 </v>
   <v>       0.33333333       0.16666667       0.33333333 </v>
   <v>       0.41666667       0.16666667       0.33333333 </v>
   <v>       0.25000000       0.25000000       0.33333333 </v>
   <v>       0.33333333       0.25000000       0.33333333 </v>
   <v>       0.33333333       0.33333333       0.33333333 </v>
   <v>       0.00000000       0.00000000       0.41666667 </v>
   <v>       0.08333333       0.00000000       0.41666667 </v>
   <v>       0.16666667       0.00000000       0.41666667 </v>
   <v>       0.25000000       0.00000000       0.41666667 </v>
   <v>       0.33333333       0.00000000       0.41666667 </v>
   <v>       0.41666667       0.00000000       0.41666667 </v>
   <v>       0.50000000       0.00000000       0.41666667 </v>
   <v>       0.08333333       0.08333333       0.41666667 </v>
   <v>       0.16666667       0.08333333       0.41666667 </v>
   <v>       0.25000000       0.08333333       0.41666667 </v>
   <v>       0.33333333       0.08333333       0.41666667 </v>
   <v>       0.41666667       0.08333333       0.41666667 </v>
   <v>       0.16666667       0.16666667       0.41666667 </v>
   <v>       0.25000000       0.16666667       0.41666667 </v>
   <v>       0.33333333       0.16666667       0.41666667 </v>
   <v>       0.41666667       0.16666667       0.41666667 </v>
   <v>       0.25000000       0.25000000       0.41666667 </v>
   <v>       0.33333333       0.25000000       0.41666667 </v>
   <v>       0.33333333       0.33333333       0.41666667 </v>
   <v>       0.00000000       0.00000000       0.50000000 </v>
   <v>       0.08333333       0.00000000       0.50000000 </v>
   <v>       0.16666667       0.00000000       0.50000000 </v>
   <v>       0.25000000       0.00000000       0.50000000 </v>
   <v>       0.33333333       0.00000000       0.50000000 </v>
   <v>       0.41666667       0.00000000       0.50000000 </v>
   <v>       0.50000000       0.00000000       0.50000000 </v>
   <v>       0.08333333       0.08333333       0.50000000 </v>
   <v>       0.16666667       0.08333333       0.50000000 </v>
   <v>       0.25000000       0.08333333       0.50000000 </v>
   <v>       0.33333333       0.08333333       0.50000000 </v>
   <v>       0.41666667       0.08333333       0.50000000 </v>
   <v>       0.16666667       0.16666667       0.50000000 </v>
   <v>       0.25000000       0.16666667       0.50000000 </v>
   <v>       0.33333333       0.16666667       0.50000000 </v>
   <v>       0.41666667       0.16666667       0.50000000 </v>
   <v>       0.25000000       0.25000000       0.50000000 </v>
   <v>       0.33333333       0.25000000       0.50000000 </v>
   <v>       0.33333333       0.33333333       0.50000000 </v>
  </varray>
  <varray name="weights" >
   <v>       0.00057870 </v>
   <v>       0.00347222 </v>
   <v>       0.00347222 </v>
   <v>       0.00347222 </v>
   <v>       0.00347222 </v>
   <v>       0.00347222 </v>
   <v>       0.00173611 </v>
   <v>       0.00347222 </v>
   <v>       0.00694444 </v>
   <v>       0.00694444 </v>
   <v>       0.00694444 </v>
   <v>       0.00694444 </v>
   <v>       0.00347222 </v>
   <v>       0.00694444 </v>
   <v>       0.00694444 </v>
   <v>       0.00347222 </v>
   <v>       0.00347222 </v>
   <v>       0.00694444 </v>
   <v>       0.00115741 </v>
   <v>       0.00115741 </v>
   <v>       0.00694444 </v>
   <v>       0.00694444 </v>
   <v>       0.00694444 </v>
   <v>       0.00694444 </v>
   <v>       0.00694444 </v>
   <v>       0.00347222 </v>
   <v>       0.00694444 </v>
   <v>       0.01388889 </v>
   <v>       0.01388889 </v>
   <v>       0.01388889 </v>
   <v>       0.01388889 </v>
   <v>       0.00694444 </v>
   <v>       0.01388889 </v>
   <v>       0.01388889 </v>
   <v>       0.00694444 </v>
   <v>       0.00694444 </v>
   <v>       0.01388889 </v>
   <v>       0.00231481 </v>
   <v>       0.00115741 </v>
   <v>       0.00694444 </v>
   <v>       0.00694444 </v>
   <v>       0.00694444 </v>
   <v>       0.00694444 </v>
   <v>       0.00694444 </v>
   <v>       0.00347222 </v>
   <v>       0.00694444 </v>
   <v>       0.01388889 </v>
   <v>       0.01388889 </v>
   <v>       0.01388889 </v>
   <v>       0.01388889 </v>
   <v>       0.00694444 </v>
   <v>       0.01388889 </v>
   <v>       0.01388889 </v>
   <v>       0.00694444 </v>
   <v>       0.00694444 </v>
   <v>       0.01388889 </v>
   <v>       0.00231481 </v>
   <v>       0.00115741 </v>
   <v>       0.00694444 </v>
   <v>       0.00694444 </v>
   <v>       0.00694444 </v>
   <v>       0.00694444 </v>
   <v>       0.00694444 </v>
   <v>       0.00347222 </v>
   <v>       0.00694444 </v>
   <v>       0.01388889 </v>
   <v>       0.01388889 </v>
   <v>       0.01388889 </v>
   <v>       0.01388889 </v>
   <v>       0.00694444 </v>
   <v>       0.01388889 </v>
   <v>       0.01388889 </v>
   <v>       0.00694444 </v>
   <v>       0.00694444 </v>
   <v>       0.01388889 </v>
   <v>       0.00231481 </v>
   <v>       0.00115741 </v>
   <v>       0.00694444 </v>
   <v>       0.00694444 </v>
   <v>       0.00694444 </v>
   <v>       0.00694444 </v>
   <v>       0.00694444 </v>
   <v>       0.00347222 </v>
   <v>       0.00694444 </v>
   <v>       0.01388889 </v>
   <v>       0.01388889 </v>
   <v>       0.01388889 </v>
   <v>       0.01388889 </v>
   <v>       0.00694444 </v>
   <v>       0.01388889 </v>
   <v>       0.01388889 </v>
   <v>       0.00694444 </v>
   <v>       0.00694444 </v>
   <v>       0.01388889 </v>
   <v>       0.00231481 </v>
   <v>       0.00115741 </v>
   <v>       0.00694444 </v>
   <v>       0.00694444 </v>
   <v>       0.00694444 </v>
   <v>       0.00694444 </v>
   <v>       0.00694444 </v>
   <v>       0.00347222 </v>
   <v>       0.00694444 </v>
   <v>       0.01388889 </v>
   <v>       0.01388889 </v>
   <v>       0.01388889 </v>
   <v>       0.01388889 </v>
   <v>       0.00694444 </v>
   <v>       0.01388889 </v>
   <v>       0.01388889 </v>
   <v>       0.00694444 </v>
   <v>       0.00694444 </v>
   <v>       0.01388889 </v>
   <v>       0.00231481 </v>
   <v>       0.00057870 </v>
   <v>       0.00347222 </v>
   <v>       0.00347222 </v>
   <v>       0.00347222 </v>
   <v>       0.00347222 </v>
   <v>       0.00347222 </v>
   <v>       0.00173611 </v>
   <v>       0.00347222 </v>
   <v>       0.00694444 </v>
   <v>       0.00694444 </v>
   <v>       0.00694444 </v>
   <v>       0.00694444 </v>
   <v>       0.00347222 </v>
   <v>       0.00694444 </v>
   <v>       0.00694444 </v>
   <v>       0.00347222 </v>
   <v>       0.00347222 </v>
   <v>       0.00694444 </v>
   <v>       0.00115741 </v>
  </varray>
 </kpoints>
 <parameters>
  <separator name="general" >
   <i type="string" name="SYSTEM">unknown system</i>
   <i type="logical" name="LCOMPAT"> F  </i>
  </separator>
  <separator name="electronic" >
   <i type="string" name="PREC">accura</i>
   <i name="ENMAX">    350.00000000</i>
   <i name="ENAUG">    644.87300000</i>
   <i name="EDIFF">      0.00010000</i>
   <i type="int" name="IALGO">    38</i>
   <i type="int" name="IWAVPR">    10</i>
   <i type="int" name="NBANDS">    14</i>
   <i name="NELECT">     16.00000000</i>
   <i type="int" name="TURBO">     0</i>
   <i type="int" name="IRESTART">     0</i>
   <i type="int" name="NREBOOT">     0</i>
   <i type="int" name="NMIN">     0</i>
   <i name="EREF">      0.00000000</i>
   <separator name="electronic smearing" >
    <i type="int" name="ISMEAR">     1</i>
    <i name="SIGMA">      0.05000000</i>
    <i name="KSPACING">      0.50000000</i>
    <i type="logical" name="KGAMMA"> T  </i>
   </separator>
   <separator name="electronic projectors" >
    <i type="logical" name="LREAL"> F  </i>
    <v name="ROPT">      0.00000000</v>
    <i type="int" name="LMAXPAW">  -100</i>
    <i type="int" name="LMAXMIX">     2</i>
    <i type="logical" name="NLSPLINE"> F  </i>
   </separator>
   <separator name="electronic startup" >
    <i type="int" name="ISTART">     0</i>
    <i type="int" name="ICHARG">     2</i>
    <i type="int" name="INIWAV">     1</i>
   </separator>
   <separator name="electronic spin" >
    <i type="int" name="ISPIN">     2</i>
    <i type="logical" name="LNONCOLLINEAR"> F  </i>
    <v name="MAGMOM">      1.00000000      1.00000000      1.00000000      1.00000000</v>
    <i name="NUPDOWN">     -1.00000000</i>
    <i type="logical" name="LSORBIT"> F  </i>
    <v name="SAXIS">      0.00000000      0.00000000      1.00000000</v>
    <i type="logical" name="LSPIRAL"> F  </i>
    <v name="QSPIRAL">      0.00000000      0.00000000      0.00000000</v>
    <i type="logical" name="LZEROZ"> F  </i>
   </separator>
   <separator name="electronic exchange-correlation" >
    <i type="logical" name="LASPH"> F  </i>
    <i type="logical" name="LMETAGGA"> F  </i>
   </separator>
   <separator name="electronic convergence" >
    <i type="int" name="NELM">    60</i>
    <i type="int" name="NELMDL">    -5</i>
    <i type="int" name="NELMIN">     2</i>
    <i name="ENINI">    350.00000000</i>
    <separator name="electronic convergence detail" >
     <i type="logical" name="LDIAG"> T  </i>
     <i type="logical" name="LSUBROT"> T  </i>
     <i name="WEIMIN">      0.00000000</i>
     <i name="EBREAK">      0.00000179</i>
     <i name="DEPER">      0.30000000</i>
     <i type="int" name="NRMM">     4</i>
     <i name="TIME">      0.40000000</i>
    </separator>
   </separator>
   <separator name="electronic mixer" >
    <i name="AMIX">      0.40000000</i>
    <i name="BMIX">      1.00000000</i>
    <i name="AMIN">      0.10000000</i>
    <i name="AMIX_MAG">      1.60000000</i>
    <i name="BMIX_MAG">      1.00000000</i>
    <separator name="electronic mixer details" >
     <i type="int" name="IMIX">     4</i>
     <i type="int" name="MAXMIX">   -45</i>
     <i name="WC">    100.00000000</i>
     <i type="int" name="INIMIX">     1</i>
     <i type="int" name="MIXPRE">     1</i>
     <i type="int" name="MREMOVE">     5</i>
    </separator>
   </separator>
   <separator name="electronic dipolcorrection" >
    <i type="logical" name="LDIPOL"> F  </i>
    <i type="logical" name="LMONO"> F  </i>
    <i type="int" name="IDIPOL">     0</i>
    <i name="EPSILON">      1.00000000</i>
    <v name="DIPOL">   -100.00000000   -100.00000000   -100.00000000</v>
    <i name="EFIELD">      0.00000000</i>
   </separator>
  </separator>
  <separator name="grids" >
   <i type="int" name="NGX">    16</i>
   <i type="int" name="NGY">    16</i>
   <i type="int" name="NGZ">    42</i>
   <i type="int" name="NGXF">    32</i>
   <i type="int" name="NGYF">    32</i>
   <i type="int" name="NGZF">    84</i>
   <i type="logical" name="ADDGRID"> F  </i>
  </separator>
  <separator name="ionic" >
   <i type="int" name="NSW">     0</i>
   <i type="int" name="IBRION">    -1</i>
   <i type="int" name="ISIF">     2</i>
   <i name="PSTRESS">      0.00000000</i>
   <i name="EDIFFG">      0.00100000</i>
   <i type="int" name="NFREE">     0</i>
   <i name="POTIM">      0.50000000</i>
   <i name="SMASS">     -3.00000000</i>
   <i name="SCALEE">      1.00000000</i>
  </separator>
  <separator name="ionic md" >
   <i name="TEBEG">      0.00010000</i>
   <i name="TEEND">      0.00010000</i>
   <i type="int" name="NBLOCK">     1</i>
   <i type="int" name="KBLOCK">     1</i>
   <i type="int" name="NPACO">   256</i>
   <i name="APACO">     16.00000000</i>
  </separator>
  <separator name="symmetry" >
   <i type="int" name="ISYM">     2</i>
   <i name="SYMPREC">      0.00001000</i>
  </separator>
  <separator name="dos" >
   <i type="logical" name="LORBIT"> F  </i>
   <v name="RWIGS">     -1.00000000</v>
   <i type="int" name="NEDOS">   301</i>
   <i name="EMIN">     10.00000000</i>
   <i name="EMAX">    -10.00000000</i>
   <i name="EFERMI">      0.00000000</i>
  </separator>
  <separator name="writing" >
   <i type="int" name="NWRITE">     2</i>
   <i type="logical" name="LWAVE"> T  </i>
   <i type="logical" name="LCHARG"> T  </i>
   <i type="logical" name="LPARD"> F  </i>
   <i type="logical" name="LVTOT"> F  </i>
   <i type="logical" name="LVHAR"> F  </i>
   <i type="logical" name="LELF"> F  </i>
   <i type="logical" name="LOPTICS"> F  </i>
   <v name="STM">      0.00000000      0.00000000      0.00000000      0.00000000      0.00000000      0.00000000      0.00000000</v>
  </separator>
  <separator name="performance" >
   <i type="int" name="NPAR">     1</i>
   <i type="int" name="NSIM">     4</i>
   <i type="int" name="NBLK">    -1</i>
   <i type="logical" name="LPLANE"> T  </i>
   <i type="logical" name="LSCALAPACK"> F  </i>
   <i type="logical" name="LSCAAWARE"> F  </i>
   <i type="logical" name="LSCALU"> F  </i>
   <i type="logical" name="LASYNC"> F  </i>
   <i type="logical" name="LORBITALREAL"> F  </i>
  </separator>
  <separator name="miscellaneous" >
   <i type="int" name="IDIOT">     3</i>
   <i type="logical" name="LMUSIC"> F  </i>
   <v name="POMASS">     12.01100000</v>
   <v name="DARWINR">      0.00000000</v>
   <v name="DARWINV">      1.00000000</v>
   <i type="logical" name="LCORR"> T  </i>
  </separator>
  <i type="logical" name="GGA_COMPAT"> T  </i>
  <i type="logical" name="LBERRY"> F  </i>
  <i type="int" name="ICORELEVEL">     0</i>
  <i type="logical" name="LDAU"> F  </i>
  <i type="int" name="I_CONSTRAINED_M">     0</i>
  <separator name="electronic exchange-correlation" >
   <i type="string" name="GGA">--</i>
   <i type="int" name="VOSKOWN">     0</i>
   <i type="logical" name="LHFCALC"> F  </i>
   <i type="string" name="PRECFOCK"></i>
   <i type="logical" name="LHFONE"> F  </i>
   <i type="logical" name="LRHFCALC"> F  </i>
   <i type="logical" name="LTHOMAS"> F  </i>
   <i type="logical" name="LMODELHF"> F  </i>
   <i name="ENCUT4O">     -1.00000000</i>
   <i type="int" name="EXXOEP">     0</i>
   <i type="int" name="FOURORBIT">     0</i>
   <i name="AEXX">      0.00000000</i>
   <i name="HFALPHA">      0.00000000</i>
   <i name="ALDAX">      1.00000000</i>
   <i name="AGGAX">      1.00000000</i>
   <i name="ALDAC">      1.00000000</i>
   <i name="AGGAC">      1.00000000</i>
   <i type="int" name="NKREDX">     1</i>
   <i type="int" name="NKREDY">     1</i>
   <i type="int" name="NKREDZ">     1</i>
   <i type="logical" name="SHIFTRED"> F  </i>
   <i type="logical" name="ODDONLY"> F  </i>
   <i type="logical" name="EVENONLY"> F  </i>
   <i type="int" name="LMAXFOCK">     0</i>
   <i type="int" name="NMAXFOCKAE">     0</i>
   <i type="logical" name="LFOCKAEDFT"> F  </i>
   <i name="HFSCREEN">      0.00000000</i>
   <i name="HFSCREENC">      0.00000000</i>
  </separator>
  <separator name="vdW DFT" >
   <i type="logical" name="LUSE_VDW"> F  </i>
   <i name="Zab_VDW">     -0.84910000</i>
   <i name="PARAM1">      0.12340000</i>
   <i name="PARAM2">      1.00000000</i>
   <i name="PARAM3">      0.00000000</i>
  </separator>
  <separator name="model GW" >
   <i type="int" name="MODEL_GW">     0</i>
   <i name="MODEL_EPS0">      5.27839982</i>
   <i name="MODEL_ALPHA">      1.00000000</i>
  </separator>
  <separator name="linear response parameters" >
   <i type="logical" name="LEPSILON"> F  </i>
   <i type="logical" name="LRPA"> F  </i>
   <i type="logical" name="LNABLA"> F  </i>
   <i type="logical" name="LVEL"> F  </i>
   <i type="int" name="KINTER">     0</i>
   <i name="CSHIFT">      0.10000000</i>
   <i name="OMEGAMAX">     -1.00000000</i>
  </separator>
  <separator name="orbital magnetization" >
   <i type="logical" name="NUCIND"> F  </i>
   <v name="MAGPOS">      0.00000000      0.00000000      0.00000000</v>
   <i type="logical" name="LNICSALL"> T  </i>
   <i type="logical" name="ORBITALMAG"> F  </i>
   <i type="logical" name="LMAGBLOCH"> F  </i>
   <i type="logical" name="LCHIMAG"> F  </i>
   <i type="logical" name="LGAUGE"> T  </i>
   <i type="int" name="MAGATOM">     0</i>
   <v name="MAGDIPOL">      0.00000000      0.00000000      0.00000000</v>
   <v name="AVECCONST">      0.00000000      0.00000000      0.00000000</v>
  </separator>
  <separator name="response functions" >
   <i type="logical" name="LADDER"> F  </i>
   <i type="logical" name="LHARTREE"> T  </i>
   <i type="int" name="IBSE">     0</i>
   <i type="logical" name="LTCTE"> F  </i>
   <i type="logical" name="LTETE"> F  </i>
   <i type="logical" name="LFXCEPS"> F  </i>
   <i type="logical" name="L2ORDER"> F  </i>
   <i type="logical" name="LUSEW"> F  </i>
   <i name="ENCUTGW">     -2.00000000</i>
   <i name="ENCUTGWSOFT">     -2.00000000</i>
   <i name="ENCUTLF">     -1.00000000</i>
   <i type="int" name="LMAXMP2">    -1</i>
   <i name="SCISSOR">      0.00000000</i>
   <i type="int" name="NOMEGA">     0</i>
   <i type="int" name="NOMEGAR">     0</i>
   <i type="int" name="NBANDSGW">    -1</i>
   <i type="int" name="NBANDSO">    -1</i>
   <i type="int" name="NBANDSV">    -1</i>
   <i name="OPTEMAX">      0.00000000</i>
   <i type="int" name="NELM">     1</i>
   <i type="int" name="DIM">     3</i>
   <i type="int" name="ANTIRES">     0</i>
   <i name="OMEGAMAX">    -30.00000000</i>
   <i name="OMEGATL">   -200.00000000</i>
   <i type="int" name="OMEGAGRID">     0</i>
   <i name="CSHIFT">     -0.10000000</i>
   <i type="logical" name="SELFENERGY"> F  </i>
   <i type="logical" name="LSPECTRAL"> F  </i>
   <i type="logical" name="ODDONLYGW"> F  </i>
   <i type="logical" name="EVENONLYGW"> F  </i>
   <i type="int" name="NKREDLFX">     1</i>
   <i type="int" name="NKREDLFY">     1</i>
   <i type="int" name="NKREDLFZ">     1</i>
   <i type="int" name="MAXMEM">  1800</i>
   <i type="int" name="TELESCOPE">     0</i>
  </separator>
 </parameters>
 <atominfo>
  <atoms>       4 </atoms>
  <types>       1 </types>
  <array name="atoms" >
   <dimension dim="1">ion</dimension>
   <field type="string">element</field>
   <field type="int">atomtype</field>
   <set>
    <rc><c>C </c><c>   1</c></rc>
    <rc><c>C </c><c>   1</c></rc>
    <rc><c>C </c><c>   1</c></rc>
    <rc><c>C </c><c>   1</c></rc>
   </set>
  </array>
  <array name="atomtypes" >
   <dimension dim="1">type</dimension>
   <field type="int">atomspertype</field>
   <field type="string">element</field>
   <field>mass</field>
   <field>valence</field>
   <field type="string">pseudopotential</field>
   <set>
    <rc><c>   4</c><c>C </c><c>     12.01100000</c><c>      4.00000000</c><c> PAW_PBE C 08Apr2002                    </c></rc>
   </set>
  </array>
 </atominfo>
 <structure name="initialpos" >
  <crystal>
   <varray name="basis" >
    <v>       2.46120000       0.00000000       0.00000000 </v>
    <v>      -1.23060000       2.13146172       0.00000000 </v>
    <v>       0.00000000       0.00000000       6.70790000 </v>
   </varray>
   <i name="volume">     35.18933212 </i>
   <varray name="rec_basis" >
    <v>       0.40630587       0.23458080       0.00000000 </v>
    <v>       0.00000000       0.46916160       0.00000000 </v>
    <v>       0.00000000       0.00000000       0.14907795 </v>
   </varray>
  </crystal>
  <varray name="positions" >
   <v>       0.00000000       0.00000000       0.00000000 </v>
   <v>       0.33333333       0.66666667       0.00000000 </v>
   <v>       0.33333333       0.66666667       0.50000000 </v>
   <v>       0.66666667       0.33333333       0.50000000 </v>
  </varray>
 </structure>
 <calculation>
  <scstep>
   <time name="dav">   14.44   14.45</time>
   <time name="total">   14.81   14.82</time>
   <energy>
    <i name="alphaZ">     37.04766603 </i>
    <i name="ewald">   -460.60042082 </i>
    <i name="hartreedc">   -148.78490797 </i>
    <i name="XCdc">     56.10990993 </i>
    <i name="pawpsdc">    150.95130483 </i>
    <i name="pawaedc">   -155.51722924 </i>
    <i name="eentropy">      0.00006498 </i>
    <i name="bandstr">    -44.39619374 </i>
    <i name="atom">    588.28246388 </i>
    <i name="e_fr_energy">     23.09265788 </i>
    <i name="e_wo_entrp">     23.09259290 </i>
    <i name="e_0_energy">     23.09263622 </i>
   </energy>
  </scstep>
  <scstep>
   <time name="dav">   18.19   18.20</time>
   <time name="total">   18.21   18.28</time>
   <energy>
    <i name="e_fr_energy">    -35.34873203 </i>
    <i name="e_wo_entrp">    -35.34876900 </i>
    <i name="e_0_energy">    -35.34874435 </i>
   </energy>
  </scstep>
  <scstep>
   <time name="dav">   17.30   17.32</time>
   <time name="total">   17.33   17.36</time>
   <energy>
    <i name="e_fr_energy">    -37.58646931 </i>
    <i name="e_wo_entrp">    -37.58652394 </i>
    <i name="e_0_energy">    -37.58648752 </i>
   </energy>
  </scstep>
  <scstep>
   <time name="dav">   16.55   16.55</time>
   <time name="total">   16.57   16.59</time>
   <energy>
    <i name="e_fr_energy">    -37.60699383 </i>
    <i name="e_wo_entrp">    -37.60704722 </i>
    <i name="e_0_energy">    -37.60701163 </i>
   </energy>
  </scstep>
  <scstep>
   <time name="dav">   17.50   17.50</time>
   <time name="total">   18.68   18.70</time>
   <energy>
    <i name="e_fr_energy">    -37.60740782 </i>
    <i name="e_wo_entrp">    -37.60746118 </i>
    <i name="e_0_energy">    -37.60742561 </i>
   </energy>
  </scstep>
  <scstep>
   <time name="dav">   14.89   14.90</time>
   <time name="total">   16.41   16.43</time>
   <energy>
    <i name="e_fr_energy">    -36.89886756 </i>
    <i name="e_wo_entrp">    -36.89884353 </i>
    <i name="e_0_energy">    -36.89885955 </i>
   </energy>
  </scstep>
  <scstep>
   <time name="dav">   15.43   15.43</time>
   <time name="total">   16.93   16.95</time>
   <energy>
    <i name="e_fr_energy">    -36.94922289 </i>
    <i name="e_wo_entrp">    -36.94916679 </i>
    <i name="e_0_energy">    -36.94920419 </i>
   </energy>
  </scstep>
  <scstep>
   <time name="dav">   16.22   16.26</time>
   <time name="total">   17.73   17.77</time>
   <energy>
    <i name="e_fr_energy">    -36.89403142 </i>
    <i name="e_wo_entrp">    -36.89388916 </i>
    <i name="e_0_energy">    -36.89398400 </i>
   </energy>
  </scstep>
  <scstep>
   <time name="dav">   15.25   15.25</time>
   <time name="total">   16.76   16.78</time>
   <energy>
    <i name="e_fr_energy">    -36.90553054 </i>
    <i name="e_wo_entrp">    -36.90522464 </i>
    <i name="e_0_energy">    -36.90542858 </i>
   </energy>
  </scstep>
  <scstep>
   <time name="dav">   16.65   16.66</time>
   <time name="total">   18.16   18.18</time>
   <energy>
    <i name="e_fr_energy">    -36.90609586 </i>
    <i name="e_wo_entrp">    -36.90582316 </i>
    <i name="e_0_energy">    -36.90600496 </i>
   </energy>
  </scstep>
  <scstep>
   <time name="dav">   15.37   15.37</time>
   <time name="total">   16.88   16.89</time>
   <energy>
    <i name="e_fr_energy">    -36.90630504 </i>
    <i name="e_wo_entrp">    -36.90604894 </i>
    <i name="e_0_energy">    -36.90621968 </i>
   </energy>
  </scstep>
  <scstep>
   <time name="dav">   13.50   13.51</time>
   <time name="total">   13.87   13.88</time>
   <energy>
    <i name="alphaZ">     37.04766603 </i>
    <i name="ewald">   -460.60042082 </i>
    <i name="hartreedc">   -183.48004081 </i>
    <i name="XCdc">     57.69088929 </i>
    <i name="pawpsdc">    281.11501485 </i>
    <i name="pawaedc">   -286.19869493 </i>
    <i name="eentropy">     -0.00024453 </i>
    <i name="bandstr">    -70.76299167 </i>
    <i name="atom">    588.28246388 </i>
    <i name="e_fr_energy">    -36.90635872 </i>
    <i name="e_wo_entrp">    -36.90611418 </i>
    <i name="e_0_energy">    -36.90627720 </i>
   </energy>
  </scstep>
  <parameters_embedded>
   <separator name="dft+d2" >
    <i type="logical" name="LVDW"> F  </i>
   </separator>
  </parameters_embedded>
  <structure>
   <crystal>
    <varray name="basis" >
     <v>       2.46120000       0.00000000       0.00000000 </v>
     <v>      -1.23060000       2.13146172       0.00000000 </v>
     <v>       0.00000000       0.00000000       6.70790000 </v>
    </varray>
    <i name="volume">     35.18933212 </i>
    <varray name="rec_basis" >
     <v>       0.40630587       0.23458080       0.00000000 </v>
     <v>       0.00000000       0.46916160       0.00000000 </v>
     <v>       0.00000000       0.00000000       0.14907795 </v>
    </varray>
   </crystal>
   <varray name="positions" >
    <v>       0.00000000       0.00000000       0.00000000 </v>
    <v>       0.33333333       0.66666667       0.00000000 </v>
    <v>       0.33333333       0.66666667       0.50000000 </v>
    <v>       0.66666667       0.33333333       0.50000000 </v>
   </varray>
  </structure>
  <varray name="forces" >
   <v>       0.00000000       0.00000000       0.00000000 </v>
   <v>       0.00000000       0.00000000       0.00000000 </v>
   <v>       0.00000000       0.00000000       0.00000000 </v>
   <v>       0.00000000       0.00000000       0.00000000 </v>
  </varray>
  <varray name="stress" >
   <v>     -25.77073693       0.00000000       0.00000000 </v>
   <v>       0.00000000     -25.77073693       0.00000000 </v>
   <v>       0.00000000       0.00000000     -44.04779840 </v>
  </varray>
  <energy>
   <i name="e_fr_energy">    -36.90635872 </i>
   <i name="e_wo_entrp">    -36.90627720 </i>
   <i name="e_0_energy">     -0.00024453 </i>
  </energy>
  <time name="totalsc">  207.64  208.16</time>
  <eigenvalues>
   <array>
    <dimension dim="1">band</dimension>
    <dimension dim="2">kpoint</dimension>
    <dimension dim="3">spin</dimension>
    <field>eigene</field>
    <field>occ</field>
    <set>
     <set comment="spin 1">
      <set comment="kpoint 1">
       <r>  -14.9883    1.0000 </r>
       <r>  -14.6892    1.0000 </r>
       <r>   -3.8280    1.0000 </r>
       <r>   -1.8716    1.0000 </r>
       <r>    1.7237    1.0000 </r>
       <r>    1.7238    1.0000 </r>
       <r>    1.7284    1.0000 </r>
       <r>    1.7285    1.0000 </r>
       <r>    8.9831    0.0000 </r>
       <r>   13.1436    0.0000 </r>
       <r>   13.1436    0.0000 </r>
       <r>   13.2067    0.0000 </r>
       <r>   13.2067    0.0000 </r>
       <r>   15.3202    0.0000 </r>
      </set>
      <set comment="kpoint 2">
       <r>  -14.8224    1.0000 </r>
       <r>  -14.5259    1.0000 </r>
       <r>   -3.6262    1.0000 </r>
       <r>   -1.6851    1.0000 </r>
       <r>    1.0477    1.0000 </r>
       <r>    1.0780    1.0000 </r>
       <r>    1.3601    1.0000 </r>
       <r>    1.3915    1.0000 </r>
       <r>    9.1836    0.0000 </r>
       <r>   13.1833    0.0000 </r>
       <r>   13.2598    0.0000 </r>
       <r>   13.8433    0.0000 </r>
       <r>   13.8856    0.0000 </r>
       <r>   15.4603    0.0000 </r>
      </set>
      <set comment="kpoint 3">
       <r>  -14.3254    1.0000 </r>
       <r>  -14.0379    1.0000 </r>
       <r>   -3.0243    1.0000 </r>
       <r>   -1.1250    1.0000 </r>
       <r>   -0.6170    1.0000 </r>
       <r>   -0.5542    1.0000 </r>
       <r>    0.5559    1.0000 </r>
       <r>    0.5998    1.0000 </r>
       <r>    9.7889    0.0000 </r>
       <r>   13.0716    0.0000 </r>
       <r>   13.2431    0.0000 </r>
       <r>   13.9913    0.0000 </r>
       <r>   14.4003    0.0000 </r>
       <r>   15.7162    0.0000 </r>
      </set>
      <set comment="kpoint 4">
       <r>  -13.5037    1.0000 </r>
       <r>  -13.2305    1.0000 </r>
       <r>   -2.7422    1.0000 </r>
       <r>   -2.6391    1.0000 </r>
       <r>   -2.0420    1.0000 </r>
       <r>   -0.3299    1.0000 </r>
       <r>   -0.2795    1.0000 </r>
       <r>   -0.2161    1.0000 </r>
       <r>   10.7918    0.0000 </r>
       <r>   11.7434    0.0000 </r>
       <r>   12.3921    0.0000 </r>
       <r>   12.7320    0.0000 </r>
       <r>   13.0199    0.0000 </r>
       <r>   16.6315    0.0000 </r>
      </set>
      <set comment="kpoint 5">
       <r>  -12.3695    1.0000 </r>
       <r>  -12.1167    1.0000 </r>
       <r>   -4.9770    1.0000 </r>
       <r>   -4.8438    1.0000 </r>
       <r>   -1.0707    1.0000 </r>
       <r>   -1.0152    1.0000 </r>
       <r>   -0.7127    1.0000 </r>
       <r>    0.9795    1.0000 </r>
       <r>    9.2642    0.0000 </r>
       <r>   10.1759    0.0000 </r>
       <r>   12.0961    0.0000 </r>
       <r>   12.3825    0.0000 </r>
       <r>   12.7679    0.0000 </r>
       <r>   17.5129    0.0000 </r>
      </set>
      <set comment="kpoint 6">
       <r>  -10.9536    1.0000 </r>
       <r>  -10.7277    1.0000 </r>
       <r>   -7.1027    1.0000 </r>
       <r>   -6.9389    1.0000 </r>
       <r>   -1.5481    1.0000 </r>
       <r>   -1.4949    1.0000 </r>
       <r>    0.8403    1.0000 </r>
       <r>    2.2006    1.0000 </r>
       <r>    7.1040    0.0000 </r>
       <r>    8.0927    0.0000 </r>
       <r>   12.0619    0.0000 </r>
       <r>   12.4332    0.0000 </r>
       <r>   14.0274    0.0000 </r>
       <r>   18.2498    0.0000 </r>
      </set>
      <set comment="kpoint 7">
       <r>   -9.6318    1.0000 </r>
       <r>   -9.5227    1.0000 </r>
       <r>   -8.5687    1.0000 </r>
       <r>   -8.4868    1.0000 </r>
       <r>   -1.7122    1.0000 </r>
       <r>   -1.6549    1.0000 </r>
       <r>    1.9399    1.0000 </r>
       <r>    2.6241    1.0000 </r>
       <r>    6.2492    0.0000 </r>
       <r>    6.9047    0.0000 </r>
       <r>   11.9677    0.0000 </r>
       <r>   12.3663    0.0000 </r>
       <r>   16.0271    0.0000 </r>
       <r>   16.1462    0.0000 </r>
      </set>
      <set comment="kpoint 8">
       <r>  -14.4907    1.0000 </r>
       <r>  -14.2002    1.0000 </r>
       <r>   -3.2237    1.0000 </r>
       <r>   -1.3099    1.0000 </r>
       <r>    0.0075    1.0000 </r>
       <r>    0.0366    1.0000 </r>
       <r>    0.6834    1.0000 </r>
       <r>    0.7042    1.0000 </r>
       <r>    9.5883    0.0000 </r>
       <r>   13.4773    0.0000 </r>
       <r>   13.5690    0.0000 </r>
       <r>   14.5262    0.0000 </r>
       <r>   14.7236    0.0000 </r>
       <r>   14.7898    0.0000 </r>
      </set>
      <set comment="kpoint 9">
       <r>  -13.8315    1.0000 </r>
       <r>  -13.5526    1.0000 </r>
       <r>   -2.4310    1.0000 </r>
       <r>   -1.7298    1.0000 </r>
       <r>   -1.6593    1.0000 </r>
       <r>   -0.5740    1.0000 </r>
       <r>   -0.3292    1.0000 </r>
       <r>   -0.2889    1.0000 </r>
       <r>   10.3976    0.0000 </r>
       <r>   12.6848    0.0000 </r>
       <r>   13.1482    0.0000 </r>
       <r>   13.5449    0.0000 </r>
       <r>   13.7692    0.0000 </r>
       <r>   16.2203    0.0000 </r>
      </set>
      <set comment="kpoint 10">
       <r>  -12.8532    1.0000 </r>
       <r>  -12.5921    1.0000 </r>
       <r>   -3.8350    1.0000 </r>
       <r>   -3.7257    1.0000 </r>
       <r>   -1.2712    1.0000 </r>
       <r>   -1.2288    1.0000 </r>
       <r>   -1.1703    1.0000 </r>
       <r>    0.4832    1.0000 </r>
       <r>   10.3863    0.0000 </r>
       <r>   11.1007    0.0000 </r>
       <r>   11.5975    0.0000 </r>
       <r>   13.2352    0.0000 </r>
       <r>   13.5750    0.0000 </r>
       <r>   16.9986    0.0000 </r>
      </set>
      <set comment="kpoint 11">
       <r>  -11.5755    1.0000 </r>
       <r>  -11.3377    1.0000 </r>
       <r>   -5.9883    1.0000 </r>
       <r>   -5.8409    1.0000 </r>
       <r>   -1.8692    1.0000 </r>
       <r>   -1.8069    1.0000 </r>
       <r>    0.1942    1.0000 </r>
       <r>    1.7521    1.0000 </r>
       <r>    8.0627    0.0000 </r>
       <r>    8.9770    0.0000 </r>
       <r>   12.8589    0.0000 </r>
       <r>   13.1005    0.0000 </r>
       <r>   13.4427    0.0000 </r>
       <r>   17.7370    0.0000 </r>
      </set>
      <set comment="kpoint 12">
       <r>  -10.0687    1.0000 </r>
       <r>   -9.8721    1.0000 </r>
       <r>   -7.9458    1.0000 </r>
       <r>   -7.7851    1.0000 </r>
       <r>   -2.2001    1.0000 </r>
       <r>   -2.1345    1.0000 </r>
       <r>    1.7138    1.0000 </r>
       <r>    2.7148    1.0000 </r>
       <r>    6.4266    0.0000 </r>
       <r>    7.1921    0.0000 </r>
       <r>   12.7102    0.0000 </r>
       <r>   13.1188    0.0000 </r>
       <r>   15.1465    0.0000 </r>
       <r>   17.2351    0.0000 </r>
      </set>
      <set comment="kpoint 13">
       <r>  -13.0157    1.0000 </r>
       <r>  -12.7518    1.0000 </r>
       <r>   -3.0605    1.0000 </r>
       <r>   -3.0042    1.0000 </r>
       <r>   -1.7019    1.0000 </r>
       <r>   -1.6619    1.0000 </r>
       <r>   -1.4575    1.0000 </r>
       <r>    0.3179    1.0000 </r>
       <r>   10.9175    0.0000 </r>
       <r>   11.4091    0.0000 </r>
       <r>   11.4129    0.0000 </r>
       <r>   14.7259    0.0000 </r>
       <r>   14.9634    0.0000 </r>
       <r>   16.3225    0.0000 </r>
      </set>
      <set comment="kpoint 14">
       <r>  -11.8917    1.0000 </r>
       <r>  -11.6487    1.0000 </r>
       <r>   -4.8196    1.0000 </r>
       <r>   -4.7164    1.0000 </r>
       <r>   -2.7790    1.0000 </r>
       <r>   -2.7084    1.0000 </r>
       <r>   -0.1441    1.0000 </r>
       <r>    1.4947    1.0000 </r>
       <r>    8.8856    0.0000 </r>
       <r>    9.5144    0.0000 </r>
       <r>   12.8015    0.0000 </r>
       <r>   14.8411    0.0000 </r>
       <r>   15.2856    0.0000 </r>
       <r>   17.4769    0.0000 </r>
      </set>
      <set comment="kpoint 15">
       <r>  -10.4951    1.0000 </r>
       <r>  -10.2804    1.0000 </r>
       <r>   -6.7642    1.0000 </r>
       <r>   -6.6158    1.0000 </r>
       <r>   -3.3668    1.0000 </r>
       <r>   -3.2772    1.0000 </r>
       <r>    1.4062    1.0000 </r>
       <r>    2.7455    1.0000 </r>
       <r>    6.9308    0.0000 </r>
       <r>    7.6751    0.0000 </r>
       <r>   14.4581    0.0000 </r>
       <r>   14.6412    0.0000 </r>
       <r>   15.1360    0.0000 </r>
       <r>   17.2003    0.0000 </r>
      </set>
      <set comment="kpoint 16">
       <r>   -9.2064    1.0000 </r>
       <r>   -9.1005    1.0000 </r>
       <r>   -8.1647    1.0000 </r>
       <r>   -8.0899    1.0000 </r>
       <r>   -3.5550    1.0000 </r>
       <r>   -3.4585    1.0000 </r>
       <r>    2.5443    1.0000 </r>
       <r>    3.2119    1.0000 </r>
       <r>    6.1780    0.0000 </r>
       <r>    6.4639    0.0000 </r>
       <r>   14.4759    0.0000 </r>
       <r>   15.0121    0.0000 </r>
       <r>   16.3914    0.0000 </r>
       <r>   16.5555    0.0000 </r>
      </set>
      <set comment="kpoint 17">
       <r>  -10.6446    1.0000 </r>
       <r>  -10.4258    1.0000 </r>
       <r>   -5.8468    1.0000 </r>
       <r>   -5.7700    1.0000 </r>
       <r>   -4.2639    1.0000 </r>
       <r>   -4.2050    1.0000 </r>
       <r>    1.2894    1.0000 </r>
       <r>    2.7301    1.0000 </r>
       <r>    7.2649    0.0000 </r>
       <r>    7.8718    0.0000 </r>
       <r>   14.3368    0.0000 </r>
       <r>   16.6563    0.0000 </r>
       <r>   16.6719    0.0000 </r>
       <r>   16.8916    0.0000 </r>
      </set>
      <set comment="kpoint 18">
       <r>   -9.1969    1.0000 </r>
       <r>   -9.0171    1.0000 </r>
       <r>   -7.2998    1.0000 </r>
       <r>   -7.1751    1.0000 </r>
       <r>   -4.9957    1.0000 </r>
       <r>   -4.8994    1.0000 </r>
       <r>    2.8353    1.0000 </r>
       <r>    3.8420    1.0000 </r>
       <r>    5.8100    0.0000 </r>
       <r>    6.3555    0.0000 </r>
       <r>   16.0438    0.0000 </r>
       <r>   16.2848    0.0000 </r>
       <r>   16.4373    0.0000 </r>
       <r>   16.5472    0.0000 </r>
      </set>
      <set comment="kpoint 19">
       <r>   -7.9772    1.0000 </r>
       <r>   -7.8859    1.0000 </r>
       <r>   -7.8859    1.0000 </r>
       <r>   -7.7852    1.0000 </r>
       <r>   -5.8489    1.0000 </r>
       <r>   -5.8489    1.0000 </r>
       <r>    4.0870    1.0000 </r>
       <r>    4.6864    0.9890 </r>
       <r>    4.6864    0.9890 </r>
       <r>    5.4588    0.0000 </r>
       <r>   15.8672    0.0000 </r>
       <r>   15.8672    0.0000 </r>
       <r>   17.0039    0.0000 </r>
       <r>   17.3012    0.0000 </r>
      </set>
      <set comment="kpoint 20">
       <r>  -14.9837    1.0000 </r>
       <r>  -14.6947    1.0000 </r>
       <r>   -3.8000    1.0000 </r>
       <r>   -1.9152    1.0000 </r>
       <r>    1.7125    1.0000 </r>
       <r>    1.7125    1.0000 </r>
       <r>    1.7240    1.0000 </r>
       <r>    1.7241    1.0000 </r>
       <r>    9.0689    0.0000 </r>
       <r>   13.1356    0.0000 </r>
       <r>   13.1356    0.0000 </r>
       <r>   13.1820    0.0000 </r>
       <r>   13.1820    0.0000 </r>
       <r>   15.1410    0.0000 </r>
      </set>
      <set comment="kpoint 21">
       <r>  -14.8176    1.0000 </r>
       <r>  -14.5313    1.0000 </r>
       <r>   -3.5982    1.0000 </r>
       <r>   -1.7264    1.0000 </r>
       <r>    1.0482    1.0000 </r>
       <r>    1.0770    1.0000 </r>
       <r>    1.3645    1.0000 </r>
       <r>    1.3912    1.0000 </r>
       <r>    9.2694    0.0000 </r>
       <r>   13.1839    0.0000 </r>
       <r>   13.2586    0.0000 </r>
       <r>   13.8453    0.0000 </r>
       <r>   13.8851    0.0000 </r>
       <r>   15.4423    0.0000 </r>
      </set>
      <set comment="kpoint 22">
       <r>  -14.3208    1.0000 </r>
       <r>  -14.0431    1.0000 </r>
       <r>   -2.9986    1.0000 </r>
       <r>   -1.1651    1.0000 </r>
       <r>   -0.6156    1.0000 </r>
       <r>   -0.5552    1.0000 </r>
       <r>    0.5634    1.0000 </r>
       <r>    0.5992    1.0000 </r>
       <r>    9.8724    0.0000 </r>
       <r>   13.0746    0.0000 </r>
       <r>   13.2399    0.0000 </r>
       <r>   14.0023    0.0000 </r>
       <r>   14.3963    0.0000 </r>
       <r>   15.7163    0.0000 </r>
      </set>
      <set comment="kpoint 23">
       <r>  -13.4993    1.0000 </r>
       <r>  -13.2353    1.0000 </r>
       <r>   -2.7405    1.0000 </r>
       <r>   -2.6440    1.0000 </r>
       <r>   -2.0135    1.0000 </r>
       <r>   -0.3300    1.0000 </r>
       <r>   -0.2805    1.0000 </r>
       <r>   -0.2549    1.0000 </r>
       <r>   10.8668    0.0000 </r>
       <r>   11.7555    0.0000 </r>
       <r>   12.3688    0.0000 </r>
       <r>   12.7369    0.0000 </r>
       <r>   13.0200    0.0000 </r>
       <r>   16.4923    0.0000 </r>
      </set>
      <set comment="kpoint 24">
       <r>  -12.3655    1.0000 </r>
       <r>  -12.1215    1.0000 </r>
       <r>   -4.9748    1.0000 </r>
       <r>   -4.8463    1.0000 </r>
       <r>   -1.0708    1.0000 </r>
       <r>   -1.0164    1.0000 </r>
       <r>   -0.6881    1.0000 </r>
       <r>    0.9395    1.0000 </r>
       <r>    9.2747    0.0000 </r>
       <r>   10.1624    0.0000 </r>
       <r>   12.1495    0.0000 </r>
       <r>   12.3957    0.0000 </r>
       <r>   12.7783    0.0000 </r>
       <r>   17.3876    0.0000 </r>
      </set>
      <set comment="kpoint 25">
       <r>  -10.9499    1.0000 </r>
       <r>  -10.7325    1.0000 </r>
       <r>   -7.1004    1.0000 </r>
       <r>   -6.9419    1.0000 </r>
       <r>   -1.5478    1.0000 </r>
       <r>   -1.4933    1.0000 </r>
       <r>    0.8622    1.0000 </r>
       <r>    2.1764    1.0000 </r>
       <r>    7.1135    0.0000 </r>
       <r>    8.0745    0.0000 </r>
       <r>   12.0675    0.0000 </r>
       <r>   12.4266    0.0000 </r>
       <r>   14.0982    0.0000 </r>
       <r>   18.1892    0.0000 </r>
      </set>
      <set comment="kpoint 26">
       <r>   -9.6294    1.0000 </r>
       <r>   -9.5242    1.0000 </r>
       <r>   -8.5679    1.0000 </r>
       <r>   -8.4888    1.0000 </r>
       <r>   -1.7112    1.0000 </r>
       <r>   -1.6558    1.0000 </r>
       <r>    1.9550    1.0000 </r>
       <r>    2.6182    1.0000 </r>
       <r>    6.2463    0.0000 </r>
       <r>    6.8881    0.0000 </r>
       <r>   11.9742    0.0000 </r>
       <r>   12.3604    0.0000 </r>
       <r>   16.0945    0.0000 </r>
       <r>   16.1942    0.0000 </r>
      </set>
      <set comment="kpoint 27">
       <r>  -14.4861    1.0000 </r>
       <r>  -14.2055    1.0000 </r>
       <r>   -3.1968    1.0000 </r>
       <r>   -1.3509    1.0000 </r>
       <r>    0.0082    1.0000 </r>
       <r>    0.0358    1.0000 </r>
       <r>    0.6855    1.0000 </r>
       <r>    0.7043    1.0000 </r>
       <r>    9.6725    0.0000 </r>
       <r>   13.4768    0.0000 </r>
       <r>   13.5674    0.0000 </r>
       <r>   14.5347    0.0000 </r>
       <r>   14.7250    0.0000 </r>
       <r>   14.7753    0.0000 </r>
      </set>
      <set comment="kpoint 28">
       <r>  -13.8270    1.0000 </r>
       <r>  -13.5577    1.0000 </r>
       <r>   -2.4036    1.0000 </r>
       <r>   -1.7278    1.0000 </r>
       <r>   -1.6600    1.0000 </r>
       <r>   -0.6131    1.0000 </r>
       <r>   -0.3294    1.0000 </r>
       <r>   -0.2885    1.0000 </r>
       <r>   10.4786    0.0000 </r>
       <r>   12.6902    0.0000 </r>
       <r>   13.1312    0.0000 </r>
       <r>   13.5474    0.0000 </r>
       <r>   13.7740    0.0000 </r>
       <r>   16.1902    0.0000 </r>
      </set>
      <set comment="kpoint 29">
       <r>  -12.8490    1.0000 </r>
       <r>  -12.5968    1.0000 </r>
       <r>   -3.8336    1.0000 </r>
       <r>   -3.7253    1.0000 </r>
       <r>   -1.2448    1.0000 </r>
       <r>   -1.2273    1.0000 </r>
       <r>   -1.1731    1.0000 </r>
       <r>    0.4493    1.0000 </r>
       <r>   10.3975    0.0000 </r>
       <r>   11.0751    0.0000 </r>
       <r>   11.6776    0.0000 </r>
       <r>   13.2408    0.0000 </r>
       <r>   13.5733    0.0000 </r>
       <r>   16.8740    0.0000 </r>
      </set>
      <set comment="kpoint 30">
       <r>  -11.5712    1.0000 </r>
       <r>  -11.3416    1.0000 </r>
       <r>   -5.9844    1.0000 </r>
       <r>   -5.8437    1.0000 </r>
       <r>   -1.8674    1.0000 </r>
       <r>   -1.8074    1.0000 </r>
       <r>    0.2185    1.0000 </r>
       <r>    1.7194    1.0000 </r>
       <r>    8.0731    0.0000 </r>
       <r>    8.9638    0.0000 </r>
       <r>   12.8750    0.0000 </r>
       <r>   13.1251    0.0000 </r>
       <r>   13.4783    0.0000 </r>
       <r>   17.6365    0.0000 </r>
      </set>
      <set comment="kpoint 31">
       <r>  -10.0653    1.0000 </r>
       <r>   -9.8755    1.0000 </r>
       <r>   -7.9431    1.0000 </r>
       <r>   -7.7882    1.0000 </r>
       <r>   -2.1997    1.0000 </r>
       <r>   -2.1370    1.0000 </r>
       <r>    1.7317    1.0000 </r>
       <r>    2.7002    1.0000 </r>
       <r>    6.4256    0.0000 </r>
       <r>    7.1709    0.0000 </r>
       <r>   12.7157    0.0000 </r>
       <r>   13.1120    0.0000 </r>
       <r>   15.2057    0.0000 </r>
       <r>   17.2557    0.0000 </r>
      </set>
      <set comment="kpoint 32">
       <r>  -13.0114    1.0000 </r>
       <r>  -12.7565    1.0000 </r>
       <r>   -3.0596    1.0000 </r>
       <r>   -3.0052    1.0000 </r>
       <r>   -1.7003    1.0000 </r>
       <r>   -1.6620    1.0000 </r>
       <r>   -1.4318    1.0000 </r>
       <r>    0.2833    1.0000 </r>
       <r>   10.9284    0.0000 </r>
       <r>   11.3937    0.0000 </r>
       <r>   11.4940    0.0000 </r>
       <r>   14.7273    0.0000 </r>
       <r>   14.9603    0.0000 </r>
       <r>   16.3232    0.0000 </r>
      </set>
      <set comment="kpoint 33">
       <r>  -11.8877    1.0000 </r>
       <r>  -11.6527    1.0000 </r>
       <r>   -4.8187    1.0000 </r>
       <r>   -4.7178    1.0000 </r>
       <r>   -2.7772    1.0000 </r>
       <r>   -2.7094    1.0000 </r>
       <r>   -0.1183    1.0000 </r>
       <r>    1.4614    1.0000 </r>
       <r>    8.8913    0.0000 </r>
       <r>    9.5045    0.0000 </r>
       <r>   12.8692    0.0000 </r>
       <r>   14.8454    0.0000 </r>
       <r>   15.2805    0.0000 </r>
       <r>   16.9647    0.0000 </r>
      </set>
      <set comment="kpoint 34">
       <r>  -10.4920    1.0000 </r>
       <r>  -10.2842    1.0000 </r>
       <r>   -6.7617    1.0000 </r>
       <r>   -6.6189    1.0000 </r>
       <r>   -3.3653    1.0000 </r>
       <r>   -3.2774    1.0000 </r>
       <r>    1.4276    1.0000 </r>
       <r>    2.7185    1.0000 </r>
       <r>    6.9360    0.0000 </r>
       <r>    7.6625    0.0000 </r>
       <r>   14.4892    0.0000 </r>
       <r>   14.6530    0.0000 </r>
       <r>   15.1331    0.0000 </r>
       <r>   17.1062    0.0000 </r>
      </set>
      <set comment="kpoint 35">
       <r>   -9.2045    1.0000 </r>
       <r>   -9.1021    1.0000 </r>
       <r>   -8.1642    1.0000 </r>
       <r>   -8.0917    1.0000 </r>
       <r>   -3.5538    1.0000 </r>
       <r>   -3.4609    1.0000 </r>
       <r>    2.5592    1.0000 </r>
       <r>    3.2057    1.0000 </r>
       <r>    6.1663    0.0000 </r>
       <r>    6.4569    0.0000 </r>
       <r>   14.4814    0.0000 </r>
       <r>   15.0001    0.0000 </r>
       <r>   16.4158    0.0000 </r>
       <r>   16.4650    0.0000 </r>
      </set>
      <set comment="kpoint 36">
       <r>  -10.6418    1.0000 </r>
       <r>  -10.4301    1.0000 </r>
       <r>   -5.8464    1.0000 </r>
       <r>   -5.7730    1.0000 </r>
       <r>   -4.2646    1.0000 </r>
       <r>   -4.2091    1.0000 </r>
       <r>    1.3069    1.0000 </r>
       <r>    2.6984    1.0000 </r>
       <r>    7.2697    0.0000 </r>
       <r>    7.8606    0.0000 </r>
       <r>   14.3747    0.0000 </r>
       <r>   16.4496    0.0000 </r>
       <r>   16.8376    0.0000 </r>
       <r>   16.8837    0.0000 </r>
      </set>
      <set comment="kpoint 37">
       <r>   -9.1943    1.0000 </r>
       <r>   -9.0203    1.0000 </r>
       <r>   -7.2978    1.0000 </r>
       <r>   -7.1774    1.0000 </r>
       <r>   -4.9941    1.0000 </r>
       <r>   -4.9023    1.0000 </r>
       <r>    2.8547    1.0000 </r>
       <r>    3.8301    1.0000 </r>
       <r>    5.8135    0.0000 </r>
       <r>    6.3481    0.0000 </r>
       <r>   15.8860    0.0000 </r>
       <r>   16.1528    0.0000 </r>
       <r>   16.4741    0.0000 </r>
       <r>   16.7736    0.0000 </r>
      </set>
      <set comment="kpoint 38">
       <r>   -7.9737    1.0000 </r>
       <r>   -7.8855    1.0000 </r>
       <r>   -7.8855    1.0000 </r>
       <r>   -7.7884    1.0000 </r>
       <r>   -5.8491    1.0000 </r>
       <r>   -5.8491    1.0000 </r>
       <r>    4.1152    1.0000 </r>
       <r>    4.6966    0.9162 </r>
       <r>    4.6966    0.9162 </r>
       <r>    5.4406    0.0000 </r>
       <r>   15.7547    0.0000 </r>
       <r>   15.7547    0.0000 </r>
       <r>   17.0607    0.0000 </r>
       <r>   17.4601    0.0000 </r>
      </set>
      <set comment="kpoint 39">
       <r>  -14.9696    1.0000 </r>
       <r>  -14.7106    1.0000 </r>
       <r>   -3.7166    1.0000 </r>
       <r>   -2.0346    1.0000 </r>
       <r>    1.7121    1.0000 </r>
       <r>    1.7121    1.0000 </r>
       <r>    1.7228    1.0000 </r>
       <r>    1.7229    1.0000 </r>
       <r>    9.3222    0.0000 </r>
       <r>   13.1378    0.0000 </r>
       <r>   13.1378    0.0000 </r>
       <r>   13.1783    0.0000 </r>
       <r>   13.1783    0.0000 </r>
       <r>   14.6590    0.0000 </r>
      </set>
      <set comment="kpoint 40">
       <r>  -14.8037    1.0000 </r>
       <r>  -14.5471    1.0000 </r>
       <r>   -3.5152    1.0000 </r>
       <r>   -1.8448    1.0000 </r>
       <r>    1.0479    1.0000 </r>
       <r>    1.0755    1.0000 </r>
       <r>    1.3645    1.0000 </r>
       <r>    1.3880    1.0000 </r>
       <r>    9.5209    0.0000 </r>
       <r>   13.1849    0.0000 </r>
       <r>   13.2550    0.0000 </r>
       <r>   13.8439    0.0000 </r>
       <r>   13.8814    0.0000 </r>
       <r>   14.8249    0.0000 </r>
      </set>
      <set comment="kpoint 41">
       <r>  -14.3073    1.0000 </r>
       <r>  -14.0583    1.0000 </r>
       <r>   -2.9181    1.0000 </r>
       <r>   -1.2809    1.0000 </r>
       <r>   -0.6126    1.0000 </r>
       <r>   -0.5587    1.0000 </r>
       <r>    0.5625    1.0000 </r>
       <r>    0.5975    1.0000 </r>
       <r>   10.1172    0.0000 </r>
       <r>   13.0756    0.0000 </r>
       <r>   13.2301    0.0000 </r>
       <r>   14.0205    0.0000 </r>
       <r>   14.3601    0.0000 </r>
       <r>   15.3295    0.0000 </r>
      </set>
      <set comment="kpoint 42">
       <r>  -13.4864    1.0000 </r>
       <r>  -13.2497    1.0000 </r>
       <r>   -2.7355    1.0000 </r>
       <r>   -2.6520    1.0000 </r>
       <r>   -1.9350    1.0000 </r>
       <r>   -0.3650    1.0000 </r>
       <r>   -0.3213    1.0000 </r>
       <r>   -0.2827    1.0000 </r>
       <r>   11.0817    0.0000 </r>
       <r>   11.7970    0.0000 </r>
       <r>   12.3257    0.0000 </r>
       <r>   12.7500    0.0000 </r>
       <r>   13.0199    0.0000 </r>
       <r>   16.0891    0.0000 </r>
      </set>
      <set comment="kpoint 43">
       <r>  -12.3532    1.0000 </r>
       <r>  -12.1347    1.0000 </r>
       <r>   -4.9680    1.0000 </r>
       <r>   -4.8500    1.0000 </r>
       <r>   -1.0622    1.0000 </r>
       <r>   -1.0209    1.0000 </r>
       <r>   -0.6119    1.0000 </r>
       <r>    0.8405    1.0000 </r>
       <r>    9.3109    0.0000 </r>
       <r>   10.1005    0.0000 </r>
       <r>   12.2709    0.0000 </r>
       <r>   12.4481    0.0000 </r>
       <r>   12.8427    0.0000 </r>
       <r>   17.0491    0.0000 </r>
      </set>
      <set comment="kpoint 44">
       <r>  -10.9391    1.0000 </r>
       <r>  -10.7439    1.0000 </r>
       <r>   -7.0908    1.0000 </r>
       <r>   -6.9511    1.0000 </r>
       <r>   -1.5384    1.0000 </r>
       <r>   -1.4950    1.0000 </r>
       <r>    0.9262    1.0000 </r>
       <r>    2.1077    1.0000 </r>
       <r>    7.1388    0.0000 </r>
       <r>    8.0058    0.0000 </r>
       <r>   12.0862    0.0000 </r>
       <r>   12.4087    0.0000 </r>
       <r>   14.3067    0.0000 </r>
       <r>   17.9800    0.0000 </r>
      </set>
      <set comment="kpoint 45">
       <r>   -9.6242    1.0000 </r>
       <r>   -9.5286    1.0000 </r>
       <r>   -8.5656    1.0000 </r>
       <r>   -8.4945    1.0000 </r>
       <r>   -1.7030    1.0000 </r>
       <r>   -1.6592    1.0000 </r>
       <r>    1.9999    1.0000 </r>
       <r>    2.6028    1.0000 </r>
       <r>    6.2385    0.0000 </r>
       <r>    6.8212    0.0000 </r>
       <r>   11.9927    0.0000 </r>
       <r>   12.3380    0.0000 </r>
       <r>   16.2860    0.0000 </r>
       <r>   16.3338    0.0000 </r>
      </set>
      <set comment="kpoint 46">
       <r>  -14.4724    1.0000 </r>
       <r>  -14.2209    1.0000 </r>
       <r>   -3.1153    1.0000 </r>
       <r>   -1.4676    1.0000 </r>
       <r>    0.0099    1.0000 </r>
       <r>    0.0343    1.0000 </r>
       <r>    0.6897    1.0000 </r>
       <r>    0.7042    1.0000 </r>
       <r>    9.9199    0.0000 </r>
       <r>   13.4751    0.0000 </r>
       <r>   13.5627    0.0000 </r>
       <r>   14.5487    0.0000 </r>
       <r>   14.7296    0.0000 </r>
       <r>   14.7734    0.0000 </r>
      </set>
      <set comment="kpoint 47">
       <r>  -13.8138    1.0000 </r>
       <r>  -13.5724    1.0000 </r>
       <r>   -2.3257    1.0000 </r>
       <r>   -1.7244    1.0000 </r>
       <r>   -1.6652    1.0000 </r>
       <r>   -0.7256    1.0000 </r>
       <r>   -0.3274    1.0000 </r>
       <r>   -0.2902    1.0000 </r>
       <r>   10.7160    0.0000 </r>
       <r>   12.7063    0.0000 </r>
       <r>   13.0997    0.0000 </r>
       <r>   13.5564    0.0000 </r>
       <r>   13.7745    0.0000 </r>
       <r>   15.7345    0.0000 </r>
      </set>
      <set comment="kpoint 48">
       <r>  -12.8366    1.0000 </r>
       <r>  -12.6105    1.0000 </r>
       <r>   -3.8279    1.0000 </r>
       <r>   -3.7320    1.0000 </r>
       <r>   -1.2247    1.0000 </r>
       <r>   -1.1764    1.0000 </r>
       <r>   -1.1675    1.0000 </r>
       <r>    0.3463    1.0000 </r>
       <r>   10.4152    0.0000 </r>
       <r>   11.0319    0.0000 </r>
       <r>   11.9083    0.0000 </r>
       <r>   13.2554    0.0000 </r>
       <r>   13.5675    0.0000 </r>
       <r>   16.5226    0.0000 </r>
      </set>
      <set comment="kpoint 49">
       <r>  -11.5598    1.0000 </r>
       <r>  -11.3540    1.0000 </r>
       <r>   -5.9774    1.0000 </r>
       <r>   -5.8504    1.0000 </r>
       <r>   -1.8635    1.0000 </r>
       <r>   -1.8092    1.0000 </r>
       <r>    0.2890    1.0000 </r>
       <r>    1.6351    1.0000 </r>
       <r>    8.1074    0.0000 </r>
       <r>    8.9053    0.0000 </r>
       <r>   12.9056    0.0000 </r>
       <r>   13.1630    0.0000 </r>
       <r>   13.6218    0.0000 </r>
       <r>   17.3628    0.0000 </r>
      </set>
      <set comment="kpoint 50">
       <r>  -10.0556    1.0000 </r>
       <r>   -9.8857    1.0000 </r>
       <r>   -7.9357    1.0000 </r>
       <r>   -7.7968    1.0000 </r>
       <r>   -2.1991    1.0000 </r>
       <r>   -2.1406    1.0000 </r>
       <r>    1.7856    1.0000 </r>
       <r>    2.6617    1.0000 </r>
       <r>    6.4352    0.0000 </r>
       <r>    7.1139    0.0000 </r>
       <r>   12.7335    0.0000 </r>
       <r>   13.0902    0.0000 </r>
       <r>   15.3788    0.0000 </r>
       <r>   17.3029    0.0000 </r>
      </set>
      <set comment="kpoint 51">
       <r>  -12.9990    1.0000 </r>
       <r>  -12.7705    1.0000 </r>
       <r>   -3.0571    1.0000 </r>
       <r>   -3.0085    1.0000 </r>
       <r>   -1.6986    1.0000 </r>
       <r>   -1.6644    1.0000 </r>
       <r>   -1.3583    1.0000 </r>
       <r>    0.1760    1.0000 </r>
       <r>   10.9518    0.0000 </r>
       <r>   11.3681    0.0000 </r>
       <r>   11.7178    0.0000 </r>
       <r>   14.7284    0.0000 </r>
       <r>   14.9606    0.0000 </r>
       <r>   16.3166    0.0000 </r>
      </set>
      <set comment="kpoint 52">
       <r>  -11.8763    1.0000 </r>
       <r>  -11.6655    1.0000 </r>
       <r>   -4.8140    1.0000 </r>
       <r>   -4.7229    1.0000 </r>
       <r>   -2.7744    1.0000 </r>
       <r>   -2.7126    1.0000 </r>
       <r>   -0.0487    1.0000 </r>
       <r>    1.3683    1.0000 </r>
       <r>    8.9203    0.0000 </r>
       <r>    9.4720    0.0000 </r>
       <r>   13.0662    0.0000 </r>
       <r>   14.8551    0.0000 </r>
       <r>   15.2682    0.0000 </r>
       <r>   16.7102    0.0000 </r>
      </set>
      <set comment="kpoint 53">
       <r>  -10.4816    1.0000 </r>
       <r>  -10.2954    1.0000 </r>
       <r>   -6.7546    1.0000 </r>
       <r>   -6.6267    1.0000 </r>
       <r>   -3.3607    1.0000 </r>
       <r>   -3.2817    1.0000 </r>
       <r>    1.4919    1.0000 </r>
       <r>    2.6510    1.0000 </r>
       <r>    6.9629    0.0000 </r>
       <r>    7.6194    0.0000 </r>
       <r>   14.5617    0.0000 </r>
       <r>   14.7058    0.0000 </r>
       <r>   15.1393    0.0000 </r>
       <r>   16.9067    0.0000 </r>
      </set>
      <set comment="kpoint 54">
       <r>   -9.1985    1.0000 </r>
       <r>   -9.1064    1.0000 </r>
       <r>   -8.1622    1.0000 </r>
       <r>   -8.0968    1.0000 </r>
       <r>   -3.5491    1.0000 </r>
       <r>   -3.4681    1.0000 </r>
       <r>    2.6041    1.0000 </r>
       <r>    3.1924    1.0000 </r>
       <r>    6.1516    0.0000 </r>
       <r>    6.4166    0.0000 </r>
       <r>   14.5009    0.0000 </r>
       <r>   14.9617    0.0000 </r>
       <r>   16.3165    0.0000 </r>
       <r>   16.4657    0.0000 </r>
      </set>
      <set comment="kpoint 55">
       <r>  -10.6313    1.0000 </r>
       <r>  -10.4416    1.0000 </r>
       <r>   -5.8422    1.0000 </r>
       <r>   -5.7760    1.0000 </r>
       <r>   -4.2617    1.0000 </r>
       <r>   -4.2103    1.0000 </r>
       <r>    1.3711    1.0000 </r>
       <r>    2.6263    1.0000 </r>
       <r>    7.2961    0.0000 </r>
       <r>    7.8272    0.0000 </r>
       <r>   14.4906    0.0000 </r>
       <r>   16.2194    0.0000 </r>
       <r>   16.8886    0.0000 </r>
       <r>   16.9757    0.0000 </r>
      </set>
      <set comment="kpoint 56">
       <r>   -9.1852    1.0000 </r>
       <r>   -9.0295    1.0000 </r>
       <r>   -7.2916    1.0000 </r>
       <r>   -7.1835    1.0000 </r>
       <r>   -4.9895    1.0000 </r>
       <r>   -4.9053    1.0000 </r>
       <r>    2.9071    1.0000 </r>
       <r>    3.7887    1.0000 </r>
       <r>    5.8323    0.0000 </r>
       <r>    6.3113    0.0000 </r>
       <r>   15.6399    0.0000 </r>
       <r>   15.9096    0.0000 </r>
       <r>   16.6032    0.0000 </r>
       <r>   17.1318    0.0000 </r>
      </set>
      <set comment="kpoint 57">
       <r>   -7.9647    1.0000 </r>
       <r>   -7.8852    1.0000 </r>
       <r>   -7.8852    1.0000 </r>
       <r>   -7.7984    1.0000 </r>
       <r>   -5.8507    1.0000 </r>
       <r>   -5.8507    1.0000 </r>
       <r>    4.1746    1.0000 </r>
       <r>    4.6975    0.9078 </r>
       <r>    4.6975    0.9078 </r>
       <r>    5.3515    0.0000 </r>
       <r>   15.5110    0.0000 </r>
       <r>   15.5110    0.0000 </r>
       <r>   17.2119    0.0000 </r>
       <r>   17.8221    0.0000 </r>
      </set>
      <set comment="kpoint 58">
       <r>  -14.9471    1.0000 </r>
       <r>  -14.7356    1.0000 </r>
       <r>   -3.5813    1.0000 </r>
       <r>   -2.2147    1.0000 </r>
       <r>    1.7125    1.0000 </r>
       <r>    1.7125    1.0000 </r>
       <r>    1.7213    1.0000 </r>
       <r>    1.7213    1.0000 </r>
       <r>    9.7288    0.0000 </r>
       <r>   13.1418    0.0000 </r>
       <r>   13.1418    0.0000 </r>
       <r>   13.1732    0.0000 </r>
       <r>   13.1732    0.0000 </r>
       <r>   13.9845    0.0000 </r>
      </set>
      <set comment="kpoint 59">
       <r>  -14.7812    1.0000 </r>
       <r>  -14.5718    1.0000 </r>
       <r>   -3.3839    1.0000 </r>
       <r>   -2.0232    1.0000 </r>
       <r>    1.0506    1.0000 </r>
       <r>    1.0744    1.0000 </r>
       <r>    1.3688    1.0000 </r>
       <r>    1.3863    1.0000 </r>
       <r>    9.9245    0.0000 </r>
       <r>   13.1906    0.0000 </r>
       <r>   13.2529    0.0000 </r>
       <r>   13.8478    0.0000 </r>
       <r>   13.8873    0.0000 </r>
       <r>   14.1595    0.0000 </r>
      </set>
      <set comment="kpoint 60">
       <r>  -14.2855    1.0000 </r>
       <r>  -14.0823    1.0000 </r>
       <r>   -2.7871    1.0000 </r>
       <r>   -1.4553    1.0000 </r>
       <r>   -0.6058    1.0000 </r>
       <r>   -0.5626    1.0000 </r>
       <r>    0.5635    1.0000 </r>
       <r>    0.5925    1.0000 </r>
       <r>   10.5098    0.0000 </r>
       <r>   13.0790    0.0000 </r>
       <r>   13.2234    0.0000 </r>
       <r>   14.0459    0.0000 </r>
       <r>   14.2943    0.0000 </r>
       <r>   14.7309    0.0000 </r>
      </set>
      <set comment="kpoint 61">
       <r>  -13.4657    1.0000 </r>
       <r>  -13.2725    1.0000 </r>
       <r>   -2.7275    1.0000 </r>
       <r>   -2.6601    1.0000 </r>
       <r>   -1.8088    1.0000 </r>
       <r>   -0.5271    1.0000 </r>
       <r>   -0.3188    1.0000 </r>
       <r>   -0.2861    1.0000 </r>
       <r>   11.4012    0.0000 </r>
       <r>   11.8895    0.0000 </r>
       <r>   12.2546    0.0000 </r>
       <r>   12.7700    0.0000 </r>
       <r>   13.0223    0.0000 </r>
       <r>   15.5053    0.0000 </r>
      </set>
      <set comment="kpoint 62">
       <r>  -12.3340    1.0000 </r>
       <r>  -12.1556    1.0000 </r>
       <r>   -4.9573    1.0000 </r>
       <r>   -4.8603    1.0000 </r>
       <r>   -1.0581    1.0000 </r>
       <r>   -1.0250    1.0000 </r>
       <r>   -0.4933    1.0000 </r>
       <r>    0.6901    1.0000 </r>
       <r>    9.3657    0.0000 </r>
       <r>   10.0104    0.0000 </r>
       <r>   12.3557    0.0000 </r>
       <r>   12.5196    0.0000 </r>
       <r>   13.0613    0.0000 </r>
       <r>   16.5440    0.0000 </r>
      </set>
      <set comment="kpoint 63">
       <r>  -10.9218    1.0000 </r>
       <r>  -10.7628    1.0000 </r>
       <r>   -7.0780    1.0000 </r>
       <r>   -6.9645    1.0000 </r>
       <r>   -1.5345    1.0000 </r>
       <r>   -1.4993    1.0000 </r>
       <r>    1.0281    1.0000 </r>
       <r>    1.9885    1.0000 </r>
       <r>    7.1901    0.0000 </r>
       <r>    7.9031    0.0000 </r>
       <r>   12.1161    0.0000 </r>
       <r>   12.3788    0.0000 </r>
       <r>   14.6367    0.0000 </r>
       <r>   17.6329    0.0000 </r>
      </set>
      <set comment="kpoint 64">
       <r>   -9.6143    1.0000 </r>
       <r>   -9.5359    1.0000 </r>
       <r>   -8.5613    1.0000 </r>
       <r>   -8.5033    1.0000 </r>
       <r>   -1.6989    1.0000 </r>
       <r>   -1.6633    1.0000 </r>
       <r>    2.0685    1.0000 </r>
       <r>    2.5674    1.0000 </r>
       <r>    6.2394    0.0000 </r>
       <r>    6.7200    0.0000 </r>
       <r>   12.0230    0.0000 </r>
       <r>   12.3055    0.0000 </r>
       <r>   16.5499    0.0000 </r>
       <r>   16.5886    0.0000 </r>
      </set>
      <set comment="kpoint 65">
       <r>  -14.4505    1.0000 </r>
       <r>  -14.2453    1.0000 </r>
       <r>   -2.9863    1.0000 </r>
       <r>   -1.6434    1.0000 </r>
       <r>    0.0123    1.0000 </r>
       <r>    0.0322    1.0000 </r>
       <r>    0.6905    1.0000 </r>
       <r>    0.7024    1.0000 </r>
       <r>   10.3168    0.0000 </r>
       <r>   13.4492    0.0000 </r>
       <r>   13.5551    0.0000 </r>
       <r>   14.4841    0.0000 </r>
       <r>   14.6022    0.0000 </r>
       <r>   14.7238    0.0000 </r>
      </set>
      <set comment="kpoint 66">
       <r>  -13.7927    1.0000 </r>
       <r>  -13.5956    1.0000 </r>
       <r>   -2.1988    1.0000 </r>
       <r>   -1.7200    1.0000 </r>
       <r>   -1.6727    1.0000 </r>
       <r>   -0.8934    1.0000 </r>
       <r>   -0.3276    1.0000 </r>
       <r>   -0.2946    1.0000 </r>
       <r>   11.0967    0.0000 </r>
       <r>   12.7288    0.0000 </r>
       <r>   13.0446    0.0000 </r>
       <r>   13.5672    0.0000 </r>
       <r>   13.7714    0.0000 </r>
       <r>   15.1403    0.0000 </r>
      </set>
      <set comment="kpoint 67">
       <r>  -12.8165    1.0000 </r>
       <r>  -12.6320    1.0000 </r>
       <r>   -3.8191    1.0000 </r>
       <r>   -3.7410    1.0000 </r>
       <r>   -1.2239    1.0000 </r>
       <r>   -1.1798    1.0000 </r>
       <r>   -1.0468    1.0000 </r>
       <r>    0.1878    1.0000 </r>
       <r>   10.4543    0.0000 </r>
       <r>   10.9685    0.0000 </r>
       <r>   12.2680    0.0000 </r>
       <r>   13.2744    0.0000 </r>
       <r>   13.5611    0.0000 </r>
       <r>   16.0013    0.0000 </r>
      </set>
      <set comment="kpoint 68">
       <r>  -11.5418    1.0000 </r>
       <r>  -11.3737    1.0000 </r>
       <r>   -5.9667    1.0000 </r>
       <r>   -5.8628    1.0000 </r>
       <r>   -1.8624    1.0000 </r>
       <r>   -1.8166    1.0000 </r>
       <r>    0.3996    1.0000 </r>
       <r>    1.4927    1.0000 </r>
       <r>    8.1599    0.0000 </r>
       <r>    8.8131    0.0000 </r>
       <r>   12.9395    0.0000 </r>
       <r>   13.1684    0.0000 </r>
       <r>   13.9120    0.0000 </r>
       <r>   16.9603    0.0000 </r>
      </set>
      <set comment="kpoint 69">
       <r>  -10.0404    1.0000 </r>
       <r>   -9.9017    1.0000 </r>
       <r>   -7.9227    1.0000 </r>
       <r>   -7.8102    1.0000 </r>
       <r>   -2.1945    1.0000 </r>
       <r>   -2.1447    1.0000 </r>
       <r>    1.8715    1.0000 </r>
       <r>    2.5880    1.0000 </r>
       <r>    6.4552    0.0000 </r>
       <r>    7.0195    0.0000 </r>
       <r>   12.7637    0.0000 </r>
       <r>   13.0547    0.0000 </r>
       <r>   15.6454    0.0000 </r>
       <r>   17.3287    0.0000 </r>
      </set>
      <set comment="kpoint 70">
       <r>  -12.9786    1.0000 </r>
       <r>  -12.7924    1.0000 </r>
       <r>   -3.0524    1.0000 </r>
       <r>   -3.0126    1.0000 </r>
       <r>   -1.6955    1.0000 </r>
       <r>   -1.6669    1.0000 </r>
       <r>   -1.2333    1.0000 </r>
       <r>    0.0155    1.0000 </r>
       <r>   10.9895    0.0000 </r>
       <r>   11.3293    0.0000 </r>
       <r>   12.0766    0.0000 </r>
       <r>   14.7180    0.0000 </r>
       <r>   14.9616    0.0000 </r>
       <r>   15.7963    0.0000 </r>
      </set>
      <set comment="kpoint 71">
       <r>  -11.8577    1.0000 </r>
       <r>  -11.6857    1.0000 </r>
       <r>   -4.8052    1.0000 </r>
       <r>   -4.7317    1.0000 </r>
       <r>   -2.7690    1.0000 </r>
       <r>   -2.7166    1.0000 </r>
       <r>    0.0668    1.0000 </r>
       <r>    1.2204    1.0000 </r>
       <r>    8.9678    0.0000 </r>
       <r>    9.4214    0.0000 </r>
       <r>   13.3776    0.0000 </r>
       <r>   14.8710    0.0000 </r>
       <r>   15.2459    0.0000 </r>
       <r>   16.3601    0.0000 </r>
      </set>
      <set comment="kpoint 72">
       <r>  -10.4649    1.0000 </r>
       <r>  -10.3132    1.0000 </r>
       <r>   -6.7428    1.0000 </r>
       <r>   -6.6387    1.0000 </r>
       <r>   -3.3534    1.0000 </r>
       <r>   -3.2891    1.0000 </r>
       <r>    1.5894    1.0000 </r>
       <r>    2.5381    1.0000 </r>
       <r>    7.0121    0.0000 </r>
       <r>    7.5504    0.0000 </r>
       <r>   14.6189    0.0000 </r>
       <r>   14.7920    0.0000 </r>
       <r>   15.1971    0.0000 </r>
       <r>   16.6705    0.0000 </r>
      </set>
      <set comment="kpoint 73">
       <r>   -9.1881    1.0000 </r>
       <r>   -9.1134    1.0000 </r>
       <r>   -8.1579    1.0000 </r>
       <r>   -8.1052    1.0000 </r>
       <r>   -3.5414    1.0000 </r>
       <r>   -3.4748    1.0000 </r>
       <r>    2.6736    1.0000 </r>
       <r>    3.1629    1.0000 </r>
       <r>    6.1347    0.0000 </r>
       <r>    6.3613    0.0000 </r>
       <r>   14.5291    0.0000 </r>
       <r>   14.9026    0.0000 </r>
       <r>   16.2145    0.0000 </r>
       <r>   16.4849    0.0000 </r>
      </set>
      <set comment="kpoint 74">
       <r>  -10.6145    1.0000 </r>
       <r>  -10.4598    1.0000 </r>
       <r>   -5.8358    1.0000 </r>
       <r>   -5.7816    1.0000 </r>
       <r>   -4.2580    1.0000 </r>
       <r>   -4.2158    1.0000 </r>
       <r>    1.4755    1.0000 </r>
       <r>    2.4997    1.0000 </r>
       <r>    7.3477    0.0000 </r>
       <r>    7.7790    0.0000 </r>
       <r>   14.6583    0.0000 </r>
       <r>   15.9769    0.0000 </r>
       <r>   16.9390    0.0000 </r>
       <r>   17.0804    0.0000 </r>
      </set>
      <set comment="kpoint 75">
       <r>   -9.1707    1.0000 </r>
       <r>   -9.0440    1.0000 </r>
       <r>   -7.2821    1.0000 </r>
       <r>   -7.1934    1.0000 </r>
       <r>   -4.9824    1.0000 </r>
       <r>   -4.9136    1.0000 </r>
       <r>    2.9904    1.0000 </r>
       <r>    3.7161    1.0000 </r>
       <r>    5.8612    0.0000 </r>
       <r>    6.2521    0.0000 </r>
       <r>   15.4310    0.0000 </r>
       <r>   15.6671    0.0000 </r>
       <r>   16.7667    0.0000 </r>
       <r>   17.4982    0.0000 </r>
      </set>
      <set comment="kpoint 76">
       <r>   -7.9501    1.0000 </r>
       <r>   -7.8845    1.0000 </r>
       <r>   -7.8845    1.0000 </r>
       <r>   -7.8136    1.0000 </r>
       <r>   -5.8509    1.0000 </r>
       <r>   -5.8509    1.0000 </r>
       <r>    4.2754    1.0000 </r>
       <r>    4.7078    0.7881 </r>
       <r>    4.7078    0.7881 </r>
       <r>    5.2300    0.0000 </r>
       <r>   15.2655    0.0000 </r>
       <r>   15.2655    0.0000 </r>
       <r>   17.4531    0.0000 </r>
       <r>   18.2647    0.0000 </r>
      </set>
      <set comment="kpoint 77">
       <r>  -14.9173    1.0000 </r>
       <r>  -14.7679    1.0000 </r>
       <r>   -3.4023    1.0000 </r>
       <r>   -2.4434    1.0000 </r>
       <r>    1.7122    1.0000 </r>
       <r>    1.7122    1.0000 </r>
       <r>    1.7191    1.0000 </r>
       <r>    1.7191    1.0000 </r>
       <r>   10.2647    0.0000 </r>
       <r>   13.1469    0.0000 </r>
       <r>   13.1469    0.0000 </r>
       <r>   13.1669    0.0000 </r>
       <r>   13.1669    0.0000 </r>
       <r>   13.2108    0.0000 </r>
      </set>
      <set comment="kpoint 78">
       <r>  -14.7517    1.0000 </r>
       <r>  -14.6037    1.0000 </r>
       <r>   -3.2048    1.0000 </r>
       <r>   -2.2495    1.0000 </r>
       <r>    1.0592    1.0000 </r>
       <r>    1.0721    1.0000 </r>
       <r>    1.3708    1.0000 </r>
       <r>    1.3834    1.0000 </r>
       <r>   10.4560    0.0000 </r>
       <r>   13.1464    0.0000 </r>
       <r>   13.2471    0.0000 </r>
       <r>   13.4522    0.0000 </r>
       <r>   13.8530    0.0000 </r>
       <r>   13.8818    0.0000 </r>
      </set>
      <set comment="kpoint 79">
       <r>  -14.2569    1.0000 </r>
       <r>  -14.1132    1.0000 </r>
       <r>   -2.6107    1.0000 </r>
       <r>   -1.6759    1.0000 </r>
       <r>   -0.5988    1.0000 </r>
       <r>   -0.5688    1.0000 </r>
       <r>    0.5675    1.0000 </r>
       <r>    0.5898    1.0000 </r>
       <r>   11.0254    0.0000 </r>
       <r>   13.0654    0.0000 </r>
       <r>   13.2115    0.0000 </r>
       <r>   13.8949    0.0000 </r>
       <r>   14.1292    0.0000 </r>
       <r>   14.3628    0.0000 </r>
      </set>
      <set comment="kpoint 80">
       <r>  -13.4381    1.0000 </r>
       <r>  -13.3019    1.0000 </r>
       <r>   -2.7197    1.0000 </r>
       <r>   -2.6711    1.0000 </r>
       <r>   -1.6406    1.0000 </r>
       <r>   -0.7392    1.0000 </r>
       <r>   -0.3179    1.0000 </r>
       <r>   -0.2952    1.0000 </r>
       <r>   11.6888    0.0000 </r>
       <r>   12.1278    0.0000 </r>
       <r>   12.1738    0.0000 </r>
       <r>   12.7885    0.0000 </r>
       <r>   13.0306    0.0000 </r>
       <r>   14.8315    0.0000 </r>
      </set>
      <set comment="kpoint 81">
       <r>  -12.3088    1.0000 </r>
       <r>  -12.1826    1.0000 </r>
       <r>   -4.9434    1.0000 </r>
       <r>   -4.8745    1.0000 </r>
       <r>   -1.0530    1.0000 </r>
       <r>   -1.0303    1.0000 </r>
       <r>   -0.3348    1.0000 </r>
       <r>    0.4978    1.0000 </r>
       <r>    9.4458    0.0000 </r>
       <r>    9.9040    0.0000 </r>
       <r>   12.4042    0.0000 </r>
       <r>   12.5369    0.0000 </r>
       <r>   13.4780    0.0000 </r>
       <r>   15.9408    0.0000 </r>
      </set>
      <set comment="kpoint 82">
       <r>  -10.8992    1.0000 </r>
       <r>  -10.7866    1.0000 </r>
       <r>   -7.0616    1.0000 </r>
       <r>   -6.9817    1.0000 </r>
       <r>   -1.5290    1.0000 </r>
       <r>   -1.5047    1.0000 </r>
       <r>    1.1660    1.0000 </r>
       <r>    1.8407    1.0000 </r>
       <r>    7.2674    0.0000 </r>
       <r>    7.7742    0.0000 </r>
       <r>   12.1548    0.0000 </r>
       <r>   12.3399    0.0000 </r>
       <r>   15.0655    0.0000 </r>
       <r>   17.1867    0.0000 </r>
      </set>
      <set comment="kpoint 83">
       <r>   -9.6012    1.0000 </r>
       <r>   -9.5457    1.0000 </r>
       <r>   -8.5546    1.0000 </r>
       <r>   -8.5138    1.0000 </r>
       <r>   -1.6912    1.0000 </r>
       <r>   -1.6634    1.0000 </r>
       <r>    2.1570    1.0000 </r>
       <r>    2.5145    1.0000 </r>
       <r>    6.2597    0.0000 </r>
       <r>    6.6105    0.0000 </r>
       <r>   12.0632    0.0000 </r>
       <r>   12.2639    0.0000 </r>
       <r>   16.8239    0.0000 </r>
       <r>   16.9617    0.0000 </r>
      </set>
      <set comment="kpoint 84">
       <r>  -14.4216    1.0000 </r>
       <r>  -14.2766    1.0000 </r>
       <r>   -2.8105    1.0000 </r>
       <r>   -1.8664    1.0000 </r>
       <r>    0.0141    1.0000 </r>
       <r>    0.0317    1.0000 </r>
       <r>    0.6868    1.0000 </r>
       <r>    0.6983    1.0000 </r>
       <r>   10.8391    0.0000 </r>
       <r>   13.3772    0.0000 </r>
       <r>   13.5498    0.0000 </r>
       <r>   13.8393    0.0000 </r>
       <r>   14.6151    0.0000 </r>
       <r>   14.7249    0.0000 </r>
      </set>
      <set comment="kpoint 85">
       <r>  -13.7649    1.0000 </r>
       <r>  -13.6255    1.0000 </r>
       <r>   -2.0273    1.0000 </r>
       <r>   -1.7131    1.0000 </r>
       <r>   -1.6795    1.0000 </r>
       <r>   -1.1088    1.0000 </r>
       <r>   -0.3232    1.0000 </r>
       <r>   -0.2990    1.0000 </r>
       <r>   11.5935    0.0000 </r>
       <r>   12.7738    0.0000 </r>
       <r>   12.9798    0.0000 </r>
       <r>   13.5602    0.0000 </r>
       <r>   13.7679    0.0000 </r>
       <r>   14.4812    0.0000 </r>
      </set>
      <set comment="kpoint 86">
       <r>  -12.7903    1.0000 </r>
       <r>  -12.6600    1.0000 </r>
       <r>   -3.8078    1.0000 </r>
       <r>   -3.7512    1.0000 </r>
       <r>   -1.2174    1.0000 </r>
       <r>   -1.1856    1.0000 </r>
       <r>   -0.8832    1.0000 </r>
       <r>   -0.0142    1.0000 </r>
       <r>   10.5206    0.0000 </r>
       <r>   10.8838    0.0000 </r>
       <r>   12.7142    0.0000 </r>
       <r>   13.2998    0.0000 </r>
       <r>   13.5703    0.0000 </r>
       <r>   15.3898    0.0000 </r>
      </set>
      <set comment="kpoint 87">
       <r>  -11.5178    1.0000 </r>
       <r>  -11.3990    1.0000 </r>
       <r>   -5.9515    1.0000 </r>
       <r>   -5.8776    1.0000 </r>
       <r>   -1.8556    1.0000 </r>
       <r>   -1.8217    1.0000 </r>
       <r>    0.5482    1.0000 </r>
       <r>    1.3189    1.0000 </r>
       <r>    8.2450    0.0000 </r>
       <r>    8.7101    0.0000 </r>
       <r>   12.9807    0.0000 </r>
       <r>   13.1484    0.0000 </r>
       <r>   14.3266    0.0000 </r>
[...]
       </set>
       <set comment="band 10">
        <r>  0.0007  0.0004  0.0000  0.0001  0.0000  0.0000  0.0000  0.0000  0.0000 </r>
        <r>  0.0002  0.0002  0.0000  0.0006  0.0000  0.0000  0.0000  0.0000  0.0000 </r>
        <r>  0.0000  0.0000  0.2395  0.0000  0.0000  0.0000  0.0000  0.0000  0.0000 </r>
        <r>  0.0000  0.0000  0.2460  0.0000  0.0000  0.0000  0.0000  0.0000  0.0000 </r>
       </set>
       <set comment="band 11">
        <r>  0.1109  0.0647  0.0000  0.0449  0.0000  0.0000  0.0000  0.0000  0.0000 </r>
        <r>  0.1205  0.0750  0.0000  0.0560  0.0000  0.0000  0.0000  0.0000  0.0000 </r>
        <r>  0.0000  0.0000  0.0004  0.0000  0.0000  0.0000  0.0000  0.0000  0.0000 </r>
        <r>  0.0000  0.0000  0.0006  0.0000  0.0000  0.0000  0.0000  0.0000  0.0000 </r>
       </set>
       <set comment="band 12">
        <r>  0.0000  0.0000  0.0006  0.0000  0.0000  0.0000  0.0000  0.0000  0.0000 </r>
        <r>  0.0000  0.0000  0.0004  0.0000  0.0000  0.0000  0.0000  0.0000  0.0000 </r>
        <r>  0.1205  0.0750  0.0000  0.0560  0.0000  0.0000  0.0000  0.0000  0.0000 </r>
        <r>  0.1109  0.0647  0.0000  0.0449  0.0000  0.0000  0.0000  0.0000  0.0000 </r>
       </set>
       <set comment="band 13">
        <r>  0.0000  0.0000  0.0476  0.0000  0.0000  0.0000  0.0000  0.0000  0.0000 </r>
        <r>  0.0000  0.0000  0.0518  0.0000  0.0000  0.0000  0.0000  0.0000  0.0000 </r>
        <r>  0.0052  0.0036  0.0000  0.0106  0.0000  0.0000  0.0000  0.0000  0.0000 </r>
        <r>  0.0208  0.0142  0.0000  0.0107  0.0000  0.0000  0.0000  0.0000  0.0000 </r>
       </set>
       <set comment="band 14">
        <r>  0.0208  0.0142  0.0000  0.0107  0.0000  0.0000  0.0000  0.0000  0.0000 </r>
        <r>  0.0052  0.0036  0.0000  0.0106  0.0000  0.0000  0.0000  0.0000  0.0000 </r>
        <r>  0.0000  0.0000  0.0518  0.0000  0.0000  0.0000  0.0000  0.0000  0.0000 </r>
        <r>  0.0000  0.0000  0.0476  0.0000  0.0000  0.0000  0.0000  0.0000  0.0000 </r>
       </set>
      </set>
      <set comment="kpoint 131">
       <set comment="band 1">
        <r>  0.2599  0.0638  0.0000  0.0223  0.0000  0.0000  0.0000  0.0000  0.0000 </r>
        <r>  0.2613  0.0636  0.0000  0.0222  0.0000  0.0000  0.0000  0.0000  0.0000 </r>
        <r>  0.0000  0.0000  0.0000  0.0000  0.0000  0.0000  0.0000  0.0000  0.0000 </r>
        <r>  0.0000  0.0000  0.0000  0.0000  0.0000  0.0000  0.0000  0.0000  0.0000 </r>
       </set>
       <set comment="band 2">
        <r>  0.0000  0.0000  0.0000  0.0000  0.0000  0.0000  0.0000  0.0000  0.0000 </r>
        <r>  0.0000  0.0000  0.0000  0.0000  0.0000  0.0000  0.0000  0.0000  0.0000 </r>
        <r>  0.2613  0.0636  0.0000  0.0222  0.0000  0.0000  0.0000  0.0000  0.0000 </r>
        <r>  0.2599  0.0638  0.0000  0.0223  0.0000  0.0000  0.0000  0.0000  0.0000 </r>
       </set>
       <set comment="band 3">
        <r>  0.1922  0.1121  0.0000  0.0751  0.0000  0.0000  0.0000  0.0000  0.0000 </r>
        <r>  0.1916  0.1131  0.0000  0.0751  0.0000  0.0000  0.0000  0.0000  0.0000 </r>
        <r>  0.0000  0.0000  0.0000  0.0000  0.0000  0.0000  0.0000  0.0000  0.0000 </r>
        <r>  0.0000  0.0000  0.0000  0.0000  0.0000  0.0000  0.0000  0.0000  0.0000 </r>
       </set>
       <set comment="band 4">
        <r>  0.0000  0.0000  0.0000  0.0000  0.0000  0.0000  0.0000  0.0000  0.0000 </r>
        <r>  0.0000  0.0000  0.0000  0.0000  0.0000  0.0000  0.0000  0.0000  0.0000 </r>
        <r>  0.1916  0.1131  0.0000  0.0751  0.0000  0.0000  0.0000  0.0000  0.0000 </r>
        <r>  0.1922  0.1121  0.0000  0.0751  0.0000  0.0000  0.0000  0.0000  0.0000 </r>
       </set>
       <set comment="band 5">
        <r>  0.0251  0.1174  0.0000  0.2050  0.0000  0.0000  0.0000  0.0000  0.0000 </r>
        <r>  0.0247  0.1173  0.0000  0.2057  0.0000  0.0000  0.0000  0.0000  0.0000 </r>
        <r>  0.0000  0.0000  0.0000  0.0000  0.0000  0.0000  0.0000  0.0000  0.0000 </r>
        <r>  0.0000  0.0000  0.0000  0.0000  0.0000  0.0000  0.0000  0.0000  0.0000 </r>
       </set>
       <set comment="band 6">
        <r>  0.0000  0.0000  0.0000  0.0000  0.0000  0.0000  0.0000  0.0000  0.0000 </r>
        <r>  0.0000  0.0000  0.0000  0.0000  0.0000  0.0000  0.0000  0.0000  0.0000 </r>
        <r>  0.0247  0.1173  0.0000  0.2057  0.0000  0.0000  0.0000  0.0000  0.0000 </r>
        <r>  0.0251  0.1174  0.0000  0.2050  0.0000  0.0000  0.0000  0.0000  0.0000 </r>
       </set>
       <set comment="band 7">
        <r>  0.0000  0.0000  0.2397  0.0000  0.0000  0.0000  0.0000  0.0000  0.0000 </r>
        <r>  0.0000  0.0000  0.2436  0.0000  0.0000  0.0000  0.0000  0.0000  0.0000 </r>
        <r>  0.0008  0.0002  0.0000  0.0001  0.0000  0.0000  0.0000  0.0000  0.0000 </r>
        <r>  0.0004  0.0006  0.0000  0.0002  0.0000  0.0000  0.0000  0.0000  0.0000 </r>
       </set>
       <set comment="band 8">
        <r>  0.0004  0.0006  0.0000  0.0002  0.0000  0.0000  0.0000  0.0000  0.0000 </r>
        <r>  0.0008  0.0002  0.0000  0.0001  0.0000  0.0000  0.0000  0.0000  0.0000 </r>
        <r>  0.0000  0.0000  0.2436  0.0000  0.0000  0.0000  0.0000  0.0000  0.0000 </r>
        <r>  0.0000  0.0000  0.2397  0.0000  0.0000  0.0000  0.0000  0.0000  0.0000 </r>
       </set>
       <set comment="band 9">
        <r>  0.0000  0.0000  0.2773  0.0000  0.0000  0.0000  0.0000  0.0000  0.0000 </r>
        <r>  0.0000  0.0000  0.2732  0.0000  0.0000  0.0000  0.0000  0.0000  0.0000 </r>
        <r>  0.0001  0.0002  0.0000  0.0002  0.0000  0.0000  0.0000  0.0000  0.0000 </r>
        <r>  0.0000  0.0002  0.0000  0.0007  0.0000  0.0000  0.0000  0.0000  0.0000 </r>
       </set>
       <set comment="band 10">
        <r>  0.0000  0.0002  0.0000  0.0007  0.0000  0.0000  0.0000  0.0000  0.0000 </r>
        <r>  0.0001  0.0002  0.0000  0.0002  0.0000  0.0000  0.0000  0.0000  0.0000 </r>
        <r>  0.0000  0.0000  0.2732  0.0000  0.0000  0.0000  0.0000  0.0000  0.0000 </r>
        <r>  0.0000  0.0000  0.2773  0.0000  0.0000  0.0000  0.0000  0.0000  0.0000 </r>
       </set>
       <set comment="band 11">
        <r>  0.0000  0.0000  0.0353  0.0000  0.0000  0.0000  0.0000  0.0000  0.0000 </r>
        <r>  0.0000  0.0000  0.0407  0.0000  0.0000  0.0000  0.0000  0.0000  0.0000 </r>
        <r>  0.0046  0.0334  0.0000  0.0271  0.0000  0.0000  0.0000  0.0000  0.0000 </r>
        <r>  0.0001  0.0057  0.0000  0.0036  0.0000  0.0000  0.0000  0.0000  0.0000 </r>
       </set>
       <set comment="band 12">
        <r>  0.0001  0.0057  0.0000  0.0036  0.0000  0.0000  0.0000  0.0000  0.0000 </r>
        <r>  0.0046  0.0334  0.0000  0.0271  0.0000  0.0000  0.0000  0.0000  0.0000 </r>
        <r>  0.0000  0.0000  0.0407  0.0000  0.0000  0.0000  0.0000  0.0000  0.0000 </r>
        <r>  0.0000  0.0000  0.0353  0.0000  0.0000  0.0000  0.0000  0.0000  0.0000 </r>
       </set>
       <set comment="band 13">
        <r>  0.0021  0.0119  0.0098  0.0236  0.0000  0.0000  0.0000  0.0000  0.0000 </r>
        <r>  0.0117  0.0029  0.0002  0.0080  0.0000  0.0000  0.0000  0.0000  0.0000 </r>
        <r>  0.0708  0.0187  0.0000  0.0500  0.0000  0.0000  0.0000  0.0000  0.0000 </r>
        <r>  0.0135  0.0724  0.0016  0.1437  0.0000  0.0000  0.0000  0.0000  0.0000 </r>
       </set>
       <set comment="band 14">
        <r>  0.0131  0.0741  0.0016  0.1428  0.0000  0.0000  0.0000  0.0000  0.0000 </r>
        <r>  0.0714  0.0191  0.0000  0.0491  0.0000  0.0000  0.0000  0.0000  0.0000 </r>
        <r>  0.0116  0.0029  0.0002  0.0082  0.0000  0.0000  0.0000  0.0000  0.0000 </r>
        <r>  0.0021  0.0117  0.0097  0.0236  0.0000  0.0000  0.0000  0.0000  0.0000 </r>
       </set>
      </set>
      <set comment="kpoint 132">
       <set comment="band 1">
        <r>  0.2521  0.0695  0.0000  0.0360  0.0000  0.0000  0.0000  0.0000  0.0000 </r>
        <r>  0.2553  0.0689  0.0000  0.0354  0.0000  0.0000  0.0000  0.0000  0.0000 </r>
        <r>  0.0000  0.0000  0.0000  0.0000  0.0000  0.0000  0.0000  0.0000  0.0000 </r>
        <r>  0.0000  0.0000  0.0000  0.0000  0.0000  0.0000  0.0000  0.0000  0.0000 </r>
       </set>
       <set comment="band 2">
        <r>  0.0000  0.0000  0.0000  0.0000  0.0000  0.0000  0.0000  0.0000  0.0000 </r>
        <r>  0.0000  0.0000  0.0000  0.0000  0.0000  0.0000  0.0000  0.0000  0.0000 </r>
        <r>  0.2553  0.0689  0.0000  0.0354  0.0000  0.0000  0.0000  0.0000  0.0000 </r>
        <r>  0.2521  0.0695  0.0000  0.0360  0.0000  0.0000  0.0000  0.0000  0.0000 </r>
       </set>
       <set comment="band 3">
        <r>  0.1997  0.0296  0.0000  0.1362  0.0000  0.0000  0.0000  0.0000  0.0000 </r>
        <r>  0.1972  0.0304  0.0000  0.1371  0.0000  0.0000  0.0000  0.0000  0.0000 </r>
        <r>  0.0000  0.0000  0.0000  0.0000  0.0000  0.0000  0.0000  0.0000  0.0000 </r>
        <r>  0.0000  0.0000  0.0000  0.0000  0.0000  0.0000  0.0000  0.0000  0.0000 </r>
       </set>
       <set comment="band 4">
        <r>  0.0000  0.0000  0.0000  0.0000  0.0000  0.0000  0.0000  0.0000  0.0000 </r>
        <r>  0.0000  0.0000  0.0000  0.0000  0.0000  0.0000  0.0000  0.0000  0.0000 </r>
        <r>  0.1972  0.0304  0.0000  0.1371  0.0000  0.0000  0.0000  0.0000  0.0000 </r>
        <r>  0.1997  0.0296  0.0000  0.1362  0.0000  0.0000  0.0000  0.0000  0.0000 </r>
       </set>
       <set comment="band 5">
        <r>  0.0387  0.1936  0.0000  0.1127  0.0000  0.0000  0.0000  0.0000  0.0000 </r>
        <r>  0.0384  0.1939  0.0000  0.1130  0.0000  0.0000  0.0000  0.0000  0.0000 </r>
        <r>  0.0000  0.0000  0.0000  0.0000  0.0000  0.0000  0.0000  0.0000  0.0000 </r>
        <r>  0.0000  0.0000  0.0000  0.0000  0.0000  0.0000  0.0000  0.0000  0.0000 </r>
       </set>
       <set comment="band 6">
        <r>  0.0000  0.0000  0.0000  0.0000  0.0000  0.0000  0.0000  0.0000  0.0000 </r>
        <r>  0.0000  0.0000  0.0000  0.0000  0.0000  0.0000  0.0000  0.0000  0.0000 </r>
        <r>  0.0384  0.1939  0.0000  0.1130  0.0000  0.0000  0.0000  0.0000  0.0000 </r>
        <r>  0.0387  0.1936  0.0000  0.1127  0.0000  0.0000  0.0000  0.0000  0.0000 </r>
       </set>
       <set comment="band 7">
        <r>  0.0000  0.0000  0.2504  0.0000  0.0000  0.0000  0.0000  0.0000  0.0000 </r>
        <r>  0.0000  0.0000  0.2587  0.0000  0.0000  0.0000  0.0000  0.0000  0.0000 </r>
        <r>  0.0005  0.0002  0.0000  0.0001  0.0000  0.0000  0.0000  0.0000  0.0000 </r>
        <r>  0.0001  0.0005  0.0000  0.0004  0.0000  0.0000  0.0000  0.0000  0.0000 </r>
       </set>
       <set comment="band 8">
        <r>  0.0001  0.0005  0.0000  0.0004  0.0000  0.0000  0.0000  0.0000  0.0000 </r>
        <r>  0.0005  0.0002  0.0000  0.0001  0.0000  0.0000  0.0000  0.0000  0.0000 </r>
        <r>  0.0000  0.0000  0.2587  0.0000  0.0000  0.0000  0.0000  0.0000  0.0000 </r>
        <r>  0.0000  0.0000  0.2504  0.0000  0.0000  0.0000  0.0000  0.0000  0.0000 </r>
       </set>
       <set comment="band 9">
        <r>  0.0000  0.0000  0.2673  0.0000  0.0000  0.0000  0.0000  0.0000  0.0000 </r>
        <r>  0.0000  0.0000  0.2589  0.0000  0.0000  0.0000  0.0000  0.0000  0.0000 </r>
        <r>  0.0002  0.0001  0.0000  0.0003  0.0000  0.0000  0.0000  0.0000  0.0000 </r>
        <r>  0.0001  0.0003  0.0000  0.0005  0.0000  0.0000  0.0000  0.0000  0.0000 </r>
       </set>
       <set comment="band 10">
        <r>  0.0001  0.0003  0.0000  0.0005  0.0000  0.0000  0.0000  0.0000  0.0000 </r>
        <r>  0.0002  0.0001  0.0000  0.0003  0.0000  0.0000  0.0000  0.0000  0.0000 </r>
        <r>  0.0000  0.0000  0.2589  0.0000  0.0000  0.0000  0.0000  0.0000  0.0000 </r>
        <r>  0.0000  0.0000  0.2673  0.0000  0.0000  0.0000  0.0000  0.0000  0.0000 </r>
       </set>
       <set comment="band 11">
        <r>  0.0000  0.0000  0.0140  0.0000  0.0000  0.0000  0.0000  0.0000  0.0000 </r>
        <r>  0.0000  0.0000  0.0147  0.0000  0.0000  0.0000  0.0000  0.0000  0.0000 </r>
        <r>  0.0037  0.0300  0.0000  0.0290  0.0000  0.0000  0.0000  0.0000  0.0000 </r>
        <r>  0.0004  0.0005  0.0000  0.0011  0.0000  0.0000  0.0000  0.0000  0.0000 </r>
       </set>
       <set comment="band 12">
        <r>  0.0004  0.0005  0.0000  0.0011  0.0000  0.0000  0.0000  0.0000  0.0000 </r>
        <r>  0.0037  0.0300  0.0000  0.0290  0.0000  0.0000  0.0000  0.0000  0.0000 </r>
        <r>  0.0000  0.0000  0.0147  0.0000  0.0000  0.0000  0.0000  0.0000  0.0000 </r>
        <r>  0.0000  0.0000  0.0140  0.0000  0.0000  0.0000  0.0000  0.0000  0.0000 </r>
       </set>
       <set comment="band 13">
        <r>  0.0775  0.1329  0.0000  0.0905  0.0000  0.0000  0.0000  0.0000  0.0000 </r>
        <r>  0.0794  0.0624  0.0000  0.0425  0.0000  0.0000  0.0000  0.0000  0.0000 </r>
        <r>  0.0000  0.0000  0.0104  0.0000  0.0000  0.0000  0.0000  0.0000  0.0000 </r>
        <r>  0.0000  0.0000  0.0051  0.0000  0.0000  0.0000  0.0000  0.0000  0.0000 </r>
       </set>
       <set comment="band 14">
        <r>  0.0000  0.0000  0.0051  0.0000  0.0000  0.0000  0.0000  0.0000  0.0000 </r>
        <r>  0.0000  0.0000  0.0104  0.0000  0.0000  0.0000  0.0000  0.0000  0.0000 </r>
        <r>  0.0794  0.0624  0.0000  0.0425  0.0000  0.0000  0.0000  0.0000  0.0000 </r>
        <r>  0.0775  0.1329  0.0000  0.0905  0.0000  0.0000  0.0000  0.0000  0.0000 </r>
       </set>
      </set>
      <set comment="kpoint 133">
       <set comment="band 1">
        <r>  0.0000  0.1222  0.0000  0.1222  0.0000  0.0000  0.0000  0.0000  0.0000 </r>
        <r>  0.4985  0.0000  0.0000  0.0000  0.0000  0.0000  0.0000  0.0000  0.0000 </r>
        <r>  0.0000  0.0000  0.0001  0.0000  0.0000  0.0000  0.0000  0.0000  0.0000 </r>
        <r>  0.0000  0.0000  0.0000  0.0000  0.0000  0.0000  0.0000  0.0000  0.0000 </r>
       </set>
       <set comment="band 2">
        <r>  0.0000  0.0000  0.0000  0.0000  0.0000  0.0000  0.0000  0.0000  0.0000 </r>
        <r>  0.0000  0.0000  0.0001  0.0000  0.0000  0.0000  0.0000  0.0000  0.0000 </r>
        <r>  0.4985  0.0000  0.0000  0.0000  0.0000  0.0000  0.0000  0.0000  0.0000 </r>
        <r>  0.0000  0.1222  0.0000  0.1222  0.0000  0.0000  0.0000  0.0000  0.0000 </r>
       </set>
       <set comment="band 3">
        <r>  0.4981  0.0000  0.0000  0.0000  0.0000  0.0000  0.0000  0.0000  0.0000 </r>
        <r>  0.0000  0.1225  0.0000  0.1225  0.0000  0.0000  0.0000  0.0000  0.0000 </r>
        <r>  0.0000  0.0000  0.0000  0.0000  0.0000  0.0000  0.0000  0.0000  0.0000 </r>
        <r>  0.0000  0.0000  0.0000  0.0000  0.0000  0.0000  0.0000  0.0000  0.0000 </r>
       </set>
       <set comment="band 4">
        <r>  0.0000  0.0000  0.0000  0.0000  0.0000  0.0000  0.0000  0.0000  0.0000 </r>
        <r>  0.0000  0.0000  0.0000  0.0000  0.0000  0.0000  0.0000  0.0000  0.0000 </r>
        <r>  0.0000  0.1225  0.0000  0.1225  0.0000  0.0000  0.0000  0.0000  0.0000 </r>
        <r>  0.4981  0.0000  0.0000  0.0000  0.0000  0.0000  0.0000  0.0000  0.0000 </r>
       </set>
       <set comment="band 5">
        <r>  0.0000  0.1613  0.0000  0.1613  0.0000  0.0000  0.0000  0.0000  0.0000 </r>
        <r>  0.0000  0.1615  0.0000  0.1615  0.0000  0.0000  0.0000  0.0000  0.0000 </r>
        <r>  0.0000  0.0000  0.0000  0.0000  0.0000  0.0000  0.0000  0.0000  0.0000 </r>
        <r>  0.0000  0.0000  0.0001  0.0000  0.0000  0.0000  0.0000  0.0000  0.0000 </r>
       </set>
       <set comment="band 6">
        <r>  0.0000  0.0000  0.0001  0.0000  0.0000  0.0000  0.0000  0.0000  0.0000 </r>
        <r>  0.0000  0.0000  0.0000  0.0000  0.0000  0.0000  0.0000  0.0000  0.0000 </r>
        <r>  0.0000  0.1615  0.0000  0.1615  0.0000  0.0000  0.0000  0.0000  0.0000 </r>
        <r>  0.0000  0.1613  0.0000  0.1613  0.0000  0.0000  0.0000  0.0000  0.0000 </r>
       </set>
       <set comment="band 7">
        <r>  0.0000  0.0000  0.0000  0.0000  0.0000  0.0000  0.0000  0.0000  0.0000 </r>
        <r>  0.0000  0.0000  0.5244  0.0000  0.0000  0.0000  0.0000  0.0000  0.0000 </r>
        <r>  0.0006  0.0000  0.0000  0.0000  0.0000  0.0000  0.0000  0.0000  0.0000 </r>
        <r>  0.0000  0.0005  0.0000  0.0005  0.0000  0.0000  0.0000  0.0000  0.0000 </r>
       </set>
       <set comment="band 8">
        <r>  0.0000  0.0005  0.0000  0.0005  0.0000  0.0000  0.0000  0.0000  0.0000 </r>
        <r>  0.0006  0.0000  0.0000  0.0000  0.0000  0.0000  0.0000  0.0000  0.0000 </r>
        <r>  0.0000  0.0000  0.5244  0.0000  0.0000  0.0000  0.0000  0.0000  0.0000 </r>
        <r>  0.0000  0.0000  0.0000  0.0000  0.0000  0.0000  0.0000  0.0000  0.0000 </r>
       </set>
       <set comment="band 9">
        <r>  0.0000  0.0004  0.0000  0.0004  0.0000  0.0000  0.0000  0.0000  0.0000 </r>
        <r>  0.0000  0.0004  0.0000  0.0004  0.0000  0.0000  0.0000  0.0000  0.0000 </r>
        <r>  0.0000  0.0000  0.0000  0.0000  0.0000  0.0000  0.0000  0.0000  0.0000 </r>
        <r>  0.0000  0.0000  0.5245  0.0000  0.0000  0.0000  0.0000  0.0000  0.0000 </r>
       </set>
       <set comment="band 10">
        <r>  0.0000  0.0000  0.5245  0.0000  0.0000  0.0000  0.0000  0.0000  0.0000 </r>
        <r>  0.0000  0.0000  0.0000  0.0000  0.0000  0.0000  0.0000  0.0000  0.0000 </r>
        <r>  0.0000  0.0004  0.0000  0.0004  0.0000  0.0000  0.0000  0.0000  0.0000 </r>
        <r>  0.0000  0.0004  0.0000  0.0004  0.0000  0.0000  0.0000  0.0000  0.0000 </r>
       </set>
       <set comment="band 11">
        <r>  0.0000  0.0000  0.0000  0.0000  0.0000  0.0000  0.0000  0.0000  0.0000 </r>
        <r>  0.0000  0.0000  0.0000  0.0000  0.0000  0.0000  0.0000  0.0000  0.0000 </r>
        <r>  0.0000  0.0215  0.0000  0.0215  0.0000  0.0000  0.0000  0.0000  0.0000 </r>
        <r>  0.0000  0.0000  0.0000  0.0000  0.0000  0.0000  0.0000  0.0000  0.0000 </r>
       </set>
       <set comment="band 12">
        <r>  0.0000  0.0000  0.0000  0.0000  0.0000  0.0000  0.0000  0.0000  0.0000 </r>
        <r>  0.0000  0.0215  0.0000  0.0215  0.0000  0.0000  0.0000  0.0000  0.0000 </r>
        <r>  0.0000  0.0000  0.0000  0.0000  0.0000  0.0000  0.0000  0.0000  0.0000 </r>
        <r>  0.0000  0.0000  0.0000  0.0000  0.0000  0.0000  0.0000  0.0000  0.0000 </r>
       </set>
       <set comment="band 13">
        <r>  0.0000  0.1453  0.0000  0.1454  0.0000  0.0000  0.0000  0.0000  0.0000 </r>
        <r>  0.0434  0.0000  0.0079  0.0000  0.0000  0.0000  0.0000  0.0000  0.0000 </r>
        <r>  0.0148  0.0000  0.0233  0.0000  0.0000  0.0000  0.0000  0.0000  0.0000 </r>
        <r>  0.0000  0.0494  0.0000  0.0495  0.0000  0.0000  0.0000  0.0000  0.0000 </r>
       </set>
       <set comment="band 14">
        <r>  0.0000  0.0495  0.0000  0.0494  0.0000  0.0000  0.0000  0.0000  0.0000 </r>
        <r>  0.0148  0.0000  0.0232  0.0000  0.0000  0.0000  0.0000  0.0000  0.0000 </r>
        <r>  0.0434  0.0000  0.0079  0.0000  0.0000  0.0000  0.0000  0.0000  0.0000 </r>
        <r>  0.0000  0.1457  0.0000  0.1451  0.0000  0.0000  0.0000  0.0000  0.0000 </r>
       </set>
      </set>
     </set>
    </set>
   </array>
  </projected>
 </calculation>
 <structure name="finalpos" >
  <crystal>
   <varray name="basis" >
    <v>       2.46120000       0.00000000       0.00000000 </v>
    <v>      -1.23060000       2.13146172       0.00000000 </v>
    <v>       0.00000000       0.00000000       6.70790000 </v>
   </varray>
   <i name="volume">     35.18933212 </i>
   <varray name="rec_basis" >
    <v>       0.40630587       0.23458080       0.00000000 </v>
    <v>       0.00000000       0.46916160       0.00000000 </v>
    <v>       0.00000000       0.00000000       0.14907795 </v>
   </varray>
  </crystal>
  <varray name="positions" >
   <v>       0.00000000       0.00000000       0.00000000 </v>
   <v>       0.33333333       0.66666667       0.00000000 </v>
   <v>       0.33333333       0.66666667       0.50000000 </v>
   <v>       0.66666667       0.33333333       0.50000000 </v>
  </varray>
 </structure>
</modeling>
