   1   1   1   0
  0.1812793E+02  0.2948635E-09  0.2948635E-09  0.2948635E-09  0.5000000E-15
  1.000000000000000E-004
  CAR 
 unknown system                          
     24.84783646     -3.29754966  301      6.05429381      1.00000000
     -3.298  0.0000E+00  0.0000E+00  0.0000E+00  0.0000E+00
     -3.204  0.0000E+00  0.0000E+00  0.0000E+00  0.0000E+00
     -3.110  0.0000E+00  0.0000E+00  0.0000E+00  0.0000E+00
     -3.016  0.0000E+00  0.0000E+00  0.0000E+00  0.0000E+00
     -2.922  0.0000E+00  0.0000E+00  0.0000E+00  0.0000E+00
     -2.828  0.0000E+00  0.0000E+00  0.0000E+00  0.0000E+00
     -2.735  0.0000E+00  0.0000E+00  0.0000E+00  0.0000E+00
     -2.641  0.0000E+00  0.0000E+00  0.0000E+00  0.0000E+00
     -2.547  0.0000E+00  0.0000E+00  0.0000E+00  0.0000E+00
     -2.453 -0.1385E-33 -0.3687E-34 -0.1300E-34 -0.3459E-35
     -2.359 -0.4845E-21 -0.1721E-21 -0.4545E-22 -0.1614E-22
     -2.266 -0.1315E-11 -0.6253E-12 -0.1234E-12 -0.5867E-13
     -2.172 -0.2609E-05 -0.1673E-05 -0.2448E-06 -0.1570E-06
     -2.078 -0.1467E-02 -0.1462E-02 -0.1379E-03 -0.1373E-03
     -1.984  0.4117E-01  0.3988E-01  0.3725E-02  0.3604E-02
     -1.890  0.1971E-02  0.3270E-02  0.3910E-02  0.3911E-02
     -1.796 -0.3698E-04 -0.5215E-04  0.3906E-02  0.3906E-02
     -1.703 -0.9854E-03 -0.7641E-03  0.3814E-02  0.3835E-02
     -1.609  0.5006E-01  0.4216E-01  0.8510E-02  0.7790E-02
     -1.515  0.7790E-01  0.8598E-01  0.1582E-01  0.1586E-01
     -1.421 -0.2059E-02 -0.2468E-02  0.1563E-01  0.1563E-01
     -1.327 -0.3099E-03 -0.2269E-03  0.1560E-01  0.1560E-01
     -1.234  0.2051E-01  0.1507E-01  0.1752E-01  0.1702E-01
     -1.140  0.1085E+00  0.1142E+00  0.2770E-01  0.2773E-01
     -1.046 -0.3816E-02 -0.4151E-02  0.2734E-01  0.2734E-01
     -0.952 -0.5498E-03 -0.4310E-03  0.2729E-01  0.2730E-01
     -0.858  0.2392E-01  0.1862E-01  0.2954E-01  0.2905E-01
     -0.764  0.1479E+00  0.1527E+00  0.4341E-01  0.4338E-01
     -0.671 -0.4721E-02 -0.4317E-02  0.4297E-01  0.4297E-01
     -0.577 -0.1569E-02 -0.1212E-02  0.4282E-01  0.4286E-01
     -0.483  0.8545E-01  0.7059E-01  0.5084E-01  0.4948E-01
     -0.389  0.1708E+00  0.1862E+00  0.6686E-01  0.6694E-01
     -0.295 -0.5525E-02 -0.6226E-02  0.6635E-01  0.6636E-01
     -0.202  0.3760E-01  0.3066E-01  0.6987E-01  0.6924E-01
     -0.108  0.9069E-01  0.9790E-01  0.7838E-01  0.7842E-01
     -0.014 -0.2727E-02 -0.3152E-02  0.7813E-01  0.7813E-01
      0.080 -0.9388E-03 -0.7099E-03  0.7804E-01  0.7806E-01
      0.174  0.5452E-01  0.4272E-01  0.8315E-01  0.8207E-01
      0.268  0.2001E+00  0.2127E+00  0.1019E+00  0.1020E+00
      0.361  0.8638E-01  0.7858E-01  0.1100E+00  0.1094E+00
      0.455  0.2913E-01  0.3446E-01  0.1128E+00  0.1126E+00
      0.549  0.2573E+00  0.2546E+00  0.1369E+00  0.1365E+00
      0.643 -0.1813E-02  0.1064E-02  0.1367E+00  0.1366E+00
      0.737  0.1620E+00  0.1596E+00  0.1519E+00  0.1516E+00
      0.830  0.4470E-02  0.8141E-02  0.1524E+00  0.1524E+00
      0.924 -0.1914E-03 -0.2099E-03  0.1523E+00  0.1523E+00
      1.018 -0.1386E-01 -0.1626E-01  0.1510E+00  0.1508E+00
      1.112  0.5229E+00  0.5137E+00  0.2001E+00  0.1990E+00
      1.206  0.2179E+00  0.2221E+00  0.2205E+00  0.2198E+00
      1.300  0.4774E-01  0.5238E-01  0.2250E+00  0.2248E+00
      1.393  0.1389E+00  0.1417E+00  0.2380E+00  0.2380E+00
      1.487  0.2128E+00  0.1905E+00  0.2580E+00  0.2559E+00
      1.581  0.2622E+00  0.2715E+00  0.2826E+00  0.2814E+00
      1.675  0.2784E+00  0.2833E+00  0.3087E+00  0.3080E+00
      1.769  0.6331E+00  0.6318E+00  0.3681E+00  0.3673E+00
      1.862  0.2375E+00  0.2317E+00  0.3904E+00  0.3890E+00
      1.956  0.3805E+00  0.3721E+00  0.4261E+00  0.4239E+00
      2.050  0.5285E+00  0.5110E+00  0.4757E+00  0.4718E+00
      2.144  0.3953E+00  0.4306E+00  0.5128E+00  0.5122E+00
      2.238  0.3969E+00  0.3803E+00  0.5500E+00  0.5479E+00
      2.332  0.4186E+00  0.4285E+00  0.5893E+00  0.5881E+00
      2.425  0.1298E+00  0.1435E+00  0.6015E+00  0.6016E+00
      2.519  0.2160E+00  0.1898E+00  0.6217E+00  0.6194E+00
      2.613  0.5385E+00  0.5451E+00  0.6722E+00  0.6705E+00
      2.707  0.6336E+00  0.6147E+00  0.7317E+00  0.7282E+00
      2.801  0.7006E+00  0.7163E+00  0.7974E+00  0.7954E+00
      2.894  0.3607E+00  0.3697E+00  0.8312E+00  0.8301E+00
      2.988  0.4640E+00  0.4681E+00  0.8748E+00  0.8740E+00
      3.082  0.1560E+00  0.1564E+00  0.8894E+00  0.8887E+00
      3.176  0.5305E+00  0.5076E+00  0.9392E+00  0.9363E+00
      3.270  0.2438E+00  0.2673E+00  0.9621E+00  0.9614E+00
      3.364  0.5773E+00  0.5457E+00  0.1016E+01  0.1013E+01
      3.457  0.6912E+00  0.7193E+00  0.1081E+01  0.1080E+01
      3.551  0.5754E+00  0.5698E+00  0.1135E+01  0.1134E+01
      3.645  0.1747E+00  0.1919E+00  0.1151E+01  0.1152E+01
      3.739  0.4329E+00  0.4182E+00  0.1192E+01  0.1191E+01
      3.833  0.2311E+00  0.2298E+00  0.1214E+01  0.1212E+01
      3.926  0.3606E+00  0.3672E+00  0.1248E+01  0.1247E+01
      4.020  0.6437E+00  0.6263E+00  0.1308E+01  0.1306E+01
      4.114  0.7918E+00  0.8064E+00  0.1382E+01  0.1381E+01
      4.208  0.5087E-01  0.5608E-01  0.1387E+01  0.1386E+01
      4.302  0.7260E+00  0.6879E+00  0.1455E+01  0.1451E+01
      4.396  0.8372E+00  0.8679E+00  0.1534E+01  0.1532E+01
      4.489  0.3076E+00  0.3191E+00  0.1563E+01  0.1562E+01
      4.583  0.2452E+00  0.2324E+00  0.1586E+01  0.1584E+01
      4.677  0.3442E+00  0.3544E+00  0.1618E+01  0.1617E+01
      4.771  0.4365E+00  0.4107E+00  0.1659E+01  0.1656E+01
      4.865  0.9891E+00  0.9834E+00  0.1752E+01  0.1748E+01
      4.958  0.3932E+00  0.4218E+00  0.1788E+01  0.1788E+01
      5.052  0.1735E+00  0.1555E+00  0.1805E+01  0.1802E+01
      5.146  0.8080E+00  0.8323E+00  0.1881E+01  0.1880E+01
      5.240  0.2605E+00  0.2346E+00  0.1905E+01  0.1902E+01
      5.334  0.9956E+00  0.1005E+01  0.1998E+01  0.1997E+01
      5.428  0.7637E+00  0.7697E+00  0.2070E+01  0.2069E+01
      5.521  0.5433E+00  0.5116E+00  0.2121E+01  0.2117E+01
      5.615  0.9275E+00  0.9603E+00  0.2208E+01  0.2207E+01
      5.709  0.3676E+00  0.3511E+00  0.2242E+01  0.2240E+01
      5.803  0.4700E+00  0.4905E+00  0.2287E+01  0.2286E+01
      5.897  0.8752E+00  0.8441E+00  0.2369E+01  0.2365E+01
      5.990  0.9922E+00  0.9998E+00  0.2462E+01  0.2459E+01
      6.084  0.5346E+00  0.5513E+00  0.2512E+01  0.2511E+01
      6.178  0.3150E+00  0.3111E+00  0.2541E+01  0.2540E+01
      6.272  0.3427E+00  0.3470E+00  0.2574E+01  0.2572E+01
      6.366  0.7372E+00  0.7162E+00  0.2643E+01  0.2640E+01
      6.460  0.6694E+00  0.6862E+00  0.2706E+01  0.2704E+01
      6.553  0.6965E+00  0.6712E+00  0.2771E+01  0.2767E+01
      6.647  0.4364E+00  0.4811E+00  0.2812E+01  0.2812E+01
      6.741  0.5519E+00  0.5026E+00  0.2864E+01  0.2859E+01
      6.835  0.6655E+00  0.6976E+00  0.2926E+01  0.2925E+01
      6.929  0.4013E+00  0.3810E+00  0.2964E+01  0.2960E+01
      7.022  0.1115E+01  0.1126E+01  0.3068E+01  0.3066E+01
      7.116  0.2197E+00  0.2218E+00  0.3089E+01  0.3087E+01
      7.210  0.5170E+00  0.5251E+00  0.3137E+01  0.3136E+01
      7.304  0.5185E+00  0.5101E+00  0.3186E+01  0.3184E+01
      7.398  0.4570E+00  0.4754E+00  0.3229E+01  0.3229E+01
      7.492  0.1697E+00  0.1557E+00  0.3245E+01  0.3243E+01
      7.585  0.4392E+00  0.4563E+00  0.3286E+01  0.3286E+01
      7.679  0.9358E-01  0.9071E-01  0.3295E+01  0.3295E+01
      7.773  0.5539E+00  0.4982E+00  0.3347E+01  0.3341E+01
      7.867  0.6143E+00  0.6685E+00  0.3404E+01  0.3404E+01
      7.961  0.6305E+00  0.6117E+00  0.3464E+01  0.3461E+01
      8.054  0.2210E+00  0.2444E+00  0.3484E+01  0.3484E+01
      8.148  0.1198E+00  0.1009E+00  0.3496E+01  0.3494E+01
      8.242  0.3269E+00  0.3260E+00  0.3526E+01  0.3524E+01
      8.336  0.6323E+00  0.6174E+00  0.3586E+01  0.3582E+01
      8.430  0.7188E+00  0.7139E+00  0.3653E+01  0.3649E+01
      8.524  0.5100E+00  0.5132E+00  0.3701E+01  0.3697E+01
      8.617  0.3519E+00  0.3578E+00  0.3734E+01  0.3731E+01
      8.711  0.1030E+01  0.1042E+01  0.3831E+01  0.3829E+01
      8.805  0.9114E-01  0.9616E-01  0.3839E+01  0.3838E+01
      8.899  0.3676E+00  0.3747E+00  0.3874E+01  0.3873E+01
      8.993  0.5831E+00  0.5758E+00  0.3928E+01  0.3927E+01
      9.086  0.2430E+00  0.2470E+00  0.3951E+01  0.3950E+01
      9.180  0.2104E-01  0.3198E-01  0.3953E+01  0.3953E+01
      9.274  0.5451E-01  0.3569E-01  0.3958E+01  0.3956E+01
      9.368  0.4730E+00  0.4823E+00  0.4003E+01  0.4002E+01
      9.462  0.5705E+00  0.5278E+00  0.4056E+01  0.4051E+01
      9.556  0.9615E+00  0.9924E+00  0.4146E+01  0.4144E+01
      9.649  0.2571E+00  0.2660E+00  0.4170E+01  0.4169E+01
      9.743  0.5058E+00  0.4975E+00  0.4218E+01  0.4216E+01
      9.837  0.9457E-01  0.1158E+00  0.4227E+01  0.4227E+01
      9.931  0.3924E-01  0.2978E-01  0.4230E+01  0.4230E+01
     10.025  0.2095E+00  0.2149E+00  0.4250E+01  0.4250E+01
     10.118  0.3682E+00  0.3549E+00  0.4285E+01  0.4283E+01
     10.212  0.3125E+00  0.3182E+00  0.4314E+01  0.4313E+01
     10.306  0.1193E+00  0.1165E+00  0.4325E+01  0.4324E+01
     10.400  0.3159E+00  0.3214E+00  0.4355E+01  0.4354E+01
     10.494  0.7667E-01  0.8441E-01  0.4362E+01  0.4362E+01
     10.588  0.7694E+00  0.7138E+00  0.4434E+01  0.4429E+01
     10.681  0.7804E+00  0.8271E+00  0.4507E+01  0.4507E+01
     10.775  0.4592E+00  0.4409E+00  0.4550E+01  0.4548E+01
     10.869  0.6419E+00  0.6405E+00  0.4611E+01  0.4608E+01
     10.963  0.2390E+00  0.2675E+00  0.4633E+01  0.4633E+01
     11.057  0.2291E+00  0.2219E+00  0.4655E+01  0.4654E+01
     11.150  0.1415E+00  0.1457E+00  0.4668E+01  0.4668E+01
     11.244  0.2538E-01  0.2063E-01  0.4670E+01  0.4669E+01
     11.338  0.3954E+00  0.3927E+00  0.4707E+01  0.4706E+01
     11.432  0.3729E+00  0.3730E+00  0.4742E+01  0.4741E+01
     11.526  0.4012E+00  0.3902E+00  0.4780E+01  0.4778E+01
     11.620  0.7232E+00  0.6993E+00  0.4848E+01  0.4844E+01
     11.713  0.1531E+01  0.1544E+01  0.4991E+01  0.4988E+01
     11.807  0.2008E+00  0.2190E+00  0.5010E+01  0.5009E+01
     11.901  0.1101E+01  0.1094E+01  0.5114E+01  0.5112E+01
     11.995  0.3644E+00  0.3773E+00  0.5148E+01  0.5147E+01
     12.089  0.2136E+00  0.2138E+00  0.5168E+01  0.5167E+01
     12.182  0.1361E+00  0.1357E+00  0.5181E+01  0.5180E+01
     12.276  0.6099E+00  0.6101E+00  0.5238E+01  0.5237E+01
     12.370  0.2336E+00  0.2241E+00  0.5260E+01  0.5258E+01
     12.464  0.5178E+00  0.5284E+00  0.5308E+01  0.5308E+01
     12.558  0.5374E+00  0.5256E+00  0.5359E+01  0.5357E+01
     12.652  0.6350E+00  0.6264E+00  0.5418E+01  0.5416E+01
     12.745  0.3410E+00  0.3694E+00  0.5450E+01  0.5450E+01
     12.839 -0.1101E-01 -0.1249E-01  0.5449E+01  0.5449E+01
     12.933  0.9242E-02  0.5441E-02  0.5450E+01  0.5450E+01
     13.027  0.1668E+00  0.1607E+00  0.5466E+01  0.5465E+01
     13.121  0.1889E+00  0.1991E+00  0.5483E+01  0.5483E+01
     13.214  0.5606E+00  0.5340E+00  0.5536E+01  0.5534E+01
     13.308  0.1976E+00  0.2259E+00  0.5555E+01  0.5555E+01
     13.402  0.2801E+00  0.2367E+00  0.5581E+01  0.5577E+01
     13.496  0.7063E+00  0.7437E+00  0.5647E+01  0.5647E+01
     13.590  0.3972E+00  0.3852E+00  0.5684E+01  0.5683E+01
     13.683  0.1202E+00  0.1368E+00  0.5696E+01  0.5696E+01
     13.777 -0.1979E-01 -0.2057E-01  0.5694E+01  0.5694E+01
     13.871  0.6245E+00  0.5850E+00  0.5752E+01  0.5749E+01
     13.965  0.2725E+00  0.3136E+00  0.5778E+01  0.5778E+01
     14.059 -0.8007E-02 -0.1176E-01  0.5777E+01  0.5777E+01
     14.153  0.2761E+00  0.2678E+00  0.5803E+01  0.5802E+01
     14.246  0.4486E+00  0.4490E+00  0.5845E+01  0.5844E+01
     14.340  0.2710E+00  0.2778E+00  0.5871E+01  0.5870E+01
     14.434  0.2091E+00  0.2007E+00  0.5890E+01  0.5889E+01
     14.528  0.2893E+00  0.2956E+00  0.5917E+01  0.5917E+01
     14.622  0.1300E+00  0.1326E+00  0.5930E+01  0.5929E+01
     14.715  0.1236E-02  0.4179E-02  0.5930E+01  0.5930E+01
     14.809 -0.6405E-04 -0.9416E-04  0.5930E+01  0.5930E+01
     14.903 -0.8825E-05 -0.5537E-05  0.5930E+01  0.5930E+01
     14.997 -0.8691E-02 -0.8198E-02  0.5929E+01  0.5929E+01
     15.091  0.2367E+00  0.2265E+00  0.5951E+01  0.5950E+01
     15.185  0.1347E-01  0.2220E-01  0.5952E+01  0.5952E+01
     15.278  0.3642E+00  0.3511E+00  0.5987E+01  0.5985E+01
     15.372  0.2771E+00  0.2910E+00  0.6013E+01  0.6012E+01
     15.466  0.5500E-01  0.4229E-01  0.6018E+01  0.6016E+01
     15.560  0.2000E+00  0.2081E+00  0.6036E+01  0.6036E+01
     15.654  0.2445E+00  0.2484E+00  0.6059E+01  0.6059E+01
     15.747  0.5568E-02  0.2232E-02  0.6060E+01  0.6060E+01
     15.841  0.3077E+00  0.3009E+00  0.6089E+01  0.6088E+01
     15.935  0.2715E+00  0.2705E+00  0.6114E+01  0.6113E+01
     16.029  0.2165E-01  0.3373E-01  0.6116E+01  0.6116E+01
     16.123  0.4359E+00  0.3989E+00  0.6157E+01  0.6154E+01
     16.217  0.4542E+00  0.4934E+00  0.6200E+01  0.6200E+01
     16.310  0.2767E+00  0.2500E+00  0.6226E+01  0.6223E+01
     16.404  0.4389E+00  0.4551E+00  0.6267E+01  0.6266E+01
     16.498  0.1367E+00  0.1402E+00  0.6280E+01  0.6279E+01
     16.592  0.2111E-01  0.2123E-01  0.6282E+01  0.6281E+01
     16.686  0.2656E+00  0.2647E+00  0.6307E+01  0.6306E+01
     16.779  0.1592E+00  0.1508E+00  0.6322E+01  0.6320E+01
     16.873  0.4985E+00  0.5103E+00  0.6368E+01  0.6368E+01
     16.967  0.4943E-01  0.4350E-01  0.6373E+01  0.6372E+01
     17.061  0.3460E+00  0.3328E+00  0.6405E+01  0.6403E+01
     17.155  0.2685E+00  0.2823E+00  0.6431E+01  0.6430E+01
     17.249  0.1670E+00  0.1701E+00  0.6446E+01  0.6446E+01
     17.342  0.4025E+00  0.3761E+00  0.6484E+01  0.6481E+01
     17.436  0.1406E+00  0.1692E+00  0.6497E+01  0.6497E+01
     17.530  0.1148E+00  0.1179E+00  0.6508E+01  0.6508E+01
     17.624  0.7123E-01  0.5716E-01  0.6515E+01  0.6513E+01
     17.718  0.3075E+00  0.3185E+00  0.6544E+01  0.6543E+01
     17.811  0.2377E-01  0.1955E-01  0.6546E+01  0.6545E+01
     17.905  0.2970E+00  0.2881E+00  0.6574E+01  0.6572E+01
     17.999  0.4093E+00  0.3980E+00  0.6612E+01  0.6610E+01
     18.093  0.4241E+00  0.4293E+00  0.6652E+01  0.6650E+01
     18.187  0.3055E+00  0.3102E+00  0.6681E+01  0.6679E+01
     18.281  0.1570E+00  0.1559E+00  0.6695E+01  0.6694E+01
     18.374  0.6925E+00  0.6909E+00  0.6760E+01  0.6758E+01
     18.468  0.1025E+00  0.1231E+00  0.6770E+01  0.6770E+01
     18.562  0.4290E-03 -0.7423E-02  0.6770E+01  0.6769E+01
     18.656  0.3674E+00  0.3705E+00  0.6804E+01  0.6804E+01
     18.750  0.1229E+00  0.1170E+00  0.6816E+01  0.6815E+01
     18.843  0.4856E-01  0.5877E-01  0.6820E+01  0.6820E+01
     18.937 -0.4763E-02 -0.4441E-02  0.6820E+01  0.6820E+01
     19.031  0.1513E+00  0.1335E+00  0.6834E+01  0.6833E+01
     19.125  0.1433E+00  0.1610E+00  0.6848E+01  0.6848E+01
     19.219  0.1504E+00  0.1346E+00  0.6862E+01  0.6860E+01
     19.313  0.4227E+00  0.4251E+00  0.6901E+01  0.6900E+01
     19.406  0.4541E+00  0.4455E+00  0.6944E+01  0.6942E+01
     19.500  0.6660E+00  0.6395E+00  0.7006E+01  0.7002E+01
     19.594  0.5868E+00  0.6331E+00  0.7062E+01  0.7061E+01
     19.688  0.7421E-01  0.7711E-01  0.7068E+01  0.7069E+01
     19.782  0.1774E+01  0.1494E+01  0.7235E+01  0.7209E+01
     19.875  0.9377E+01  0.9644E+01  0.8115E+01  0.8113E+01
     19.969  0.2639E+00  0.2631E+00  0.8139E+01  0.8138E+01
     20.063  0.2009E+00  0.2069E+00  0.8158E+01  0.8158E+01
     20.157  0.2333E+00  0.2426E+00  0.8180E+01  0.8180E+01
     20.251  0.1338E+00  0.6819E-01  0.8193E+01  0.8187E+01
     20.345  0.1081E+00  0.1580E+00  0.8203E+01  0.8202E+01
     20.438  0.3932E+00  0.3933E+00  0.8240E+01  0.8238E+01
     20.532  0.2963E+00  0.2758E+00  0.8268E+01  0.8264E+01
     20.626  0.3049E+00  0.3423E+00  0.8296E+01  0.8296E+01
     20.720  0.4656E+00  0.4411E+00  0.8340E+01  0.8338E+01
     20.814  0.8374E-01  0.9338E-01  0.8348E+01  0.8347E+01
     20.907  0.3767E+00  0.3740E+00  0.8383E+01  0.8382E+01
     21.001  0.2771E+00  0.2878E+00  0.8409E+01  0.8409E+01
     21.095  0.1078E+00  0.9739E-01  0.8419E+01  0.8418E+01
     21.189  0.5043E+00  0.5113E+00  0.8466E+01  0.8466E+01
     21.283  0.5686E+00  0.5265E+00  0.8520E+01  0.8515E+01
     21.377  0.7499E+00  0.7710E+00  0.8590E+01  0.8587E+01
     21.470  0.3825E+00  0.4126E+00  0.8626E+01  0.8626E+01
     21.564  0.1745E-01  0.1198E-01  0.8628E+01  0.8627E+01
     21.658  0.2358E+00  0.2395E+00  0.8650E+01  0.8650E+01
     21.752  0.2228E-01  0.2016E-01  0.8652E+01  0.8652E+01
     21.846  0.2229E+00  0.2597E+00  0.8673E+01  0.8676E+01
     21.939  0.2843E+00  0.2354E+00  0.8699E+01  0.8698E+01
     22.033  0.4792E+00  0.4476E+00  0.8744E+01  0.8740E+01
     22.127  0.4377E+00  0.4325E+00  0.8785E+01  0.8781E+01
     22.221  0.2715E+00  0.3355E+00  0.8811E+01  0.8812E+01
     22.315  0.1075E+00  0.9263E-01  0.8821E+01  0.8821E+01
     22.409  0.1135E+00  0.1161E+00  0.8832E+01  0.8832E+01
     22.502  0.2159E+00  0.2053E+00  0.8852E+01  0.8851E+01
     22.596  0.1152E+00  0.1246E+00  0.8863E+01  0.8863E+01
     22.690  0.4393E-01  0.4475E-01  0.8867E+01  0.8867E+01
     22.784  0.1101E+00  0.1086E+00  0.8877E+01  0.8877E+01
     22.878  0.1360E+00  0.1354E+00  0.8890E+01  0.8890E+01
     22.971  0.4526E-01  0.4727E-01  0.8894E+01  0.8894E+01
     23.065  0.1191E+00  0.1187E+00  0.8905E+01  0.8905E+01
     23.159  0.1277E+00  0.1136E+00  0.8917E+01  0.8916E+01
     23.253  0.5221E+00  0.5358E+00  0.8966E+01  0.8966E+01
     23.347 -0.1939E-01 -0.1854E-01  0.8965E+01  0.8965E+01
     23.441  0.1011E+00  0.1013E+00  0.8974E+01  0.8974E+01
     23.534  0.3960E-01  0.3892E-01  0.8978E+01  0.8978E+01
     23.628  0.2462E+00  0.2466E+00  0.9001E+01  0.9001E+01
     23.722 -0.8816E-02 -0.8805E-02  0.9000E+01  0.9000E+01
     23.816 -0.1524E-04 -0.1565E-04  0.9000E+01  0.9000E+01
     23.910 -0.7547E-11 -0.7892E-11  0.9000E+01  0.9000E+01
     24.003  0.0000E+00  0.0000E+00  0.9000E+01  0.9000E+01
     24.097  0.0000E+00  0.0000E+00  0.9000E+01  0.9000E+01
     24.191  0.0000E+00  0.0000E+00  0.9000E+01  0.9000E+01
     24.285  0.0000E+00  0.0000E+00  0.9000E+01  0.9000E+01
     24.379  0.0000E+00  0.0000E+00  0.9000E+01  0.9000E+01
     24.473  0.0000E+00  0.0000E+00  0.9000E+01  0.9000E+01
     24.566  0.0000E+00  0.0000E+00  0.9000E+01  0.9000E+01
     24.660  0.0000E+00  0.0000E+00  0.9000E+01  0.9000E+01
     24.754  0.0000E+00  0.0000E+00  0.9000E+01  0.9000E+01
     24.848  0.0000E+00  0.0000E+00  0.9000E+01  0.9000E+01
     24.84783646     -3.29754966  301      6.05429381      1.00000000
     -3.298  0.0000E+00  0.0000E+00  0.0000E+00  0.0000E+00  0.0000E+00  0.0000E+00  0.0000E+00  0.0000E+00  0.0000E+00  0.0000E+00  0.0000E+00  0.0000E+00  0.0000E+00  0.0000E+00  0.0000E+00  0.0000E+00  0.0000E+00  0.0000E+00
     -3.204  0.0000E+00  0.0000E+00  0.0000E+00  0.0000E+00  0.0000E+00  0.0000E+00  0.0000E+00  0.0000E+00  0.0000E+00  0.0000E+00  0.0000E+00  0.0000E+00  0.0000E+00  0.0000E+00  0.0000E+00  0.0000E+00  0.0000E+00  0.0000E+00
     -3.110  0.0000E+00  0.0000E+00  0.0000E+00  0.0000E+00  0.0000E+00  0.0000E+00  0.0000E+00  0.0000E+00  0.0000E+00  0.0000E+00  0.0000E+00  0.0000E+00  0.0000E+00  0.0000E+00  0.0000E+00  0.0000E+00  0.0000E+00  0.0000E+00
     -3.016  0.0000E+00  0.0000E+00  0.0000E+00  0.0000E+00  0.0000E+00  0.0000E+00  0.0000E+00  0.0000E+00  0.0000E+00  0.0000E+00  0.0000E+00  0.0000E+00  0.0000E+00  0.0000E+00  0.0000E+00  0.0000E+00  0.0000E+00  0.0000E+00
     -2.922  0.0000E+00  0.0000E+00  0.0000E+00  0.0000E+00  0.0000E+00  0.0000E+00  0.0000E+00  0.0000E+00  0.0000E+00  0.0000E+00  0.0000E+00  0.0000E+00  0.0000E+00  0.0000E+00  0.0000E+00  0.0000E+00  0.0000E+00  0.0000E+00
     -2.828  0.0000E+00  0.0000E+00  0.0000E+00  0.0000E+00  0.0000E+00  0.0000E+00  0.0000E+00  0.0000E+00  0.0000E+00  0.0000E+00  0.0000E+00  0.0000E+00  0.0000E+00  0.0000E+00  0.0000E+00  0.0000E+00  0.0000E+00  0.0000E+00
     -2.735  0.0000E+00  0.0000E+00  0.0000E+00  0.0000E+00  0.0000E+00  0.0000E+00  0.0000E+00  0.0000E+00  0.0000E+00  0.0000E+00  0.0000E+00  0.0000E+00  0.0000E+00  0.0000E+00  0.0000E+00  0.0000E+00  0.0000E+00  0.0000E+00
     -2.641  0.0000E+00  0.0000E+00  0.0000E+00  0.0000E+00  0.0000E+00  0.0000E+00  0.0000E+00  0.0000E+00  0.0000E+00  0.0000E+00  0.0000E+00  0.0000E+00  0.0000E+00  0.0000E+00  0.0000E+00  0.0000E+00  0.0000E+00  0.0000E+00
     -2.547  0.0000E+00  0.0000E+00  0.0000E+00  0.0000E+00  0.0000E+00  0.0000E+00  0.0000E+00  0.0000E+00  0.0000E+00  0.0000E+00  0.0000E+00  0.0000E+00  0.0000E+00  0.0000E+00  0.0000E+00  0.0000E+00  0.0000E+00  0.0000E+00
     -2.453 -0.1179E-33 -0.3139E-34 -0.5704E-36 -0.1518E-36 -0.5704E-36 -0.1518E-36 -0.5704E-36 -0.1518E-36 -0.1220E-37 -0.3249E-38 -0.1220E-37 -0.3249E-38 -0.2156E-47 -0.5062E-49 -0.1220E-37 -0.3249E-38 -0.6012E-47 -0.1336E-48
     -2.359 -0.4125E-21 -0.1465E-21 -0.1995E-23 -0.7085E-24 -0.1995E-23 -0.7085E-24 -0.1995E-23 -0.7085E-24 -0.4268E-25 -0.1516E-25 -0.4268E-25 -0.1516E-25 -0.7542E-35 -0.2362E-36 -0.4268E-25 -0.1516E-25 -0.2103E-34 -0.6234E-36
     -2.266 -0.1120E-11 -0.5324E-12 -0.5416E-14 -0.2575E-14 -0.5416E-14 -0.2575E-14 -0.5416E-14 -0.2575E-14 -0.1159E-15 -0.5510E-16 -0.1159E-15 -0.5510E-16 -0.2048E-25 -0.8585E-27 -0.1159E-15 -0.5510E-16 -0.5709E-25 -0.2265E-26
     -2.172 -0.2221E-05 -0.1424E-05 -0.1074E-07 -0.6888E-08 -0.1074E-07 -0.6888E-08 -0.1074E-07 -0.6888E-08 -0.2299E-09 -0.1474E-09 -0.2299E-09 -0.1474E-09 -0.4062E-19 -0.2297E-20 -0.2299E-09 -0.1474E-09 -0.1132E-18 -0.6061E-20
     -2.078 -0.1249E-02 -0.1245E-02 -0.6043E-05 -0.6020E-05 -0.6043E-05 -0.6020E-05 -0.6043E-05 -0.6020E-05 -0.1293E-06 -0.1288E-06 -0.1293E-06 -0.1288E-06 -0.2284E-16 -0.2007E-17 -0.1293E-06 -0.1288E-06 -0.6369E-16 -0.5297E-17
     -1.984  0.3506E-01  0.3395E-01  0.1695E-03  0.1642E-03  0.1695E-03  0.1642E-03  0.1695E-03  0.1642E-03  0.3627E-05  0.3515E-05  0.3627E-05  0.3515E-05  0.6410E-15  0.5475E-16  0.3627E-05  0.3515E-05  0.1787E-14  0.1445E-15
     -1.890  0.1678E-02  0.2784E-02  0.8117E-05  0.1346E-04  0.8117E-05  0.1346E-04  0.8117E-05  0.1346E-04  0.1737E-06  0.2881E-06  0.1737E-06  0.2881E-06  0.3049E-16  0.4406E-17  0.1737E-06  0.2881E-06  0.8497E-16  0.1160E-16
     -1.796 -0.3149E-04 -0.4440E-04 -0.1523E-06 -0.2147E-06 -0.1523E-06 -0.2147E-06 -0.1535E-06 -0.2154E-06 -0.3283E-08 -0.4610E-08 -0.3259E-08 -0.4596E-08 -0.9104E-11 -0.5123E-11 -0.3283E-08 -0.4610E-08 -0.2731E-10 -0.1537E-10
     -1.703 -0.8131E-03 -0.6304E-03 -0.3791E-05 -0.2939E-05 -0.3791E-05 -0.2939E-05 -0.3568E-04 -0.2766E-04 -0.7526E-06 -0.5838E-06 -0.1134E-06 -0.8794E-07 -0.2429E-06 -0.1882E-06 -0.7526E-06 -0.5838E-06 -0.7288E-06 -0.5647E-06
     -1.609  0.4130E-01  0.3479E-01  0.1926E-03  0.1622E-03  0.1926E-03  0.1622E-03  0.1812E-02  0.1526E-02  0.3823E-04  0.3221E-04  0.5760E-05  0.4853E-05  0.1234E-04  0.1039E-04  0.3823E-04  0.3221E-04  0.3702E-04  0.3116E-04
     -1.515  0.6427E-01  0.7094E-01  0.2997E-03  0.3307E-03  0.2997E-03  0.3307E-03  0.2820E-02  0.3112E-02  0.5950E-04  0.6569E-04  0.8963E-05  0.9895E-05  0.1920E-04  0.2118E-04  0.5950E-04  0.6569E-04  0.5761E-04  0.6354E-04
     -1.421 -0.1699E-02 -0.2036E-02 -0.7919E-05 -0.9491E-05 -0.7919E-05 -0.9491E-05 -0.7453E-04 -0.8933E-04 -0.1572E-05 -0.1885E-05 -0.2369E-06 -0.2840E-06 -0.5075E-06 -0.6079E-06 -0.1572E-05 -0.1885E-05 -0.1522E-05 -0.1824E-05
     -1.327 -0.2476E-03 -0.1812E-03 -0.1048E-04 -0.7663E-05 -0.1048E-04 -0.7663E-05 -0.1080E-05 -0.7977E-06 -0.3095E-06 -0.2266E-06 -0.2063E-05 -0.1509E-05 -0.6080E-07 -0.4448E-07 -0.3095E-06 -0.2266E-06 -0.1824E-06 -0.1334E-06
     -1.234  0.1638E-01  0.1204E-01  0.6938E-03  0.5099E-03  0.6938E-03  0.5099E-03  0.7096E-04  0.5215E-04  0.2048E-04  0.1506E-04  0.1366E-03  0.1004E-03  0.4022E-05  0.2954E-05  0.2048E-04  0.1506E-04  0.1207E-04  0.8862E-05
     -1.140  0.8671E-01  0.9124E-01  0.3672E-02  0.3864E-02  0.3672E-02  0.3864E-02  0.3756E-03  0.3952E-03  0.1084E-03  0.1141E-03  0.7229E-03  0.7611E-03  0.2129E-04  0.2239E-04  0.1084E-03  0.1141E-03  0.6386E-04  0.6716E-04
     -1.046 -0.3049E-02 -0.3316E-02 -0.1291E-03 -0.1404E-03 -0.1291E-03 -0.1404E-03 -0.1321E-04 -0.1436E-04 -0.3812E-05 -0.4149E-05 -0.2542E-04 -0.2766E-04 -0.7485E-06 -0.8135E-06 -0.3812E-05 -0.4149E-05 -0.2245E-05 -0.2441E-05
     -0.952 -0.4240E-03 -0.3324E-03 -0.1448E-04 -0.1156E-04 -0.2194E-04 -0.1671E-04 -0.1442E-04 -0.1146E-04 -0.4074E-05 -0.3247E-05 -0.4226E-05 -0.3362E-05 -0.8454E-06 -0.5843E-06 -0.4216E-05 -0.3345E-05 -0.1107E-08 -0.1766E-08
     -0.858  0.1845E-01  0.1436E-01  0.6407E-03  0.5495E-03  0.9280E-03  0.6004E-03  0.6407E-03  0.5495E-03  0.1814E-03  0.1573E-03  0.1868E-03  0.1583E-03  0.3254E-04  0.5766E-05  0.1868E-03  0.1583E-03 -0.1990E-15 -0.4720E-15
     -0.764  0.1138E+00  0.1175E+00  0.1087E-02  0.1177E-02  0.1262E-01  0.1290E-01  0.1087E-02  0.1177E-02  0.2140E-03  0.2384E-03  0.4331E-03  0.4611E-03  0.1307E-02  0.1327E-02  0.4331E-03  0.4611E-03  0.8156E-15 -0.7454E-18
     -0.671 -0.3631E-02 -0.3321E-02 -0.2957E-04 -0.3131E-04 -0.4153E-03 -0.3695E-03 -0.2957E-04 -0.3131E-04 -0.5213E-05 -0.6117E-05 -0.1254E-04 -0.1254E-04 -0.4369E-04 -0.3828E-04 -0.1254E-04 -0.1254E-04 -0.1548E-09 -0.8667E-10
     -0.577 -0.1167E-02 -0.9014E-03 -0.4623E-04 -0.3547E-04 -0.5392E-05 -0.4950E-05 -0.1386E-03 -0.1063E-03 -0.2664E-04 -0.2044E-04 -0.2642E-05 -0.2044E-05 -0.5050E-05 -0.3957E-05 -0.4011E-05 -0.3094E-05 -0.5559E-05 -0.4259E-05
     -0.483  0.6354E-01  0.5249E-01  0.2534E-02  0.2093E-02  0.2366E-03  0.1954E-03  0.7599E-02  0.6278E-02  0.1462E-02  0.1208E-02  0.1437E-03  0.1188E-03  0.2706E-03  0.2233E-03  0.2188E-03  0.1809E-03  0.3050E-03  0.2517E-03
     -0.389  0.1270E+00  0.1384E+00  0.5065E-02  0.5519E-02  0.4729E-03  0.5153E-03  0.1519E-01  0.1655E-01  0.2922E-02  0.3185E-02  0.2873E-03  0.3133E-03  0.5409E-03  0.5889E-03  0.4374E-03  0.4769E-03  0.6096E-03  0.6638E-03
     -0.295 -0.4089E-02 -0.4615E-02 -0.1602E-03 -0.1818E-03 -0.2912E-04 -0.2779E-04 -0.4849E-03 -0.5488E-03 -0.9787E-04 -0.1091E-03 -0.1758E-04 -0.1681E-04 -0.1603E-04 -0.1858E-04 -0.2698E-04 -0.2576E-04 -0.1919E-04 -0.2180E-04
     -0.202  0.2684E-01  0.2189E-01  0.9030E-03  0.7363E-03  0.9030E-03  0.7363E-03  0.2975E-02  0.2426E-02  0.8379E-03  0.6836E-03  0.5418E-03  0.4421E-03  0.3463E-04  0.2821E-04  0.8379E-03  0.6836E-03  0.1039E-03  0.8465E-04
     -0.108  0.6475E-01  0.6988E-01  0.2178E-02  0.2351E-02  0.2178E-02  0.2351E-02  0.7174E-02  0.7744E-02  0.2021E-02  0.2182E-02  0.1307E-02  0.1411E-02  0.8353E-04  0.9009E-04  0.2021E-02  0.2182E-02  0.2506E-03  0.2703E-03
     -0.014 -0.1947E-02 -0.2250E-02 -0.6550E-04 -0.7570E-04 -0.6550E-04 -0.7570E-04 -0.2158E-03 -0.2494E-03 -0.6077E-04 -0.7028E-04 -0.3930E-04 -0.4545E-04 -0.2512E-05 -0.2901E-05 -0.6077E-04 -0.7028E-04 -0.7536E-05 -0.8703E-05
      0.080 -0.6444E-03 -0.4874E-03 -0.5775E-04 -0.4436E-04 -0.9061E-04 -0.6767E-04 -0.1894E-05 -0.1456E-05 -0.3291E-05 -0.2536E-05 -0.3394E-04 -0.2607E-04 -0.1181E-04 -0.8424E-05 -0.3831E-05 -0.2919E-05 -0.2695E-05 -0.2069E-05
      0.174  0.3739E-01  0.2933E-01  0.3232E-02  0.2659E-02  0.5402E-02  0.4090E-02  0.1094E-03  0.8380E-04  0.1840E-03  0.1510E-03  0.1902E-02  0.1563E-02  0.7707E-03  0.5157E-03  0.2197E-03  0.1745E-03  0.1505E-03  0.1240E-03
      0.268  0.1362E+00  0.1447E+00  0.6958E-02  0.7574E-02  0.2547E-01  0.2684E-01  0.4393E-03  0.4714E-03  0.3244E-03  0.3734E-03  0.4152E-02  0.4529E-02  0.6250E-02  0.6506E-02  0.6287E-03  0.6904E-03  0.3162E-03  0.3436E-03
      0.361  0.5625E-01  0.5113E-01  0.5524E-02  0.5046E-02  0.4841E-02  0.4337E-02  0.1354E-02  0.1246E-02  0.3330E-02  0.3071E-02  0.5195E-02  0.4766E-02 -0.1817E-03 -0.1944E-03  0.3319E-02  0.3059E-02  0.1344E-03  0.1216E-03
      0.455  0.1904E-01  0.2253E-01  0.2014E-02  0.2402E-02  0.1228E-02  0.1402E-02  0.5056E-03  0.6047E-03  0.1241E-02  0.1486E-02  0.1842E-02  0.2196E-02 -0.2225E-03 -0.2839E-03  0.1237E-02  0.1481E-02  0.5328E-04  0.6369E-04
      0.549  0.1675E+00  0.1657E+00  0.6399E-02  0.6324E-02  0.3987E-01  0.3947E-01  0.4883E-03  0.4813E-03  0.8887E-03  0.8759E-03  0.7146E-02  0.7072E-02  0.1024E-01  0.1013E-01  0.1059E-02  0.1044E-02  0.4175E-04  0.4097E-04
      0.643 -0.1348E-02  0.6113E-03  0.4609E-04  0.1021E-03 -0.7425E-03 -0.1405E-03  0.9209E-04  0.5147E-04  0.2466E-03  0.1508E-03  0.1643E-03  0.1706E-03 -0.2020E-03 -0.3494E-04  0.2115E-03  0.1186E-03 -0.3305E-06  0.3632E-06
      0.737  0.9914E-01  0.9760E-01  0.3441E-02  0.3428E-02  0.1829E-01  0.1783E-01  0.3443E-02  0.3431E-02  0.6814E-02  0.6825E-02  0.7761E-02  0.7742E-02  0.3439E-02  0.3331E-02  0.7763E-02  0.7745E-02 -0.1390E-07 -0.2029E-07
      0.830  0.2823E-02  0.5102E-02  0.4493E-04  0.1041E-03  0.7518E-03  0.1259E-02  0.4493E-04  0.1041E-03  0.5422E-04  0.1585E-03  0.9936E-04  0.2323E-03  0.1638E-03  0.2673E-03  0.9936E-04  0.2323E-03 -0.7083E-12 -0.3973E-12
      0.924 -0.1159E-03 -0.1282E-03 -0.6207E-05 -0.5542E-05 -0.1535E-04 -0.2123E-04 -0.1174E-04 -0.9302E-05 -0.1019E-04 -0.9316E-05 -0.6828E-05 -0.7641E-05 -0.3740E-05 -0.4731E-05 -0.6455E-05 -0.7385E-05 -0.6732E-06 -0.4567E-06
      1.018 -0.8018E-02 -0.9429E-02 -0.7054E-03 -0.8405E-03 -0.4658E-04 -0.5155E-04 -0.1645E-02 -0.1949E-02 -0.1229E-02 -0.1433E-02 -0.5812E-03 -0.6505E-03 -0.1051E-03 -0.1256E-03 -0.5038E-03 -0.5627E-03 -0.1103E-03 -0.1310E-03
      1.112  0.3033E+00  0.2982E+00  0.2720E-01  0.2683E-01  0.1047E-02  0.1068E-02  0.6301E-01  0.6206E-01  0.4644E-01  0.4548E-01  0.2104E-01  0.2033E-01  0.3406E-02  0.3448E-02  0.1829E-01  0.1763E-01  0.4241E-02  0.4177E-02
      1.206  0.1095E+00  0.1121E+00  0.1861E-02  0.2339E-02  0.2110E-01  0.1963E-01  0.7320E-02  0.8557E-02  0.1453E-01  0.1576E-01  0.1539E-01  0.1620E-01  0.2013E-01  0.1858E-01  0.1479E-01  0.1555E-01  0.3255E-03  0.4050E-03
      1.300  0.2128E-01  0.2397E-01  0.8826E-04  0.6472E-04  0.5135E-02  0.6592E-02 -0.9187E-04 -0.9935E-04  0.4604E-02  0.4030E-02  0.4622E-02  0.4050E-02  0.5255E-02  0.6787E-02  0.4665E-02  0.4111E-02 -0.1456E-04 -0.1611E-04
      1.393  0.5850E-01  0.5960E-01  0.3383E-02  0.3407E-02  0.2802E-02  0.2905E-02  0.1592E-03  0.1714E-03  0.2378E-01  0.2424E-01  0.2564E-01  0.2612E-01 -0.5464E-03 -0.4707E-03  0.2379E-01  0.2424E-01  0.6739E-04  0.6742E-04