    1    1    1    2
  0.1812793E+02  0.2948635E-09  0.2948635E-09  0.2948635E-09  0.5000000E-15
  1.000000000000000E-004
  CAR 
 unknown system                          
    5   60    9
 
  0.6250000E-01  0.6250000E-01  0.6250000E-01  0.3906250E-02
   1       -2.018214     -2.014402
   2        6.379675      6.382558
   3        6.601145      6.604092
   4        6.601145      6.604092
   5        9.574987      9.580036
   6        9.574987      9.580036
   7       18.992920     18.992192
   8       19.806444     19.809320
   9       22.836259     22.842263
 
  0.1875000E+00  0.6250000E-01  0.6250000E-01  0.1171875E-01
   1       -1.211313     -1.207530
   2        5.763989      5.766643
   3        6.919317      6.922462
   4        6.950405      6.953374
   5        8.964314      8.969411
   6        9.703213      9.708116
   7       19.805147     19.808022
   8       20.411736     20.412613
   9       21.292238     21.296722
 
  0.3125000E+00  0.6250000E-01  0.6250000E-01  0.1171875E-01
   1        0.347613      0.351161
   2        5.231472      5.234181
   3        6.776200      6.780110
   4        7.006211      7.010107
   5        9.330641      9.334847
   6       10.536211     10.540407
   7       18.727028     18.732251
   8       19.808773     19.811663
   9       22.757761     22.758659
 
  0.4375000E+00  0.6250000E-01  0.6250000E-01  0.1171875E-01
   1        1.344538      1.347359
   2        5.929776      5.934017
   3        6.350132      6.353869
   4        6.536575      6.540955
   5       11.005757     11.009441
   6       12.011162     12.014953
   7       17.161349     17.165898
   8       19.714331     19.716692
   9       19.855325     19.858080
 
 -0.4375000E+00  0.6250000E-01  0.6250000E-01  0.1171875E-01
   1        1.475680      1.478240
   2        5.962788      5.967663
   3        6.418036      6.422438
   4        6.804849      6.808542
   5       12.121968     12.125581
   6       12.226946     12.230701
   7       16.473241     16.476681
   8       18.624284     18.627310
   9       19.811714     19.814608
 
 -0.3125000E+00  0.6250000E-01  0.6250000E-01  0.1171875E-01
   1        1.139995      1.143076
   2        5.545537      5.548994
   3        6.395273      6.399445
   4        6.736627      6.740782
   5       10.647707     10.651493
   6       11.354088     11.357982
   7       17.617434     17.622385
   8       19.804314     19.807184
   9       20.837575     20.839489
 
 -0.1875000E+00  0.6250000E-01  0.6250000E-01  0.1171875E-01
   1       -0.189072     -0.185385
   2        5.277179      5.279781
   3        6.937507      6.941250
   4        7.101239      7.104715
   5        9.065343      9.069727
   6       10.062129     10.066706
   7       19.386078     19.391190
   8       19.812366     19.815290
   9       22.589143     22.589577
 
 -0.6250000E-01  0.6250000E-01  0.6250000E-01  0.1171875E-01
   1       -1.602439     -1.598636
   2        5.981393      5.984133
   3        6.825823      6.828789
   4        6.839511      6.842481
   5        9.044313      9.049408
   6        9.752929      9.757958
   7       19.805979     19.808843
   8       19.844141     19.843614
   9       22.060241     22.066022
 
  0.1875000E+00  0.1875000E+00  0.6250000E-01  0.1171875E-01
   1       -0.820883     -0.817070
   2        5.306616      5.309157
   3        7.230101      7.233353
   4        7.312768      7.315783
   5        8.251362      8.256222
   6       10.092705     10.097694
   7       19.805577     19.808452
   8       21.303782     21.304513
   9       21.847939     21.852480
 
  0.3125000E+00  0.1875000E+00  0.6250000E-01  0.2343750E-01
   1        0.504838      0.508664
   2        4.649702      4.652070
   3        6.568558      6.573024
   4        7.899439      7.902859
   5        8.661990      8.665778
   6       10.853524     10.857968
   7       19.801899     19.804774
   8       20.690031     20.695555
   9       23.568270     23.568501
 
  0.4375000E+00  0.1875000E+00  0.6250000E-01  0.2343750E-01
   1        1.863994      1.867315
   2        4.740964      4.744425
   3        5.730255      5.734128
   4        7.530760      7.534977
   5       10.595448     10.599060
   6       12.342546     12.346324
   7       18.174649     18.179301
   8       19.812284     19.815188
   9       21.374098     21.376913
 
 -0.4375000E+00  0.1875000E+00  0.6250000E-01  0.2343750E-01
   1        2.270996      2.273523
   2        4.876578      4.882070
   3        6.251343      6.253993
   4        7.168344      7.172831
   5       11.838233     11.841698
   6       13.426285     13.430272
   7       15.821771     15.825295
   8       19.810632     19.813522
   9       20.431198     20.434532
 
 -0.3125000E+00  0.1875000E+00  0.6250000E-01  0.2343750E-01
   1        2.163627      2.166473
   2        5.087497      5.092485
   3        5.682386      5.685177
   4        7.265295      7.269834
   5       10.569909     10.573376
   6       13.186661     13.190368
   7       17.332285     17.336584
   8       19.811479     19.814375
   9       20.900514     20.903509
 
 -0.1875000E+00  0.1875000E+00  0.6250000E-01  0.2343750E-01
   1        1.067977      1.071617
   2        4.780410      4.782777
   3        6.181810      6.186273
   4        7.771323      7.775544
   5        8.679426      8.683117
   6       11.658023     11.661977
   7       19.745440     19.749168
   8       19.902527     19.907100
   9       23.201638     23.203478
 
 -0.6250000E-01  0.1875000E+00  0.6250000E-01  0.2343750E-01
   1       -0.473096     -0.469331
   2        5.269706      5.272214
   3        6.976282      6.979924
   4        7.335233      7.338319
   5        8.508652      8.513432
   6       10.154576     10.159255
   7       19.803508     19.806384
   8       20.555715     20.560898
   9       22.041343     22.041673
 
  0.3125000E+00  0.3125000E+00  0.6250000E-01  0.1171875E-01
   1        1.187335      1.191673
   2        3.853984      3.856222
   3        6.451817      6.456220
   4        8.915975      8.919161
   5        9.312007      9.315057
   6       11.110183     11.114988
   7       19.803717     19.806587
   8       21.961499     21.966737
   9       23.137345     23.142256
 
  0.4375000E+00  0.3125000E+00  0.6250000E-01  0.2343750E-01
   1        2.051170      2.056120
   2        3.531840      3.534053
   3        6.104799      6.108239
   4        9.480907      9.484961
   5       10.706889     10.710140
   6       12.418193     12.421945
   7       19.035407     19.039644
   8       19.817936     19.820872
   9       21.274437     21.278662
 
 -0.4375000E+00  0.3125000E+00  0.6250000E-01  0.2343750E-01
   1        2.771486      2.775930
   2        3.860246      3.863690
   3        5.895297      5.897731
   4        8.838556      8.843199
   5       11.944332     11.947484
   6       14.410979     14.414572
   7       15.481321     15.485032
   8       19.807619     19.810502
   9       21.259698     21.263532
 
 -0.3125000E+00  0.3125000E+00  0.6250000E-01  0.2343750E-01
   1        3.489053      3.491791
   2        4.054658      4.060168
   3        5.387269      5.389391
   4        8.346922      8.351989
   5       10.809472     10.812278
   6       13.547088     13.550859
   7       17.894448     17.898454
   8       19.805523     19.808401
   9       20.094597     20.097971
 
 -0.1875000E+00  0.3125000E+00  0.6250000E-01  0.2343750E-01
   1        2.611829      2.615071
   2        4.776988      4.780011
   3        5.082874      5.087153
   4        7.914574      7.919540
   5        9.640577      9.643604
   6       13.423928     13.427536
   7       18.324569     18.329056
   8       19.814512     19.817422
   9       22.190109     22.179511
 
 -0.6250000E-01  0.3125000E+00  0.6250000E-01  0.2343750E-01
   1        1.070966      1.074360
   2        5.069403      5.072265
   3        6.307911      6.312200
   4        7.129505      7.133605
   5        9.708347      9.712145
   6       11.455297     11.459268
   7       18.598260     18.603487
   8       19.809397     19.812291
   9       22.020883     22.022633
 
  0.4375000E+00  0.4375000E+00  0.6250000E-01  0.1171875E-01
   1        1.721029      1.726653
   2        2.883425      2.885517
   3        7.741543      7.744147
   4       11.032418     11.036344
   5       11.903430     11.906241
   6       12.206750     12.210640
   7       18.388763     18.392956
   8       19.308384     19.312707
   9       19.799706     19.802581
 
 -0.4375000E+00  0.4375000E+00  0.6250000E-01  0.2343750E-01
   1        1.954418      1.960198
   2        2.980665      2.982768
   3        7.764295      7.766388
   4       10.778124     10.783140
   5       12.578547     12.581124
   6       14.101887     14.104481
   7       16.145551     16.149868
   8       18.343746     18.348058
   9       19.798958     19.801837
 
 -0.3125000E+00  0.4375000E+00  0.6250000E-01  0.2343750E-01
   1        2.738617      2.743748
   2        3.724350      3.727200
   3        6.346320      6.348412
   4        9.291426      9.296481
   5       11.874742     11.877420
   6       14.179840     14.183996
   7       16.318214     16.321054
   8       19.748261     19.751493
   9       19.924191     19.928091
 
 -0.1875000E+00  0.4375000E+00  0.6250000E-01  0.2343750E-01
   1        2.928795      2.931292
   2        4.327142      4.332782
   3        5.851776      5.854115
   4        7.781759      7.786448
   5       11.377926     11.381140
   6       13.877503     13.881359
   7       16.118557     16.122312
   8       19.809760     19.812648
   9       21.398099     21.401708
 
 -0.6250000E-01  0.4375000E+00  0.6250000E-01  0.2343750E-01
   1        1.722711      1.725350
   2        5.547531      5.552712
   3        6.386380      6.389406
   4        6.722114      6.726524
   5       11.548448     11.552068
   6       12.665823     12.669625
   7       16.630106     16.633964
   8       19.530750     19.533645
   9       19.814243     19.817140
 
 -0.4375000E+00 -0.4375000E+00  0.6250000E-01  0.1171875E-01
   1        1.609735      1.615550
   2        2.678837      2.680900
   3        8.700340      8.702395
   4       11.716017     11.720923
   5       12.670109     12.672803
   6       13.047653     13.050179
   7       16.963031     16.967412
   8       18.017443     18.021909
   9       19.517080     19.521286
 
 -0.3125000E+00 -0.4375000E+00  0.6250000E-01  0.2343750E-01
   1        2.072296      2.077856
   2        3.167776      3.169922
   3        6.926179      6.928786
   4       10.324435     10.328948
   5       11.860729     11.863776
   6       13.226113     13.229241
   7       17.321754     17.325913
   8       19.509274     19.513442
   9       19.810533     19.813443
 
 -0.1875000E+00 -0.4375000E+00  0.6250000E-01  0.2343750E-01
   1        2.514956      2.518532
   2        4.241035      4.245040
   3        5.565351      5.568312
   4        8.148804      8.153170
   5       11.612927     11.616423
   6       13.172862     13.176434
   7       16.825032     16.829041
   8       19.810608     19.813500
   9       21.835978     21.823786
 
 -0.3125000E+00 -0.3125000E+00  0.6250000E-01  0.1171875E-01
   1        1.710908      1.716001
   2        3.282794      3.284943
   3        6.724951      6.728411
   4        9.972222      9.975606
   5       10.542160     10.545123
   6       11.675762     11.680320
   7       19.795032     19.797895
   8       20.381747     20.386113
   9       21.190233     21.194634
 
 -0.1875000E+00 -0.3125000E+00  0.6250000E-01  0.2343750E-01
   1        1.486693      1.490863
   2        4.043099      4.045372
   3        6.020490      6.024822
   4        8.616583      8.620323
   5        9.534311      9.537696
   6       11.637781     11.641947
   7       19.796358     19.799231
   8       20.526613     20.531746
   9       23.191519     23.194035
 
 -0.1875000E+00 -0.1875000E+00  0.6250000E-01  0.1171875E-01
   1        0.200881      0.204805
   2        4.554028      4.556395
   3        6.959981      6.964699
   4        8.012041      8.015123
   5        8.350573      8.353846
   6       10.561641     10.566563
   7       19.804989     19.807862
   8       21.911756     21.917227
   9       23.422515     23.422375
 
  0.1875000E+00  0.1875000E+00  0.1875000E+00  0.3906250E-02
   1       -0.857575     -0.853830
   2        5.617226      5.619883
   3        6.966571      6.969784
   4        6.966571      6.969784
   5        9.376034      9.380883
   6        9.376034      9.380883
   7       19.750378     19.754236
   8       19.836206     19.839656
   9       21.681344     21.682327
 
  0.3125000E+00  0.1875000E+00  0.1875000E+00  0.1171875E-01
   1        0.184511      0.188199
   2        5.102189      5.104629
   3        6.701789      6.705766
   4        7.501798      7.505250
   5        8.421685      8.426344
   6       10.738082     10.742294
   7       19.789257     19.792280
   8       20.012750     20.018065
   9       22.871107     22.871404
 
  0.4375000E+00  0.1875000E+00  0.1875000E+00  0.1171875E-01
   1        1.805746      1.809154
   2        4.851819      4.854201
   3        5.723737      5.728416
   4        7.646388      7.651268
   5        8.948647      8.951858
   6       12.652061     12.655802
   7       19.177449     19.182388
   8       19.821351     19.824326
   9       22.230058     22.232970
 
 -0.4375000E+00  0.1875000E+00  0.1875000E+00  0.1171875E-01
   1        2.513013      2.515568
   2        4.837335      4.842879
   3        5.883663      5.886144
   4        7.339143      7.343810
   5       10.895980     10.899313
   6       13.566407     13.570142
   7       16.712472     16.716513
   8       19.810888     19.813780
   9       21.111271     21.114395
 
 -0.3125000E+00  0.1875000E+00  0.1875000E+00  0.1171875E-01
   1        2.359385      2.362230
   2        4.605877      4.611019
   3        5.952042      5.954631
   4        7.513086      7.517489
   5       12.234009     12.237537
   6       12.963115     12.966973
   7       16.074705     16.078380
   8       19.810479     19.813369
   9       20.938109     20.941671
 
 -0.1875000E+00  0.1875000E+00  0.1875000E+00  0.1171875E-01
   1        1.624537      1.628375
   2        4.295805      4.298478
   3        5.902634      5.906844
   4        7.962649      7.966544
   5       10.414927     10.418362
   6       11.662043     11.666138
   7       19.268211     19.273102
   8       19.821136     19.824119
   9       22.349569     22.352322
 
  0.3125000E+00  0.3125000E+00  0.1875000E+00  0.1171875E-01
   1        0.702468      0.706134
   2        4.805837      4.808397
   3        6.473047      6.477449
   4        7.426760      7.430456
   5        9.407632      9.411327
   6       10.874549     10.878884
   7       19.466018     19.471286
   8       19.817776     19.820772
   9       23.030331     23.031491
 
  0.4375000E+00  0.3125000E+00  0.1875000E+00  0.2343750E-01
   1        2.012126      2.015927
   2        4.385075      4.387451
   3        5.506682      5.511126
   4        8.266750      8.271238
   5        9.512209      9.515490
   6       12.598663     12.602399
   7       19.244533     19.249210
   8       19.824162     19.827154
   9       22.478420     22.481806
 
 -0.4375000E+00  0.3125000E+00  0.1875000E+00  0.2343750E-01
   1        3.331421      3.335072
   2        4.306146      4.310622
   3        4.834063      4.836445
   4        8.431026      8.435972
   5       10.605526     10.608413
   6       13.826791     13.830322
   7       17.668404     17.672657
   8       19.811300     19.814195
   9       20.690057     20.693390
 
 -0.3125000E+00  0.3125000E+00  0.1875000E+00  0.2343750E-01
   1        3.354427      3.357829
   2        3.960670      3.965421
   3        5.504889      5.507122
   4        8.309861      8.314649
   5       11.518136     11.521126
   6       15.061551     15.065410
   7       15.312903     15.316546
   8       19.808417     19.811301
   9       21.296233     21.299556
 
 -0.1875000E+00  0.3125000E+00  0.1875000E+00  0.2343750E-01
   1        2.658560      2.663138
   2        3.993733      3.996174
   3        5.280300      5.283833
   4        8.950384      8.955033
   5       10.605122     10.608206
   6       13.406896     13.410354
   7       17.974266     17.978510
   8       19.812538     19.815439
   9       21.122485     21.126291
 
  0.4375000E+00  0.4375000E+00  0.1875000E+00  0.1171875E-01
   1        2.223369      2.227791
   2        3.809073      3.811882
   3        5.875085      5.878409
   4        8.686124      8.690244
   5       11.836841     11.840165
   6       12.239431     12.243220
   7       17.824244     17.828388
   8       19.811301     19.814198
   9       22.049706     22.121224
 
 -0.4375000E+00  0.4375000E+00  0.1875000E+00  0.2343750E-01
   1        2.703923      2.709386
   2        3.700762      3.703018
   3        5.831394      5.834030
   4        9.454529      9.459371
   5       11.685866     11.688675
   6       14.220055     14.223222
   7       16.807959     16.812101
   8       19.485920     19.489739
   9       19.814499     19.817419
 
 -0.3125000E+00  0.4375000E+00  0.1875000E+00  0.2343750E-01
   1        3.159536      3.165399
   2        4.334628      4.336745
   3        5.364020      5.366128
   4        8.401580      8.406594
   5       12.510111     12.512653
   6       15.596409     15.600298
   7       16.378016     16.381419
   8       18.077520     18.081135
   9       19.813259     19.816160
 
 -0.1875000E+00  0.4375000E+00  0.1875000E+00  0.2343750E-01
   1        3.398671      3.404273
   2        4.259938      4.262365
   3        4.951201      4.953526
   4        8.637407      8.642326
   5       11.626896     11.629608
   6       14.488210     14.491806
   7       17.033788     17.037707
   8       19.358049     19.361520
   9       19.816138     19.819056
 
 -0.4375000E+00 -0.4375000E+00  0.1875000E+00  0.1171875E-01
   1        2.223183      2.228664
   2        3.265849      3.268276
   3        7.226691      7.228773
   4       10.218759     10.223746
   5       12.234759     12.237464
   6       14.581773     14.585807
   7       15.263703     15.266566
   8       19.788976     19.791868
   9       20.254566     20.315016
 
 -0.3125000E+00 -0.4375000E+00  0.1875000E+00  0.2343750E-01
   1        2.561126      2.566883
   2        3.555775      3.557925
   3        6.537728      6.539857
   4        9.443181      9.448223
   5       12.524731     12.527275
   6       15.233200     15.236086
   7       15.910075     15.914222
   8       18.288369     18.292372
   9       19.811142     19.814041
 
 -0.3125000E+00 -0.3125000E+00  0.1875000E+00  0.1171875E-01
   1        2.314378      2.319508
   2        3.444838      3.447451
   3        6.529046      6.531578
   4        9.516606      9.521057
   5       12.418177     12.421517
   6       13.475168     13.478361
   7       16.094504     16.098466
   8       19.806793     19.809675
   9       20.830988     20.837696
 
  0.3125000E+00  0.3125000E+00  0.3125000E+00  0.3906250E-02
   1        0.669827      0.673149
   2        5.432917      5.435954
   3        6.737153      6.741203
   4        6.737153      6.741203
   5       10.367223     10.371255
   6       10.367223     10.371255
   7       17.867809     17.872910
   8       19.806288     19.809165
   9       21.984767     21.986241
 
  0.4375000E+00  0.3125000E+00  0.3125000E+00  0.1171875E-01
   1        1.570665      1.573758
   2        5.297754      5.301093
   3        6.003375      6.007497
   4        7.002042      7.006510
   5        9.941245      9.944859
   6       12.398531     12.402325
   7       18.094897     18.099824
   8       19.809849     19.812745
   9       20.999621     21.001893
 
 -0.4375000E+00  0.3125000E+00  0.3125000E+00  0.1171875E-01
   1        3.123248      3.125951
   2        4.547295      4.552893
   3        5.197624      5.199800
   4        7.949006      7.954100
   5       10.079258     10.082164
   6       13.608136     13.611754
   7       17.989455     17.993854
   8       19.812332     19.815231
   9       21.141935     21.144916
 
 -0.3125000E+00  0.3125000E+00  0.3125000E+00  0.1171875E-01
   1        3.074224      3.078339
   2        3.966737      3.970729
   3        5.942794      5.944874
   4        8.827087      8.832169
   5       11.267222     11.269996
   6       13.381519     13.385514
   7       17.466100     17.469278
   8       19.780151     19.783149
   9       19.970810     19.974871
 
  0.4375000E+00  0.4375000E+00  0.3125000E+00  0.1171875E-01
   1        1.728082      1.730974
   2        5.242695      5.247350
   3        6.055993      6.059192
   4        7.003752      7.008013
   5       11.571623     11.575370
   6       12.059881     12.063615
   7       17.226868     17.231170
   8       19.807397     19.810284
   9       20.239997     20.242735
 
 -0.4375000E+00  0.4375000E+00  0.3125000E+00  0.2343750E-01
   1        2.805129      2.807863
   2        4.435613      4.441022
   3        5.599326      5.601734
   4        7.797075      7.801670
   5       11.281976     11.285274
   6       13.866862     13.870544
   7       16.291590     16.295529
   8       19.810402     19.813292
   9       21.590637     21.592197
 
 -0.3125000E+00  0.4375000E+00  0.3125000E+00  0.2343750E-01
   1        3.395926      3.401329
   2        4.060627      4.063368
   3        5.421947      5.424028
   4        8.523800      8.528810
   5       11.676287     11.678965
   6       14.295888     14.299833
   7       17.077342     17.080725
   8       19.423567     19.427239
   9       19.822603     19.825561
 
 -0.4375000E+00 -0.4375000E+00  0.3125000E+00  0.1171875E-01
   1        2.872793      2.876006
   2        4.118678      4.123539
   3        5.923637      5.925918
   4        8.193919      8.198568
   5       11.843404     11.846635
   6       13.840895     13.844907
   7       15.769282     15.772715
   8       19.808858     19.811743
   9       21.377185     21.381130
 
  0.4375000E+00  0.4375000E+00  0.4375000E+00  0.3906250E-02
   1        1.291919      1.294572
   2        6.337140      6.341511
   3        6.337140      6.341511
   4        6.575021      6.579132
   5       11.837502     11.841168
   6       11.837502     11.841168
   7       16.765064     16.769048
   8       18.760098     18.762633
   9       19.813948     19.816847
 
 -0.4375000E+00  0.4375000E+00  0.4375000E+00  0.1171875E-01
   1        1.899789      1.902312
   2        5.362338      5.367657
   3        6.538429      6.541409
   4        6.768108      6.772590
   5       11.729484     11.733002
   6       13.046390     13.050305
   7       16.158721     16.162264
   8       19.621151     19.624260
   9       19.811221     19.814113
