       N       E                     dE             d eps       ncg     rms          rms(c)
DAV:   1     0.843767207931E+01    0.84377E+01   -0.21869E+03  2256   0.408E+02
DAV:   2    -0.174039810077E+01   -0.10178E+02   -0.90158E+01  2850   0.628E+01
DAV:   3    -0.189069079834E+01   -0.15029E+00   -0.14919E+00  2622   0.687E+00
DAV:   4    -0.189093623944E+01   -0.24544E-03   -0.24543E-03  2901   0.221E-01
DAV:   5    -0.189093636518E+01   -0.12574E-06   -0.12660E-06  2569   0.487E-03    0.724E+00
DAV:   6    -0.112481230160E+02   -0.93572E+01   -0.27168E+00  2397   0.551E+00    0.423E+00
DAV:   7    -0.113071440812E+02   -0.59021E-01   -0.62537E-02  2751   0.121E+00    0.403E+00
DAV:   8    -0.111999222203E+02    0.10722E+00   -0.83577E-01  2459   0.495E+00    0.435E+00
DAV:   9    -0.115873114023E+02   -0.38739E+00   -0.54913E-01  2297   0.437E+00    0.978E-01
DAV:  10    -0.116037807876E+02   -0.16469E-01   -0.42745E-02  2404   0.110E+00    0.566E-01
DAV:  11    -0.116030008153E+02    0.77997E-03   -0.53327E-03  2433   0.394E-01    0.366E-01
DAV:  12    -0.116074103345E+02   -0.44095E-02   -0.42490E-03  2311   0.386E-01    0.580E-02
DAV:  13    -0.116072708866E+02    0.13945E-03   -0.15902E-04  2082   0.812E-02    0.114E-02
DAV:  14    -0.116072580185E+02    0.12868E-04   -0.14844E-05  1137   0.222E-02
   1 F= -.11607258E+02 E0= -.11607301E+02  d E =0.127608E-03  mag=    -0.0005
