 vasp.5.2.12 11Nov11 complex                                                    
  
 executed on             LinuxIFC date 2012.10.17  11:07:02
 running on    1 nodes
 distr:  one band on    1 nodes,    1 groups


--------------------------------------------------------------------------------------------------------


 INCAR:
 POTCAR:    PAW_PBE Ta 17Jan2003                  
 POTCAR:    PAW_PBE Ta 17Jan2003                  
   VRHFIN =Ta:  6s5d                                                            
   LEXCH  = PE                                                                  
   EATOM  =   130.6506 eV,    9.6025 Ry                                         
                                                                                
   TITEL  = PAW_PBE Ta 17Jan2003                                                
   LULTRA =        F    use ultrasoft PP ?                                      
   IUNSCR =        1    unscreen: 0-lin 1-nonlin 2-no                           
   RPACOR =    2.330    partial core radius                                     
   POMASS =  180.948; ZVAL   =    5.000    mass and valenz                      
   RCORE  =    2.900    outmost cutoff radius                                   
   RWIGS  =    2.840; RWIGS  =    1.503    wigner-seitz radius (au A)           
   ENMAX  =  223.667; ENMIN  =  167.750 eV                                      
   RCLOC  =    2.205    cutoff for local pot                                    
   LCOR   =        T    correct aug charges                                     
   LPAW   =        T    paw PP                                                  
   EAUG   =  332.075                                                            
   DEXC   =    -.049                                                            
   RMAX   =    3.083    core radius for proj-oper                               
   RAUG   =    1.300    factor for augmentation sphere                          
   RDEP   =    3.060    radius for radial grids                                 
   QCUT   =   -4.055; QGAM   =    8.109    optimization parameters              
                                                                                
   Description                                                                  
     l     E      TYP  RCUT    TYP  RCUT                                        
     2   .000     23  2.500                                                     
     2   .000     23  2.500                                                     
     0   .000     23  2.500                                                     
     0   .000     23  2.500                                                     
     1   .000     23  2.900                                                     
     1  2.000     23  2.900                                                     
     3   .000      7   .000                                                     
  local pseudopotential read in
  partial core-charges read in
  atomic valenz-charges read in
  non local Contribution for L=           2  read in
    real space projection operators read in
  non local Contribution for L=           2  read in
    real space projection operators read in
  non local Contribution for L=           0  read in
    real space projection operators read in
  non local Contribution for L=           0  read in
    real space projection operators read in
  non local Contribution for L=           1  read in
    real space projection operators read in
  non local Contribution for L=           1  read in
    real space projection operators read in
    PAW grid and wavefunctions read in
 
   number of l-projection  operators is LMAX  =           6
   number of lm-projection operators is LMMAX =          18
 
  PAW_PBE Ta 17Jan2003                  :
 energy of atom  1       EATOM= -130.6506
 kinetic energy error for atom=    0.0018 (will be added to EATOM!!)
 
 
 POSCAR: Ta                                      
  positions in cartesian coordinates
  No initial velocities read in
 exchange correlation table for  LEXCH =        8
   RHO(1)=    0.500       N(1)  =     2000
   RHO(2)=  100.500       N(2)  =     4000
 


--------------------------------------------------------------------------------------------------------


 ion  position               nearest neighbor table
   1  0.000  0.000  0.000-
 
  LATTYP: Found a face centered cubic cell.
 ALAT       =     4.1700000000
  
  Lattice vectors:
  
 A1 = (   0.0000000000,   2.0850000000,   2.0850000000)
 A2 = (   2.0850000000,   0.0000000000,   2.0850000000)
 A3 = (   2.0850000000,   2.0850000000,   0.0000000000)
 Subroutine PRICEL returns:
 Original cell was already a primitive cell.
 

Analysis of symmetry for initial positions (statically):

 Routine SETGRP: Setting up the symmetry group for a 
 face centered cubic supercell.


 Subroutine GETGRP returns: Found 48 space group operations
 (whereof 48 operations were pure point group operations)
 out of a pool of 48 trial point group operations.


The static configuration has the point symmetry O_h .

Analysis of symmetry for dynamics (positions and initial velocities):

 Subroutine DYNSYM returns: Found 48 space group operations
 (whereof 48 operations were pure point group operations)
 out of a pool of 48 trial space group operations
 (whereof 48 operations were pure point group operations)
 and found also     1 'primitive' translations


The dynamic configuration has the point symmetry O_h .

Analysis of magnetic symmetry:

 Subroutine MAGSYM returns: Found 48 space group operations
 (whereof 48 operations were pure point group operations)
 out of a pool of 48 trial space group operations
 (whereof 48 operations were pure point group operations)
 and found also     1 'primitive' translations


The magnetic configuration has the point symmetry O_h .
 
 
 KPOINTS: KPOINTS created by Atomic Simulation Env

Automatic generation of k-mesh.
 
 Subroutine IBZKPT returns following result:
 ===========================================
 
 Found     60 irreducible k-points:
 
 Following reciprocal coordinates:
            Coordinates               Weight
  0.062500  0.062500  0.062500     96.000000
  0.187500  0.062500  0.062500    288.000000
  0.312500  0.062500  0.062500    288.000000
  0.437500  0.062500  0.062500    288.000000
 -0.437500  0.062500  0.062500    288.000000
 -0.312500  0.062500  0.062500    288.000000
 -0.187500  0.062500  0.062500    288.000000
 -0.062500  0.062500  0.062500    288.000000
  0.187500  0.187500  0.062500    288.000000
  0.312500  0.187500  0.062500    576.000000
  0.437500  0.187500  0.062500    576.000000
 -0.437500  0.187500  0.062500    576.000000
 -0.312500  0.187500  0.062500    576.000000
 -0.187500  0.187500  0.062500    576.000000
 -0.062500  0.187500  0.062500    576.000000
  0.312500  0.312500  0.062500    288.000000
  0.437500  0.312500  0.062500    576.000000
 -0.437500  0.312500  0.062500    576.000000
 -0.312500  0.312500  0.062500    576.000000
 -0.187500  0.312500  0.062500    576.000000
 -0.062500  0.312500  0.062500    576.000000
  0.437500  0.437500  0.062500    288.000000
 -0.437500  0.437500  0.062500    576.000000
 -0.312500  0.437500  0.062500    576.000000
 -0.187500  0.437500  0.062500    576.000000
 -0.062500  0.437500  0.062500    576.000000
 -0.437500 -0.437500  0.062500    288.000000
 -0.312500 -0.437500  0.062500    576.000000
 -0.187500 -0.437500  0.062500    576.000000
 -0.312500 -0.312500  0.062500    288.000000
 -0.187500 -0.312500  0.062500    576.000000
 -0.187500 -0.187500  0.062500    288.000000
  0.187500  0.187500  0.187500     96.000000
  0.312500  0.187500  0.187500    288.000000
  0.437500  0.187500  0.187500    288.000000
 -0.437500  0.187500  0.187500    288.000000
 -0.312500  0.187500  0.187500    288.000000
 -0.187500  0.187500  0.187500    288.000000
  0.312500  0.312500  0.187500    288.000000
  0.437500  0.312500  0.187500    576.000000
 -0.437500  0.312500  0.187500    576.000000
 -0.312500  0.312500  0.187500    576.000000
 -0.187500  0.312500  0.187500    576.000000
  0.437500  0.437500  0.187500    288.000000
 -0.437500  0.437500  0.187500    576.000000
 -0.312500  0.437500  0.187500    576.000000
 -0.187500  0.437500  0.187500    576.000000
 -0.437500 -0.437500  0.187500    288.000000
 -0.312500 -0.437500  0.187500    576.000000
 -0.312500 -0.312500  0.187500    288.000000
  0.312500  0.312500  0.312500     96.000000
  0.437500  0.312500  0.312500    288.000000
 -0.437500  0.312500  0.312500    288.000000
 -0.312500  0.312500  0.312500    288.000000
  0.437500  0.437500  0.312500    288.000000
 -0.437500  0.437500  0.312500    576.000000
 -0.312500  0.437500  0.312500    576.000000
 -0.437500 -0.437500  0.312500    288.000000
  0.437500  0.437500  0.437500     96.000000
 -0.437500  0.437500  0.437500    288.000000
 
 Following cartesian coordinates:
            Coordinates               Weight
  0.014988  0.014988  0.014988     96.000000
 -0.014988  0.044964  0.044964    288.000000
 -0.044964  0.074940  0.074940    288.000000
 -0.074940  0.104916  0.104916    288.000000
  0.134892 -0.104916 -0.104916    288.000000
  0.104916 -0.074940 -0.074940    288.000000
  0.074940 -0.044964 -0.044964    288.000000
  0.044964 -0.014988 -0.014988    288.000000
  0.014988  0.014988  0.074940    288.000000
 -0.014988  0.044964  0.104916    576.000000
 -0.044964  0.074940  0.134892    576.000000
  0.164868 -0.134892 -0.074940    576.000000
  0.134892 -0.104916 -0.044964    576.000000
  0.104916 -0.074940 -0.014988    576.000000
  0.074940 -0.044964  0.014988    576.000000
  0.014988  0.014988  0.134892    288.000000
 -0.014988  0.044964  0.164868    576.000000
  0.194844 -0.164868 -0.044964    576.000000
  0.164868 -0.134892 -0.014988    576.000000
  0.134892 -0.104916  0.014988    576.000000
  0.104916 -0.074940  0.044964    576.000000
  0.014988  0.014988  0.194844    288.000000
  0.224820 -0.194844 -0.014988    576.000000
  0.194844 -0.164868  0.014988    576.000000
  0.164868 -0.134892  0.044964    576.000000
  0.134892 -0.104916  0.074940    576.000000
  0.014988  0.014988 -0.224820    288.000000
 -0.014988  0.044964 -0.194844    576.000000
 -0.044964  0.074940 -0.164868    576.000000
  0.014988  0.014988 -0.164868    288.000000
 -0.014988  0.044964 -0.134892    576.000000
  0.014988  0.014988 -0.104916    288.000000
  0.044964  0.044964  0.044964     96.000000
  0.014988  0.074940  0.074940    288.000000
 -0.014988  0.104916  0.104916    288.000000
  0.194844 -0.104916 -0.104916    288.000000
  0.164868 -0.074940 -0.074940    288.000000
  0.134892 -0.044964 -0.044964    288.000000
  0.044964  0.044964  0.104916    288.000000
  0.014988  0.074940  0.134892    576.000000
  0.224820 -0.134892 -0.074940    576.000000
  0.194844 -0.104916 -0.044964    576.000000
  0.164868 -0.074940 -0.014988    576.000000
  0.044964  0.044964  0.164868    288.000000
  0.254796 -0.164868 -0.044964    576.000000
  0.224820 -0.134892 -0.014988    576.000000
  0.194844 -0.104916  0.014988    576.000000
  0.044964  0.044964 -0.254796    288.000000
  0.014988  0.074940 -0.224820    576.000000
  0.044964  0.044964 -0.194844    288.000000
  0.074940  0.074940  0.074940     96.000000
  0.044964  0.104916  0.104916    288.000000
  0.254796 -0.104916 -0.104916    288.000000
  0.224820 -0.074940 -0.074940    288.000000
  0.074940  0.074940  0.134892    288.000000
  0.284772 -0.134892 -0.074940    576.000000
  0.254796 -0.104916 -0.044964    576.000000
  0.074940  0.074940 -0.284772    288.000000
  0.104916  0.104916  0.104916     96.000000
  0.314748 -0.104916 -0.104916    288.000000
 


--------------------------------------------------------------------------------------------------------




 Dimension of arrays:
   k-points           NKPTS =     60   k-points in BZ     NKDIM =     60   number of bands    NBANDS=      9
   number of dos      NEDOS =    301   number of ions     NIONS =      1
   non local maximal  LDIM  =      6   non local SUM 2l+1 LMDIM =     18
   total plane-waves  NPLWV =   8000
   max r-space proj   IRMAX =      1   max aug-charges    IRDMAX=  30236
   dimension x,y,z NGX =    20 NGY =   20 NGZ =   20
   dimension x,y,z NGXF=    40 NGYF=   40 NGZF=   40
   support grid    NGXF=    40 NGYF=   40 NGZF=   40
   ions per type =               1
 NGX,Y,Z   is equivalent  to a cutoff of  11.28, 11.28, 11.28 a.u.
 NGXF,Y,Z  is equivalent  to a cutoff of  22.55, 22.55, 22.55 a.u.


 I would recommend the setting:
   dimension x,y,z NGX =    19 NGY =   19 NGZ =   19
 SYSTEM =  unknown system                          
 POSCAR =  Ta                                      

 Startparameter for this run:
   NWRITE =      2    write-flag & timer
   PREC   = accura    normal or accurate (medium, high low for compatibility)
   ISTART =      0    job   : 0-new  1-cont  2-samecut
   ICHARG =      2    charge: 1-file 2-atom 10-const
   ISPIN  =      2    spin polarized calculation?
   LNONCOLLINEAR =      F non collinear calculations
   LSORBIT =      F    spin-orbit coupling
   INIWAV =      1    electr: 0-lowe 1-rand  2-diag
   LASPH  =      F    aspherical Exc in radial PAW
   METAGGA=      F    non-selfconsistent MetaGGA calc.

 Electronic Relaxation 1
   ENCUT  =  400.0 eV  29.40 Ry    5.42 a.u.   4.81  4.81  4.81*2*pi/ulx,y,z
   ENINI  =  400.0     initial cutoff
   ENAUG  =  332.1 eV  augmentation charge cutoff
   NELM   =     60;   NELMIN=  2; NELMDL= -5     # of ELM steps 
   EDIFF  = 0.1E-03   stopping-criterion for ELM
   LREAL  =      F    real-space projection
   NLSPLINE    = F    spline interpolate recip. space projectors
   LCOMPAT=      F    compatible to vasp.4.4
   GGA_COMPAT  = T    GGA compatible to vasp.4.4-vasp.4.6
   LMAXPAW     = -100 max onsite density
   LMAXMIX     =    2 max onsite mixed and CHGCAR
   VOSKOWN=      0    Vosko Wilk Nusair interpolation
   ROPT   =    0.00000
 Ionic relaxation
   EDIFFG = 0.1E-02   stopping-criterion for IOM
   NSW    =      0    number of steps for IOM
   NBLOCK =      1;   KBLOCK =      1    inner block; outer block 
   IBRION =     -1    ionic relax: 0-MD 1-quasi-New 2-CG
   NFREE  =      0    steps in history (QN), initial steepest desc. (CG)
   ISIF   =      2    stress and relaxation
   IWAVPR =     10    prediction:  0-non 1-charg 2-wave 3-comb
   ISYM   =      2    0-nonsym 1-usesym 2-fastsym
   LCORR  =      T    Harris-Foulkes like correction to forces

   POTIM  = 0.5000    time-step for ionic-motion
   TEIN   =    0.0    initial temperature
   TEBEG  =    0.0;   TEEND  =   0.0 temperature during run
   SMASS  =  -3.00    Nose mass-parameter (am)
   estimated Nose-frequenzy (Omega)   =  0.10E-29 period in steps =****** mass=  -0.199E-27a.u.
   SCALEE = 1.0000    scale energy and forces
   NPACO  =    256;   APACO  = 16.0  distance and # of slots for P.C.
   PSTRESS=    0.0 pullay stress

  Mass of Ions in am
   POMASS = 180.95
  Ionic Valenz
   ZVAL   =   5.00
  Atomic Wigner-Seitz radii
   RWIGS  =  -1.00
  virtual crystal weights 
   VCA    =   1.00
   NELECT =       5.0000    total number of electrons
   NUPDOWN=      -1.0000    fix difference up-down

 DOS related values:
   EMIN   =  10.00;   EMAX   =-10.00  energy-range for DOS
   EFERMI =   0.00
   ISMEAR =     1;   SIGMA  =   0.05  broadening in eV -4-tet -1-fermi 0-gaus

 Electronic relaxation 2 (details)
   IALGO  =     38    algorithm
   LDIAG  =      T    sub-space diagonalisation (order eigenvalues)
   LSUBROT=      T    optimize rotation matrix (better conditioning)
   TURBO    =      0    0=normal 1=particle mesh
   IRESTART =      0    0=no restart 2=restart with 2 vectors
   NREBOOT  =      0    no. of reboots
   NMIN     =      0    reboot dimension
   EREF     =   0.00    reference energy to select bands
   IMIX   =      4    mixing-type and parameters
     AMIX     =   0.40;   BMIX     =  1.00
     AMIX_MAG =   1.60;   BMIX_MAG =  1.00
     AMIN     =   0.10
     WC   =   100.;   INIMIX=   1;  MIXPRE=   1

 Intra band minimization:
   WEIMIN = 0.0000     energy-eigenvalue tresh-hold
   EBREAK =  0.28E-05  absolut break condition
   DEPER  =   0.30     relativ break condition  

   TIME   =   0.40     timestep for ELM

  volume/ion in A,a.u.               =      18.13       122.33
  Fermi-wavevector in a.u.,A,eV,Ry     =   1.065652  2.013790 15.450972  1.135614
  Thomas-Fermi vector in A             =   2.201211
 
 Write flags
   LWAVE  =      T    write WAVECAR
   LCHARG =      T    write CHGCAR
   LVTOT  =      F    write LOCPOT, total local potential
   LVHAR  =      F    write LOCPOT, Hartree potential only
   LELF   =      F    write electronic localiz. function (ELF)
   LORBIT =     11    0 simple, 1 ext, 2 COOP (PROOUT)


 Dipole corrections
   LMONO  =      F    monopole corrections only (constant potential shift)
   LDIPOL =      F    correct potential (dipole corrections)
   IDIPOL =      0    1-x, 2-y, 3-z, 4-all directions 
   EPSILON=  1.0000000 bulk dielectric constant

 Exchange correlation treatment:
   GGA     =    --    GGA type
   LEXCH   =     8    internal setting for exchange type
   VOSKOWN=      0    Vosko Wilk Nusair interpolation
   LHFCALC =     F    Hartree Fock is set to
   LHFONE  =     F    Hartree Fock one center treatment
   AEXX    =    0.0000 exact exchange contribution

 Linear response parameters
   LEPSILON=     F    determine dielectric tensor
   LRPA    =     F    only Hartree local field effects (RPA)
   LNABLA  =     F    use nabla operator in PAW spheres
   LVEL    =     F    velocity operator in full k-point grid
   LINTERFAST=   F  fast interpolation
   KINTER  =     0    interpolate to denser k-point grid
   CSHIFT  =0.1000    complex shift for real part using Kramers Kronig
   OMEGAMAX=  -1.0    maximum frequency
   RTIME   =    0.100 relaxation time in fs

 Orbital magnetization related:
   ORBITALMAG=     F  switch on orbital magnetization
   LCHIMAG   =     F  perturbation theory with respect to B field
   DQ        =  0.001000  dq finite difference perturbation B field



--------------------------------------------------------------------------------------------------------


 Static calculation
 charge density and potential will be updated during run
 spin polarized calculation
 Variant of blocked Davidson
 Davidson routine will perform the subspace rotation
 perform sub-space diagonalisation
    after iterative eigenvector-optimisation
 modified Broyden-mixing scheme, WC =      100.0
 initial mixing is a Kerker type mixing with AMIX =  0.4000 and BMIX =      1.0000
 Hartree-type preconditioning will be used
 using additional bands            6
 reciprocal scheme for non local part
 use partial core corrections
 calculate Harris-corrections to forces 
   (improved forces if not selfconsistent)
 use gradient corrections 
 use of overlap-Matrix (Vanderbilt PP)
 Methfessel and Paxton  Order N= 1 SIGMA  =   0.05


--------------------------------------------------------------------------------------------------------


  energy-cutoff  :      400.00
  volume of cell :       18.13
      direct lattice vectors                 reciprocal lattice vectors
     0.000000000  2.085000000  2.085000000    -0.239808153  0.239808153  0.239808153
     2.085000000  0.000000000  2.085000000     0.239808153 -0.239808153  0.239808153
     2.085000000  2.085000000  0.000000000     0.239808153  0.239808153 -0.239808153

  length of vectors
     2.948635278  2.948635278  2.948635278     0.415359906  0.415359906  0.415359906


 
 k-points in units of 2pi/SCALE and weight: KPOINTS created by Atomic Simulation Env
   0.01498801  0.01498801  0.01498801       0.004
  -0.01498801  0.04496403  0.04496403       0.012
  -0.04496403  0.07494005  0.07494005       0.012
  -0.07494005  0.10491607  0.10491607       0.012
   0.13489209 -0.10491607 -0.10491607       0.012
   0.10491607 -0.07494005 -0.07494005       0.012
   0.07494005 -0.04496403 -0.04496403       0.012
   0.04496403 -0.01498801 -0.01498801       0.012
   0.01498801  0.01498801  0.07494005       0.012
  -0.01498801  0.04496403  0.10491607       0.023
  -0.04496403  0.07494005  0.13489209       0.023
   0.16486811 -0.13489209 -0.07494005       0.023
   0.13489209 -0.10491607 -0.04496403       0.023
   0.10491607 -0.07494005 -0.01498801       0.023
   0.07494005 -0.04496403  0.01498801       0.023
   0.01498801  0.01498801  0.13489209       0.012
  -0.01498801  0.04496403  0.16486811       0.023
   0.19484412 -0.16486811 -0.04496403       0.023
   0.16486811 -0.13489209 -0.01498801       0.023
   0.13489209 -0.10491607  0.01498801       0.023
   0.10491607 -0.07494005  0.04496403       0.023
   0.01498801  0.01498801  0.19484412       0.012
   0.22482014 -0.19484412 -0.01498801       0.023
   0.19484412 -0.16486811  0.01498801       0.023
   0.16486811 -0.13489209  0.04496403       0.023
   0.13489209 -0.10491607  0.07494005       0.023
   0.01498801  0.01498801 -0.22482014       0.012
  -0.01498801  0.04496403 -0.19484412       0.023
  -0.04496403  0.07494005 -0.16486811       0.023
   0.01498801  0.01498801 -0.16486811       0.012
  -0.01498801  0.04496403 -0.13489209       0.023
   0.01498801  0.01498801 -0.10491607       0.012
   0.04496403  0.04496403  0.04496403       0.004
   0.01498801  0.07494005  0.07494005       0.012
  -0.01498801  0.10491607  0.10491607       0.012
   0.19484412 -0.10491607 -0.10491607       0.012
   0.16486811 -0.07494005 -0.07494005       0.012
   0.13489209 -0.04496403 -0.04496403       0.012
   0.04496403  0.04496403  0.10491607       0.012
   0.01498801  0.07494005  0.13489209       0.023
   0.22482014 -0.13489209 -0.07494005       0.023
   0.19484412 -0.10491607 -0.04496403       0.023
   0.16486811 -0.07494005 -0.01498801       0.023
   0.04496403  0.04496403  0.16486811       0.012
   0.25479616 -0.16486811 -0.04496403       0.023
   0.22482014 -0.13489209 -0.01498801       0.023
   0.19484412 -0.10491607  0.01498801       0.023
   0.04496403  0.04496403 -0.25479616       0.012
   0.01498801  0.07494005 -0.22482014       0.023
   0.04496403  0.04496403 -0.19484412       0.012
   0.07494005  0.07494005  0.07494005       0.004
   0.04496403  0.10491607  0.10491607       0.012
   0.25479616 -0.10491607 -0.10491607       0.012
   0.22482014 -0.07494005 -0.07494005       0.012
   0.07494005  0.07494005  0.13489209       0.012
   0.28477218 -0.13489209 -0.07494005       0.023
   0.25479616 -0.10491607 -0.04496403       0.023
   0.07494005  0.07494005 -0.28477218       0.012
   0.10491607  0.10491607  0.10491607       0.004
   0.31474820 -0.10491607 -0.10491607       0.012
 
 k-points in reciprocal lattice and weights: KPOINTS created by Atomic Simulation Env
   0.06250000  0.06250000  0.06250000       0.004
   0.18750000  0.06250000  0.06250000       0.012
   0.31250000  0.06250000  0.06250000       0.012
   0.43750000  0.06250000  0.06250000       0.012
  -0.43750000  0.06250000  0.06250000       0.012
  -0.31250000  0.06250000  0.06250000       0.012
  -0.18750000  0.06250000  0.06250000       0.012
  -0.06250000  0.06250000  0.06250000       0.012
   0.18750000  0.18750000  0.06250000       0.012
   0.31250000  0.18750000  0.06250000       0.023
   0.43750000  0.18750000  0.06250000       0.023
  -0.43750000  0.18750000  0.06250000       0.023
  -0.31250000  0.18750000  0.06250000       0.023
  -0.18750000  0.18750000  0.06250000       0.023
  -0.06250000  0.18750000  0.06250000       0.023
   0.31250000  0.31250000  0.06250000       0.012
   0.43750000  0.31250000  0.06250000       0.023
  -0.43750000  0.31250000  0.06250000       0.023
  -0.31250000  0.31250000  0.06250000       0.023
  -0.18750000  0.31250000  0.06250000       0.023
  -0.06250000  0.31250000  0.06250000       0.023
   0.43750000  0.43750000  0.06250000       0.012
  -0.43750000  0.43750000  0.06250000       0.023
  -0.31250000  0.43750000  0.06250000       0.023
  -0.18750000  0.43750000  0.06250000       0.023
  -0.06250000  0.43750000  0.06250000       0.023
  -0.43750000 -0.43750000  0.06250000       0.012
  -0.31250000 -0.43750000  0.06250000       0.023
  -0.18750000 -0.43750000  0.06250000       0.023
  -0.31250000 -0.31250000  0.06250000       0.012
  -0.18750000 -0.31250000  0.06250000       0.023
  -0.18750000 -0.18750000  0.06250000       0.012
   0.18750000  0.18750000  0.18750000       0.004
   0.31250000  0.18750000  0.18750000       0.012
   0.43750000  0.18750000  0.18750000       0.012
  -0.43750000  0.18750000  0.18750000       0.012
  -0.31250000  0.18750000  0.18750000       0.012
  -0.18750000  0.18750000  0.18750000       0.012
   0.31250000  0.31250000  0.18750000       0.012
   0.43750000  0.31250000  0.18750000       0.023
  -0.43750000  0.31250000  0.18750000       0.023
  -0.31250000  0.31250000  0.18750000       0.023
  -0.18750000  0.31250000  0.18750000       0.023
   0.43750000  0.43750000  0.18750000       0.012
  -0.43750000  0.43750000  0.18750000       0.023
  -0.31250000  0.43750000  0.18750000       0.023
  -0.18750000  0.43750000  0.18750000       0.023
  -0.43750000 -0.43750000  0.18750000       0.012
  -0.31250000 -0.43750000  0.18750000       0.023
  -0.31250000 -0.31250000  0.18750000       0.012
   0.31250000  0.31250000  0.31250000       0.004
   0.43750000  0.31250000  0.31250000       0.012
  -0.43750000  0.31250000  0.31250000       0.012
  -0.31250000  0.31250000  0.31250000       0.012
   0.43750000  0.43750000  0.31250000       0.012
  -0.43750000  0.43750000  0.31250000       0.023
  -0.31250000  0.43750000  0.31250000       0.023
  -0.43750000 -0.43750000  0.31250000       0.012
   0.43750000  0.43750000  0.43750000       0.004
  -0.43750000  0.43750000  0.43750000       0.012
 
 position of ions in fractional coordinates (direct lattice) 
   0.00000000  0.00000000  0.00000000
 
 position of ions in cartesian coordinates  (Angst):
   0.00000000  0.00000000  0.00000000
 


--------------------------------------------------------------------------------------------------------


 k-point  1 :  0.06250.06250.0625  plane waves:     331
 k-point  2 :  0.18750.06250.0625  plane waves:     326
 k-point  3 :  0.31250.06250.0625  plane waves:     327
 k-point  4 :  0.43750.06250.0625  plane waves:     330
 k-point  5 :  -.43750.06250.0625  plane waves:     336
 k-point  6 :  -.31250.06250.0625  plane waves:     332
 k-point  7 :  -.18750.06250.0625  plane waves:     324
 k-point  8 :  -.06250.06250.0625  plane waves:     329
 k-point  9 :  0.18750.18750.0625  plane waves:     327
 k-point 10 :  0.31250.18750.0625  plane waves:     328
 k-point 11 :  0.43750.18750.0625  plane waves:     327
 k-point 12 :  -.43750.18750.0625  plane waves:     329
 k-point 13 :  -.31250.18750.0625  plane waves:     329
 k-point 14 :  -.18750.18750.0625  plane waves:     328
 k-point 15 :  -.06250.18750.0625  plane waves:     322
 k-point 16 :  0.31250.31250.0625  plane waves:     327
 k-point 17 :  0.43750.31250.0625  plane waves:     328
 k-point 18 :  -.43750.31250.0625  plane waves:     331
 k-point 19 :  -.31250.31250.0625  plane waves:     331
 k-point 20 :  -.18750.31250.0625  plane waves:     328
 k-point 21 :  -.06250.31250.0625  plane waves:     330
 k-point 22 :  0.43750.43750.0625  plane waves:     326
 k-point 23 :  -.43750.43750.0625  plane waves:     331
 k-point 24 :  -.31250.43750.0625  plane waves:     334
 k-point 25 :  -.18750.43750.0625  plane waves:     332
 k-point 26 :  -.06250.43750.0625  plane waves:     332
 k-point 27 :  -.4375-.43750.0625  plane waves:     332
 k-point 28 :  -.3125-.43750.0625  plane waves:     329
 k-point 29 :  -.1875-.43750.0625  plane waves:     329
 k-point 30 :  -.3125-.31250.0625  plane waves:     327
 k-point 31 :  -.1875-.31250.0625  plane waves:     327
 k-point 32 :  -.1875-.18750.0625  plane waves:     327
 k-point 33 :  0.18750.18750.1875  plane waves:     320
 k-point 34 :  0.31250.18750.1875  plane waves:     324
 k-point 35 :  0.43750.18750.1875  plane waves:     327
 k-point 36 :  -.43750.18750.1875  plane waves:     332
 k-point 37 :  -.31250.18750.1875  plane waves:     327
 k-point 38 :  -.18750.18750.1875  plane waves:     326
 k-point 39 :  0.31250.31250.1875  plane waves:     327
 k-point 40 :  0.43750.31250.1875  plane waves:     329
 k-point 41 :  -.43750.31250.1875  plane waves:     331
 k-point 42 :  -.31250.31250.1875  plane waves:     327
 k-point 43 :  -.18750.31250.1875  plane waves:     330
 k-point 44 :  0.43750.43750.1875  plane waves:     331
 k-point 45 :  -.43750.43750.1875  plane waves:     332
 k-point 46 :  -.31250.43750.1875  plane waves:     329
 k-point 47 :  -.18750.43750.1875  plane waves:     329
 k-point 48 :  -.4375-.43750.1875  plane waves:     328
 k-point 49 :  -.3125-.43750.1875  plane waves:     333
 k-point 50 :  -.3125-.31250.1875  plane waves:     332
 k-point 51 :  0.31250.31250.3125  plane waves:     332
 k-point 52 :  0.43750.31250.3125  plane waves:     326
 k-point 53 :  -.43750.31250.3125  plane waves:     331
 k-point 54 :  -.31250.31250.3125  plane waves:     330
 k-point 55 :  0.43750.43750.3125  plane waves:     330
 k-point 56 :  -.43750.43750.3125  plane waves:     329
 k-point 57 :  -.31250.43750.3125  plane waves:     331
 k-point 58 :  -.4375-.43750.3125  plane waves:     330
 k-point 59 :  0.43750.43750.4375  plane waves:     335
 k-point 60 :  -.43750.43750.4375  plane waves:     334

 maximum and minimum number of plane-waves per node :       336      320

 maximum number of plane-waves:       336
 maximum index in each direction: 
   IXMAX=    5   IYMAX=    5   IZMAX=    4
   IXMIN=   -5   IYMIN=   -5   IZMIN=   -5

 WARNING: aliasing errors must be expected set NGX to  22 to avoid them
 WARNING: aliasing errors must be expected set NGY to  22 to avoid them
 NGZ is ok and might be reduce to  20
 aliasing errors are usually negligible using standard VASP settings
 and one can safely disregard these warnings

 serial   3D FFT for wavefunctions
 parallel 3D FFT for charge:
    minimum data exchange during FFTs selected (reduces bandwidth)


 total amount of memory used by VASP on root node    46780. kBytes
========================================================================

   base      :      30000. kBytes
   nonl-proj :       2908. kBytes
   fftplans  :       2284. kBytes
   grid      :       5440. kBytes
   one-center:         31. kBytes
   wavefun   :       6117. kBytes
 
 Broyden mixing: mesh for mixing (old mesh)
   NGX =  9   NGY =  9   NGZ =  9
  (NGX  = 40   NGY  = 40   NGZ  = 40)
  gives a total of    729 points

 initial charge density was supplied:
 charge density of overlapping atoms calculated
 number of electron       5.0000000 magnetization       6.0000000
 keeping initial charge density in first step


--------------------------------------------------------------------------------------------------------


 Maximum index for augmentation-charges        29101 (set IRDMAX)


--------------------------------------------------------------------------------------------------------


 First call to EWALD:  gamma=   0.675
 Maximum number of real-space cells 3x 3x 3
 Maximum number of reciprocal cells 3x 3x 3

    FEWALD:  cpu time    0.00: real time    0.00


----------------------------------------- Iteration    1(   1)  ---------------------------------------


    POTLOK:  cpu time    0.20: real time    0.20
    SETDIJ:  cpu time    0.04: real time    0.06
     EDDAV:  cpu time    3.04: real time    3.04
       DOS:  cpu time    0.01: real time    0.01
    --------------------------------------------
      LOOP:  cpu time    3.30: real time    3.31

 eigenvalue-minimisations  :  2256
 total energy-change (2. order) : 0.8437672E+01  (-0.2186851E+03)
 number of electron       5.0000000 magnetization       6.0000000
 augmentation part        5.0000000 magnetization       6.0000000

 Free energy of the ion-electron system (eV)
  ---------------------------------------------------
  alpha Z        PSCENC =        30.59079297
  Ewald energy   TEWEN  =      -197.90479031
  -1/2 Hartree   DENC   =        -2.54064926
  -exchange  EXHF       =         0.00000000
  -V(xc)+E(xc)   XCENC  =       -60.68637532
  PAW double counting   =       143.51874798      -69.33493833
  entropy T*S    EENTRO =         0.00016148
  eigenvalues    EBANDS =        34.14588151
  atomic energy  EATOM  =       130.64884137
  ---------------------------------------------------
  free energy    TOTEN  =         8.43767208 eV

  energy without entropy =        8.43751060  energy(sigma->0) =        8.43761825


--------------------------------------------------------------------------------------------------------




----------------------------------------- Iteration    1(   2)  ---------------------------------------


     EDDAV:  cpu time    3.62: real time    3.62
       DOS:  cpu time    0.01: real time    0.01
    --------------------------------------------
      LOOP:  cpu time    3.63: real time    3.63

 eigenvalue-minimisations  :  2850
 total energy-change (2. order) :-0.1017807E+02  (-0.9015840E+01)
 number of electron       5.0000000 magnetization       6.0000000
 augmentation part        5.0000000 magnetization       6.0000000

 Free energy of the ion-electron system (eV)
  ---------------------------------------------------
  alpha Z        PSCENC =        30.59079297
  Ewald energy   TEWEN  =      -197.90479031
  -1/2 Hartree   DENC   =        -2.54064926
  -exchange  EXHF       =         0.00000000
  -V(xc)+E(xc)   XCENC  =       -60.68637532
  PAW double counting   =       143.51874798      -69.33493833
  entropy T*S    EENTRO =        -0.00019987
  eigenvalues    EBANDS =        23.96817268
  atomic energy  EATOM  =       130.64884137
  ---------------------------------------------------
  free energy    TOTEN  =        -1.74039810 eV

  energy without entropy =       -1.74019823  energy(sigma->0) =       -1.74033148


--------------------------------------------------------------------------------------------------------




----------------------------------------- Iteration    1(   3)  ---------------------------------------


     EDDAV:  cpu time    3.33: real time    3.34
       DOS:  cpu time    0.01: real time    0.01
    --------------------------------------------
      LOOP:  cpu time    3.34: real time    3.36

 eigenvalue-minimisations  :  2622
 total energy-change (2. order) :-0.1502927E+00  (-0.1491919E+00)
 number of electron       5.0000000 magnetization       6.0000000
 augmentation part        5.0000000 magnetization       6.0000000

 Free energy of the ion-electron system (eV)
  ---------------------------------------------------
  alpha Z        PSCENC =        30.59079297
  Ewald energy   TEWEN  =      -197.90479031
  -1/2 Hartree   DENC   =        -2.54064926
  -exchange  EXHF       =         0.00000000
  -V(xc)+E(xc)   XCENC  =       -60.68637532
  PAW double counting   =       143.51874798      -69.33493833
  entropy T*S    EENTRO =        -0.00044031
  eigenvalues    EBANDS =        23.81812042
  atomic energy  EATOM  =       130.64884137
  ---------------------------------------------------
  free energy    TOTEN  =        -1.89069080 eV

  energy without entropy =       -1.89025049  energy(sigma->0) =       -1.89054403


--------------------------------------------------------------------------------------------------------




----------------------------------------- Iteration    1(   4)  ---------------------------------------


     EDDAV:  cpu time    3.57: real time    3.57
       DOS:  cpu time    0.01: real time    0.01
    --------------------------------------------
      LOOP:  cpu time    3.58: real time    3.62

 eigenvalue-minimisations  :  2901
 total energy-change (2. order) :-0.2454411E-03  (-0.2454286E-03)
 number of electron       5.0000000 magnetization       6.0000000
 augmentation part        5.0000000 magnetization       6.0000000

 Free energy of the ion-electron system (eV)
  ---------------------------------------------------
  alpha Z        PSCENC =        30.59079297
  Ewald energy   TEWEN  =      -197.90479031
  -1/2 Hartree   DENC   =        -2.54064926
  -exchange  EXHF       =         0.00000000
  -V(xc)+E(xc)   XCENC  =       -60.68637532
  PAW double counting   =       143.51874798      -69.33493833
  entropy T*S    EENTRO =        -0.00043968
  eigenvalues    EBANDS =        23.81787435
  atomic energy  EATOM  =       130.64884137
  ---------------------------------------------------
  free energy    TOTEN  =        -1.89093624 eV

  energy without entropy =       -1.89049656  energy(sigma->0) =       -1.89078968


--------------------------------------------------------------------------------------------------------




----------------------------------------- Iteration    1(   5)  ---------------------------------------


     EDDAV:  cpu time    3.27: real time    3.28
       DOS:  cpu time    0.01: real time    0.01
    CHARGE:  cpu time    0.19: real time    0.19
    MIXING:  cpu time    0.00: real time    0.00
    --------------------------------------------
      LOOP:  cpu time    3.48: real time    3.49

 eigenvalue-minimisations  :  2569
 total energy-change (2. order) :-0.1257372E-06  (-0.1266032E-06)
 number of electron       5.0000000 magnetization       2.2672926
 augmentation part        0.4515006 magnetization      -0.7223818

 Broyden mixing:
  rms(total) = 0.72444E+00    rms(broyden)= 0.72442E+00
  rms(prec ) = 0.94379E+00
  weight for this iteration     100.00

 Free energy of the ion-electron system (eV)
  ---------------------------------------------------
  alpha Z        PSCENC =        30.59079297
  Ewald energy   TEWEN  =      -197.90479031
  -1/2 Hartree   DENC   =        -2.54064926
  -exchange  EXHF       =         0.00000000
  -V(xc)+E(xc)   XCENC  =       -60.68637532
  PAW double counting   =       143.51874798      -69.33493833
  entropy T*S    EENTRO =        -0.00043968
  eigenvalues    EBANDS =        23.81787422
  atomic energy  EATOM  =       130.64884137
  ---------------------------------------------------
  free energy    TOTEN  =        -1.89093637 eV

  energy without entropy =       -1.89049669  energy(sigma->0) =       -1.89078981


--------------------------------------------------------------------------------------------------------




----------------------------------------- Iteration    1(   6)  ---------------------------------------


    POTLOK:  cpu time    0.20: real time    0.20
    SETDIJ:  cpu time    0.05: real time    0.05
     EDDAV:  cpu time    3.12: real time    3.12
       DOS:  cpu time    0.01: real time    0.01
    CHARGE:  cpu time    0.20: real time    0.20
    MIXING:  cpu time    0.00: real time    0.00
    --------------------------------------------
      LOOP:  cpu time    3.57: real time    3.59

 eigenvalue-minimisations  :  2397
 total energy-change (2. order) :-0.9357187E+01  (-0.2716809E+00)
 number of electron       5.0000000 magnetization       2.1459818
 augmentation part        0.3695804 magnetization       1.3294779

 Broyden mixing:
  rms(total) = 0.42347E+00    rms(broyden)= 0.42345E+00
  rms(prec ) = 0.11083E+01
  weight for this iteration     100.00

 eigenvalues of (default mixing * dielectric matrix)
  average eigenvalue GAMMA=   1.5721
  1.5721

 Free energy of the ion-electron system (eV)
  ---------------------------------------------------
  alpha Z        PSCENC =        30.59079297
  Ewald energy   TEWEN  =      -197.90479031
  -1/2 Hartree   DENC   =        -2.03062586
  -exchange  EXHF       =         0.00000000
  -V(xc)+E(xc)   XCENC  =       -66.02302246
  PAW double counting   =       163.78216578      -89.85277313
  entropy T*S    EENTRO =        -0.00003283
  eigenvalues    EBANDS =        19.54132146
  atomic energy  EATOM  =       130.64884137
  ---------------------------------------------------
  free energy    TOTEN  =       -11.24812302 eV

  energy without entropy =      -11.24809019  energy(sigma->0) =      -11.24811207


--------------------------------------------------------------------------------------------------------




----------------------------------------- Iteration    1(   7)  ---------------------------------------


    POTLOK:  cpu time    0.20: real time    0.20
    SETDIJ:  cpu time    0.05: real time    0.05
     EDDAV:  cpu time    3.46: real time    3.47
       DOS:  cpu time    0.01: real time    0.01
    CHARGE:  cpu time    0.20: real time    0.20
    MIXING:  cpu time    0.00: real time    0.00
    --------------------------------------------
      LOOP:  cpu time    3.92: real time    3.94

 eigenvalue-minimisations  :  2751
 total energy-change (2. order) :-0.5902107E-01  (-0.6253664E-02)
 number of electron       5.0000000 magnetization       2.1344106
 augmentation part        0.3681245 magnetization       1.3505627

 Broyden mixing:
  rms(total) = 0.40308E+00    rms(broyden)= 0.40308E+00
  rms(prec ) = 0.10862E+01
  weight for this iteration     100.00

 eigenvalues of (default mixing * dielectric matrix)
  average eigenvalue GAMMA=   0.9659
  0.9659  0.9659

 Free energy of the ion-electron system (eV)
  ---------------------------------------------------
  alpha Z        PSCENC =        30.59079297
  Ewald energy   TEWEN  =      -197.90479031
  -1/2 Hartree   DENC   =        -1.97846520
  -exchange  EXHF       =         0.00000000
  -V(xc)+E(xc)   XCENC  =       -66.06877430
  PAW double counting   =       164.67586626      -90.76211088
  entropy T*S    EENTRO =         0.00017292
  eigenvalues    EBANDS =        19.49132308
  atomic energy  EATOM  =       130.64884137
  ---------------------------------------------------
  free energy    TOTEN  =       -11.30714408 eV

  energy without entropy =      -11.30731700  energy(sigma->0) =      -11.30720172


--------------------------------------------------------------------------------------------------------




----------------------------------------- Iteration    1(   8)  ---------------------------------------


    POTLOK:  cpu time    0.20: real time    0.20
    SETDIJ:  cpu time    0.05: real time    0.05
     EDDAV:  cpu time    3.19: real time    3.19
       DOS:  cpu time    0.01: real time    0.01
    CHARGE:  cpu time    0.20: real time    0.20
    MIXING:  cpu time    0.00: real time    0.00
    --------------------------------------------
      LOOP:  cpu time    3.65: real time    3.71

 eigenvalue-minimisations  :  2459
 total energy-change (2. order) : 0.1072219E+00  (-0.8357712E-01)
 number of electron       5.0000000 magnetization       0.2796317
 augmentation part        0.3899698 magnetization      -0.3854911

 Broyden mixing:
  rms(total) = 0.43523E+00    rms(broyden)= 0.43523E+00
  rms(prec ) = 0.58786E+00
  weight for this iteration     100.00

 eigenvalues of (default mixing * dielectric matrix)
  average eigenvalue GAMMA=   1.1032
  1.3382  1.3382  0.6332

 Free energy of the ion-electron system (eV)
  ---------------------------------------------------
  alpha Z        PSCENC =        30.59079297
  Ewald energy   TEWEN  =      -197.90479031
  -1/2 Hartree   DENC   =        -1.07415438
  -exchange  EXHF       =         0.00000000
  -V(xc)+E(xc)   XCENC  =       -65.65028144
  PAW double counting   =       164.62013535      -91.00752929
  entropy T*S    EENTRO =        -0.00019217
  eigenvalues    EBANDS =        18.57725568
  atomic energy  EATOM  =       130.64884137
  ---------------------------------------------------
  free energy    TOTEN  =       -11.19992222 eV

  energy without entropy =      -11.19973005  energy(sigma->0) =      -11.19985816


--------------------------------------------------------------------------------------------------------




----------------------------------------- Iteration    1(   9)  ---------------------------------------


    POTLOK:  cpu time    0.20: real time    0.20
    SETDIJ:  cpu time    0.05: real time    0.05
     EDDAV:  cpu time    3.02: real time    3.02
       DOS:  cpu time    0.01: real time    0.01
    CHARGE:  cpu time    0.20: real time    0.20
    MIXING:  cpu time    0.00: real time    0.00
    --------------------------------------------
      LOOP:  cpu time    3.48: real time    3.50

 eigenvalue-minimisations  :  2297
 total energy-change (2. order) :-0.3873892E+00  (-0.5491267E-01)
 number of electron       5.0000000 magnetization       0.1759227
 augmentation part        0.4045175 magnetization       0.0865316

 Broyden mixing:
  rms(total) = 0.97753E-01    rms(broyden)= 0.97749E-01
  rms(prec ) = 0.23564E+00
  weight for this iteration     100.00

 eigenvalues of (default mixing * dielectric matrix)
  average eigenvalue GAMMA=   1.0979
  1.7554  0.9536  0.9536  0.7292

 Free energy of the ion-electron system (eV)
  ---------------------------------------------------
  alpha Z        PSCENC =        30.59079297
  Ewald energy   TEWEN  =      -197.90479031
  -1/2 Hartree   DENC   =        -0.52976216
  -exchange  EXHF       =         0.00000000
  -V(xc)+E(xc)   XCENC  =       -65.80846932
  PAW double counting   =       181.27183675     -107.87631064
  entropy T*S    EENTRO =         0.00005716
  eigenvalues    EBANDS =        18.02049279
  atomic energy  EATOM  =       130.64884137
  ---------------------------------------------------
  free energy    TOTEN  =       -11.58731140 eV

  energy without entropy =      -11.58736857  energy(sigma->0) =      -11.58733046


--------------------------------------------------------------------------------------------------------




----------------------------------------- Iteration    1(  10)  ---------------------------------------


    POTLOK:  cpu time    0.20: real time    0.20
    SETDIJ:  cpu time    0.05: real time    0.05
     EDDAV:  cpu time    3.13: real time    3.13
       DOS:  cpu time    0.01: real time    0.01
    CHARGE:  cpu time    0.20: real time    0.20
    MIXING:  cpu time    0.00: real time    0.00
    --------------------------------------------
      LOOP:  cpu time    3.58: real time    3.60

 eigenvalue-minimisations  :  2404
 total energy-change (2. order) :-0.1646939E-01  (-0.4274460E-02)
 number of electron       5.0000000 magnetization       0.1564771
 augmentation part        0.3999042 magnetization       0.1198611

 Broyden mixing:
  rms(total) = 0.56629E-01    rms(broyden)= 0.56628E-01
  rms(prec ) = 0.10696E+00
  weight for this iteration     100.00

 eigenvalues of (default mixing * dielectric matrix)
  average eigenvalue GAMMA=   1.0935
  1.6184  1.1097  1.1097  0.9830  0.6468

 Free energy of the ion-electron system (eV)
  ---------------------------------------------------
  alpha Z        PSCENC =        30.59079297
  Ewald energy   TEWEN  =      -197.90479031
  -1/2 Hartree   DENC   =        -0.60348444
  -exchange  EXHF       =         0.00000000
  -V(xc)+E(xc)   XCENC  =       -65.89890307
  PAW double counting   =       183.40210504     -109.99501763
  entropy T*S    EENTRO =        -0.00016204
  eigenvalues    EBANDS =        18.15683733
  atomic energy  EATOM  =       130.64884137
  ---------------------------------------------------
  free energy    TOTEN  =       -11.60378079 eV

  energy without entropy =      -11.60361875  energy(sigma->0) =      -11.60372677


--------------------------------------------------------------------------------------------------------




----------------------------------------- Iteration    1(  11)  ---------------------------------------


    POTLOK:  cpu time    0.20: real time    0.20
    SETDIJ:  cpu time    0.05: real time    0.05
     EDDAV:  cpu time    3.15: real time    3.15
       DOS:  cpu time    0.01: real time    0.01
    CHARGE:  cpu time    0.20: real time    0.20
    MIXING:  cpu time    0.00: real time    0.00
    --------------------------------------------
      LOOP:  cpu time    3.60: real time    3.62

 eigenvalue-minimisations  :  2433
 total energy-change (2. order) : 0.7799723E-03  (-0.5332678E-03)
 number of electron       5.0000000 magnetization       0.0096054
 augmentation part        0.3970700 magnetization      -0.0331468

 Broyden mixing:
  rms(total) = 0.36618E-01    rms(broyden)= 0.36618E-01
  rms(prec ) = 0.51840E-01
  weight for this iteration     100.00

 eigenvalues of (default mixing * dielectric matrix)
  average eigenvalue GAMMA=   1.1765
  1.6260  1.6260  1.1820  1.1820  0.7795  0.6636

 Free energy of the ion-electron system (eV)
  ---------------------------------------------------
  alpha Z        PSCENC =        30.59079297
  Ewald energy   TEWEN  =      -197.90479031
  -1/2 Hartree   DENC   =        -0.64516976
  -exchange  EXHF       =         0.00000000
  -V(xc)+E(xc)   XCENC  =       -65.94366853
  PAW double counting   =       185.91816496     -112.51422373
  entropy T*S    EENTRO =        -0.00009003
  eigenvalues    EBANDS =        18.24714225
  atomic energy  EATOM  =       130.64884137
  ---------------------------------------------------
  free energy    TOTEN  =       -11.60300082 eV

  energy without entropy =      -11.60291078  energy(sigma->0) =      -11.60297080


--------------------------------------------------------------------------------------------------------




----------------------------------------- Iteration    1(  12)  ---------------------------------------


    POTLOK:  cpu time    0.20: real time    0.20
    SETDIJ:  cpu time    0.05: real time    0.05
     EDDAV:  cpu time    3.03: real time    3.03
       DOS:  cpu time    0.01: real time    0.01
    CHARGE:  cpu time    0.20: real time    0.20
    MIXING:  cpu time    0.01: real time    0.00
    --------------------------------------------
      LOOP:  cpu time    3.48: real time    3.49

 eigenvalue-minimisations  :  2311
 total energy-change (2. order) :-0.4409519E-02  (-0.4249024E-03)
 number of electron       5.0000000 magnetization      -0.0012091
 augmentation part        0.3967562 magnetization      -0.0023624

 Broyden mixing:
  rms(total) = 0.57967E-02    rms(broyden)= 0.57961E-02
  rms(prec ) = 0.15666E-01
  weight for this iteration     100.00

 eigenvalues of (default mixing * dielectric matrix)
  average eigenvalue GAMMA=   1.2409
  2.0767  2.0767  1.1782  1.1782  0.8199  0.7247  0.6318

 Free energy of the ion-electron system (eV)
  ---------------------------------------------------
  alpha Z        PSCENC =        30.59079297
  Ewald energy   TEWEN  =      -197.90479031
  -1/2 Hartree   DENC   =        -0.64310243
  -exchange  EXHF       =         0.00000000
  -V(xc)+E(xc)   XCENC  =       -65.95927524
  PAW double counting   =       191.95729553     -118.59567460
  entropy T*S    EENTRO =         0.00012028
  eigenvalues    EBANDS =        18.29838210
  atomic energy  EATOM  =       130.64884137
  ---------------------------------------------------
  free energy    TOTEN  =       -11.60741033 eV

  energy without entropy =      -11.60753061  energy(sigma->0) =      -11.60745043


--------------------------------------------------------------------------------------------------------




----------------------------------------- Iteration    1(  13)  ---------------------------------------


    POTLOK:  cpu time    0.19: real time    0.20
    SETDIJ:  cpu time    0.05: real time    0.05
     EDDAV:  cpu time    2.85: real time    2.85
       DOS:  cpu time    0.01: real time    0.01
    CHARGE:  cpu time    0.20: real time    0.20
    MIXING:  cpu time    0.00: real time    0.00
    --------------------------------------------
      LOOP:  cpu time    3.31: real time    3.32

 eigenvalue-minimisations  :  2082
 total energy-change (2. order) : 0.1394479E-03  (-0.1590161E-04)
 number of electron       5.0000000 magnetization       0.0059231
 augmentation part        0.3971528 magnetization       0.0059331

 Broyden mixing:
  rms(total) = 0.11363E-02    rms(broyden)= 0.11362E-02
  rms(prec ) = 0.32808E-02
  weight for this iteration     100.00

 eigenvalues of (default mixing * dielectric matrix)
  average eigenvalue GAMMA=   1.2308
  2.1688  2.1688  1.1990  1.1990  0.9067  0.9067  0.6693  0.6278

 Free energy of the ion-electron system (eV)
  ---------------------------------------------------
  alpha Z        PSCENC =        30.59079297
  Ewald energy   TEWEN  =      -197.90479031
  -1/2 Hartree   DENC   =        -0.63320925
  -exchange  EXHF       =         0.00000000
  -V(xc)+E(xc)   XCENC  =       -65.95240138
  PAW double counting   =       192.39983148     -119.04213805
  entropy T*S    EENTRO =         0.00012646
  eigenvalues    EBANDS =        18.28567582
  atomic energy  EATOM  =       130.64884137
  ---------------------------------------------------
  free energy    TOTEN  =       -11.60727089 eV

  energy without entropy =      -11.60739735  energy(sigma->0) =      -11.60731304


--------------------------------------------------------------------------------------------------------




----------------------------------------- Iteration    1(  14)  ---------------------------------------


    POTLOK:  cpu time    0.20: real time    0.20
    SETDIJ:  cpu time    0.05: real time    0.05
     EDDAV:  cpu time    1.96: real time    1.96
       DOS:  cpu time    0.01: real time    0.01
    --------------------------------------------
      LOOP:  cpu time    2.21: real time    2.23

 eigenvalue-minimisations  :  1137
 total energy-change (2. order) : 0.1286819E-04  (-0.1484425E-05)
 number of electron       5.0000000 magnetization       0.0059231
 augmentation part        0.3971528 magnetization       0.0059331

 Free energy of the ion-electron system (eV)
  ---------------------------------------------------
  alpha Z        PSCENC =        30.59079297
  Ewald energy   TEWEN  =      -197.90479031
  -1/2 Hartree   DENC   =        -0.63131278
  -exchange  EXHF       =         0.00000000
  -V(xc)+E(xc)   XCENC  =       -65.95074804
  PAW double counting   =       192.31107444     -118.95153375
  entropy T*S    EENTRO =         0.00012761
  eigenvalues    EBANDS =        18.28029047
  atomic energy  EATOM  =       130.64884137
  ---------------------------------------------------
  free energy    TOTEN  =       -11.60725802 eV

  energy without entropy =      -11.60738563  energy(sigma->0) =      -11.60730055


--------------------------------------------------------------------------------------------------------




 average (electrostatic) potential at core
  the test charge radii are     1.2538
  (the norm of the test charge is              1.0000)
       1 -35.0464
 
 
 
 E-fermi :   6.0543     XC(G=0): -12.3757     alpha+bet :-13.5068


 spin component 1

 k-point   1 :       0.0625    0.0625    0.0625
  band No.  band energies     occupation 
      1      -2.0182      1.00000
      2       6.3797      0.00000
      3       6.6011      0.00000
      4       6.6011      0.00000
      5       9.5750      0.00000
      6       9.5750      0.00000
      7      18.9929      0.00000
      8      19.8064      0.00000
      9      22.8363      0.00000

 k-point   2 :       0.1875    0.0625    0.0625
  band No.  band energies     occupation 
      1      -1.2113      1.00000
      2       5.7640      1.00000
      3       6.9193      0.00000
      4       6.9504      0.00000
      5       8.9643      0.00000
      6       9.7032      0.00000
      7      19.8051      0.00000
      8      20.4117      0.00000
      9      21.2922      0.00000

 k-point   3 :       0.3125    0.0625    0.0625
  band No.  band energies     occupation 
      1       0.3476      1.00000
      2       5.2315      1.00000
      3       6.7762      0.00000
      4       7.0062      0.00000
      5       9.3306      0.00000
      6      10.5362      0.00000
      7      18.7270      0.00000
      8      19.8088      0.00000
      9      22.7578      0.00000

 k-point   4 :       0.4375    0.0625    0.0625
  band No.  band energies     occupation 
      1       1.3445      1.00000
      2       5.9298      1.00121
      3       6.3501      0.00000
      4       6.5366      0.00000
      5      11.0058      0.00000
      6      12.0112      0.00000
      7      17.1613      0.00000
      8      19.7143      0.00000
      9      19.8553      0.00000

 k-point   5 :      -0.4375    0.0625    0.0625
  band No.  band energies     occupation 
      1       1.4757      1.00000
      2       5.9628      1.01330
      3       6.4180      0.00000
      4       6.8048      0.00000
      5      12.1220      0.00000
      6      12.2269      0.00000
      7      16.4732      0.00000
      8      18.6243      0.00000
      9      19.8117      0.00000

 k-point   6 :      -0.3125    0.0625    0.0625
  band No.  band energies     occupation 
      1       1.1400      1.00000
      2       5.5455      1.00000
      3       6.3953      0.00000
      4       6.7366      0.00000
      5      10.6477      0.00000
      6      11.3541      0.00000
      7      17.6174      0.00000
      8      19.8043      0.00000
      9      20.8376      0.00000

 k-point   7 :      -0.1875    0.0625    0.0625
  band No.  band energies     occupation 
      1      -0.1891      1.00000
      2       5.2772      1.00000
      3       6.9375      0.00000
      4       7.1012      0.00000
      5       9.0653      0.00000
      6      10.0621      0.00000
      7      19.3861      0.00000
      8      19.8124      0.00000
      9      22.5891      0.00000

 k-point   8 :      -0.0625    0.0625    0.0625
  band No.  band energies     occupation 
      1      -1.6024      1.00000
      2       5.9814      1.02948
      3       6.8258      0.00000
      4       6.8395      0.00000
      5       9.0443      0.00000
      6       9.7529      0.00000
      7      19.8060      0.00000
      8      19.8441      0.00000
      9      22.0602      0.00000

 k-point   9 :       0.1875    0.1875    0.0625
  band No.  band energies     occupation 
      1      -0.8209      1.00000
      2       5.3066      1.00000
      3       7.2301      0.00000
      4       7.3128      0.00000
      5       8.2514      0.00000
      6      10.0927      0.00000
      7      19.8056      0.00000
      8      21.3038      0.00000
      9      21.8479      0.00000

 k-point  10 :       0.3125    0.1875    0.0625
  band No.  band energies     occupation 
      1       0.5048      1.00000
      2       4.6497      1.00000
      3       6.5686      0.00000
      4       7.8994      0.00000
      5       8.6620      0.00000
      6      10.8535      0.00000
      7      19.8019      0.00000
      8      20.6900      0.00000
      9      23.5683      0.00000

 k-point  11 :       0.4375    0.1875    0.0625
  band No.  band energies     occupation 
      1       1.8640      1.00000
      2       4.7410      1.00000
      3       5.7303      1.00000
      4       7.5308      0.00000
      5      10.5954      0.00000
      6      12.3425      0.00000
      7      18.1746      0.00000
      8      19.8123      0.00000
      9      21.3741      0.00000

 k-point  12 :      -0.4375    0.1875    0.0625
  band No.  band energies     occupation 
      1       2.2710      1.00000
      2       4.8766      1.00000
      3       6.2513      0.00000
      4       7.1683      0.00000
      5      11.8382      0.00000
      6      13.4263      0.00000
      7      15.8218      0.00000
      8      19.8106      0.00000
      9      20.4312      0.00000

 k-point  13 :      -0.3125    0.1875    0.0625
  band No.  band energies     occupation 
      1       2.1636      1.00000
      2       5.0875      1.00000
      3       5.6824      1.00000
      4       7.2653      0.00000
      5      10.5699      0.00000
      6      13.1867      0.00000
      7      17.3323      0.00000
      8      19.8115      0.00000
      9      20.9005      0.00000

 k-point  14 :      -0.1875    0.1875    0.0625
  band No.  band energies     occupation 
      1       1.0680      1.00000
      2       4.7804      1.00000
      3       6.1818     -0.00092
      4       7.7713      0.00000
      5       8.6794      0.00000
      6      11.6580      0.00000
      7      19.7454      0.00000
      8      19.9025      0.00000
      9      23.2016      0.00000

 k-point  15 :      -0.0625    0.1875    0.0625
  band No.  band energies     occupation 
      1      -0.4731      1.00000
      2       5.2697      1.00000
      3       6.9763      0.00000
      4       7.3352      0.00000
      5       8.5087      0.00000
      6      10.1546      0.00000
      7      19.8035      0.00000
      8      20.5557      0.00000
      9      22.0413      0.00000

 k-point  16 :       0.3125    0.3125    0.0625
  band No.  band energies     occupation 
      1       1.1873      1.00000
      2       3.8540      1.00000
      3       6.4518      0.00000
      4       8.9160      0.00000
      5       9.3120      0.00000
      6      11.1102      0.00000
      7      19.8037      0.00000
      8      21.9615      0.00000
      9      23.1373      0.00000

 k-point  17 :       0.4375    0.3125    0.0625
  band No.  band energies     occupation 
      1       2.0512      1.00000
      2       3.5318      1.00000
      3       6.1048     -0.02615
      4       9.4809      0.00000
      5      10.7069      0.00000
      6      12.4182      0.00000
      7      19.0354      0.00000
      8      19.8179      0.00000
      9      21.2744      0.00000

 k-point  18 :      -0.4375    0.3125    0.0625
  band No.  band energies     occupation 
      1       2.7715      1.00000
      2       3.8602      1.00000
      3       5.8953      1.00003
      4       8.8386      0.00000
      5      11.9443      0.00000
      6      14.4110      0.00000
      7      15.4813      0.00000
      8      19.8076      0.00000
      9      21.2597      0.00000

 k-point  19 :      -0.3125    0.3125    0.0625
  band No.  band energies     occupation 
      1       3.4891      1.00000
      2       4.0547      1.00000
      3       5.3873      1.00000
      4       8.3469      0.00000
      5      10.8095      0.00000
      6      13.5471      0.00000
      7      17.8944      0.00000
      8      19.8055      0.00000
      9      20.0946      0.00000

 k-point  20 :      -0.1875    0.3125    0.0625
  band No.  band energies     occupation 
      1       2.6118      1.00000
      2       4.7770      1.00000
      3       5.0829      1.00000
      4       7.9146      0.00000
      5       9.6406      0.00000
      6      13.4239      0.00000
      7      18.3246      0.00000
      8      19.8145      0.00000
      9      22.1901      0.00000

 k-point  21 :      -0.0625    0.3125    0.0625
  band No.  band energies     occupation 
      1       1.0710      1.00000
      2       5.0694      1.00000
      3       6.3079      0.00000
      4       7.1295      0.00000
      5       9.7083      0.00000
      6      11.4553      0.00000
      7      18.5983      0.00000
      8      19.8094      0.00000
      9      22.0209      0.00000

 k-point  22 :       0.4375    0.4375    0.0625
  band No.  band energies     occupation 
      1       1.7210      1.00000
      2       2.8834      1.00000
      3       7.7415      0.00000
      4      11.0324      0.00000
      5      11.9034      0.00000
      6      12.2068      0.00000
      7      18.3888      0.00000
      8      19.3084      0.00000
      9      19.7997      0.00000

 k-point  23 :      -0.4375    0.4375    0.0625
  band No.  band energies     occupation 
      1       1.9544      1.00000
      2       2.9807      1.00000
      3       7.7643      0.00000
      4      10.7781      0.00000
      5      12.5785      0.00000
      6      14.1019      0.00000
      7      16.1456      0.00000
      8      18.3437      0.00000
      9      19.7990      0.00000

 k-point  24 :      -0.3125    0.4375    0.0625
  band No.  band energies     occupation 
      1       2.7386      1.00000
      2       3.7243      1.00000
      3       6.3463      0.00000
      4       9.2914      0.00000
      5      11.8747      0.00000
      6      14.1798      0.00000
      7      16.3182      0.00000
      8      19.7483      0.00000
      9      19.9242      0.00000

 k-point  25 :      -0.1875    0.4375    0.0625
  band No.  band energies     occupation 
      1       2.9288      1.00000
      2       4.3271      1.00000
      3       5.8518      1.00000
      4       7.7818      0.00000
      5      11.3779      0.00000
      6      13.8775      0.00000
      7      16.1186      0.00000
      8      19.8098      0.00000
      9      21.3981      0.00000

 k-point  26 :      -0.0625    0.4375    0.0625
  band No.  band energies     occupation 
      1       1.7227      1.00000
      2       5.5475      1.00000
      3       6.3864      0.00000
      4       6.7221      0.00000
      5      11.5484      0.00000
      6      12.6658      0.00000
      7      16.6301      0.00000
      8      19.5307      0.00000
      9      19.8142      0.00000

 k-point  27 :      -0.4375   -0.4375    0.0625
  band No.  band energies     occupation 
      1       1.6097      1.00000
      2       2.6788      1.00000
      3       8.7003      0.00000
      4      11.7160      0.00000
      5      12.6701      0.00000
      6      13.0477      0.00000
      7      16.9630      0.00000
      8      18.0174      0.00000
      9      19.5171      0.00000

 k-point  28 :      -0.3125   -0.4375    0.0625
  band No.  band energies     occupation 
      1       2.0723      1.00000
      2       3.1678      1.00000
      3       6.9262      0.00000
      4      10.3244      0.00000
      5      11.8607      0.00000
      6      13.2261      0.00000
      7      17.3218      0.00000
      8      19.5093      0.00000
      9      19.8105      0.00000

 k-point  29 :      -0.1875   -0.4375    0.0625
  band No.  band energies     occupation 
      1       2.5150      1.00000
      2       4.2410      1.00000
      3       5.5654      1.00000
      4       8.1488      0.00000
      5      11.6129      0.00000
      6      13.1729      0.00000
      7      16.8250      0.00000
      8      19.8106      0.00000
      9      21.8360      0.00000

 k-point  30 :      -0.3125   -0.3125    0.0625
  band No.  band energies     occupation 
      1       1.7109      1.00000
      2       3.2828      1.00000
      3       6.7250      0.00000
      4       9.9722      0.00000
      5      10.5422      0.00000
      6      11.6758      0.00000
      7      19.7950      0.00000
      8      20.3817      0.00000
      9      21.1902      0.00000

 k-point  31 :      -0.1875   -0.3125    0.0625
  band No.  band energies     occupation 
      1       1.4867      1.00000
      2       4.0431      1.00000
      3       6.0205      0.95124
      4       8.6166      0.00000
      5       9.5343      0.00000
      6      11.6378      0.00000
      7      19.7964      0.00000
      8      20.5266      0.00000
      9      23.1915      0.00000

 k-point  32 :      -0.1875   -0.1875    0.0625
  band No.  band energies     occupation 
      1       0.2009      1.00000
      2       4.5540      1.00000
      3       6.9600      0.00000
      4       8.0120      0.00000
      5       8.3506      0.00000
      6      10.5616      0.00000
      7      19.8050      0.00000
      8      21.9118      0.00000
      9      23.4225      0.00000

 k-point  33 :       0.1875    0.1875    0.1875
  band No.  band energies     occupation 
      1      -0.8576      1.00000
      2       5.6172      1.00000
      3       6.9666      0.00000
      4       6.9666      0.00000
      5       9.3760      0.00000
      6       9.3760      0.00000
      7      19.7504      0.00000
      8      19.8362      0.00000
      9      21.6813      0.00000

 k-point  34 :       0.3125    0.1875    0.1875
  band No.  band energies     occupation 
      1       0.1845      1.00000
      2       5.1022      1.00000
      3       6.7018      0.00000
      4       7.5018      0.00000
      5       8.4217      0.00000
      6      10.7381      0.00000
      7      19.7893      0.00000
      8      20.0127      0.00000
      9      22.8711      0.00000

 k-point  35 :       0.4375    0.1875    0.1875
  band No.  band energies     occupation 
      1       1.8057      1.00000
      2       4.8518      1.00000
      3       5.7237      1.00000
      4       7.6464      0.00000
      5       8.9486      0.00000
      6      12.6521      0.00000
      7      19.1774      0.00000
      8      19.8214      0.00000
      9      22.2301      0.00000

 k-point  36 :      -0.4375    0.1875    0.1875
  band No.  band energies     occupation 
      1       2.5130      1.00000
      2       4.8373      1.00000
      3       5.8837      1.00001
      4       7.3391      0.00000
      5      10.8960      0.00000
      6      13.5664      0.00000
      7      16.7125      0.00000
      8      19.8109      0.00000
      9      21.1113      0.00000

 k-point  37 :      -0.3125    0.1875    0.1875
  band No.  band energies     occupation 
      1       2.3594      1.00000
      2       4.6059      1.00000
      3       5.9520      1.00689
      4       7.5131      0.00000
      5      12.2340      0.00000
      6      12.9631      0.00000
      7      16.0747      0.00000
      8      19.8105      0.00000
      9      20.9381      0.00000

 k-point  38 :      -0.1875    0.1875    0.1875
  band No.  band energies     occupation 
      1       1.6245      1.00000
      2       4.2958      1.00000
      3       5.9026      1.00008
      4       7.9626      0.00000
      5      10.4149      0.00000
      6      11.6620      0.00000
      7      19.2682      0.00000
      8      19.8211      0.00000
      9      22.3496      0.00000

 k-point  39 :       0.3125    0.3125    0.1875
  band No.  band energies     occupation 
      1       0.7025      1.00000
      2       4.8058      1.00000
      3       6.4730      0.00000
      4       7.4268      0.00000
      5       9.4076      0.00000
      6      10.8745      0.00000
      7      19.4660      0.00000
      8      19.8178      0.00000
      9      23.0303      0.00000

 k-point  40 :       0.4375    0.3125    0.1875
  band No.  band energies     occupation 
      1       2.0121      1.00000
      2       4.3851      1.00000
      3       5.5067      1.00000
      4       8.2667      0.00000
      5       9.5122      0.00000
      6      12.5987      0.00000
      7      19.2445      0.00000
      8      19.8242      0.00000
      9      22.4784      0.00000

 k-point  41 :      -0.4375    0.3125    0.1875
  band No.  band energies     occupation 
      1       3.3314      1.00000
      2       4.3061      1.00000
      3       4.8341      1.00000
      4       8.4310      0.00000
      5      10.6055      0.00000
      6      13.8268      0.00000
      7      17.6684      0.00000
      8      19.8113      0.00000
      9      20.6901      0.00000

 k-point  42 :      -0.3125    0.3125    0.1875
  band No.  band energies     occupation 
      1       3.3544      1.00000
      2       3.9607      1.00000
      3       5.5049      1.00000
      4       8.3099      0.00000
      5      11.5181      0.00000
      6      15.0616      0.00000
      7      15.3129      0.00000
      8      19.8084      0.00000
      9      21.2962      0.00000

 k-point  43 :      -0.1875    0.3125    0.1875
  band No.  band energies     occupation 
      1       2.6586      1.00000
      2       3.9937      1.00000
      3       5.2803      1.00000
      4       8.9504      0.00000
      5      10.6051      0.00000
      6      13.4069      0.00000
      7      17.9743      0.00000
      8      19.8125      0.00000
      9      21.1225      0.00000

 k-point  44 :       0.4375    0.4375    0.1875
  band No.  band energies     occupation 
      1       2.2234      1.00000
      2       3.8091      1.00000
      3       5.8751      1.00000
      4       8.6861      0.00000
      5      11.8368      0.00000
      6      12.2394      0.00000
      7      17.8242      0.00000
      8      19.8113      0.00000
      9      22.0497      0.00000

 k-point  45 :      -0.4375    0.4375    0.1875
  band No.  band energies     occupation 
      1       2.7039      1.00000
      2       3.7008      1.00000
      3       5.8314      1.00000
      4       9.4545      0.00000
      5      11.6859      0.00000
      6      14.2201      0.00000
      7      16.8080      0.00000
      8      19.4859      0.00000
      9      19.8145      0.00000

 k-point  46 :      -0.3125    0.4375    0.1875
  band No.  band energies     occupation 
      1       3.1595      1.00000
      2       4.3346      1.00000
      3       5.3640      1.00000
      4       8.4016      0.00000
      5      12.5101      0.00000
      6      15.5964      0.00000
      7      16.3780      0.00000
      8      18.0775      0.00000
      9      19.8133      0.00000

 k-point  47 :      -0.1875    0.4375    0.1875
  band No.  band energies     occupation 
      1       3.3987      1.00000
      2       4.2599      1.00000
      3       4.9512      1.00000
      4       8.6374      0.00000
      5      11.6269      0.00000
      6      14.4882      0.00000
      7      17.0338      0.00000
      8      19.3580      0.00000
      9      19.8161      0.00000

 k-point  48 :      -0.4375   -0.4375    0.1875
  band No.  band energies     occupation 
      1       2.2232      1.00000
      2       3.2658      1.00000
      3       7.2267      0.00000
      4      10.2188      0.00000
      5      12.2348      0.00000
      6      14.5818      0.00000
      7      15.2637      0.00000
      8      19.7890      0.00000
      9      20.2546      0.00000

 k-point  49 :      -0.3125   -0.4375    0.1875
  band No.  band energies     occupation 
      1       2.5611      1.00000
      2       3.5558      1.00000
      3       6.5377      0.00000
      4       9.4432      0.00000
      5      12.5247      0.00000
      6      15.2332      0.00000
      7      15.9101      0.00000
      8      18.2884      0.00000
      9      19.8111      0.00000

 k-point  50 :      -0.3125   -0.3125    0.1875
  band No.  band energies     occupation 
      1       2.3144      1.00000
      2       3.4448      1.00000
      3       6.5290      0.00000
      4       9.5166      0.00000
      5      12.4182      0.00000
      6      13.4752      0.00000
      7      16.0945      0.00000
      8      19.8068      0.00000
      9      20.8310      0.00000

 k-point  51 :       0.3125    0.3125    0.3125
  band No.  band energies     occupation 
      1       0.6698      1.00000
      2       5.4329      1.00000
      3       6.7372      0.00000
      4       6.7372      0.00000
      5      10.3672      0.00000
      6      10.3672      0.00000
      7      17.8678      0.00000
      8      19.8063      0.00000
      9      21.9848      0.00000

 k-point  52 :       0.4375    0.3125    0.3125
  band No.  band energies     occupation 
      1       1.5707      1.00000
      2       5.2978      1.00000
      3       6.0034      1.02693
      4       7.0020      0.00000
      5       9.9412      0.00000
      6      12.3985      0.00000
      7      18.0949      0.00000
      8      19.8098      0.00000
      9      20.9996      0.00000

 k-point  53 :      -0.4375    0.3125    0.3125
  band No.  band energies     occupation 
      1       3.1232      1.00000
      2       4.5473      1.00000
      3       5.1976      1.00000
      4       7.9490      0.00000
      5      10.0793      0.00000
      6      13.6081      0.00000
      7      17.9895      0.00000
      8      19.8123      0.00000
      9      21.1419      0.00000

 k-point  54 :      -0.3125    0.3125    0.3125
  band No.  band energies     occupation 
      1       3.0742      1.00000
      2       3.9667      1.00000
      3       5.9428      1.00355
      4       8.8271      0.00000
      5      11.2672      0.00000
      6      13.3815      0.00000
      7      17.4661      0.00000
      8      19.7802      0.00000
      9      19.9708      0.00000

 k-point  55 :       0.4375    0.4375    0.3125
  band No.  band energies     occupation 
      1       1.7281      1.00000
      2       5.2427      1.00000
      3       6.0560      0.47127
      4       7.0038      0.00000
      5      11.5716      0.00000
      6      12.0599      0.00000
      7      17.2269      0.00000
      8      19.8074      0.00000
      9      20.2400      0.00000

 k-point  56 :      -0.4375    0.4375    0.3125
  band No.  band energies     occupation 
      1       2.8051      1.00000
      2       4.4356      1.00000
      3       5.5993      1.00000
      4       7.7971      0.00000
      5      11.2820      0.00000
      6      13.8669      0.00000
      7      16.2916      0.00000
      8      19.8104      0.00000
      9      21.5906      0.00000

 k-point  57 :      -0.3125    0.4375    0.3125
  band No.  band energies     occupation 
      1       3.3959      1.00000
      2       4.0606      1.00000
      3       5.4219      1.00000
      4       8.5238      0.00000
      5      11.6763      0.00000
      6      14.2959      0.00000
      7      17.0773      0.00000
      8      19.4236      0.00000
      9      19.8226      0.00000

 k-point  58 :      -0.4375   -0.4375    0.3125
  band No.  band energies     occupation 
      1       2.8728      1.00000
      2       4.1187      1.00000
      3       5.9236      1.00069
      4       8.1939      0.00000
      5      11.8434      0.00000
      6      13.8409      0.00000
      7      15.7693      0.00000
      8      19.8089      0.00000
      9      21.3772      0.00000

 k-point  59 :       0.4375    0.4375    0.4375
  band No.  band energies     occupation 
      1       1.2919      1.00000
      2       6.3371      0.00000
      3       6.3371      0.00000
      4       6.5750      0.00000
      5      11.8375      0.00000
      6      11.8375      0.00000
      7      16.7651      0.00000
      8      18.7601      0.00000
      9      19.8139      0.00000

 k-point  60 :      -0.4375    0.4375    0.4375
  band No.  band energies     occupation 
      1       1.8998      1.00000
      2       5.3623      1.00000
      3       6.5384      0.00000
      4       6.7681      0.00000
      5      11.7295      0.00000
      6      13.0464      0.00000
      7      16.1587      0.00000
      8      19.6212      0.00000
      9      19.8112      0.00000

 spin component 2

 k-point   1 :       0.0625    0.0625    0.0625
  band No.  band energies     occupation 
      1      -2.0144      1.00000
      2       6.3826      0.00000
      3       6.6041      0.00000
      4       6.6041      0.00000
      5       9.5800      0.00000
      6       9.5800      0.00000
      7      18.9922      0.00000
      8      19.8093      0.00000
      9      22.8423      0.00000

 k-point   2 :       0.1875    0.0625    0.0625
  band No.  band energies     occupation 
      1      -1.2075      1.00000
      2       5.7666      1.00000
      3       6.9225      0.00000
      4       6.9534      0.00000
      5       8.9694      0.00000
      6       9.7081      0.00000
      7      19.8080      0.00000
      8      20.4126      0.00000
      9      21.2967      0.00000

 k-point   3 :       0.3125    0.0625    0.0625
  band No.  band energies     occupation 
      1       0.3512      1.00000
      2       5.2342      1.00000
      3       6.7801      0.00000
      4       7.0101      0.00000
      5       9.3348      0.00000
      6      10.5404      0.00000
      7      18.7323      0.00000
      8      19.8117      0.00000
      9      22.7587      0.00000

 k-point   4 :       0.4375    0.0625    0.0625
  band No.  band energies     occupation 
      1       1.3474      1.00000
      2       5.9340      1.00175
      3       6.3539      0.00000
      4       6.5410      0.00000
      5      11.0094      0.00000
      6      12.0150      0.00000
      7      17.1659      0.00000
      8      19.7167      0.00000
      9      19.8581      0.00000

[...]
      2       3.8119      1.00000
      3       5.8784      1.00000
      4       8.6902      0.00000
      5      11.8402      0.00000
      6      12.2432      0.00000
      7      17.8284      0.00000
      8      19.8142      0.00000
      9      22.1212      0.00000

 k-point  45 :      -0.4375    0.4375    0.1875
  band No.  band energies     occupation 
      1       2.7094      1.00000
      2       3.7030      1.00000
      3       5.8340      1.00000
      4       9.4594      0.00000
      5      11.6887      0.00000
      6      14.2232      0.00000
      7      16.8121      0.00000
      8      19.4897      0.00000
      9      19.8174      0.00000

 k-point  46 :      -0.3125    0.4375    0.1875
  band No.  band energies     occupation 
      1       3.1654      1.00000
      2       4.3367      1.00000
      3       5.3661      1.00000
      4       8.4066      0.00000
      5      12.5127      0.00000
      6      15.6003      0.00000
      7      16.3814      0.00000
      8      18.0811      0.00000
      9      19.8162      0.00000

 k-point  47 :      -0.1875    0.4375    0.1875
  band No.  band energies     occupation 
      1       3.4043      1.00000
      2       4.2624      1.00000
      3       4.9535      1.00000
      4       8.6423      0.00000
      5      11.6296      0.00000
      6      14.4918      0.00000
      7      17.0377      0.00000
      8      19.3615      0.00000
      9      19.8191      0.00000

 k-point  48 :      -0.4375   -0.4375    0.1875
  band No.  band energies     occupation 
      1       2.2287      1.00000
      2       3.2683      1.00000
      3       7.2288      0.00000
      4      10.2237      0.00000
      5      12.2375      0.00000
      6      14.5858      0.00000
      7      15.2666      0.00000
      8      19.7919      0.00000
      9      20.3150      0.00000

 k-point  49 :      -0.3125   -0.4375    0.1875
  band No.  band energies     occupation 
      1       2.5669      1.00000
      2       3.5579      1.00000
      3       6.5399      0.00000
      4       9.4482      0.00000
      5      12.5273      0.00000
      6      15.2361      0.00000
      7      15.9142      0.00000
      8      18.2924      0.00000
      9      19.8140      0.00000

 k-point  50 :      -0.3125   -0.3125    0.1875
  band No.  band energies     occupation 
      1       2.3195      1.00000
      2       3.4475      1.00000
      3       6.5316      0.00000
      4       9.5211      0.00000
      5      12.4215      0.00000
      6      13.4784      0.00000
      7      16.0985      0.00000
      8      19.8097      0.00000
      9      20.8377      0.00000

 k-point  51 :       0.3125    0.3125    0.3125
  band No.  band energies     occupation 
      1       0.6731      1.00000
      2       5.4360      1.00000
      3       6.7412      0.00000
      4       6.7412      0.00000
      5      10.3713      0.00000
      6      10.3713      0.00000
      7      17.8729      0.00000
      8      19.8092      0.00000
      9      21.9862      0.00000

 k-point  52 :       0.4375    0.3125    0.3125
  band No.  band energies     occupation 
      1       1.5738      1.00000
      2       5.3011      1.00000
      3       6.0075      1.01714
      4       7.0065      0.00000
      5       9.9449      0.00000
      6      12.4023      0.00000
      7      18.0998      0.00000
      8      19.8127      0.00000
      9      21.0019      0.00000

 k-point  53 :      -0.4375    0.3125    0.3125
  band No.  band energies     occupation 
      1       3.1260      1.00000
      2       4.5529      1.00000
      3       5.1998      1.00000
      4       7.9541      0.00000
      5      10.0822      0.00000
      6      13.6118      0.00000
      7      17.9939      0.00000
      8      19.8152      0.00000
      9      21.1449      0.00000

 k-point  54 :      -0.3125    0.3125    0.3125
  band No.  band energies     occupation 
      1       3.0783      1.00000
      2       3.9707      1.00000
      3       5.9449      1.00415
      4       8.8322      0.00000
      5      11.2700      0.00000
      6      13.3855      0.00000
      7      17.4693      0.00000
      8      19.7831      0.00000
      9      19.9749      0.00000

 k-point  55 :       0.4375    0.4375    0.3125
  band No.  band energies     occupation 
      1       1.7310      1.00000
      2       5.2473      1.00000
      3       6.0592      0.41753
      4       7.0080      0.00000
      5      11.5754      0.00000
      6      12.0636      0.00000
      7      17.2312      0.00000
      8      19.8103      0.00000
      9      20.2427      0.00000

 k-point  56 :      -0.4375    0.4375    0.3125
  band No.  band energies     occupation 
      1       2.8079      1.00000
      2       4.4410      1.00000
      3       5.6017      1.00000
      4       7.8017      0.00000
      5      11.2853      0.00000
      6      13.8705      0.00000
      7      16.2955      0.00000
      8      19.8133      0.00000
      9      21.5922      0.00000

 k-point  57 :      -0.3125    0.4375    0.3125
  band No.  band energies     occupation 
      1       3.4013      1.00000
      2       4.0634      1.00000
      3       5.4240      1.00000
      4       8.5288      0.00000
      5      11.6790      0.00000
      6      14.2998      0.00000
      7      17.0807      0.00000
      8      19.4272      0.00000
      9      19.8256      0.00000

 k-point  58 :      -0.4375   -0.4375    0.3125
  band No.  band energies     occupation 
      1       2.8760      1.00000
      2       4.1235      1.00000
      3       5.9259      1.00085
      4       8.1986      0.00000
      5      11.8466      0.00000
      6      13.8449      0.00000
      7      15.7727      0.00000
      8      19.8117      0.00000
      9      21.3811      0.00000

 k-point  59 :       0.4375    0.4375    0.4375
  band No.  band energies     occupation 
      1       1.2946      1.00000
      2       6.3415      0.00000
      3       6.3415      0.00000
      4       6.5791      0.00000
      5      11.8412      0.00000
      6      11.8412      0.00000
      7      16.7690      0.00000
      8      18.7626      0.00000
      9      19.8168      0.00000

 k-point  60 :      -0.4375    0.4375    0.4375
  band No.  band energies     occupation 
      1       1.9023      1.00000
      2       5.3677      1.00000
      3       6.5414      0.00000
      4       6.7726      0.00000
      5      11.7330      0.00000
      6      13.0503      0.00000
      7      16.1623      0.00000
      8      19.6243      0.00000
      9      19.8141      0.00000


--------------------------------------------------------------------------------------------------------


 soft charge-density along one line, spin component           1
         0         1         2         3         4         5         6         7         8         9
 total charge-density along one line
 
 soft charge-density along one line, spin component           2
         0         1         2         3         4         5         6         7         8         9
 total charge-density along one line
 
 pseudopotential strength for first ion, spin component:           1
 -6.560   0.000   0.000   0.000   0.000   0.089   0.000   0.000
  0.000  -6.560   0.000   0.000   0.000   0.000   0.089   0.000
  0.000   0.000  -6.573   0.000   0.000   0.000   0.000   0.089
  0.000   0.000   0.000  -6.560   0.000   0.000   0.000   0.000
  0.000   0.000   0.000   0.000  -6.573   0.000   0.000   0.000
  0.089   0.000   0.000   0.000   0.000   0.071   0.000   0.000
  0.000   0.089   0.000   0.000   0.000   0.000   0.071   0.000
  0.000   0.000   0.089   0.000   0.000   0.000   0.000   0.071
  0.000   0.000   0.000   0.089   0.000   0.000   0.000   0.000
  0.000   0.000   0.000   0.000   0.089   0.000   0.000   0.000
  0.000   0.000   0.000   0.000   0.000   0.000   0.000   0.000
  0.000   0.000   0.000   0.000   0.000   0.000   0.000   0.000
  0.000   0.000   0.000   0.000   0.000   0.000   0.000   0.000
  0.000   0.000   0.000   0.000   0.000   0.000   0.000   0.000
  0.000   0.000   0.000   0.000   0.000   0.000   0.000   0.000
  0.000   0.000   0.000   0.000   0.000   0.000   0.000   0.000
  0.000   0.000   0.000   0.000   0.000   0.000   0.000   0.000
  0.000   0.000   0.000   0.000   0.000   0.000   0.000   0.000
 pseudopotential strength for first ion, spin component:           2
 -6.560   0.000   0.000   0.000   0.000   0.090   0.000   0.000
  0.000  -6.560   0.000   0.000   0.000   0.000   0.090   0.000
  0.000   0.000  -6.572   0.000   0.000   0.000   0.000   0.089
  0.000   0.000   0.000  -6.560   0.000   0.000   0.000   0.000
  0.000   0.000   0.000   0.000  -6.572   0.000   0.000   0.000
  0.090   0.000   0.000   0.000   0.000   0.071   0.000   0.000
  0.000   0.090   0.000   0.000   0.000   0.000   0.071   0.000
  0.000   0.000   0.089   0.000   0.000   0.000   0.000   0.071
  0.000   0.000   0.000   0.090   0.000   0.000   0.000   0.000
  0.000   0.000   0.000   0.000   0.089   0.000   0.000   0.000
  0.000   0.000   0.000   0.000   0.000   0.000   0.000   0.000
  0.000   0.000   0.000   0.000   0.000   0.000   0.000   0.000
  0.000   0.000   0.000   0.000   0.000   0.000   0.000   0.000
  0.000   0.000   0.000   0.000   0.000   0.000   0.000   0.000
  0.000   0.000   0.000   0.000   0.000   0.000   0.000   0.000
  0.000   0.000   0.000   0.000   0.000   0.000   0.000   0.000
  0.000   0.000   0.000   0.000   0.000   0.000   0.000   0.000
  0.000   0.000   0.000   0.000   0.000   0.000   0.000   0.000
 total augmentation occupancy for first ion, spin component:           1
  0.768   0.000   0.000   0.000   0.000  -0.557   0.000   0.000   0.000   0.000   0.000   0.000   0.000   0.000   0.000   0.000
  0.000   0.768   0.000   0.000   0.000   0.000  -0.557   0.000   0.000   0.000   0.000   0.000   0.000   0.000   0.000   0.000
  0.000   0.000   0.540   0.000   0.000   0.000   0.000  -0.432   0.000   0.000   0.000   0.000   0.000   0.000   0.000   0.000
  0.000   0.000   0.000   0.768   0.000   0.000   0.000   0.000  -0.557   0.000   0.000   0.000   0.000   0.000   0.000   0.000
  0.000   0.000   0.000   0.000   0.540   0.000   0.000   0.000   0.000  -0.432   0.000   0.000   0.000   0.000   0.000   0.000
 -0.557   0.000   0.000   0.000   0.000   0.464   0.000   0.000   0.000   0.000   0.000   0.000   0.000   0.000   0.000   0.000
  0.000  -0.557   0.000   0.000   0.000   0.000   0.464   0.000   0.000   0.000   0.000   0.000   0.000   0.000   0.000   0.000
  0.000   0.000  -0.432   0.000   0.000   0.000   0.000   0.394   0.000   0.000   0.000   0.000   0.000   0.000   0.000   0.000
  0.000   0.000   0.000  -0.557   0.000   0.000   0.000   0.000   0.464   0.000   0.000   0.000   0.000   0.000   0.000   0.000
  0.000   0.000   0.000   0.000  -0.432   0.000   0.000   0.000   0.000   0.394   0.000   0.000   0.000   0.000   0.000   0.000
  0.000   0.000   0.000   0.000   0.000   0.000   0.000   0.000   0.000   0.000   1.454  -0.294   0.000   0.000   0.000   0.000
  0.000   0.000   0.000   0.000   0.000   0.000   0.000   0.000   0.000   0.000  -0.294   0.064   0.000   0.000   0.000   0.000
  0.000   0.000   0.000   0.000   0.000   0.000   0.000   0.000   0.000   0.000   0.000   0.000   0.324   0.000   0.000   0.012
  0.000   0.000   0.000   0.000   0.000   0.000   0.000   0.000   0.000   0.000   0.000   0.000   0.000   0.324   0.000   0.000
  0.000   0.000   0.000   0.000   0.000   0.000   0.000   0.000   0.000   0.000   0.000   0.000   0.000   0.000   0.324   0.000
  0.000   0.000   0.000   0.000   0.000   0.000   0.000   0.000   0.000   0.000   0.000   0.000   0.012   0.000   0.000   0.001
  0.000   0.000   0.000   0.000   0.000   0.000   0.000   0.000   0.000   0.000   0.000   0.000   0.000   0.012   0.000   0.000
  0.000   0.000   0.000   0.000   0.000   0.000   0.000   0.000   0.000   0.000   0.000   0.000   0.000   0.000   0.012   0.000
 total augmentation occupancy for first ion, spin component:           2
  0.000   0.000   0.000   0.000   0.000   0.000   0.000   0.000   0.000   0.000   0.000   0.000   0.000   0.000   0.000   0.000
  0.000   0.000   0.000   0.000   0.000   0.000   0.000   0.000   0.000   0.000   0.000   0.000   0.000   0.000   0.000   0.000
  0.000   0.000   0.000   0.000   0.000   0.000   0.000   0.000   0.000   0.000   0.000   0.000   0.000   0.000   0.000   0.000
  0.000   0.000   0.000   0.000   0.000   0.000   0.000   0.000   0.000   0.000   0.000   0.000   0.000   0.000   0.000   0.000
  0.000   0.000   0.000   0.000   0.000   0.000   0.000   0.000   0.000   0.000   0.000   0.000   0.000   0.000   0.000   0.000
  0.000   0.000   0.000   0.000   0.000   0.000   0.000   0.000   0.000   0.000   0.000   0.000   0.000   0.000   0.000   0.000
  0.000   0.000   0.000   0.000   0.000   0.000   0.000   0.000   0.000   0.000   0.000   0.000   0.000   0.000   0.000   0.000
  0.000   0.000   0.000   0.000   0.000   0.000   0.000   0.000   0.000   0.000   0.000   0.000   0.000   0.000   0.000   0.000
  0.000   0.000   0.000   0.000   0.000   0.000   0.000   0.000   0.000   0.000   0.000   0.000   0.000   0.000   0.000   0.000
  0.000   0.000   0.000   0.000   0.000   0.000   0.000   0.000   0.000   0.000   0.000   0.000   0.000   0.000   0.000   0.000
  0.000   0.000   0.000   0.000   0.000   0.000   0.000   0.000   0.000   0.000   0.000   0.001   0.000   0.000   0.000   0.000
  0.000   0.000   0.000   0.000   0.000   0.000   0.000   0.000   0.000   0.000   0.001   0.000   0.000   0.000   0.000   0.000
  0.000   0.000   0.000   0.000   0.000   0.000   0.000   0.000   0.000   0.000   0.000   0.000   0.000   0.000   0.000   0.000
  0.000   0.000   0.000   0.000   0.000   0.000   0.000   0.000   0.000   0.000   0.000   0.000   0.000   0.000   0.000   0.000
  0.000   0.000   0.000   0.000   0.000   0.000   0.000   0.000   0.000   0.000   0.000   0.000   0.000   0.000   0.000   0.000
  0.000   0.000   0.000   0.000   0.000   0.000   0.000   0.000   0.000   0.000   0.000   0.000   0.000   0.000   0.000   0.000
  0.000   0.000   0.000   0.000   0.000   0.000   0.000   0.000   0.000   0.000   0.000   0.000   0.000   0.000   0.000   0.000
  0.000   0.000   0.000   0.000   0.000   0.000   0.000   0.000   0.000   0.000   0.000   0.000   0.000   0.000   0.000   0.000


------------------------ aborting loop because EDIFF is reached ----------------------------------------


 


 total charge     
 
# of ion     s       p       d       tot
----------------------------------------
  1        0.736   0.749   3.262   4.747
 


 magnetization (x)
 
# of ion     s       p       d       tot
----------------------------------------
  1        0.000   0.000   0.001   0.002
 
    CHARGE:  cpu time    0.20: real time    0.20
    FORLOC:  cpu time    0.00: real time    0.00
    FORNL :  cpu time    0.36: real time    0.36
    STRESS:  cpu time    0.66: real time    0.66
    FORCOR:  cpu time    0.19: real time    0.19
    FORHAR:  cpu time    0.02: real time    0.02
    MIXING:  cpu time    0.00: real time    0.01

  FORCE on cell =-STRESS in cart. coord.  units (eV):
  Direction    XX          YY          ZZ          XY          YZ          ZX
  --------------------------------------------------------------------------------------
  Alpha Z    30.59079    30.59079    30.59079
  Ewald     -65.96827   -65.96827   -65.96827     0.00000     0.00000     0.00000
  Hartree     0.21014     0.21014     0.21014     0.00000     0.00000     0.00000
  E(xc)     -22.42729   -22.42729   -22.42729     0.00000     0.00000     0.00000
  Local       3.58548     3.58548     3.58548     0.00000     0.00000     0.00000
  n-local    -6.20448    -3.05633    -7.73459     2.01216    -1.91567     0.01524
  augment     2.89993     2.89993     2.89993     0.00000     0.00000     0.00000
  Kinetic    59.70609    55.70303    56.89257    -2.11362     2.09729    -0.25415
  Fock        0.00000     0.00000     0.00000     0.00000     0.00000     0.00000
  -------------------------------------------------------------------------------------
  Total       0.65955     0.65955     0.65955     0.00000     0.00000     0.00000
  in kB      58.29240    58.29240    58.29240     0.00000     0.00000     0.00000
  external pressure =       58.29 kB  Pullay stress =        0.00 kB


 VOLUME and BASIS-vectors are now :
 -----------------------------------------------------------------------------
  energy-cutoff  :      400.00
  volume of cell :       18.13
      direct lattice vectors                 reciprocal lattice vectors
     0.000000000  2.085000000  2.085000000    -0.239808153  0.239808153  0.239808153
     2.085000000  0.000000000  2.085000000     0.239808153 -0.239808153  0.239808153
     2.085000000  2.085000000  0.000000000     0.239808153  0.239808153 -0.239808153

  length of vectors
     2.948635278  2.948635278  2.948635278     0.415359906  0.415359906  0.415359906


 FORCES acting on ions
    electron-ion (+dipol)            ewald-force                    non-local-force                 convergence-correction
 -----------------------------------------------------------------------------------------------
   -.187E-14 0.554E-15 0.176E-14   -.118E-15 -.752E-16 0.271E-15   -.165E-23 0.165E-23 -.207E-23   0.372E-15 -.482E-15 -.376E-15
 -----------------------------------------------------------------------------------------------
   -.187E-14 0.554E-15 0.176E-14   -.118E-15 -.752E-16 0.271E-15   -.165E-23 0.165E-23 -.207E-23   0.372E-15 -.482E-15 -.376E-15
 
 
 POSITION                                       TOTAL-FORCE (eV/Angst)
 -----------------------------------------------------------------------------------
      0.00000      0.00000      0.00000         0.000000      0.000000      0.000000
 -----------------------------------------------------------------------------------
    total drift:                                0.000000      0.000000      0.000000


--------------------------------------------------------------------------------------------------------



  FREE ENERGIE OF THE ION-ELECTRON SYSTEM (eV)
  ---------------------------------------------------
  free  energy   TOTEN  =       -11.607258 eV

  energy  without entropy=      -11.607386  energy(sigma->0) =      -11.607301
 


--------------------------------------------------------------------------------------------------------


    POTLOK:  cpu time    0.24: real time    0.24


--------------------------------------------------------------------------------------------------------


 writing wavefunctions
     LOOP+:  cpu time   50.14: real time   50.57
    4ORBIT:  cpu time    0.00: real time    0.00
 


 total charge     
 
# of ion     s       p       d       tot
----------------------------------------
  1        0.736   0.749   3.262   4.747
 


 magnetization (x)
 
# of ion     s       p       d       tot
----------------------------------------
  1        0.000   0.000   0.001   0.002
 

 total amount of memory used by VASP on root node    46780. kBytes
========================================================================

   base      :      30000. kBytes
   nonl-proj :       2908. kBytes
   fftplans  :       2284. kBytes
   grid      :       5440. kBytes
   one-center:         31. kBytes
   wavefun   :       6117. kBytes
 
  
  
 General timing and accounting informations for this job:
 ========================================================
  
                  Total CPU time used (sec):       51.012
                            User time (sec):       50.870
                          System time (sec):        0.142
                         Elapsed time (sec):       51.612
  
                   Maximum memory used (kb):           0.
                   Average memory used (kb):           0.
  
                          Minor page faults:        12636
                          Major page faults:            0
                 Voluntary context switches:         2442
