PROCAR lm decomposed
# of k-points:   60         # of bands:   9         # of ions:   1

 k-point    1 :    0.06250000 0.06250000 0.06250000     weight = 0.00390625

band   1 # energy   -2.01821392 # occ.  1.00000000
 
ion      s     py     pz     px    dxy    dyz    dz2    dxz    dx2    tot
  1  0.851  0.004  0.004  0.004  0.000  0.000  0.000  0.000  0.000  0.864
 
band   2 # energy    6.37967516 # occ.  0.00000000
 
ion      s     py     pz     px    dxy    dyz    dz2    dxz    dx2    tot
  1  0.000  0.002  0.002  0.002  0.334  0.334  0.000  0.334  0.000  1.007
 
band   3 # energy    6.60114487 # occ.  0.00000000
 
ion      s     py     pz     px    dxy    dyz    dz2    dxz    dx2    tot
  1  0.000  0.001  0.000  0.001  0.169  0.407  0.000  0.434  0.001  1.013
 
band   4 # energy    6.60114487 # occ.  0.00000000
 
ion      s     py     pz     px    dxy    dyz    dz2    dxz    dx2    tot
  1  0.000  0.000  0.001  0.000  0.505  0.266  0.001  0.239  0.000  1.013
 
band   5 # energy    9.57498670 # occ.  0.00000000
 
ion      s     py     pz     px    dxy    dyz    dz2    dxz    dx2    tot
  1  0.000  0.000  0.000  0.000  0.000  0.000  0.256  0.000  0.734  0.991
 
band   6 # energy    9.57498670 # occ.  0.00000000
 
ion      s     py     pz     px    dxy    dyz    dz2    dxz    dx2    tot
  1  0.000  0.000  0.000  0.000  0.001  0.000  0.734  0.000  0.256  0.991
 
band   7 # energy   18.99292021 # occ.  0.00000000
 
ion      s     py     pz     px    dxy    dyz    dz2    dxz    dx2    tot
  1  0.000  0.000  0.000  0.000  0.005  0.005  0.000  0.005  0.000  0.016
 
band   8 # energy   19.80644367 # occ.  0.00000000
 
ion      s     py     pz     px    dxy    dyz    dz2    dxz    dx2    tot
  1 43.917  0.000  0.000  0.000  0.000  0.000  0.000  0.000  0.000 43.917
 
band   9 # energy   22.83625947 # occ.  0.00000000
 
ion      s     py     pz     px    dxy    dyz    dz2    dxz    dx2    tot
  1  0.042  0.035  0.035  0.035  0.003  0.003  0.000  0.003  0.000  0.153
 

 k-point    2 :    0.18750000 0.06250000 0.06250000     weight = 0.01171875

band   1 # energy   -1.21131264 # occ.  1.00000000
 
ion      s     py     pz     px    dxy    dyz    dz2    dxz    dx2    tot
  1  0.799  0.034  0.034  0.003  0.001  0.007  0.000  0.001  0.001  0.880
 
band   2 # energy    5.76398888 # occ.  1.00000000
 
ion      s     py     pz     px    dxy    dyz    dz2    dxz    dx2    tot
  1  0.000  0.003  0.003  0.026  0.456  0.039  0.000  0.456  0.000  0.985
 
band   3 # energy    6.91931662 # occ.  0.00000000
 
ion      s     py     pz     px    dxy    dyz    dz2    dxz    dx2    tot
  1  0.000  0.011  0.011  0.001  0.021  0.861  0.018  0.021  0.054  0.998
 
band   4 # energy    6.95040473 # occ.  0.00000000
 
ion      s     py     pz     px    dxy    dyz    dz2    dxz    dx2    tot
  1  0.000  0.000  0.000  0.000  0.491  0.000  0.013  0.491  0.004  1.000
 
band   5 # energy    8.96431398 # occ.  0.00000000
 
ion      s     py     pz     px    dxy    dyz    dz2    dxz    dx2    tot
  1  0.000  0.000  0.000  0.000  0.009  0.000  0.711  0.009  0.237  0.966
 
band   6 # energy    9.70321265 # occ.  0.00000000
 
ion      s     py     pz     px    dxy    dyz    dz2    dxz    dx2    tot
  1  0.001  0.001  0.001  0.000  0.001  0.067  0.226  0.001  0.677  0.976
 
band   7 # energy   19.80514747 # occ.  0.00000000
 
ion      s     py     pz     px    dxy    dyz    dz2    dxz    dx2    tot
  1 43.766  0.000  0.000  0.000  0.000  0.000  0.000  0.000  0.000 43.766
 
band   8 # energy   20.41173593 # occ.  0.00000000
 
ion      s     py     pz     px    dxy    dyz    dz2    dxz    dx2    tot
  1  0.079  0.005  0.005  0.003  0.021  0.000  0.001  0.021  0.002  0.137
 
band   9 # energy   21.29223825 # occ.  0.00000000
 
ion      s     py     pz     px    dxy    dyz    dz2    dxz    dx2    tot
  1  0.151  0.028  0.028  0.007  0.021  0.030  0.004  0.021  0.013  0.304
 

 k-point    3 :    0.31250000 0.06250000 0.06250000     weight = 0.01171875

band   1 # energy    0.34761262 # occ.  1.00000000
 
ion      s     py     pz     px    dxy    dyz    dz2    dxz    dx2    tot
  1  0.653  0.062  0.062  0.015  0.036  0.057  0.001  0.036  0.002  0.922
 
band   2 # energy    5.23147228 # occ.  1.00000000
 
ion      s     py     pz     px    dxy    dyz    dz2    dxz    dx2    tot
  1  0.016  0.049  0.049  0.085  0.335  0.084  0.001  0.335  0.002  0.955
 
band   3 # energy    6.77619974 # occ.  0.00000000
 
ion      s     py     pz     px    dxy    dyz    dz2    dxz    dx2    tot
  1  0.000  0.009  0.009  0.002  0.055  0.476  0.093  0.055  0.280  0.978
 
band   4 # energy    7.00621092 # occ.  0.00000000
 
ion      s     py     pz     px    dxy    dyz    dz2    dxz    dx2    tot
  1  0.000  0.000  0.000  0.000  0.290  0.000  0.302  0.290  0.101  0.983
 
band   5 # energy    9.33064052 # occ.  0.00000000
 
ion      s     py     pz     px    dxy    dyz    dz2    dxz    dx2    tot
  1  0.000  0.005  0.005  0.000  0.197  0.000  0.410  0.197  0.137  0.949
 
band   6 # energy   10.53621094 # occ.  0.00000000
 
ion      s     py     pz     px    dxy    dyz    dz2    dxz    dx2    tot
  1  0.005  0.011  0.011  0.001  0.022  0.310  0.145  0.022  0.434  0.961
 
band   7 # energy   18.72702801 # occ.  0.00000000
 
ion      s     py     pz     px    dxy    dyz    dz2    dxz    dx2    tot
  1  0.076  0.021  0.021  0.020  0.008  0.038  0.004  0.008  0.011  0.209
 
band   8 # energy   19.80877322 # occ.  0.00000000
 
ion      s     py     pz     px    dxy    dyz    dz2    dxz    dx2    tot
  1 43.891  0.000  0.000  0.000  0.000  0.000  0.000  0.000  0.000 43.891
 
band   9 # energy   22.75776089 # occ.  0.00000000
 
ion      s     py     pz     px    dxy    dyz    dz2    dxz    dx2    tot
  1  0.179  0.056  0.056  0.048  0.137  0.101  0.000  0.137  0.000  0.714
 

 k-point    4 :    0.43750000 0.06250000 0.06250000     weight = 0.01171875

band   1 # energy    1.34453838 # occ.  1.00000000
 
ion      s     py     pz     px    dxy    dyz    dz2    dxz    dx2    tot
  1  0.426  0.026  0.026  0.001  0.164  0.179  0.000  0.164  0.001  0.987
 
band   2 # energy    5.92977599 # occ.  1.00120880
 
ion      s     py     pz     px    dxy    dyz    dz2    dxz    dx2    tot
  1  0.030  0.171  0.171  0.154  0.045  0.101  0.043  0.045  0.129  0.890
 
band   3 # energy    6.35013198 # occ.  0.00000000
 
ion      s     py     pz     px    dxy    dyz    dz2    dxz    dx2    tot
  1  0.013  0.018  0.018  0.059  0.144  0.205  0.096  0.144  0.287  0.983
 
band   4 # energy    6.53657491 # occ.  0.00000000
 
ion      s     py     pz     px    dxy    dyz    dz2    dxz    dx2    tot
  1  0.000  0.000  0.000  0.000  0.196  0.000  0.443  0.196  0.148  0.983
 
band   5 # energy   11.00575745 # occ.  0.00000000
 
ion      s     py     pz     px    dxy    dyz    dz2    dxz    dx2    tot
  1  0.000  0.006  0.006  0.000  0.291  0.000  0.270  0.291  0.090  0.953
 
band   6 # energy   12.01116242 # occ.  0.00000000
 
ion      s     py     pz     px    dxy    dyz    dz2    dxz    dx2    tot
  1  0.006  0.018  0.018  0.001  0.051  0.419  0.102  0.051  0.307  0.973
 
band   7 # energy   17.16134900 # occ.  0.00000000
 
ion      s     py     pz     px    dxy    dyz    dz2    dxz    dx2    tot
  1  0.231  0.020  0.020  0.017  0.070  0.118  0.002  0.070  0.006  0.554
 
band   8 # energy   19.71433112 # occ.  0.00000000
 
ion      s     py     pz     px    dxy    dyz    dz2    dxz    dx2    tot
  1 12.392  0.039  0.039  0.023  0.047  0.019  0.001  0.047  0.002 12.606
 
band   9 # energy   19.85532529 # occ.  0.00000000
 
ion      s     py     pz     px    dxy    dyz    dz2    dxz    dx2    tot
  1 31.851  0.019  0.019  0.012  0.026  0.013  0.000  0.026  0.001 31.966
 

 k-point    5 :   -0.43750000 0.06250000 0.06250000     weight = 0.01171875

band   1 # energy    1.47568006 # occ.  1.00000000
 
ion      s     py     pz     px    dxy    dyz    dz2    dxz    dx2    tot
  1  0.355  0.000  0.000  0.012  0.207  0.225  0.000  0.207  0.000  1.007
 
band   2 # energy    5.96278828 # occ.  1.01330100
 
ion      s     py     pz     px    dxy    dyz    dz2    dxz    dx2    tot
  1  0.000  0.050  0.050  0.026  0.052  0.131  0.145  0.052  0.434  0.939
 
band   3 # energy    6.41803618 # occ.  0.00000000
 
ion      s     py     pz     px    dxy    dyz    dz2    dxz    dx2    tot
  1  0.000  0.002  0.002  0.000  0.192  0.000  0.447  0.192  0.149  0.985
 
band   4 # energy    6.80484871 # occ.  0.00000000
 
ion      s     py     pz     px    dxy    dyz    dz2    dxz    dx2    tot
  1  0.003  0.213  0.213  0.234  0.019  0.176  0.007  0.019  0.022  0.908
 
band   5 # energy   12.12196841 # occ.  0.00000000
 
ion      s     py     pz     px    dxy    dyz    dz2    dxz    dx2    tot
  1  0.000  0.000  0.000  0.000  0.306  0.000  0.277  0.306  0.092  0.982
 
band   6 # energy   12.22694636 # occ.  0.00000000
 
ion      s     py     pz     px    dxy    dyz    dz2    dxz    dx2    tot
  1  0.000  0.014  0.014  0.033  0.099  0.351  0.089  0.099  0.266  0.965
 
band   7 # energy   16.47324056 # occ.  0.00000000
 
ion      s     py     pz     px    dxy    dyz    dz2    dxz    dx2    tot
  1  0.437  0.001  0.001  0.002  0.167  0.136  0.000  0.167  0.000  0.911
 
band   8 # energy   18.62428370 # occ.  0.00000000
 
ion      s     py     pz     px    dxy    dyz    dz2    dxz    dx2    tot
  1  0.005  0.016  0.016  0.022  0.000  0.022  0.002  0.000  0.005  0.089
 
band   9 # energy   19.81171426 # occ.  0.00000000
 
ion      s     py     pz     px    dxy    dyz    dz2    dxz    dx2    tot
  1 44.165  0.000  0.000  0.000  0.000  0.000  0.000  0.000  0.000 44.166
 

 k-point    6 :   -0.31250000 0.06250000 0.06250000     weight = 0.01171875

band   1 # energy    1.13999534 # occ.  1.00000000
 
ion      s     py     pz     px    dxy    dyz    dz2    dxz    dx2    tot
  1  0.495  0.014  0.014  0.061  0.125  0.130  0.001  0.125  0.003  0.967
 
band   2 # energy    5.54553680 # occ.  1.00000000
 
ion      s     py     pz     px    dxy    dyz    dz2    dxz    dx2    tot
  1  0.041  0.150  0.150  0.125  0.089  0.224  0.011  0.089  0.034  0.913
 
band   3 # energy    6.39527310 # occ.  0.00000000
 
ion      s     py     pz     px    dxy    dyz    dz2    dxz    dx2    tot
  1  0.005  0.001  0.001  0.002  0.066  0.315  0.131  0.066  0.393  0.979
 
band   4 # energy    6.73662698 # occ.  0.00000000
 
ion      s     py     pz     px    dxy    dyz    dz2    dxz    dx2    tot
  1  0.000  0.005  0.005  0.000  0.238  0.000  0.374  0.238  0.125  0.985
 
band   5 # energy   10.64770696 # occ.  0.00000000
 
ion      s     py     pz     px    dxy    dyz    dz2    dxz    dx2    tot
  1  0.005  0.004  0.004  0.041  0.140  0.244  0.093  0.140  0.278  0.947
 
band   6 # energy   11.35408812 # occ.  0.00000000
 
ion      s     py     pz     px    dxy    dyz    dz2    dxz    dx2    tot
  1  0.000  0.005  0.005  0.000  0.245  0.000  0.349  0.245  0.116  0.965
 
band   7 # energy   17.61743356 # occ.  0.00000000
 
ion      s     py     pz     px    dxy    dyz    dz2    dxz    dx2    tot
  1  0.141  0.022  0.022  0.019  0.067  0.026  0.002  0.067  0.006  0.374
 
band   8 # energy   19.80431433 # occ.  0.00000000
 
ion      s     py     pz     px    dxy    dyz    dz2    dxz    dx2    tot
  1 43.521  0.000  0.000  0.000  0.000  0.000  0.000  0.000  0.000 43.522
 
band   9 # energy   20.83757515 # occ.  0.00000000
 
ion      s     py     pz     px    dxy    dyz    dz2    dxz    dx2    tot
  1  0.720  0.062  0.062  0.085  0.081  0.109  0.001  0.081  0.004  1.205
 

 k-point    7 :   -0.18750000 0.06250000 0.06250000     weight = 0.01171875

band   1 # energy   -0.18907247 # occ.  1.00000000
 
ion      s     py     pz     px    dxy    dyz    dz2    dxz    dx2    tot
  1  0.714  0.024  0.024  0.079  0.022  0.014  0.001  0.022  0.003  0.904
 
band   2 # energy    5.27717897 # occ.  1.00000000
 
ion      s     py     pz     px    dxy    dyz    dz2    dxz    dx2    tot
  1  0.006  0.041  0.041  0.021  0.144  0.569  0.000  0.144  0.001  0.967
 
band   3 # energy    6.93750715 # occ.  0.00000000
 
ion      s     py     pz     px    dxy    dyz    dz2    dxz    dx2    tot
  1  0.000  0.002  0.002  0.004  0.193  0.266  0.079  0.193  0.238  0.979
 
band   4 # energy    7.10123938 # occ.  0.00000000
 
ion      s     py     pz     px    dxy    dyz    dz2    dxz    dx2    tot
  1  0.000  0.009  0.009  0.000  0.374  0.000  0.168  0.374  0.056  0.991
 
band   5 # energy    9.06534299 # occ.  0.00000000
 
ion      s     py     pz     px    dxy    dyz    dz2    dxz    dx2    tot
  1  0.004  0.001  0.001  0.016  0.100  0.107  0.156  0.100  0.467  0.953
 
band   6 # energy   10.06212938 # occ.  0.00000000
 
ion      s     py     pz     px    dxy    dyz    dz2    dxz    dx2    tot
  1  0.000  0.003  0.003  0.000  0.107  0.000  0.557  0.107  0.186  0.964
 
band   7 # energy   19.38607753 # occ.  0.00000000
 
ion      s     py     pz     px    dxy    dyz    dz2    dxz    dx2    tot
  1  0.393  0.021  0.021  0.019  0.014  0.000  0.004  0.014  0.011  0.497
 
band   8 # energy   19.81236617 # occ.  0.00000000
 
ion      s     py     pz     px    dxy    dyz    dz2    dxz    dx2    tot
  1 43.576  0.000  0.000  0.000  0.000  0.000  0.000  0.000  0.000 43.577
 
band   9 # energy   22.58914308 # occ.  0.00000000
 
ion      s     py     pz     px    dxy    dyz    dz2    dxz    dx2    tot
  1  0.077  0.021  0.021  0.019  0.078  0.131  0.000  0.078  0.001  0.425
 

 k-point    8 :   -0.06250000 0.06250000 0.06250000     weight = 0.01171875

band   1 # energy   -1.60243943 # occ.  1.00000000
 
ion      s     py     pz     px    dxy    dyz    dz2    dxz    dx2    tot
  1  0.825  0.004  0.004  0.036  0.001  0.000  0.000  0.001  0.001  0.872
 
band   2 # energy    5.98139348 # occ.  1.02947678
 
ion      s     py     pz     px    dxy    dyz    dz2    dxz    dx2    tot
  1  0.000  0.004  0.004  0.001  0.064  0.857  0.000  0.064  0.000  0.995
 
band   3 # energy    6.82582320 # occ.  0.00000000
 
ion      s     py     pz     px    dxy    dyz    dz2    dxz    dx2    tot
  1  0.000  0.004  0.004  0.003  0.425  0.136  0.002  0.425  0.006  1.005
 
band   4 # energy    6.83951104 # occ.  0.00000000
 
ion      s     py     pz     px    dxy    dyz    dz2    dxz    dx2    tot
  1  0.000  0.006  0.006  0.000  0.492  0.000  0.007  0.492  0.002  1.005
 
band   5 # energy    9.04431317 # occ.  0.00000000
 
ion      s     py     pz     px    dxy    dyz    dz2    dxz    dx2    tot
  1  0.001  0.000  0.000  0.001  0.003  0.001  0.240  0.003  0.721  0.970
 
band   6 # energy    9.75292879 # occ.  0.00000000
 
ion      s     py     pz     px    dxy    dyz    dz2    dxz    dx2    tot
  1  0.000  0.000  0.000  0.000  0.005  0.000  0.734  0.005  0.245  0.988
 
band   7 # energy   19.80597866 # occ.  0.00000000
 
ion      s     py     pz     px    dxy    dyz    dz2    dxz    dx2    tot
  1 43.745  0.000  0.000  0.000  0.000  0.000  0.000  0.000  0.000 43.745
 
band   8 # energy   19.84414071 # occ.  0.00000000
 
ion      s     py     pz     px    dxy    dyz    dz2    dxz    dx2    tot
  1  0.141  0.000  0.000  0.000  0.004  0.042  0.000  0.004  0.000  0.190
 
band   9 # energy   22.06024138 # occ.  0.00000000
 
ion      s     py     pz     px    dxy    dyz    dz2    dxz    dx2    tot
  1  0.096  0.019  0.019  0.041  0.008  0.003  0.006  0.008  0.018  0.218
 

 k-point    9 :    0.18750000 0.18750000 0.06250000     weight = 0.01171875

band   1 # energy   -0.82088285 # occ.  1.00000000
 
ion      s     py     pz     px    dxy    dyz    dz2    dxz    dx2    tot
  1  0.769  0.003  0.095  0.003  0.000  0.002  0.010  0.002  0.000  0.885
 
band   2 # energy    5.30661554 # occ.  1.00000000
 
ion      s     py     pz     px    dxy    dyz    dz2    dxz    dx2    tot
  1  0.000  0.005  0.000  0.005  0.935  0.020  0.000  0.020  0.000  0.985
 
band   3 # energy    7.23010074 # occ.  0.00000000
 
ion      s     py     pz     px    dxy    dyz    dz2    dxz    dx2    tot
  1  0.000  0.013  0.001  0.013  0.043  0.399  0.116  0.399  0.000  0.984
 
band   4 # energy    7.31276813 # occ.  0.00000000
 
ion      s     py     pz     px    dxy    dyz    dz2    dxz    dx2    tot
  1  0.000  0.016  0.000  0.016  0.000  0.466  0.000  0.466  0.027  0.992
 
band   5 # energy    8.25136187 # occ.  0.00000000
 
ion      s     py     pz     px    dxy    dyz    dz2    dxz    dx2    tot
  1  0.009  0.002  0.008  0.002  0.005  0.055  0.812  0.055  0.000  0.948
 
band   6 # energy   10.09270474 # occ.  0.00000000
 
ion      s     py     pz     px    dxy    dyz    dz2    dxz    dx2    tot
  1  0.000  0.000  0.000  0.000  0.000  0.013  0.000  0.013  0.958  0.984
 
band   7 # energy   19.80557749 # occ.  0.00000000
 
ion      s     py     pz     px    dxy    dyz    dz2    dxz    dx2    tot
  1 43.841  0.000  0.000  0.000  0.000  0.000  0.000  0.000  0.000 43.841
 
band   8 # energy   21.30378170 # occ.  0.00000000
 
ion      s     py     pz     px    dxy    dyz    dz2    dxz    dx2    tot
  1  0.026  0.003  0.004  0.003  0.079  0.000  0.012  0.000  0.000  0.127
 
band   9 # energy   21.84793892 # occ.  0.00000000
 
ion      s     py     pz     px    dxy    dyz    dz2    dxz    dx2    tot
  1  0.118  0.015  0.023  0.015  0.027  0.017  0.067  0.017  0.000  0.300
 

 k-point   10 :    0.31250000 0.18750000 0.06250000     weight = 0.02343750

band   1 # energy    0.50483804 # occ.  1.00000000
 
ion      s     py     pz     px    dxy    dyz    dz2    dxz    dx2    tot
  1  0.651  0.025  0.155  0.002  0.004  0.028  0.040  0.004  0.000  0.908
 
band   2 # energy    4.64970204 # occ.  1.00000000
 
ion      s     py     pz     px    dxy    dyz    dz2    dxz    dx2    tot
  1  0.001  0.006  0.002  0.038  0.849  0.007  0.002  0.076  0.000  0.981
 
band   3 # energy    6.56855758 # occ.  0.00000000
 
ion      s     py     pz     px    dxy    dyz    dz2    dxz    dx2    tot
  1  0.012  0.021  0.003  0.000  0.019  0.295  0.549  0.014  0.029  0.941
 
band   4 # energy    7.89943863 # occ.  0.00000000
 
ion      s     py     pz     px    dxy    dyz    dz2    dxz    dx2    tot
  1  0.002  0.012  0.005  0.025  0.043  0.162  0.053  0.523  0.149  0.973
 
band   5 # energy    8.66199024 # occ.  0.00000000
 
ion      s     py     pz     px    dxy    dyz    dz2    dxz    dx2    tot
  1  0.011  0.015  0.034  0.014  0.053  0.196  0.254  0.281  0.100  0.958
 
band   6 # energy   10.85352387 # occ.  0.00000000
 
ion      s     py     pz     px    dxy    dyz    dz2    dxz    dx2    tot
  1  0.005  0.012  0.006  0.000  0.000  0.226  0.020  0.011  0.693  0.974
 
band   7 # energy   19.80189930 # occ.  0.00000000
 
ion      s     py     pz     px    dxy    dyz    dz2    dxz    dx2    tot
  1 43.469  0.000  0.000  0.000  0.000  0.000  0.000  0.000  0.000 43.471
 
band   8 # energy   20.69003082 # occ.  0.00000000
 
ion      s     py     pz     px    dxy    dyz    dz2    dxz    dx2    tot
  1  0.528  0.062  0.025  0.015  0.000  0.074  0.070  0.010  0.012  0.796
 
band   9 # energy   23.56826993 # occ.  0.00000000
 
ion      s     py     pz     px    dxy    dyz    dz2    dxz    dx2    tot
  1  0.032  0.029  0.013  0.010  0.183  0.031  0.001  0.046  0.001  0.346
 

 k-point   11 :    0.43750000 0.18750000 0.06250000     weight = 0.02343750

band   1 # energy    1.86399376 # occ.  1.00000000
 
ion      s     py     pz     px    dxy    dyz    dz2    dxz    dx2    tot
  1  0.432  0.022  0.133  0.000  0.134  0.114  0.055  0.068  0.000  0.957
 
band   2 # energy    4.74096352 # occ.  1.00000000
 
ion      s     py     pz     px    dxy    dyz    dz2    dxz    dx2    tot
  1  0.016  0.093  0.048  0.113  0.402  0.028  0.161  0.065  0.006  0.932
 
band   3 # energy    5.73025524 # occ.  1.00000000
 
ion      s     py     pz     px    dxy    dyz    dz2    dxz    dx2    tot
  1  0.033  0.002  0.029  0.008  0.244  0.196  0.403  0.006  0.038  0.958
 
band   4 # energy    7.53076028 # occ.  0.00000000
 
ion      s     py     pz     px    dxy    dyz    dz2    dxz    dx2    tot
  1  0.001  0.014  0.013  0.012  0.021  0.118  0.064  0.274  0.449  0.966
 
band   5 # energy   10.59544828 # occ.  0.00000000
 
ion      s     py     pz     px    dxy    dyz    dz2    dxz    dx2    tot
  1  0.006  0.010  0.068  0.031  0.114  0.013  0.172  0.426  0.101  0.943
 
band   6 # energy   12.34254627 # occ.  0.00000000
 
ion      s     py     pz     px    dxy    dyz    dz2    dxz    dx2    tot
  1  0.020  0.025  0.036  0.003  0.009  0.443  0.058  0.030  0.361  0.984
 
band   7 # energy   18.17464937 # occ.  0.00000000
 
ion      s     py     pz     px    dxy    dyz    dz2    dxz    dx2    tot
  1  0.199  0.082  0.058  0.051  0.031  0.123  0.011  0.092  0.015  0.663
 
band   8 # energy   19.81228419 # occ.  0.00000000
 
ion      s     py     pz     px    dxy    dyz    dz2    dxz    dx2    tot
  1 44.026  0.000  0.000  0.000  0.000  0.001  0.000  0.000  0.000 44.028
 
band   9 # energy   21.37409819 # occ.  0.00000000
 
ion      s     py     pz     px    dxy    dyz    dz2    dxz    dx2    tot
  1  0.149  0.033  0.076  0.014  0.055  0.001  0.084  0.015  0.001  0.430
 

 k-point   12 :   -0.43750000 0.18750000 0.06250000     weight = 0.02343750

band   1 # energy    2.27099607 # occ.  1.00000000
 
ion      s     py     pz     px    dxy    dyz    dz2    dxz    dx2    tot
  1  0.293  0.000  0.049  0.019  0.286  0.203  0.010  0.141  0.001  1.001
 
band   2 # energy    4.87657793 # occ.  1.00000000
 
ion      s     py     pz     px    dxy    dyz    dz2    dxz    dx2    tot
  1  0.000  0.109  0.019  0.054  0.014  0.053  0.568  0.009  0.062  0.889
 
band   3 # energy    6.25134338 # occ. -0.00000019
 
ion      s     py     pz     px    dxy    dyz    dz2    dxz    dx2    tot
  1  0.006  0.089  0.178  0.142  0.329  0.195  0.013  0.006  0.006  0.963
 
band   4 # energy    7.16834437 # occ.  0.00000000
 
ion      s     py     pz     px    dxy    dyz    dz2    dxz    dx2    tot
  1  0.000  0.005  0.013  0.012  0.016  0.060  0.068  0.242  0.552  0.966
 
band   5 # energy   11.83823328 # occ.  0.00000000
 
ion      s     py     pz     px    dxy    dyz    dz2    dxz    dx2    tot
  1  0.013  0.002  0.006  0.000  0.078  0.161  0.048  0.409  0.245  0.964
 
band   6 # energy   13.42628539 # occ.  0.00000000
 
ion      s     py     pz     px    dxy    dyz    dz2    dxz    dx2    tot
  1  0.000  0.051  0.131  0.090  0.176  0.202  0.225  0.001  0.065  0.942
 
band   7 # energy   15.82177088 # occ.  0.00000000
 
ion      s     py     pz     px    dxy    dyz    dz2    dxz    dx2    tot
  1  0.475  0.002  0.000  0.002  0.082  0.130  0.008  0.192  0.010  0.901
 
band   8 # energy   19.81063208 # occ.  0.00000000
 
ion      s     py     pz     px    dxy    dyz    dz2    dxz    dx2    tot
  1 44.108  0.000  0.000  0.000  0.000  0.000  0.000  0.000  0.000 44.109
 
band   9 # energy   20.43119760 # occ.  0.00000000
 
ion      s     py     pz     px    dxy    dyz    dz2    dxz    dx2    tot
  1  0.012  0.002  0.041  0.013  0.037  0.030  0.066  0.001  0.005  0.208
 

 k-point   13 :   -0.31250000 0.18750000 0.06250000     weight = 0.02343750

band   1 # energy    2.16362701 # occ.  1.00000000
 
ion      s     py     pz     px    dxy    dyz    dz2    dxz    dx2    tot
  1  0.372  0.033  0.006  0.086  0.213  0.157  0.003  0.103  0.008  0.981
 
band   2 # energy    5.08749666 # occ.  1.00000000
 
ion      s     py     pz     px    dxy    dyz    dz2    dxz    dx2    tot
  1  0.006  0.128  0.073  0.068  0.078  0.039  0.378  0.033  0.084  0.888
 
band   3 # energy    5.68238641 # occ.  1.00000000
 
ion      s     py     pz     px    dxy    dyz    dz2    dxz    dx2    tot
  1  0.029  0.016  0.114  0.044  0.176  0.379  0.135  0.072  0.012  0.977
 
band   4 # energy    7.26529471 # occ.  0.00000000
 
ion      s     py     pz     px    dxy    dyz    dz2    dxz    dx2    tot
  1  0.001  0.001  0.002  0.025  0.017  0.073  0.070  0.205  0.568  0.963
 
band   5 # energy   10.56990904 # occ.  0.00000000
 
ion      s     py     pz     px    dxy    dyz    dz2    dxz    dx2    tot
  1  0.000  0.000  0.010  0.026  0.001  0.219  0.005  0.432  0.250  0.944
 
band   6 # energy   13.18666064 # occ.  0.00000000
 
ion      s     py     pz     px    dxy    dyz    dz2    dxz    dx2    tot
  1  0.065  0.029  0.015  0.049  0.476  0.013  0.335  0.007  0.000  0.989
 
band   7 # energy   17.33228488 # occ.  0.00000000
 
ion      s     py     pz     px    dxy    dyz    dz2    dxz    dx2    tot
  1  0.276  0.073  0.039  0.066  0.080  0.063  0.065  0.097  0.000  0.761
 
band   8 # energy   19.81147863 # occ.  0.00000000
 
ion      s     py     pz     px    dxy    dyz    dz2    dxz    dx2    tot
  1 44.089  0.000  0.000  0.000  0.000  0.000  0.000  0.000  0.000 44.090
 
band   9 # energy   20.90051449 # occ.  0.00000000
 
ion      s     py     pz     px    dxy    dyz    dz2    dxz    dx2    tot
  1  0.069  0.024  0.012  0.052  0.012  0.043  0.032  0.019  0.015  0.279
 

 k-point   14 :   -0.18750000 0.18750000 0.06250000     weight = 0.02343750

band   1 # energy    1.06797704 # occ.  1.00000000
 
ion      s     py     pz     px    dxy    dyz    dz2    dxz    dx2    tot
  1  0.603  0.065  0.001  0.138  0.079  0.009  0.010  0.008  0.010  0.923
 
band   2 # energy    4.78040974 # occ.  1.00000000
 
ion      s     py     pz     px    dxy    dyz    dz2    dxz    dx2    tot
  1  0.003  0.010  0.093  0.007  0.005  0.639  0.002  0.214  0.001  0.975
 
band   3 # energy    6.18181048 # occ. -0.00092205
 
ion      s     py     pz     px    dxy    dyz    dz2    dxz    dx2    tot
  1  0.003  0.033  0.000  0.004  0.372  0.019  0.397  0.000  0.109  0.938
 
band   4 # energy    7.77132313 # occ.  0.00000000
 
ion      s     py     pz     px    dxy    dyz    dz2    dxz    dx2    tot
  1  0.002  0.003  0.005  0.015  0.051  0.093  0.036  0.269  0.489  0.962
 
band   5 # energy    8.67942638 # occ.  0.00000000
 
ion      s     py     pz     px    dxy    dyz    dz2    dxz    dx2    tot
  1  0.002  0.001  0.009  0.018  0.018  0.176  0.005  0.409  0.316  0.953
 
band   6 # energy   11.65802297 # occ.  0.00000000
 
ion      s     py     pz     px    dxy    dyz    dz2    dxz    dx2    tot
  1  0.021  0.026  0.000  0.025  0.400  0.001  0.493  0.003  0.008  0.978
 
band   7 # energy   19.74544037 # occ.  0.00000000
 
ion      s     py     pz     px    dxy    dyz    dz2    dxz    dx2    tot
  1 25.091  0.029  0.004  0.020  0.043  0.001  0.030  0.003  0.001 25.223
 
band   8 # energy   19.90252680 # occ.  0.00000000
 
ion      s     py     pz     px    dxy    dyz    dz2    dxz    dx2    tot
  1 18.970  0.040  0.007  0.025  0.069  0.001  0.049  0.005  0.003 19.169
 
band   9 # energy   23.20163774 # occ.  0.00000000
 
ion      s     py     pz     px    dxy    dyz    dz2    dxz    dx2    tot
  1  0.156  0.106  0.026  0.101  0.042  0.088  0.010  0.061  0.011  0.602
 

 k-point   15 :   -0.06250000 0.18750000 0.06250000     weight = 0.02343750

band   1 # energy   -0.47309642 # occ.  1.00000000
 
ion      s     py     pz     px    dxy    dyz    dz2    dxz    dx2    tot
  1  0.744  0.030  0.003  0.089  0.017  0.002  0.003  0.003  0.004  0.893
 
band   2 # energy    5.26970601 # occ.  1.00000000
 
ion      s     py     pz     px    dxy    dyz    dz2    dxz    dx2    tot
  1  0.001  0.005  0.036  0.003  0.017  0.736  0.000  0.181  0.000  0.979
 
band   3 # energy    6.97628226 # occ.  0.00000000
 
ion      s     py     pz     px    dxy    dyz    dz2    dxz    dx2    tot
  1  0.000  0.025  0.000  0.006  0.652  0.037  0.196  0.005  0.055  0.976
 
band   4 # energy    7.33523270 # occ.  0.00000000
 
ion      s     py     pz     px    dxy    dyz    dz2    dxz    dx2    tot
  1  0.000  0.002  0.012  0.000  0.037  0.169  0.008  0.701  0.060  0.988
 
band   5 # energy    8.50865214 # occ.  0.00000000
 
ion      s     py     pz     px    dxy    dyz    dz2    dxz    dx2    tot
  1  0.005  0.002  0.001  0.011  0.076  0.026  0.022  0.052  0.760  0.954
 
band   6 # energy   10.15457590 # occ.  0.00000000
 
ion      s     py     pz     px    dxy    dyz    dz2    dxz    dx2    tot
  1  0.003  0.006  0.000  0.003  0.148  0.000  0.734  0.007  0.071  0.972
 
band   7 # energy   19.80350772 # occ.  0.00000000
 
ion      s     py     pz     px    dxy    dyz    dz2    dxz    dx2    tot
  1 43.557  0.000  0.000  0.000  0.000  0.000  0.000  0.000  0.000 43.558
 
band   8 # energy   20.55571544 # occ.  0.00000000
 
ion      s     py     pz     px    dxy    dyz    dz2    dxz    dx2    tot
  1  0.418  0.031  0.009  0.022  0.032  0.001  0.034  0.001  0.011  0.559
 
band   9 # energy   22.04134309 # occ.  0.00000000
 
ion      s     py     pz     px    dxy    dyz    dz2    dxz    dx2    tot
  1  0.029  0.008  0.001  0.006  0.021  0.099  0.005  0.039  0.001  0.208
 

 k-point   16 :    0.31250000 0.31250000 0.06250000     weight = 0.01171875

band   1 # energy    1.18733474 # occ.  1.00000000
 
ion      s     py     pz     px    dxy    dyz    dz2    dxz    dx2    tot
  1  0.511  0.003  0.191  0.003  0.001  0.003  0.196  0.003  0.000  0.910
 
band   2 # energy    3.85398446 # occ.  1.00000000
 
ion      s     py     pz     px    dxy    dyz    dz2    dxz    dx2    tot
  1  0.000  0.004  0.000  0.004  0.977  0.004  0.001  0.004  0.000  0.994
 
band   3 # energy    6.45181726 # occ.  0.00000000
 
ion      s     py     pz     px    dxy    dyz    dz2    dxz    dx2    tot
  1  0.090  0.002  0.117  0.002  0.002  0.035  0.647  0.035  0.000  0.931
 
band   4 # energy    8.91597547 # occ.  0.00000000
 
ion      s     py     pz     px    dxy    dyz    dz2    dxz    dx2    tot
  1  0.000  0.039  0.000  0.039  0.000  0.389  0.000  0.389  0.102  0.958
 
band   5 # energy    9.31200740 # occ.  0.00000000
 
ion      s     py     pz     px    dxy    dyz    dz2    dxz    dx2    tot
  1  0.008  0.041  0.025  0.041  0.010  0.392  0.046  0.392  0.000  0.954
 
band   6 # energy   11.11018260 # occ.  0.00000000
 
ion      s     py     pz     px    dxy    dyz    dz2    dxz    dx2    tot
  1  0.000  0.002  0.000  0.002  0.000  0.049  0.000  0.049  0.877  0.980
 