<?xml version="1.0" encoding="ISO-8859-1"?>
<modeling>
 <generator>
  <i name="program" type="string">vasp </i>
  <i name="version" type="string">5.2.12  </i>
  <i name="subversion" type="string">11Nov11 complex                                                      parallel </i>
  <i name="platform" type="string">LinuxIFC </i>
  <i name="date" type="string">2012 10 17 </i>
  <i name="time" type="string">11:07:02 </i>
 </generator>
 <incar>
  <i type="int" name="ISTART">     0</i>
  <i type="string" name="PREC">accurate</i>
  <i type="int" name="ISPIN">     2</i>
  <i name="ENCUT">    400.00000000</i>
  <v name="MAGMOM">      6.00000000</v>
  <i type="logical" name="LREAL"> F  </i>
  <i type="int" name="ISMEAR">     1</i>
  <i name="SIGMA">      0.05000000</i>
  <i type="logical" name="LORBIT"> F  </i>
 </incar>
 <kpoints>
  <generation param="Monkhorst-Pack">
   <v type="int" name="divisions">       8        8        8 </v>
   <v name="usershift">      0.00000000       0.00000000       0.00000000 </v>
   <v name="genvec1">      0.12500000       0.00000000       0.00000000 </v>
   <v name="genvec2">      0.00000000       0.12500000       0.00000000 </v>
   <v name="genvec3">      0.00000000       0.00000000       0.12500000 </v>
   <v name="shift">      0.50000000       0.50000000       0.50000000 </v>
  </generation>
  <varray name="kpointlist" >
   <v>       0.06250000       0.06250000       0.06250000 </v>
   <v>       0.18750000       0.06250000       0.06250000 </v>
   <v>       0.31250000       0.06250000       0.06250000 </v>
   <v>       0.43750000       0.06250000       0.06250000 </v>
   <v>      -0.43750000       0.06250000       0.06250000 </v>
   <v>      -0.31250000       0.06250000       0.06250000 </v>
   <v>      -0.18750000       0.06250000       0.06250000 </v>
   <v>      -0.06250000       0.06250000       0.06250000 </v>
   <v>       0.18750000       0.18750000       0.06250000 </v>
   <v>       0.31250000       0.18750000       0.06250000 </v>
   <v>       0.43750000       0.18750000       0.06250000 </v>
   <v>      -0.43750000       0.18750000       0.06250000 </v>
   <v>      -0.31250000       0.18750000       0.06250000 </v>
   <v>      -0.18750000       0.18750000       0.06250000 </v>
   <v>      -0.06250000       0.18750000       0.06250000 </v>
   <v>       0.31250000       0.31250000       0.06250000 </v>
   <v>       0.43750000       0.31250000       0.06250000 </v>
   <v>      -0.43750000       0.31250000       0.06250000 </v>
   <v>      -0.31250000       0.31250000       0.06250000 </v>
   <v>      -0.18750000       0.31250000       0.06250000 </v>
   <v>      -0.06250000       0.31250000       0.06250000 </v>
   <v>       0.43750000       0.43750000       0.06250000 </v>
   <v>      -0.43750000       0.43750000       0.06250000 </v>
   <v>      -0.31250000       0.43750000       0.06250000 </v>
   <v>      -0.18750000       0.43750000       0.06250000 </v>
   <v>      -0.06250000       0.43750000       0.06250000 </v>
   <v>      -0.43750000      -0.43750000       0.06250000 </v>
   <v>      -0.31250000      -0.43750000       0.06250000 </v>
   <v>      -0.18750000      -0.43750000       0.06250000 </v>
   <v>      -0.31250000      -0.31250000       0.06250000 </v>
   <v>      -0.18750000      -0.31250000       0.06250000 </v>
   <v>      -0.18750000      -0.18750000       0.06250000 </v>
   <v>       0.18750000       0.18750000       0.18750000 </v>
   <v>       0.31250000       0.18750000       0.18750000 </v>
   <v>       0.43750000       0.18750000       0.18750000 </v>
   <v>      -0.43750000       0.18750000       0.18750000 </v>
   <v>      -0.31250000       0.18750000       0.18750000 </v>
   <v>      -0.18750000       0.18750000       0.18750000 </v>
   <v>       0.31250000       0.31250000       0.18750000 </v>
   <v>       0.43750000       0.31250000       0.18750000 </v>
   <v>      -0.43750000       0.31250000       0.18750000 </v>
   <v>      -0.31250000       0.31250000       0.18750000 </v>
   <v>      -0.18750000       0.31250000       0.18750000 </v>
   <v>       0.43750000       0.43750000       0.18750000 </v>
   <v>      -0.43750000       0.43750000       0.18750000 </v>
   <v>      -0.31250000       0.43750000       0.18750000 </v>
   <v>      -0.18750000       0.43750000       0.18750000 </v>
   <v>      -0.43750000      -0.43750000       0.18750000 </v>
   <v>      -0.31250000      -0.43750000       0.18750000 </v>
   <v>      -0.31250000      -0.31250000       0.18750000 </v>
   <v>       0.31250000       0.31250000       0.31250000 </v>
   <v>       0.43750000       0.31250000       0.31250000 </v>
   <v>      -0.43750000       0.31250000       0.31250000 </v>
   <v>      -0.31250000       0.31250000       0.31250000 </v>
   <v>       0.43750000       0.43750000       0.31250000 </v>
   <v>      -0.43750000       0.43750000       0.31250000 </v>
   <v>      -0.31250000       0.43750000       0.31250000 </v>
   <v>      -0.43750000      -0.43750000       0.31250000 </v>
   <v>       0.43750000       0.43750000       0.43750000 </v>
   <v>      -0.43750000       0.43750000       0.43750000 </v>
  </varray>
  <varray name="weights" >
   <v>       0.00390625 </v>
   <v>       0.01171875 </v>
   <v>       0.01171875 </v>
   <v>       0.01171875 </v>
   <v>       0.01171875 </v>
   <v>       0.01171875 </v>
   <v>       0.01171875 </v>
   <v>       0.01171875 </v>
   <v>       0.01171875 </v>
   <v>       0.02343750 </v>
   <v>       0.02343750 </v>
   <v>       0.02343750 </v>
   <v>       0.02343750 </v>
   <v>       0.02343750 </v>
   <v>       0.02343750 </v>
   <v>       0.01171875 </v>
   <v>       0.02343750 </v>
   <v>       0.02343750 </v>
   <v>       0.02343750 </v>
   <v>       0.02343750 </v>
   <v>       0.02343750 </v>
   <v>       0.01171875 </v>
   <v>       0.02343750 </v>
   <v>       0.02343750 </v>
   <v>       0.02343750 </v>
   <v>       0.02343750 </v>
   <v>       0.01171875 </v>
   <v>       0.02343750 </v>
   <v>       0.02343750 </v>
   <v>       0.01171875 </v>
   <v>       0.02343750 </v>
   <v>       0.01171875 </v>
   <v>       0.00390625 </v>
   <v>       0.01171875 </v>
   <v>       0.01171875 </v>
   <v>       0.01171875 </v>
   <v>       0.01171875 </v>
   <v>       0.01171875 </v>
   <v>       0.01171875 </v>
   <v>       0.02343750 </v>
   <v>       0.02343750 </v>
   <v>       0.02343750 </v>
   <v>       0.02343750 </v>
   <v>       0.01171875 </v>
   <v>       0.02343750 </v>
   <v>       0.02343750 </v>
   <v>       0.02343750 </v>
   <v>       0.01171875 </v>
   <v>       0.02343750 </v>
   <v>       0.01171875 </v>
   <v>       0.00390625 </v>
   <v>       0.01171875 </v>
   <v>       0.01171875 </v>
   <v>       0.01171875 </v>
   <v>       0.01171875 </v>
   <v>       0.02343750 </v>
   <v>       0.02343750 </v>
   <v>       0.01171875 </v>
   <v>       0.00390625 </v>
   <v>       0.01171875 </v>
  </varray>
 </kpoints>
 <parameters>
  <separator name="general" >
   <i type="string" name="SYSTEM">unknown system</i>
   <i type="logical" name="LCOMPAT"> F  </i>
  </separator>
  <separator name="electronic" >
   <i type="string" name="PREC">accura</i>
   <i name="ENMAX">    400.00000000</i>
   <i name="ENAUG">    332.07500000</i>
   <i name="EDIFF">      0.00010000</i>
   <i type="int" name="IALGO">    38</i>
   <i type="int" name="IWAVPR">    10</i>
   <i type="int" name="NBANDS">     9</i>
   <i name="NELECT">      5.00000000</i>
   <i type="int" name="TURBO">     0</i>
   <i type="int" name="IRESTART">     0</i>
   <i type="int" name="NREBOOT">     0</i>
   <i type="int" name="NMIN">     0</i>
   <i name="EREF">      0.00000000</i>
   <separator name="electronic smearing" >
    <i type="int" name="ISMEAR">     1</i>
    <i name="SIGMA">      0.05000000</i>
    <i name="KSPACING">      0.50000000</i>
    <i type="logical" name="KGAMMA"> T  </i>
   </separator>
   <separator name="electronic projectors" >
    <i type="logical" name="LREAL"> F  </i>
    <v name="ROPT">      0.00000000</v>
    <i type="int" name="LMAXPAW">  -100</i>
    <i type="int" name="LMAXMIX">     2</i>
    <i type="logical" name="NLSPLINE"> F  </i>
   </separator>
   <separator name="electronic startup" >
    <i type="int" name="ISTART">     0</i>
    <i type="int" name="ICHARG">     2</i>
    <i type="int" name="INIWAV">     1</i>
   </separator>
   <separator name="electronic spin" >
    <i type="int" name="ISPIN">     2</i>
    <i type="logical" name="LNONCOLLINEAR"> F  </i>
    <v name="MAGMOM">      6.00000000</v>
    <i name="NUPDOWN">     -1.00000000</i>
    <i type="logical" name="LSORBIT"> F  </i>
    <v name="SAXIS">      0.00000000      0.00000000      1.00000000</v>
    <i type="logical" name="LSPIRAL"> F  </i>
    <v name="QSPIRAL">      0.00000000      0.00000000      0.00000000</v>
    <i type="logical" name="LZEROZ"> F  </i>
   </separator>
   <separator name="electronic exchange-correlation" >
    <i type="logical" name="LASPH"> F  </i>
    <i type="logical" name="LMETAGGA"> F  </i>
   </separator>
   <separator name="electronic convergence" >
    <i type="int" name="NELM">    60</i>
    <i type="int" name="NELMDL">    -5</i>
    <i type="int" name="NELMIN">     2</i>
    <i name="ENINI">    400.00000000</i>
    <separator name="electronic convergence detail" >
     <i type="logical" name="LDIAG"> T  </i>
     <i type="logical" name="LSUBROT"> T  </i>
     <i name="WEIMIN">      0.00000000</i>
     <i name="EBREAK">      0.00000278</i>
     <i name="DEPER">      0.30000000</i>
     <i type="int" name="NRMM">     4</i>
     <i name="TIME">      0.40000000</i>
    </separator>
   </separator>
   <separator name="electronic mixer" >
    <i name="AMIX">      0.40000000</i>
    <i name="BMIX">      1.00000000</i>
    <i name="AMIN">      0.10000000</i>
    <i name="AMIX_MAG">      1.60000000</i>
    <i name="BMIX_MAG">      1.00000000</i>
    <separator name="electronic mixer details" >
     <i type="int" name="IMIX">     4</i>
     <i type="int" name="MAXMIX">   -45</i>
     <i name="WC">    100.00000000</i>
     <i type="int" name="INIMIX">     1</i>
     <i type="int" name="MIXPRE">     1</i>
     <i type="int" name="MREMOVE">     5</i>
    </separator>
   </separator>
   <separator name="electronic dipolcorrection" >
    <i type="logical" name="LDIPOL"> F  </i>
    <i type="logical" name="LMONO"> F  </i>
    <i type="int" name="IDIPOL">     0</i>
    <i name="EPSILON">      1.00000000</i>
    <v name="DIPOL">   -100.00000000   -100.00000000   -100.00000000</v>
    <i name="EFIELD">      0.00000000</i>
   </separator>
  </separator>
  <separator name="grids" >
   <i type="int" name="NGX">    20</i>
   <i type="int" name="NGY">    20</i>
   <i type="int" name="NGZ">    20</i>
   <i type="int" name="NGXF">    40</i>
   <i type="int" name="NGYF">    40</i>
   <i type="int" name="NGZF">    40</i>
   <i type="logical" name="ADDGRID"> F  </i>
  </separator>
  <separator name="ionic" >
   <i type="int" name="NSW">     0</i>
   <i type="int" name="IBRION">    -1</i>
   <i type="int" name="ISIF">     2</i>
   <i name="PSTRESS">      0.00000000</i>
   <i name="EDIFFG">      0.00100000</i>
   <i type="int" name="NFREE">     0</i>
   <i name="POTIM">      0.50000000</i>
   <i name="SMASS">     -3.00000000</i>
   <i name="SCALEE">      1.00000000</i>
  </separator>
  <separator name="ionic md" >
   <i name="TEBEG">      0.00010000</i>
   <i name="TEEND">      0.00010000</i>
   <i type="int" name="NBLOCK">     1</i>
   <i type="int" name="KBLOCK">     1</i>
   <i type="int" name="NPACO">   256</i>
   <i name="APACO">     16.00000000</i>
  </separator>
  <separator name="symmetry" >
   <i type="int" name="ISYM">     2</i>
   <i name="SYMPREC">      0.00001000</i>
  </separator>
  <separator name="dos" >
   <i type="logical" name="LORBIT"> F  </i>
   <v name="RWIGS">     -1.00000000</v>
   <i type="int" name="NEDOS">   301</i>
   <i name="EMIN">     10.00000000</i>
   <i name="EMAX">    -10.00000000</i>
   <i name="EFERMI">      0.00000000</i>
  </separator>
  <separator name="writing" >
   <i type="int" name="NWRITE">     2</i>
   <i type="logical" name="LWAVE"> T  </i>
   <i type="logical" name="LCHARG"> T  </i>
   <i type="logical" name="LPARD"> F  </i>
   <i type="logical" name="LVTOT"> F  </i>
   <i type="logical" name="LVHAR"> F  </i>
   <i type="logical" name="LELF"> F  </i>
   <i type="logical" name="LOPTICS"> F  </i>
   <v name="STM">      0.00000000      0.00000000      0.00000000      0.00000000      0.00000000      0.00000000      0.00000000</v>
  </separator>
  <separator name="performance" >
   <i type="int" name="NPAR">     1</i>
   <i type="int" name="NSIM">     4</i>
   <i type="int" name="NBLK">    -1</i>
   <i type="logical" name="LPLANE"> T  </i>
   <i type="logical" name="LSCALAPACK"> F  </i>
   <i type="logical" name="LSCAAWARE"> F  </i>
   <i type="logical" name="LSCALU"> F  </i>
   <i type="logical" name="LASYNC"> F  </i>
   <i type="logical" name="LORBITALREAL"> F  </i>
  </separator>
  <separator name="miscellaneous" >
   <i type="int" name="IDIOT">     3</i>
   <i type="logical" name="LMUSIC"> F  </i>
   <v name="POMASS">    180.94800000</v>
   <v name="DARWINR">      0.00000000</v>
   <v name="DARWINV">      1.00000000</v>
   <i type="logical" name="LCORR"> T  </i>
  </separator>
  <i type="logical" name="GGA_COMPAT"> T  </i>
  <i type="logical" name="LBERRY"> F  </i>
  <i type="int" name="ICORELEVEL">     0</i>
  <i type="logical" name="LDAU"> F  </i>
  <i type="int" name="I_CONSTRAINED_M">     0</i>
  <separator name="electronic exchange-correlation" >
   <i type="string" name="GGA">--</i>
   <i type="int" name="VOSKOWN">     0</i>
   <i type="logical" name="LHFCALC"> F  </i>
   <i type="string" name="PRECFOCK"></i>
   <i type="logical" name="LHFONE"> F  </i>
   <i type="logical" name="LRHFCALC"> F  </i>
   <i type="logical" name="LTHOMAS"> F  </i>
   <i type="logical" name="LMODELHF"> F  </i>
   <i name="ENCUT4O">     -1.00000000</i>
   <i type="int" name="EXXOEP">     0</i>
   <i type="int" name="FOURORBIT">     0</i>
   <i name="AEXX">      0.00000000</i>
   <i name="HFALPHA">      0.00000000</i>
   <i name="ALDAX">      1.00000000</i>
   <i name="AGGAX">      1.00000000</i>
   <i name="ALDAC">      1.00000000</i>
   <i name="AGGAC">      1.00000000</i>
   <i type="int" name="NKREDX">     1</i>
   <i type="int" name="NKREDY">     1</i>
   <i type="int" name="NKREDZ">     1</i>
   <i type="logical" name="SHIFTRED"> F  </i>
   <i type="logical" name="ODDONLY"> F  </i>
   <i type="logical" name="EVENONLY"> F  </i>
   <i type="int" name="LMAXFOCK">     0</i>
   <i type="int" name="NMAXFOCKAE">     0</i>
   <i type="logical" name="LFOCKAEDFT"> F  </i>
   <i name="HFSCREEN">      0.00000000</i>
   <i name="HFSCREENC">      0.00000000</i>
  </separator>
  <separator name="vdW DFT" >
   <i type="logical" name="LUSE_VDW"> F  </i>
   <i name="Zab_VDW">     -0.84910000</i>
   <i name="PARAM1">      0.12340000</i>
   <i name="PARAM2">      1.00000000</i>
   <i name="PARAM3">      0.00000000</i>
  </separator>
  <separator name="model GW" >
   <i type="int" name="MODEL_GW">     0</i>
   <i name="MODEL_EPS0">     10.87675695</i>
   <i name="MODEL_ALPHA">      1.00000000</i>
  </separator>
  <separator name="linear response parameters" >
   <i type="logical" name="LEPSILON"> F  </i>
   <i type="logical" name="LRPA"> F  </i>
   <i type="logical" name="LNABLA"> F  </i>
   <i type="logical" name="LVEL"> F  </i>
   <i type="int" name="KINTER">     0</i>
   <i name="CSHIFT">      0.10000000</i>
   <i name="OMEGAMAX">     -1.00000000</i>
  </separator>
  <separator name="orbital magnetization" >
   <i type="logical" name="NUCIND"> F  </i>
   <v name="MAGPOS">      0.00000000      0.00000000      0.00000000</v>
   <i type="logical" name="LNICSALL"> T  </i>
   <i type="logical" name="ORBITALMAG"> F  </i>
   <i type="logical" name="LMAGBLOCH"> F  </i>
   <i type="logical" name="LCHIMAG"> F  </i>
   <i type="logical" name="LGAUGE"> T  </i>
   <i type="int" name="MAGATOM">     0</i>
   <v name="MAGDIPOL">      0.00000000      0.00000000      0.00000000</v>
   <v name="AVECCONST">      0.00000000      0.00000000      0.00000000</v>
  </separator>
  <separator name="response functions" >
   <i type="logical" name="LADDER"> F  </i>
   <i type="logical" name="LHARTREE"> T  </i>
   <i type="int" name="IBSE">     0</i>
   <i type="logical" name="LTCTE"> F  </i>
   <i type="logical" name="LTETE"> F  </i>
   <i type="logical" name="LFXCEPS"> F  </i>
   <i type="logical" name="L2ORDER"> F  </i>
   <i type="logical" name="LUSEW"> F  </i>
   <i name="ENCUTGW">     -2.00000000</i>
   <i name="ENCUTGWSOFT">     -2.00000000</i>
   <i name="ENCUTLF">     -1.00000000</i>
   <i type="int" name="LMAXMP2">    -1</i>
   <i name="SCISSOR">      0.00000000</i>
   <i type="int" name="NOMEGA">     0</i>
   <i type="int" name="NOMEGAR">     0</i>
   <i type="int" name="NBANDSGW">    -1</i>
   <i type="int" name="NBANDSO">    -1</i>
   <i type="int" name="NBANDSV">    -1</i>
   <i name="OPTEMAX">      0.00000000</i>
   <i type="int" name="NELM">     1</i>
   <i type="int" name="DIM">     3</i>
   <i type="int" name="ANTIRES">     0</i>
   <i name="OMEGAMAX">    -30.00000000</i>
   <i name="OMEGATL">   -200.00000000</i>
   <i type="int" name="OMEGAGRID">     0</i>
   <i name="CSHIFT">     -0.10000000</i>
   <i type="logical" name="SELFENERGY"> F  </i>
   <i type="logical" name="LSPECTRAL"> F  </i>
   <i type="logical" name="ODDONLYGW"> F  </i>
   <i type="logical" name="EVENONLYGW"> F  </i>
   <i type="int" name="NKREDLFX">     1</i>
   <i type="int" name="NKREDLFY">     1</i>
   <i type="int" name="NKREDLFZ">     1</i>
   <i type="int" name="MAXMEM">  1800</i>
   <i type="int" name="TELESCOPE">     0</i>
  </separator>
 </parameters>
 <atominfo>
  <atoms>       1 </atoms>
  <types>       1 </types>
  <array name="atoms" >
   <dimension dim="1">ion</dimension>
   <field type="string">element</field>
   <field type="int">atomtype</field>
   <set>
    <rc><c>Ta</c><c>   1</c></rc>
   </set>
  </array>
  <array name="atomtypes" >
   <dimension dim="1">type</dimension>
   <field type="int">atomspertype</field>
   <field type="string">element</field>
   <field>mass</field>
   <field>valence</field>
   <field type="string">pseudopotential</field>
   <set>
    <rc><c>   1</c><c>Ta</c><c>    180.94800000</c><c>      5.00000000</c><c>  PAW_PBE Ta 17Jan2003                  </c></rc>
   </set>
  </array>
 </atominfo>
 <structure name="initialpos" >
  <crystal>
   <varray name="basis" >
    <v>       0.00000000       2.08500000       2.08500000 </v>
    <v>       2.08500000       0.00000000       2.08500000 </v>
    <v>       2.08500000       2.08500000       0.00000000 </v>
   </varray>
   <i name="volume">     18.12792825 </i>
   <varray name="rec_basis" >
    <v>      -0.23980815       0.23980815       0.23980815 </v>
    <v>       0.23980815      -0.23980815       0.23980815 </v>
    <v>       0.23980815       0.23980815      -0.23980815 </v>
   </varray>
  </crystal>
  <varray name="positions" >
   <v>       0.00000000       0.00000000       0.00000000 </v>
  </varray>
 </structure>
 <calculation>
  <scstep>
   <time name="dav">    3.04    3.04</time>
   <time name="total">    3.30    3.31</time>
   <energy>
    <i name="alphaZ">     30.59079297 </i>
    <i name="ewald">   -197.90479031 </i>
    <i name="hartreedc">     -2.54064926 </i>
    <i name="XCdc">    -60.68637532 </i>
    <i name="pawpsdc">    143.51874798 </i>
    <i name="pawaedc">    -69.33493833 </i>
    <i name="eentropy">      0.00016148 </i>
    <i name="bandstr">     34.14588151 </i>
    <i name="atom">    130.64884137 </i>
    <i name="e_fr_energy">      8.43767208 </i>
    <i name="e_wo_entrp">      8.43751060 </i>
    <i name="e_0_energy">      8.43761825 </i>
   </energy>
  </scstep>
  <scstep>
   <time name="dav">    3.62    3.62</time>
   <time name="total">    3.63    3.63</time>
   <energy>
    <i name="e_fr_energy">     -1.74039810 </i>
    <i name="e_wo_entrp">     -1.74019823 </i>
    <i name="e_0_energy">     -1.74033148 </i>
   </energy>
  </scstep>
  <scstep>
   <time name="dav">    3.33    3.34</time>
   <time name="total">    3.34    3.36</time>
   <energy>
    <i name="e_fr_energy">     -1.89069080 </i>
    <i name="e_wo_entrp">     -1.89025049 </i>
    <i name="e_0_energy">     -1.89054403 </i>
   </energy>
  </scstep>
  <scstep>
   <time name="dav">    3.57    3.57</time>
   <time name="total">    3.58    3.62</time>
   <energy>
    <i name="e_fr_energy">     -1.89093624 </i>
    <i name="e_wo_entrp">     -1.89049656 </i>
    <i name="e_0_energy">     -1.89078968 </i>
   </energy>
  </scstep>
  <scstep>
   <time name="dav">    3.27    3.28</time>
   <time name="total">    3.48    3.49</time>
   <energy>
    <i name="e_fr_energy">     -1.89093637 </i>
    <i name="e_wo_entrp">     -1.89049669 </i>
    <i name="e_0_energy">     -1.89078981 </i>
   </energy>
  </scstep>
  <scstep>
   <time name="dav">    3.12    3.12</time>
   <time name="total">    3.57    3.59</time>
   <energy>
    <i name="e_fr_energy">    -11.24812302 </i>
    <i name="e_wo_entrp">    -11.24809019 </i>
    <i name="e_0_energy">    -11.24811207 </i>
   </energy>
  </scstep>
  <scstep>
   <time name="dav">    3.46    3.47</time>
   <time name="total">    3.92    3.94</time>
   <energy>
    <i name="e_fr_energy">    -11.30714408 </i>
    <i name="e_wo_entrp">    -11.30731700 </i>
    <i name="e_0_energy">    -11.30720172 </i>
   </energy>
  </scstep>
  <scstep>
   <time name="dav">    3.19    3.19</time>
   <time name="total">    3.65    3.71</time>
   <energy>
    <i name="e_fr_energy">    -11.19992222 </i>
    <i name="e_wo_entrp">    -11.19973005 </i>
    <i name="e_0_energy">    -11.19985816 </i>
   </energy>
  </scstep>
  <scstep>
   <time name="dav">    3.02    3.02</time>
   <time name="total">    3.48    3.50</time>
   <energy>
    <i name="e_fr_energy">    -11.58731140 </i>
    <i name="e_wo_entrp">    -11.58736857 </i>
    <i name="e_0_energy">    -11.58733046 </i>
   </energy>
  </scstep>
  <scstep>
   <time name="dav">    3.13    3.13</time>
   <time name="total">    3.58    3.60</time>
   <energy>
    <i name="e_fr_energy">    -11.60378079 </i>
    <i name="e_wo_entrp">    -11.60361875 </i>
    <i name="e_0_energy">    -11.60372677 </i>
   </energy>
  </scstep>
  <scstep>
   <time name="dav">    3.15    3.15</time>
   <time name="total">    3.60    3.62</time>
   <energy>
    <i name="e_fr_energy">    -11.60300082 </i>
    <i name="e_wo_entrp">    -11.60291078 </i>
    <i name="e_0_energy">    -11.60297080 </i>
   </energy>
  </scstep>
  <scstep>
   <time name="dav">    3.03    3.03</time>
   <time name="total">    3.48    3.49</time>
   <energy>
    <i name="e_fr_energy">    -11.60741033 </i>
    <i name="e_wo_entrp">    -11.60753061 </i>
    <i name="e_0_energy">    -11.60745043 </i>
   </energy>
  </scstep>
  <scstep>
   <time name="dav">    2.85    2.85</time>
   <time name="total">    3.31    3.32</time>
   <energy>
    <i name="e_fr_energy">    -11.60727089 </i>
    <i name="e_wo_entrp">    -11.60739735 </i>
    <i name="e_0_energy">    -11.60731304 </i>
   </energy>
  </scstep>
  <scstep>
   <time name="dav">    1.96    1.96</time>
   <time name="total">    2.21    2.23</time>
   <energy>
    <i name="alphaZ">     30.59079297 </i>
    <i name="ewald">   -197.90479031 </i>
    <i name="hartreedc">     -0.63131278 </i>
    <i name="XCdc">    -65.95074804 </i>
    <i name="pawpsdc">    192.31107444 </i>
    <i name="pawaedc">   -118.95153375 </i>
    <i name="eentropy">      0.00012761 </i>
    <i name="bandstr">     18.28029047 </i>
    <i name="atom">    130.64884137 </i>
    <i name="e_fr_energy">    -11.60725802 </i>
    <i name="e_wo_entrp">    -11.60738563 </i>
    <i name="e_0_energy">    -11.60730055 </i>
   </energy>
  </scstep>
  <parameters_embedded>
   <separator name="dft+d2" >
    <i type="logical" name="LVDW"> F  </i>
   </separator>
  </parameters_embedded>
  <structure>
   <crystal>
    <varray name="basis" >
     <v>       0.00000000       2.08500000       2.08500000 </v>
     <v>       2.08500000       0.00000000       2.08500000 </v>
     <v>       2.08500000       2.08500000       0.00000000 </v>
    </varray>
    <i name="volume">     18.12792825 </i>
    <varray name="rec_basis" >
     <v>      -0.23980815       0.23980815       0.23980815 </v>
     <v>       0.23980815      -0.23980815       0.23980815 </v>
     <v>       0.23980815       0.23980815      -0.23980815 </v>
    </varray>
   </crystal>
   <varray name="positions" >
    <v>       0.00000000       0.00000000       0.00000000 </v>
   </varray>
  </structure>
  <varray name="forces" >
   <v>       0.00000000       0.00000000       0.00000000 </v>
  </varray>
  <varray name="stress" >
   <v>      58.29239722       0.00000000       0.00000000 </v>
   <v>       0.00000000      58.29239722       0.00000000 </v>
   <v>       0.00000000       0.00000000      58.29239722 </v>
  </varray>
  <energy>
   <i name="e_fr_energy">    -11.60725802 </i>
   <i name="e_wo_entrp">    -11.60730055 </i>
   <i name="e_0_energy">      0.00012761 </i>
  </energy>
  <time name="totalsc">   50.14   50.57</time>
  <eigenvalues>
   <array>
    <dimension dim="1">band</dimension>
    <dimension dim="2">kpoint</dimension>
    <dimension dim="3">spin</dimension>
    <field>eigene</field>
    <field>occ</field>
    <set>
     <set comment="spin 1">
      <set comment="kpoint 1">
       <r>   -2.0182    1.0000 </r>
       <r>    6.3797    0.0000 </r>
       <r>    6.6011    0.0000 </r>
       <r>    6.6011    0.0000 </r>
       <r>    9.5750    0.0000 </r>
       <r>    9.5750    0.0000 </r>
       <r>   18.9929    0.0000 </r>
       <r>   19.8064    0.0000 </r>
       <r>   22.8363    0.0000 </r>
      </set>
      <set comment="kpoint 2">
       <r>   -1.2113    1.0000 </r>
       <r>    5.7640    1.0000 </r>
       <r>    6.9193    0.0000 </r>
       <r>    6.9504    0.0000 </r>
       <r>    8.9643    0.0000 </r>
       <r>    9.7032    0.0000 </r>
       <r>   19.8051    0.0000 </r>
       <r>   20.4117    0.0000 </r>
       <r>   21.2922    0.0000 </r>
      </set>
      <set comment="kpoint 3">
       <r>    0.3476    1.0000 </r>
       <r>    5.2315    1.0000 </r>
       <r>    6.7762    0.0000 </r>
       <r>    7.0062    0.0000 </r>
       <r>    9.3306    0.0000 </r>
       <r>   10.5362    0.0000 </r>
       <r>   18.7270    0.0000 </r>
       <r>   19.8088    0.0000 </r>
       <r>   22.7578    0.0000 </r>
      </set>
      <set comment="kpoint 4">
       <r>    1.3445    1.0000 </r>
       <r>    5.9298    1.0012 </r>
       <r>    6.3501    0.0000 </r>
       <r>    6.5366    0.0000 </r>
       <r>   11.0058    0.0000 </r>
       <r>   12.0112    0.0000 </r>
       <r>   17.1613    0.0000 </r>
       <r>   19.7143    0.0000 </r>
       <r>   19.8553    0.0000 </r>
      </set>
      <set comment="kpoint 5">
       <r>    1.4757    1.0000 </r>
       <r>    5.9628    1.0133 </r>
       <r>    6.4180    0.0000 </r>
       <r>    6.8048    0.0000 </r>
       <r>   12.1220    0.0000 </r>
       <r>   12.2269    0.0000 </r>
       <r>   16.4732    0.0000 </r>
       <r>   18.6243    0.0000 </r>
       <r>   19.8117    0.0000 </r>
      </set>
      <set comment="kpoint 6">
       <r>    1.1400    1.0000 </r>
       <r>    5.5455    1.0000 </r>
       <r>    6.3953    0.0000 </r>
       <r>    6.7366    0.0000 </r>
       <r>   10.6477    0.0000 </r>
       <r>   11.3541    0.0000 </r>
       <r>   17.6174    0.0000 </r>
       <r>   19.8043    0.0000 </r>
       <r>   20.8376    0.0000 </r>
      </set>
      <set comment="kpoint 7">
       <r>   -0.1891    1.0000 </r>
       <r>    5.2772    1.0000 </r>
       <r>    6.9375    0.0000 </r>
       <r>    7.1012    0.0000 </r>
       <r>    9.0653    0.0000 </r>
       <r>   10.0621    0.0000 </r>
       <r>   19.3861    0.0000 </r>
       <r>   19.8124    0.0000 </r>
       <r>   22.5891    0.0000 </r>
      </set>
      <set comment="kpoint 8">
       <r>   -1.6024    1.0000 </r>
       <r>    5.9814    1.0295 </r>
       <r>    6.8258    0.0000 </r>
       <r>    6.8395    0.0000 </r>
       <r>    9.0443    0.0000 </r>
       <r>    9.7529    0.0000 </r>
       <r>   19.8060    0.0000 </r>
       <r>   19.8441    0.0000 </r>
       <r>   22.0602    0.0000 </r>
      </set>
      <set comment="kpoint 9">
       <r>   -0.8209    1.0000 </r>
       <r>    5.3066    1.0000 </r>
       <r>    7.2301    0.0000 </r>
       <r>    7.3128    0.0000 </r>
       <r>    8.2514    0.0000 </r>
       <r>   10.0927    0.0000 </r>
       <r>   19.8056    0.0000 </r>
       <r>   21.3038    0.0000 </r>
       <r>   21.8479    0.0000 </r>
      </set>
      <set comment="kpoint 10">
       <r>    0.5048    1.0000 </r>
       <r>    4.6497    1.0000 </r>
       <r>    6.5686    0.0000 </r>
       <r>    7.8994    0.0000 </r>
       <r>    8.6620    0.0000 </r>
       <r>   10.8535    0.0000 </r>
       <r>   19.8019    0.0000 </r>
       <r>   20.6900    0.0000 </r>
       <r>   23.5683    0.0000 </r>
      </set>
      <set comment="kpoint 11">
       <r>    1.8640    1.0000 </r>
       <r>    4.7410    1.0000 </r>
       <r>    5.7303    1.0000 </r>
       <r>    7.5308    0.0000 </r>
       <r>   10.5954    0.0000 </r>
       <r>   12.3425    0.0000 </r>
       <r>   18.1746    0.0000 </r>
       <r>   19.8123    0.0000 </r>
       <r>   21.3741    0.0000 </r>
      </set>
      <set comment="kpoint 12">
       <r>    2.2710    1.0000 </r>
       <r>    4.8766    1.0000 </r>
       <r>    6.2513    0.0000 </r>
       <r>    7.1683    0.0000 </r>
       <r>   11.8382    0.0000 </r>
       <r>   13.4263    0.0000 </r>
       <r>   15.8218    0.0000 </r>
       <r>   19.8106    0.0000 </r>
       <r>   20.4312    0.0000 </r>
      </set>
      <set comment="kpoint 13">
       <r>    2.1636    1.0000 </r>
       <r>    5.0875    1.0000 </r>
       <r>    5.6824    1.0000 </r>
       <r>    7.2653    0.0000 </r>
       <r>   10.5699    0.0000 </r>
       <r>   13.1867    0.0000 </r>
       <r>   17.3323    0.0000 </r>
       <r>   19.8115    0.0000 </r>
       <r>   20.9005    0.0000 </r>
      </set>
      <set comment="kpoint 14">
       <r>    1.0680    1.0000 </r>
       <r>    4.7804    1.0000 </r>
       <r>    6.1818   -0.0009 </r>
       <r>    7.7713    0.0000 </r>
       <r>    8.6794    0.0000 </r>
       <r>   11.6580    0.0000 </r>
       <r>   19.7454    0.0000 </r>
       <r>   19.9025    0.0000 </r>
       <r>   23.2016    0.0000 </r>
      </set>
      <set comment="kpoint 15">
       <r>   -0.4731    1.0000 </r>
       <r>    5.2697    1.0000 </r>
       <r>    6.9763    0.0000 </r>
       <r>    7.3352    0.0000 </r>
       <r>    8.5087    0.0000 </r>
       <r>   10.1546    0.0000 </r>
       <r>   19.8035    0.0000 </r>
       <r>   20.5557    0.0000 </r>
       <r>   22.0413    0.0000 </r>
      </set>
      <set comment="kpoint 16">
       <r>    1.1873    1.0000 </r>
       <r>    3.8540    1.0000 </r>
       <r>    6.4518    0.0000 </r>
       <r>    8.9160    0.0000 </r>
       <r>    9.3120    0.0000 </r>
       <r>   11.1102    0.0000 </r>
       <r>   19.8037    0.0000 </r>
       <r>   21.9615    0.0000 </r>
       <r>   23.1373    0.0000 </r>
      </set>
      <set comment="kpoint 17">
       <r>    2.0512    1.0000 </r>
       <r>    3.5318    1.0000 </r>
       <r>    6.1048   -0.0261 </r>
       <r>    9.4809    0.0000 </r>
       <r>   10.7069    0.0000 </r>
       <r>   12.4182    0.0000 </r>
       <r>   19.0354    0.0000 </r>
       <r>   19.8179    0.0000 </r>
       <r>   21.2744    0.0000 </r>
      </set>
      <set comment="kpoint 18">
       <r>    2.7715    1.0000 </r>
       <r>    3.8602    1.0000 </r>
       <r>    5.8953    1.0000 </r>
       <r>    8.8386    0.0000 </r>
       <r>   11.9443    0.0000 </r>
       <r>   14.4110    0.0000 </r>
       <r>   15.4813    0.0000 </r>
       <r>   19.8076    0.0000 </r>
       <r>   21.2597    0.0000 </r>
      </set>
      <set comment="kpoint 19">
       <r>    3.4891    1.0000 </r>
       <r>    4.0547    1.0000 </r>
       <r>    5.3873    1.0000 </r>
       <r>    8.3469    0.0000 </r>
       <r>   10.8095    0.0000 </r>
       <r>   13.5471    0.0000 </r>
       <r>   17.8944    0.0000 </r>
       <r>   19.8055    0.0000 </r>
       <r>   20.0946    0.0000 </r>
      </set>
      <set comment="kpoint 20">
       <r>    2.6118    1.0000 </r>
       <r>    4.7770    1.0000 </r>
       <r>    5.0829    1.0000 </r>
       <r>    7.9146    0.0000 </r>
       <r>    9.6406    0.0000 </r>
       <r>   13.4239    0.0000 </r>
       <r>   18.3246    0.0000 </r>
       <r>   19.8145    0.0000 </r>
       <r>   22.1901    0.0000 </r>
      </set>
      <set comment="kpoint 21">
       <r>    1.0710    1.0000 </r>
       <r>    5.0694    1.0000 </r>
       <r>    6.3079    0.0000 </r>
       <r>    7.1295    0.0000 </r>
       <r>    9.7083    0.0000 </r>
       <r>   11.4553    0.0000 </r>
       <r>   18.5983    0.0000 </r>
       <r>   19.8094    0.0000 </r>
       <r>   22.0209    0.0000 </r>
      </set>
      <set comment="kpoint 22">
       <r>    1.7210    1.0000 </r>
       <r>    2.8834    1.0000 </r>
       <r>    7.7415    0.0000 </r>
       <r>   11.0324    0.0000 </r>
       <r>   11.9034    0.0000 </r>
       <r>   12.2068    0.0000 </r>
       <r>   18.3888    0.0000 </r>
       <r>   19.3084    0.0000 </r>
       <r>   19.7997    0.0000 </r>
      </set>
      <set comment="kpoint 23">
       <r>    1.9544    1.0000 </r>
       <r>    2.9807    1.0000 </r>
       <r>    7.7643    0.0000 </r>
       <r>   10.7781    0.0000 </r>
       <r>   12.5785    0.0000 </r>
       <r>   14.1019    0.0000 </r>
       <r>   16.1456    0.0000 </r>
       <r>   18.3437    0.0000 </r>
       <r>   19.7990    0.0000 </r>
      </set>
      <set comment="kpoint 24">
       <r>    2.7386    1.0000 </r>
       <r>    3.7243    1.0000 </r>
       <r>    6.3463    0.0000 </r>
       <r>    9.2914    0.0000 </r>
       <r>   11.8747    0.0000 </r>
       <r>   14.1798    0.0000 </r>
       <r>   16.3182    0.0000 </r>
       <r>   19.7483    0.0000 </r>
       <r>   19.9242    0.0000 </r>
      </set>
      <set comment="kpoint 25">
       <r>    2.9288    1.0000 </r>
       <r>    4.3271    1.0000 </r>
       <r>    5.8518    1.0000 </r>
       <r>    7.7818    0.0000 </r>
       <r>   11.3779    0.0000 </r>
       <r>   13.8775    0.0000 </r>
       <r>   16.1186    0.0000 </r>
       <r>   19.8098    0.0000 </r>
       <r>   21.3981    0.0000 </r>
      </set>
      <set comment="kpoint 26">
       <r>    1.7227    1.0000 </r>
       <r>    5.5475    1.0000 </r>
       <r>    6.3864    0.0000 </r>
       <r>    6.7221    0.0000 </r>
       <r>   11.5484    0.0000 </r>
       <r>   12.6658    0.0000 </r>
       <r>   16.6301    0.0000 </r>
       <r>   19.5307    0.0000 </r>
       <r>   19.8142    0.0000 </r>
      </set>
      <set comment="kpoint 27">
       <r>    1.6097    1.0000 </r>
       <r>    2.6788    1.0000 </r>
       <r>    8.7003    0.0000 </r>
       <r>   11.7160    0.0000 </r>
       <r>   12.6701    0.0000 </r>
       <r>   13.0477    0.0000 </r>
       <r>   16.9630    0.0000 </r>
       <r>   18.0174    0.0000 </r>
       <r>   19.5171    0.0000 </r>
      </set>
      <set comment="kpoint 28">
       <r>    2.0723    1.0000 </r>
       <r>    3.1678    1.0000 </r>
       <r>    6.9262    0.0000 </r>
       <r>   10.3244    0.0000 </r>
       <r>   11.8607    0.0000 </r>
       <r>   13.2261    0.0000 </r>
       <r>   17.3218    0.0000 </r>
       <r>   19.5093    0.0000 </r>
       <r>   19.8105    0.0000 </r>
      </set>
      <set comment="kpoint 29">
       <r>    2.5150    1.0000 </r>
       <r>    4.2410    1.0000 </r>
       <r>    5.5654    1.0000 </r>
       <r>    8.1488    0.0000 </r>
       <r>   11.6129    0.0000 </r>
       <r>   13.1729    0.0000 </r>
       <r>   16.8250    0.0000 </r>
       <r>   19.8106    0.0000 </r>
       <r>   21.8360    0.0000 </r>
      </set>
      <set comment="kpoint 30">
       <r>    1.7109    1.0000 </r>
       <r>    3.2828    1.0000 </r>
       <r>    6.7250    0.0000 </r>
       <r>    9.9722    0.0000 </r>
       <r>   10.5422    0.0000 </r>
       <r>   11.6758    0.0000 </r>
       <r>   19.7950    0.0000 </r>
       <r>   20.3817    0.0000 </r>
       <r>   21.1902    0.0000 </r>
      </set>
      <set comment="kpoint 31">
       <r>    1.4867    1.0000 </r>
       <r>    4.0431    1.0000 </r>
       <r>    6.0205    0.9512 </r>
       <r>    8.6166    0.0000 </r>
       <r>    9.5343    0.0000 </r>
       <r>   11.6378    0.0000 </r>
       <r>   19.7964    0.0000 </r>
       <r>   20.5266    0.0000 </r>
       <r>   23.1915    0.0000 </r>
      </set>
      <set comment="kpoint 32">
       <r>    0.2009    1.0000 </r>
       <r>    4.5540    1.0000 </r>
       <r>    6.9600    0.0000 </r>
       <r>    8.0120    0.0000 </r>
       <r>    8.3506    0.0000 </r>
       <r>   10.5616    0.0000 </r>
       <r>   19.8050    0.0000 </r>
       <r>   21.9118    0.0000 </r>
       <r>   23.4225    0.0000 </r>
      </set>
      <set comment="kpoint 33">
       <r>   -0.8576    1.0000 </r>
       <r>    5.6172    1.0000 </r>
       <r>    6.9666    0.0000 </r>
       <r>    6.9666    0.0000 </r>
       <r>    9.3760    0.0000 </r>
       <r>    9.3760    0.0000 </r>
       <r>   19.7504    0.0000 </r>
       <r>   19.8362    0.0000 </r>
       <r>   21.6813    0.0000 </r>
      </set>
      <set comment="kpoint 34">
       <r>    0.1845    1.0000 </r>
       <r>    5.1022    1.0000 </r>
       <r>    6.7018    0.0000 </r>
       <r>    7.5018    0.0000 </r>
       <r>    8.4217    0.0000 </r>
       <r>   10.7381    0.0000 </r>
       <r>   19.7893    0.0000 </r>
       <r>   20.0127    0.0000 </r>
       <r>   22.8711    0.0000 </r>
      </set>
      <set comment="kpoint 35">
       <r>    1.8057    1.0000 </r>
       <r>    4.8518    1.0000 </r>
       <r>    5.7237    1.0000 </r>
       <r>    7.6464    0.0000 </r>
       <r>    8.9486    0.0000 </r>
       <r>   12.6521    0.0000 </r>
       <r>   19.1774    0.0000 </r>
       <r>   19.8214    0.0000 </r>
       <r>   22.2301    0.0000 </r>
      </set>
      <set comment="kpoint 36">
       <r>    2.5130    1.0000 </r>
       <r>    4.8373    1.0000 </r>
       <r>    5.8837    1.0000 </r>
       <r>    7.3391    0.0000 </r>
       <r>   10.8960    0.0000 </r>
       <r>   13.5664    0.0000 </r>
       <r>   16.7125    0.0000 </r>
       <r>   19.8109    0.0000 </r>
       <r>   21.1113    0.0000 </r>
      </set>
      <set comment="kpoint 37">
       <r>    2.3594    1.0000 </r>
       <r>    4.6059    1.0000 </r>
       <r>    5.9520    1.0069 </r>
       <r>    7.5131    0.0000 </r>
       <r>   12.2340    0.0000 </r>
       <r>   12.9631    0.0000 </r>
       <r>   16.0747    0.0000 </r>
       <r>   19.8105    0.0000 </r>
       <r>   20.9381    0.0000 </r>
      </set>
      <set comment="kpoint 38">
       <r>    1.6245    1.0000 </r>
       <r>    4.2958    1.0000 </r>
       <r>    5.9026    1.0001 </r>
       <r>    7.9626    0.0000 </r>
       <r>   10.4149    0.0000 </r>
       <r>   11.6620    0.0000 </r>
       <r>   19.2682    0.0000 </r>
       <r>   19.8211    0.0000 </r>
       <r>   22.3496    0.0000 </r>
      </set>
      <set comment="kpoint 39">
       <r>    0.7025    1.0000 </r>
       <r>    4.8058    1.0000 </r>
       <r>    6.4730    0.0000 </r>
       <r>    7.4268    0.0000 </r>
       <r>    9.4076    0.0000 </r>
       <r>   10.8745    0.0000 </r>
       <r>   19.4660    0.0000 </r>
       <r>   19.8178    0.0000 </r>
       <r>   23.0303    0.0000 </r>
      </set>
      <set comment="kpoint 40">
       <r>    2.0121    1.0000 </r>
       <r>    4.3851    1.0000 </r>
       <r>    5.5067    1.0000 </r>
       <r>    8.2667    0.0000 </r>
       <r>    9.5122    0.0000 </r>
       <r>   12.5987    0.0000 </r>
       <r>   19.2445    0.0000 </r>
       <r>   19.8242    0.0000 </r>
       <r>   22.4784    0.0000 </r>
      </set>
      <set comment="kpoint 41">
       <r>    3.3314    1.0000 </r>
       <r>    4.3061    1.0000 </r>
       <r>    4.8341    1.0000 </r>
       <r>    8.4310    0.0000 </r>
       <r>   10.6055    0.0000 </r>
       <r>   13.8268    0.0000 </r>
       <r>   17.6684    0.0000 </r>
       <r>   19.8113    0.0000 </r>
       <r>   20.6901    0.0000 </r>
      </set>
      <set comment="kpoint 42">
       <r>    3.3544    1.0000 </r>
       <r>    3.9607    1.0000 </r>
       <r>    5.5049    1.0000 </r>
       <r>    8.3099    0.0000 </r>
       <r>   11.5181    0.0000 </r>
       <r>   15.0616    0.0000 </r>
       <r>   15.3129    0.0000 </r>
       <r>   19.8084    0.0000 </r>
       <r>   21.2962    0.0000 </r>
      </set>
      <set comment="kpoint 43">
       <r>    2.6586    1.0000 </r>
       <r>    3.9937    1.0000 </r>
       <r>    5.2803    1.0000 </r>
       <r>    8.9504    0.0000 </r>
       <r>   10.6051    0.0000 </r>
       <r>   13.4069    0.0000 </r>
       <r>   17.9743    0.0000 </r>
       <r>   19.8125    0.0000 </r>
       <r>   21.1225    0.0000 </r>
      </set>
      <set comment="kpoint 44">
       <r>    2.2234    1.0000 </r>
       <r>    3.8091    1.0000 </r>
       <r>    5.8751    1.0000 </r>
       <r>    8.6861    0.0000 </r>
       <r>   11.8368    0.0000 </r>
       <r>   12.2394    0.0000 </r>
       <r>   17.8242    0.0000 </r>
       <r>   19.8113    0.0000 </r>
       <r>   22.0497    0.0000 </r>
      </set>
      <set comment="kpoint 45">
       <r>    2.7039    1.0000 </r>
       <r>    3.7008    1.0000 </r>
       <r>    5.8314    1.0000 </r>
       <r>    9.4545    0.0000 </r>
       <r>   11.6859    0.0000 </r>
       <r>   14.2201    0.0000 </r>
       <r>   16.8080    0.0000 </r>
       <r>   19.4859    0.0000 </r>
       <r>   19.8145    0.0000 </r>
      </set>
      <set comment="kpoint 46">
       <r>    3.1595    1.0000 </r>
       <r>    4.3346    1.0000 </r>
       <r>    5.3640    1.0000 </r>
       <r>    8.4016    0.0000 </r>
       <r>   12.5101    0.0000 </r>
       <r>   15.5964    0.0000 </r>
       <r>   16.3780    0.0000 </r>
       <r>   18.0775    0.0000 </r>
       <r>   19.8133    0.0000 </r>
      </set>
      <set comment="kpoint 47">
       <r>    3.3987    1.0000 </r>
       <r>    4.2599    1.0000 </r>
       <r>    4.9512    1.0000 </r>
       <r>    8.6374    0.0000 </r>
       <r>   11.6269    0.0000 </r>
       <r>   14.4882    0.0000 </r>
       <r>   17.0338    0.0000 </r>
       <r>   19.3580    0.0000 </r>
       <r>   19.8161    0.0000 </r>
      </set>
      <set comment="kpoint 48">
       <r>    2.2232    1.0000 </r>
       <r>    3.2658    1.0000 </r>
       <r>    7.2267    0.0000 </r>
       <r>   10.2188    0.0000 </r>
       <r>   12.2348    0.0000 </r>
       <r>   14.5818    0.0000 </r>
       <r>   15.2637    0.0000 </r>
       <r>   19.7890    0.0000 </r>
       <r>   20.2546    0.0000 </r>
      </set>
      <set comment="kpoint 49">
       <r>    2.5611    1.0000 </r>
       <r>    3.5558    1.0000 </r>
       <r>    6.5377    0.0000 </r>
       <r>    9.4432    0.0000 </r>
       <r>   12.5247    0.0000 </r>
       <r>   15.2332    0.0000 </r>
       <r>   15.9101    0.0000 </r>
       <r>   18.2884    0.0000 </r>
       <r>   19.8111    0.0000 </r>
      </set>
      <set comment="kpoint 50">
       <r>    2.3144    1.0000 </r>
       <r>    3.4448    1.0000 </r>
       <r>    6.5290    0.0000 </r>
       <r>    9.5166    0.0000 </r>
       <r>   12.4182    0.0000 </r>
       <r>   13.4752    0.0000 </r>
       <r>   16.0945    0.0000 </r>
       <r>   19.8068    0.0000 </r>
       <r>   20.8310    0.0000 </r>
      </set>
      <set comment="kpoint 51">
       <r>    0.6698    1.0000 </r>
       <r>    5.4329    1.0000 </r>
       <r>    6.7372    0.0000 </r>
       <r>    6.7372    0.0000 </r>
       <r>   10.3672    0.0000 </r>
       <r>   10.3672    0.0000 </r>
       <r>   17.8678    0.0000 </r>
       <r>   19.8063    0.0000 </r>
       <r>   21.9848    0.0000 </r>
      </set>
      <set comment="kpoint 52">
       <r>    1.5707    1.0000 </r>
       <r>    5.2978    1.0000 </r>
       <r>    6.0034    1.0269 </r>
       <r>    7.0020    0.0000 </r>
       <r>    9.9412    0.0000 </r>
       <r>   12.3985    0.0000 </r>
       <r>   18.0949    0.0000 </r>
       <r>   19.8098    0.0000 </r>
       <r>   20.9996    0.0000 </r>
      </set>
      <set comment="kpoint 53">
       <r>    3.1232    1.0000 </r>
       <r>    4.5473    1.0000 </r>
       <r>    5.1976    1.0000 </r>
       <r>    7.9490    0.0000 </r>
       <r>   10.0793    0.0000 </r>
       <r>   13.6081    0.0000 </r>
       <r>   17.9895    0.0000 </r>
       <r>   19.8123    0.0000 </r>
       <r>   21.1419    0.0000 </r>
      </set>
      <set comment="kpoint 54">
       <r>    3.0742    1.0000 </r>
       <r>    3.9667    1.0000 </r>
       <r>    5.9428    1.0035 </r>
       <r>    8.8271    0.0000 </r>
       <r>   11.2672    0.0000 </r>
       <r>   13.3815    0.0000 </r>
       <r>   17.4661    0.0000 </r>
       <r>   19.7802    0.0000 </r>
       <r>   19.9708    0.0000 </r>
      </set>
      <set comment="kpoint 55">
       <r>    1.7281    1.0000 </r>
       <r>    5.2427    1.0000 </r>
       <r>    6.0560    0.4713 </r>
       <r>    7.0038    0.0000 </r>
       <r>   11.5716    0.0000 </r>
       <r>   12.0599    0.0000 </r>
       <r>   17.2269    0.0000 </r>
       <r>   19.8074    0.0000 </r>
       <r>   20.2400    0.0000 </r>
      </set>
      <set comment="kpoint 56">
       <r>    2.8051    1.0000 </r>
       <r>    4.4356    1.0000 </r>
       <r>    5.5993    1.0000 </r>
       <r>    7.7971    0.0000 </r>
       <r>   11.2820    0.0000 </r>
       <r>   13.8669    0.0000 </r>
       <r>   16.2916    0.0000 </r>
       <r>   19.8104    0.0000 </r>
       <r>   21.5906    0.0000 </r>
      </set>
      <set comment="kpoint 57">
       <r>    3.3959    1.0000 </r>
       <r>    4.0606    1.0000 </r>
       <r>    5.4219    1.0000 </r>
       <r>    8.5238    0.0000 </r>
       <r>   11.6763    0.0000 </r>
       <r>   14.2959    0.0000 </r>
       <r>   17.0773    0.0000 </r>
       <r>   19.4236    0.0000 </r>
       <r>   19.8226    0.0000 </r>
      </set>
      <set comment="kpoint 58">
       <r>    2.8728    1.0000 </r>
       <r>    4.1187    1.0000 </r>
       <r>    5.9236    1.0007 </r>
       <r>    8.1939    0.0000 </r>
       <r>   11.8434    0.0000 </r>
       <r>   13.8409    0.0000 </r>
       <r>   15.7693    0.0000 </r>
       <r>   19.8089    0.0000 </r>
       <r>   21.3772    0.0000 </r>
      </set>
      <set comment="kpoint 59">
       <r>    1.2919    1.0000 </r>
       <r>    6.3371    0.0000 </r>
       <r>    6.3371    0.0000 </r>
       <r>    6.5750    0.0000 </r>
       <r>   11.8375    0.0000 </r>
       <r>   11.8375    0.0000 </r>
       <r>   16.7651    0.0000 </r>
       <r>   18.7601    0.0000 </r>
       <r>   19.8139    0.0000 </r>
      </set>
      <set comment="kpoint 60">
       <r>    1.8998    1.0000 </r>
       <r>    5.3623    1.0000 </r>
       <r>    6.5384    0.0000 </r>
       <r>    6.7681    0.0000 </r>
       <r>   11.7295    0.0000 </r>
       <r>   13.0464    0.0000 </r>
       <r>   16.1587    0.0000 </r>
       <r>   19.6212    0.0000 </r>
       <r>   19.8112    0.0000 </r>
      </set>
     </set>
     <set comment="spin 2">
      <set comment="kpoint 1">
       <r>   -2.0144    1.0000 </r>
       <r>    6.3826    0.0000 </r>
       <r>    6.6041    0.0000 </r>
       <r>    6.6041    0.0000 </r>
       <r>    9.5800    0.0000 </r>
       <r>    9.5800    0.0000 </r>
       <r>   18.9922    0.0000 </r>
       <r>   19.8093    0.0000 </r>
       <r>   22.8423    0.0000 </r>
      </set>
      <set comment="kpoint 2">
       <r>   -1.2075    1.0000 </r>
       <r>    5.7666    1.0000 </r>
       <r>    6.9225    0.0000 </r>
       <r>    6.9534    0.0000 </r>
       <r>    8.9694    0.0000 </r>
       <r>    9.7081    0.0000 </r>
       <r>   19.8080    0.0000 </r>
       <r>   20.4126    0.0000 </r>
       <r>   21.2967    0.0000 </r>
      </set>
      <set comment="kpoint 3">
       <r>    0.3512    1.0000 </r>
       <r>    5.2342    1.0000 </r>
       <r>    6.7801    0.0000 </r>
       <r>    7.0101    0.0000 </r>
       <r>    9.3348    0.0000 </r>
       <r>   10.5404    0.0000 </r>
       <r>   18.7323    0.0000 </r>
       <r>   19.8117    0.0000 </r>
       <r>   22.7587    0.0000 </r>
      </set>
      <set comment="kpoint 4">
       <r>    1.3474    1.0000 </r>
       <r>    5.9340    1.0017 </r>
       <r>    6.3539    0.0000 </r>
       <r>    6.5410    0.0000 </r>
       <r>   11.0094    0.0000 </r>
       <r>   12.0150    0.0000 </r>
       <r>   17.1659    0.0000 </r>
       <r>   19.7167    0.0000 </r>
       <r>   19.8581    0.0000 </r>
      </set>
      <set comment="kpoint 5">
       <r>    1.4782    1.0000 </r>
       <r>    5.9677    1.0171 </r>
       <r>    6.4224    0.0000 </r>
       <r>    6.8085    0.0000 </r>
       <r>   12.1256    0.0000 </r>
       <r>   12.2307    0.0000 </r>
       <r>   16.4767    0.0000 </r>
       <r>   18.6273    0.0000 </r>
       <r>   19.8146    0.0000 </r>
      </set>
      <set comment="kpoint 6">
       <r>    1.1431    1.0000 </r>
       <r>    5.5490    1.0000 </r>
       <r>    6.3994    0.0000 </r>
       <r>    6.7408    0.0000 </r>
       <r>   10.6515    0.0000 </r>
       <r>   11.3580    0.0000 </r>
       <r>   17.6224    0.0000 </r>
       <r>   19.8072    0.0000 </r>
       <r>   20.8395    0.0000 </r>
      </set>
      <set comment="kpoint 7">
       <r>   -0.1854    1.0000 </r>
       <r>    5.2798    1.0000 </r>
       <r>    6.9412    0.0000 </r>
       <r>    7.1047    0.0000 </r>
       <r>    9.0697    0.0000 </r>
       <r>   10.0667    0.0000 </r>
       <r>   19.3912    0.0000 </r>
       <r>   19.8153    0.0000 </r>
       <r>   22.5896    0.0000 </r>
      </set>
      <set comment="kpoint 8">
       <r>   -1.5986    1.0000 </r>
       <r>    5.9841    1.0317 </r>
       <r>    6.8288    0.0000 </r>
       <r>    6.8425    0.0000 </r>
       <r>    9.0494    0.0000 </r>
       <r>    9.7580    0.0000 </r>
       <r>   19.8088    0.0000 </r>
       <r>   19.8436    0.0000 </r>
       <r>   22.0660    0.0000 </r>
      </set>
      <set comment="kpoint 9">
       <r>   -0.8171    1.0000 </r>
       <r>    5.3092    1.0000 </r>
       <r>    7.2334    0.0000 </r>
       <r>    7.3158    0.0000 </r>
       <r>    8.2562    0.0000 </r>
       <r>   10.0977    0.0000 </r>
       <r>   19.8085    0.0000 </r>
       <r>   21.3045    0.0000 </r>
       <r>   21.8525    0.0000 </r>
      </set>
      <set comment="kpoint 10">
       <r>    0.5087    1.0000 </r>
       <r>    4.6521    1.0000 </r>
       <r>    6.5730    0.0000 </r>
       <r>    7.9029    0.0000 </r>
       <r>    8.6658    0.0000 </r>
       <r>   10.8580    0.0000 </r>
       <r>   19.8048    0.0000 </r>
       <r>   20.6956    0.0000 </r>
       <r>   23.5685    0.0000 </r>
      </set>
      <set comment="kpoint 11">
       <r>    1.8673    1.0000 </r>
       <r>    4.7444    1.0000 </r>
       <r>    5.7341    1.0000 </r>
       <r>    7.5350    0.0000 </r>
       <r>   10.5991    0.0000 </r>
       <r>   12.3463    0.0000 </r>
       <r>   18.1793    0.0000 </r>
       <r>   19.8152    0.0000 </r>
       <r>   21.3769    0.0000 </r>
      </set>
      <set comment="kpoint 12">
       <r>    2.2735    1.0000 </r>
       <r>    4.8821    1.0000 </r>
       <r>    6.2540    0.0000 </r>
       <r>    7.1728    0.0000 </r>
       <r>   11.8417    0.0000 </r>
       <r>   13.4303    0.0000 </r>
       <r>   15.8253    0.0000 </r>
       <r>   19.8135    0.0000 </r>
       <r>   20.4345    0.0000 </r>
      </set>
      <set comment="kpoint 13">
       <r>    2.1665    1.0000 </r>
       <r>    5.0925    1.0000 </r>
       <r>    5.6852    1.0000 </r>
       <r>    7.2698    0.0000 </r>
       <r>   10.5734    0.0000 </r>
       <r>   13.1904    0.0000 </r>
       <r>   17.3366    0.0000 </r>
       <r>   19.8144    0.0000 </r>
       <r>   20.9035    0.0000 </r>
      </set>
      <set comment="kpoint 14">
       <r>    1.0716    1.0000 </r>
       <r>    4.7828    1.0000 </r>
       <r>    6.1863   -0.0006 </r>
       <r>    7.7755    0.0000 </r>
       <r>    8.6831    0.0000 </r>
       <r>   11.6620    0.0000 </r>
       <r>   19.7492    0.0000 </r>
       <r>   19.9071    0.0000 </r>
       <r>   23.2035    0.0000 </r>
      </set>
      <set comment="kpoint 15">
       <r>   -0.4693    1.0000 </r>
       <r>    5.2722    1.0000 </r>
       <r>    6.9799    0.0000 </r>
       <r>    7.3383    0.0000 </r>
       <r>    8.5134    0.0000 </r>
       <r>   10.1593    0.0000 </r>
       <r>   19.8064    0.0000 </r>
       <r>   20.5609    0.0000 </r>
       <r>   22.0417    0.0000 </r>
      </set>
      <set comment="kpoint 16">
       <r>    1.1917    1.0000 </r>
       <r>    3.8562    1.0000 </r>
       <r>    6.4562    0.0000 </r>
       <r>    8.9192    0.0000 </r>
       <r>    9.3151    0.0000 </r>
       <r>   11.1150    0.0000 </r>
       <r>   19.8066    0.0000 </r>
       <r>   21.9667    0.0000 </r>
       <r>   23.1423    0.0000 </r>
      </set>
      <set comment="kpoint 17">
       <r>    2.0561    1.0000 </r>
       <r>    3.5341    1.0000 </r>
       <r>    6.1082   -0.0315 </r>
       <r>    9.4850    0.0000 </r>
       <r>   10.7101    0.0000 </r>
       <r>   12.4219    0.0000 </r>
       <r>   19.0396    0.0000 </r>
       <r>   19.8209    0.0000 </r>
       <r>   21.2787    0.0000 </r>
      </set>
      <set comment="kpoint 18">
       <r>    2.7759    1.0000 </r>
       <r>    3.8637    1.0000 </r>
       <r>    5.8977    1.0000 </r>
       <r>    8.8432    0.0000 </r>
       <r>   11.9475    0.0000 </r>
       <r>   14.4146    0.0000 </r>
       <r>   15.4850    0.0000 </r>
       <r>   19.8105    0.0000 </r>
       <r>   21.2635    0.0000 </r>
      </set>
      <set comment="kpoint 19">
       <r>    3.4918    1.0000 </r>
       <r>    4.0602    1.0000 </r>
       <r>    5.3894    1.0000 </r>
       <r>    8.3520    0.0000 </r>
       <r>   10.8123    0.0000 </r>
       <r>   13.5509    0.0000 </r>
       <r>   17.8985    0.0000 </r>
       <r>   19.8084    0.0000 </r>
       <r>   20.0980    0.0000 </r>
      </set>
      <set comment="kpoint 20">
       <r>    2.6151    1.0000 </r>
       <r>    4.7800    1.0000 </r>
       <r>    5.0872    1.0000 </r>
       <r>    7.9195    0.0000 </r>
       <r>    9.6436    0.0000 </r>
       <r>   13.4275    0.0000 </r>
       <r>   18.3291    0.0000 </r>
       <r>   19.8174    0.0000 </r>
       <r>   22.1795    0.0000 </r>
      </set>
      <set comment="kpoint 21">
       <r>    1.0744    1.0000 </r>
       <r>    5.0723    1.0000 </r>
       <r>    6.3122    0.0000 </r>
       <r>    7.1336    0.0000 </r>
       <r>    9.7121    0.0000 </r>
       <r>   11.4593    0.0000 </r>
       <r>   18.6035    0.0000 </r>
       <r>   19.8123    0.0000 </r>
       <r>   22.0226    0.0000 </r>
      </set>
      <set comment="kpoint 22">
       <r>    1.7267    1.0000 </r>
       <r>    2.8855    1.0000 </r>
       <r>    7.7441    0.0000 </r>
       <r>   11.0363    0.0000 </r>
       <r>   11.9062    0.0000 </r>
       <r>   12.2106    0.0000 </r>
       <r>   18.3930    0.0000 </r>
       <r>   19.3127    0.0000 </r>
       <r>   19.8026    0.0000 </r>
      </set>
      <set comment="kpoint 23">
       <r>    1.9602    1.0000 </r>
       <r>    2.9828    1.0000 </r>
       <r>    7.7664    0.0000 </r>
       <r>   10.7831    0.0000 </r>
       <r>   12.5811    0.0000 </r>
       <r>   14.1045    0.0000 </r>
       <r>   16.1499    0.0000 </r>
       <r>   18.3481    0.0000 </r>
       <r>   19.8018    0.0000 </r>
      </set>
      <set comment="kpoint 24">
       <r>    2.7437    1.0000 </r>
       <r>    3.7272    1.0000 </r>
       <r>    6.3484    0.0000 </r>
       <r>    9.2965    0.0000 </r>
       <r>   11.8774    0.0000 </r>
       <r>   14.1840    0.0000 </r>
       <r>   16.3211    0.0000 </r>
       <r>   19.7515    0.0000 </r>
       <r>   19.9281    0.0000 </r>
      </set>
      <set comment="kpoint 25">
       <r>    2.9313    1.0000 </r>
       <r>    4.3328    1.0000 </r>
       <r>    5.8541    1.0000 </r>
       <r>    7.7864    0.0000 </r>
       <r>   11.3811    0.0000 </r>
       <r>   13.8814    0.0000 </r>
       <r>   16.1223    0.0000 </r>
       <r>   19.8126    0.0000 </r>
       <r>   21.4017    0.0000 </r>
      </set>
      <set comment="kpoint 26">
       <r>    1.7253    1.0000 </r>
       <r>    5.5527    1.0000 </r>
       <r>    6.3894    0.0000 </r>
       <r>    6.7265    0.0000 </r>
       <r>   11.5521    0.0000 </r>
       <r>   12.6696    0.0000 </r>
       <r>   16.6340    0.0000 </r>
       <r>   19.5336    0.0000 </r>
       <r>   19.8171    0.0000 </r>
      </set>
      <set comment="kpoint 27">
       <r>    1.6156    1.0000 </r>
       <r>    2.6809    1.0000 </r>
       <r>    8.7024    0.0000 </r>
       <r>   11.7209    0.0000 </r>
       <r>   12.6728    0.0000 </r>
       <r>   13.0502    0.0000 </r>
       <r>   16.9674    0.0000 </r>
       <r>   18.0219    0.0000 </r>
       <r>   19.5213    0.0000 </r>
      </set>
      <set comment="kpoint 28">
       <r>    2.0779    1.0000 </r>
       <r>    3.1699    1.0000 </r>
       <r>    6.9288    0.0000 </r>
       <r>   10.3289    0.0000 </r>
       <r>   11.8638    0.0000 </r>
       <r>   13.2292    0.0000 </r>
       <r>   17.3259    0.0000 </r>
       <r>   19.5134    0.0000 </r>
       <r>   19.8134    0.0000 </r>
      </set>
      <set comment="kpoint 29">
       <r>    2.5185    1.0000 </r>
       <r>    4.2450    1.0000 </r>
       <r>    5.5683    1.0000 </r>
       <r>    8.1532    0.0000 </r>
       <r>   11.6164    0.0000 </r>
       <r>   13.1764    0.0000 </r>
       <r>   16.8290    0.0000 </r>
       <r>   19.8135    0.0000 </r>
       <r>   21.8238    0.0000 </r>
      </set>
      <set comment="kpoint 30">
       <r>    1.7160    1.0000 </r>
       <r>    3.2849    1.0000 </r>
       <r>    6.7284    0.0000 </r>
       <r>    9.9756    0.0000 </r>
       <r>   10.5451    0.0000 </r>
       <r>   11.6803    0.0000 </r>
       <r>   19.7979    0.0000 </r>
       <r>   20.3861    0.0000 </r>
       <r>   21.1946    0.0000 </r>
      </set>
      <set comment="kpoint 31">
       <r>    1.4909    1.0000 </r>
       <r>    4.0454    1.0000 </r>
       <r>    6.0248    0.9152 </r>
       <r>    8.6203    0.0000 </r>
       <r>    9.5377    0.0000 </r>
       <r>   11.6419    0.0000 </r>
       <r>   19.7992    0.0000 </r>
       <r>   20.5317    0.0000 </r>
       <r>   23.1940    0.0000 </r>
      </set>
      <set comment="kpoint 32">
       <r>    0.2048    1.0000 </r>
       <r>    4.5564    1.0000 </r>
       <r>    6.9647    0.0000 </r>
       <r>    8.0151    0.0000 </r>
       <r>    8.3538    0.0000 </r>
       <r>   10.5666    0.0000 </r>
       <r>   19.8079    0.0000 </r>
       <r>   21.9172    0.0000 </r>
       <r>   23.4224    0.0000 </r>
      </set>
      <set comment="kpoint 33">
       <r>   -0.8538    1.0000 </r>
       <r>    5.6199    1.0000 </r>
       <r>    6.9698    0.0000 </r>
       <r>    6.9698    0.0000 </r>
       <r>    9.3809    0.0000 </r>
       <r>    9.3809    0.0000 </r>
       <r>   19.7542    0.0000 </r>
       <r>   19.8397    0.0000 </r>
       <r>   21.6823    0.0000 </r>
      </set>
      <set comment="kpoint 34">
       <r>    0.1882    1.0000 </r>
       <r>    5.1046    1.0000 </r>
       <r>    6.7058    0.0000 </r>
       <r>    7.5053    0.0000 </r>
       <r>    8.4263    0.0000 </r>
       <r>   10.7423    0.0000 </r>
       <r>   19.7923    0.0000 </r>
       <r>   20.0181    0.0000 </r>
       <r>   22.8714    0.0000 </r>
      </set>
      <set comment="kpoint 35">
       <r>    1.8092    1.0000 </r>
       <r>    4.8542    1.0000 </r>
       <r>    5.7284    1.0000 </r>
       <r>    7.6513    0.0000 </r>
       <r>    8.9519    0.0000 </r>
       <r>   12.6558    0.0000 </r>
       <r>   19.1824    0.0000 </r>
       <r>   19.8243    0.0000 </r>
       <r>   22.2330    0.0000 </r>
      </set>
      <set comment="kpoint 36">
       <r>    2.5156    1.0000 </r>
       <r>    4.8429    1.0000 </r>
       <r>    5.8861    1.0000 </r>
       <r>    7.3438    0.0000 </r>
       <r>   10.8993    0.0000 </r>
       <r>   13.5701    0.0000 </r>
       <r>   16.7165    0.0000 </r>
       <r>   19.8138    0.0000 </r>
       <r>   21.1144    0.0000 </r>
      </set>
      <set comment="kpoint 37">
       <r>    2.3622    1.0000 </r>
       <r>    4.6110    1.0000 </r>
       <r>    5.9546    1.0082 </r>
       <r>    7.5175    0.0000 </r>
       <r>   12.2375    0.0000 </r>
       <r>   12.9670    0.0000 </r>
       <r>   16.0784    0.0000 </r>
       <r>   19.8134    0.0000 </r>
       <r>   20.9417    0.0000 </r>
      </set>
      <set comment="kpoint 38">
       <r>    1.6284    1.0000 </r>
       <r>    4.2985    1.0000 </r>
       <r>    5.9068    1.0001 </r>
       <r>    7.9665    0.0000 </r>
       <r>   10.4184    0.0000 </r>
       <r>   11.6661    0.0000 </r>
       <r>   19.2731    0.0000 </r>
       <r>   19.8241    0.0000 </r>
       <r>   22.3523    0.0000 </r>
      </set>
      <set comment="kpoint 39">
       <r>    0.7061    1.0000 </r>
       <r>    4.8084    1.0000 </r>
       <r>    6.4774    0.0000 </r>
       <r>    7.4305    0.0000 </r>
       <r>    9.4113    0.0000 </r>
       <r>   10.8789    0.0000 </r>
       <r>   19.4713    0.0000 </r>
       <r>   19.8208    0.0000 </r>
       <r>   23.0315    0.0000 </r>
      </set>
      <set comment="kpoint 40">
       <r>    2.0159    1.0000 </r>
       <r>    4.3875    1.0000 </r>
       <r>    5.5111    1.0000 </r>
       <r>    8.2712    0.0000 </r>
       <r>    9.5155    0.0000 </r>
       <r>   12.6024    0.0000 </r>
       <r>   19.2492    0.0000 </r>
       <r>   19.8272    0.0000 </r>
       <r>   22.4818    0.0000 </r>
      </set>
      <set comment="kpoint 41">
       <r>    3.3351    1.0000 </r>
       <r>    4.3106    1.0000 </r>
       <r>    4.8364    1.0000 </r>
       <r>    8.4360    0.0000 </r>
       <r>   10.6084    0.0000 </r>
       <r>   13.8303    0.0000 </r>
       <r>   17.6727    0.0000 </r>
       <r>   19.8142    0.0000 </r>
       <r>   20.6934    0.0000 </r>
      </set>
      <set comment="kpoint 42">
       <r>    3.3578    1.0000 </r>
       <r>    3.9654    1.0000 </r>
       <r>    5.5071    1.0000 </r>
       <r>    8.3146    0.0000 </r>
       <r>   11.5211    0.0000 </r>
       <r>   15.0654    0.0000 </r>
       <r>   15.3165    0.0000 </r>
       <r>   19.8113    0.0000 </r>
       <r>   21.2996    0.0000 </r>
      </set>
      <set comment="kpoint 43">
       <r>    2.6631    1.0000 </r>
       <r>    3.9962    1.0000 </r>
       <r>    5.2838    1.0000 </r>
       <r>    8.9550    0.0000 </r>
       <r>   10.6082    0.0000 </r>
       <r>   13.4104    0.0000 </r>
       <r>   17.9785    0.0000 </r>
       <r>   19.8154    0.0000 </r>
       <r>   21.1263    0.0000 </r>
      </set>
      <set comment="kpoint 44">
       <r>    2.2278    1.0000 </r>
       <r>    3.8119    1.0000 </r>
       <r>    5.8784    1.0000 </r>
       <r>    8.6902    0.0000 </r>
       <r>   11.8402    0.0000 </r>
       <r>   12.2432    0.0000 </r>
       <r>   17.8284    0.0000 </r>
       <r>   19.8142    0.0000 </r>
       <r>   22.1212    0.0000 </r>
      </set>
      <set comment="kpoint 45">
       <r>    2.7094    1.0000 </r>
       <r>    3.7030    1.0000 </r>
       <r>    5.8340    1.0000 </r>
       <r>    9.4594    0.0000 </r>
       <r>   11.6887    0.0000 </r>
       <r>   14.2232    0.0000 </r>
       <r>   16.8121    0.0000 </r>
       <r>   19.4897    0.0000 </r>
       <r>   19.8174    0.0000 </r>
      </set>
      <set comment="kpoint 46">
       <r>    3.1654    1.0000 </r>
       <r>    4.3367    1.0000 </r>
       <r>    5.3661    1.0000 </r>
       <r>    8.4066    0.0000 </r>
       <r>   12.5127    0.0000 </r>
       <r>   15.6003    0.0000 </r>
       <r>   16.3814    0.0000 </r>
       <r>   18.0811    0.0000 </r>
       <r>   19.8162    0.0000 </r>
      </set>
      <set comment="kpoint 47">
       <r>    3.4043    1.0000 </r>
       <r>    4.2624    1.0000 </r>
       <r>    4.9535    1.0000 </r>
       <r>    8.6423    0.0000 </r>
       <r>   11.6296    0.0000 </r>
       <r>   14.4918    0.0000 </r>
       <r>   17.0377    0.0000 </r>
       <r>   19.3615    0.0000 </r>
       <r>   19.8191    0.0000 </r>
      </set>
      <set comment="kpoint 48">
       <r>    2.2287    1.0000 </r>
       <r>    3.2683    1.0000 </r>
       <r>    7.2288    0.0000 </r>
       <r>   10.2237    0.0000 </r>
       <r>   12.2375    0.0000 </r>
       <r>   14.5858    0.0000 </r>
       <r>   15.2666    0.0000 </r>
       <r>   19.7919    0.0000 </r>
       <r>   20.3150    0.0000 </r>
      </set>
      <set comment="kpoint 49">
       <r>    2.5669    1.0000 </r>
       <r>    3.5579    1.0000 </r>
       <r>    6.5399    0.0000 </r>
       <r>    9.4482    0.0000 </r>
       <r>   12.5273    0.0000 </r>
       <r>   15.2361    0.0000 </r>
       <r>   15.9142    0.0000 </r>
       <r>   18.2924    0.0000 </r>
       <r>   19.8140    0.0000 </r>
      </set>
      <set comment="kpoint 50">
       <r>    2.3195    1.0000 </r>
       <r>    3.4475    1.0000 </r>
       <r>    6.5316    0.0000 </r>
       <r>    9.5211    0.0000 </r>
       <r>   12.4215    0.0000 </r>
       <r>   13.4784    0.0000 </r>
       <r>   16.0985    0.0000 </r>
       <r>   19.8097    0.0000 </r>
       <r>   20.8377    0.0000 </r>
      </set>
      <set comment="kpoint 51">
       <r>    0.6731    1.0000 </r>
       <r>    5.4360    1.0000 </r>
       <r>    6.7412    0.0000 </r>
       <r>    6.7412    0.0000 </r>
       <r>   10.3713    0.0000 </r>
       <r>   10.3713    0.0000 </r>
       <r>   17.8729    0.0000 </r>
       <r>   19.8092    0.0000 </r>
       <r>   21.9862    0.0000 </r>
      </set>
      <set comment="kpoint 52">
       <r>    1.5738    1.0000 </r>
       <r>    5.3011    1.0000 </r>
       <r>    6.0075    1.0171 </r>
       <r>    7.0065    0.0000 </r>
       <r>    9.9449    0.0000 </r>
       <r>   12.4023    0.0000 </r>
       <r>   18.0998    0.0000 </r>
       <r>   19.8127    0.0000 </r>
       <r>   21.0019    0.0000 </r>
      </set>
      <set comment="kpoint 53">
       <r>    3.1260    1.0000 </r>
       <r>    4.5529    1.0000 </r>
       <r>    5.1998    1.0000 </r>
       <r>    7.9541    0.0000 </r>
       <r>   10.0822    0.0000 </r>
       <r>   13.6118    0.0000 </r>
       <r>   17.9939    0.0000 </r>
       <r>   19.8152    0.0000 </r>
       <r>   21.1449    0.0000 </r>
      </set>
      <set comment="kpoint 54">
       <r>    3.0783    1.0000 </r>
       <r>    3.9707    1.0000 </r>
       <r>    5.9449    1.0042 </r>
       <r>    8.8322    0.0000 </r>
       <r>   11.2700    0.0000 </r>
       <r>   13.3855    0.0000 </r>
       <r>   17.4693    0.0000 </r>
       <r>   19.7831    0.0000 </r>
       <r>   19.9749    0.0000 </r>
      </set>
      <set comment="kpoint 55">
       <r>    1.7310    1.0000 </r>
       <r>    5.2473    1.0000 </r>
       <r>    6.0592    0.4175 </r>
       <r>    7.0080    0.0000 </r>
       <r>   11.5754    0.0000 </r>
       <r>   12.0636    0.0000 </r>
       <r>   17.2312    0.0000 </r>
       <r>   19.8103    0.0000 </r>
       <r>   20.2427    0.0000 </r>
      </set>
      <set comment="kpoint 56">
       <r>    2.8079    1.0000 </r>
       <r>    4.4410    1.0000 </r>
       <r>    5.6017    1.0000 </r>
       <r>    7.8017    0.0000 </r>
       <r>   11.2853    0.0000 </r>
       <r>   13.8705    0.0000 </r>
       <r>   16.2955    0.0000 </r>
       <r>   19.8133    0.0000 </r>
       <r>   21.5922    0.0000 </r>
      </set>
      <set comment="kpoint 57">
       <r>    3.4013    1.0000 </r>
       <r>    4.0634    1.0000 </r>
       <r>    5.4240    1.0000 </r>
       <r>    8.5288    0.0000 </r>
       <r>   11.6790    0.0000 </r>
       <r>   14.2998    0.0000 </r>
       <r>   17.0807    0.0000 </r>
       <r>   19.4272    0.0000 </r>
       <r>   19.8256    0.0000 </r>
      </set>
      <set comment="kpoint 58">
       <r>    2.8760    1.0000 </r>
       <r>    4.1235    1.0000 </r>
       <r>    5.9259    1.0009 </r>
       <r>    8.1986    0.0000 </r>
       <r>   11.8466    0.0000 </r>
       <r>   13.8449    0.0000 </r>
       <r>   15.7727    0.0000 </r>
       <r>   19.8117    0.0000 </r>
       <r>   21.3811    0.0000 </r>
      </set>
      <set comment="kpoint 59">
       <r>    1.2946    1.0000 </r>
       <r>    6.3415    0.0000 </r>
       <r>    6.3415    0.0000 </r>
       <r>    6.5791    0.0000 </r>
       <r>   11.8412    0.0000 </r>
       <r>   11.8412    0.0000 </r>
       <r>   16.7690    0.0000 </r>
       <r>   18.7626    0.0000 </r>
       <r>   19.8168    0.0000 </r>
      </set>
      <set comment="kpoint 60">
       <r>    1.9023    1.0000 </r>
       <r>    5.3677    1.0000 </r>
       <r>    6.5414    0.0000 </r>
       <r>    6.7726    0.0000 </r>
       <r>   11.7330    0.0000 </r>
       <r>   13.0503    0.0000 </r>
       <r>   16.1623    0.0000 </r>
       <r>   19.6243    0.0000 </r>
       <r>   19.8141    0.0000 </r>
      </set>
     </set>
    </set>
   </array>
  </eigenvalues>
  <separator name="orbital magnetization" >
   <v name="MAGDIPOLOUT">      0.00000000      0.00000000      0.00000000</v>
  </separator>
  <dos>
   <i name="efermi">      6.05429381 </i>
   <total>
    <array>
     <dimension dim="1">gridpoints</dimension>
     <dimension dim="2">spin</dimension>
     <field>energy</field>
     <field>total</field>
     <field>integrated</field>
     <set>
      <set comment="spin 1">
       <r>    -3.2975     0.0000     0.0000 </r>
       <r>    -3.2037     0.0000     0.0000 </r>
       <r>    -3.1099     0.0000     0.0000 </r>
       <r>    -3.0161     0.0000     0.0000 </r>
       <r>    -2.9223     0.0000     0.0000 </r>
       <r>    -2.8285     0.0000     0.0000 </r>
       <r>    -2.7346     0.0000     0.0000 </r>
       <r>    -2.6408     0.0000     0.0000 </r>
       <r>    -2.5470     0.0000     0.0000 </r>
       <r>    -2.4532     0.0000     0.0000 </r>
       <r>    -2.3594     0.0000     0.0000 </r>
       <r>    -2.2656     0.0000     0.0000 </r>
       <r>    -2.1717     0.0000     0.0000 </r>
       <r>    -2.0779    -0.0015    -0.0001 </r>
       <r>    -1.9841     0.0412     0.0037 </r>
       <r>    -1.8903     0.0020     0.0039 </r>
       <r>    -1.7965     0.0000     0.0039 </r>
       <r>    -1.7026    -0.0010     0.0038 </r>
       <r>    -1.6088     0.0501     0.0085 </r>
       <r>    -1.5150     0.0779     0.0158 </r>
       <r>    -1.4212    -0.0021     0.0156 </r>
       <r>    -1.3274    -0.0003     0.0156 </r>
       <r>    -1.2336     0.0205     0.0175 </r>
       <r>    -1.1397     0.1085     0.0277 </r>
       <r>    -1.0459    -0.0038     0.0273 </r>
       <r>    -0.9521    -0.0005     0.0273 </r>
       <r>    -0.8583     0.0239     0.0295 </r>
       <r>    -0.7645     0.1479     0.0434 </r>
       <r>    -0.6706    -0.0047     0.0430 </r>
       <r>    -0.5768    -0.0016     0.0428 </r>
       <r>    -0.4830     0.0854     0.0508 </r>
       <r>    -0.3892     0.1708     0.0669 </r>
       <r>    -0.2954    -0.0055     0.0663 </r>
       <r>    -0.2016     0.0376     0.0699 </r>
       <r>    -0.1077     0.0907     0.0784 </r>
       <r>    -0.0139    -0.0027     0.0781 </r>
       <r>     0.0799    -0.0009     0.0780 </r>
       <r>     0.1737     0.0545     0.0832 </r>
       <r>     0.2675     0.2001     0.1019 </r>
       <r>     0.3614     0.0864     0.1100 </r>
       <r>     0.4552     0.0291     0.1128 </r>
       <r>     0.5490     0.2573     0.1369 </r>
       <r>     0.6428    -0.0018     0.1367 </r>
       <r>     0.7366     0.1620     0.1519 </r>
       <r>     0.8304     0.0045     0.1524 </r>
       <r>     0.9243    -0.0002     0.1523 </r>
       <r>     1.0181    -0.0139     0.1510 </r>
       <r>     1.1119     0.5229     0.2001 </r>
       <r>     1.2057     0.2179     0.2205 </r>
       <r>     1.2995     0.0477     0.2250 </r>
       <r>     1.3933     0.1389     0.2380 </r>
       <r>     1.4872     0.2128     0.2580 </r>
       <r>     1.5810     0.2622     0.2826 </r>
       <r>     1.6748     0.2784     0.3087 </r>
       <r>     1.7686     0.6331     0.3681 </r>
       <r>     1.8624     0.2375     0.3904 </r>
       <r>     1.9563     0.3805     0.4261 </r>
       <r>     2.0501     0.5285     0.4757 </r>
       <r>     2.1439     0.3953     0.5128 </r>
       <r>     2.2377     0.3969     0.5500 </r>
       <r>     2.3315     0.4186     0.5893 </r>
       <r>     2.4253     0.1298     0.6015 </r>
       <r>     2.5192     0.2160     0.6217 </r>
       <r>     2.6130     0.5385     0.6722 </r>
       <r>     2.7068     0.6336     0.7317 </r>
       <r>     2.8006     0.7006     0.7974 </r>
       <r>     2.8944     0.3607     0.8312 </r>
       <r>     2.9883     0.4640     0.8748 </r>
       <r>     3.0821     0.1560     0.8894 </r>
       <r>     3.1759     0.5305     0.9392 </r>
       <r>     3.2697     0.2438     0.9621 </r>
       <r>     3.3635     0.5773     1.0162 </r>
       <r>     3.4573     0.6912     1.0811 </r>
       <r>     3.5512     0.5754     1.1350 </r>
       <r>     3.6450     0.1747     1.1514 </r>
       <r>     3.7388     0.4329     1.1921 </r>
       <r>     3.8326     0.2311     1.2137 </r>
       <r>     3.9264     0.3606     1.2476 </r>
       <r>     4.0203     0.6437     1.3080 </r>
       <r>     4.1141     0.7918     1.3822 </r>
       <r>     4.2079     0.0509     1.3870 </r>
       <r>     4.3017     0.7260     1.4551 </r>
       <r>     4.3955     0.8372     1.5337 </r>
       <r>     4.4893     0.3076     1.5625 </r>
       <r>     4.5832     0.2452     1.5855 </r>
       <r>     4.6770     0.3442     1.6178 </r>
       <r>     4.7708     0.4365     1.6588 </r>
       <r>     4.8646     0.9891     1.7516 </r>
       <r>     4.9584     0.3932     1.7885 </r>
       <r>     5.0522     0.1735     1.8047 </r>
       <r>     5.1461     0.8080     1.8805 </r>
       <r>     5.2399     0.2605     1.9050 </r>
       <r>     5.3337     0.9956     1.9984 </r>
       <r>     5.4275     0.7637     2.0700 </r>
       <r>     5.5213     0.5433     2.1210 </r>
       <r>     5.6152     0.9275     2.2080 </r>
       <r>     5.7090     0.3676     2.2425 </r>
       <r>     5.8028     0.4700     2.2866 </r>
       <r>     5.8966     0.8752     2.3687 </r>
       <r>     5.9904     0.9922     2.4618 </r>
       <r>     6.0842     0.5346     2.5119 </r>
       <r>     6.1781     0.3150     2.5415 </r>
       <r>     6.2719     0.3427     2.5736 </r>
       <r>     6.3657     0.7372     2.6428 </r>
       <r>     6.4595     0.6694     2.7056 </r>
       <r>     6.5533     0.6965     2.7709 </r>
       <r>     6.6472     0.4364     2.8119 </r>
       <r>     6.7410     0.5519     2.8637 </r>
       <r>     6.8348     0.6655     2.9261 </r>
       <r>     6.9286     0.4013     2.9637 </r>
       <r>     7.0224     1.1146     3.0683 </r>
       <r>     7.1162     0.2197     3.0889 </r>
       <r>     7.2101     0.5170     3.1374 </r>
       <r>     7.3039     0.5185     3.1861 </r>
       <r>     7.3977     0.4570     3.2290 </r>
       <r>     7.4915     0.1697     3.2449 </r>
       <r>     7.5853     0.4392     3.2861 </r>
       <r>     7.6792     0.0936     3.2949 </r>
       <r>     7.7730     0.5539     3.3468 </r>
       <r>     7.8668     0.6143     3.4045 </r>
       <r>     7.9606     0.6305     3.4636 </r>
       <r>     8.0544     0.2210     3.4843 </r>
       <r>     8.1482     0.1198     3.4956 </r>
       <r>     8.2421     0.3269     3.5263 </r>
       <r>     8.3359     0.6323     3.5856 </r>
       <r>     8.4297     0.7188     3.6530 </r>
       <r>     8.5235     0.5100     3.7009 </r>
       <r>     8.6173     0.3519     3.7339 </r>
       <r>     8.7111     1.0304     3.8306 </r>
       <r>     8.8050     0.0911     3.8391 </r>
       <r>     8.8988     0.3676     3.8736 </r>
       <r>     8.9926     0.5831     3.9283 </r>
       <r>     9.0864     0.2430     3.9511 </r>
       <r>     9.1802     0.0210     3.9531 </r>
       <r>     9.2741     0.0545     3.9582 </r>
       <r>     9.3679     0.4730     4.0026 </r>
       <r>     9.4617     0.5705     4.0561 </r>
       <r>     9.5555     0.9615     4.1463 </r>
       <r>     9.6493     0.2571     4.1704 </r>
       <r>     9.7431     0.5058     4.2179 </r>
       <r>     9.8370     0.0946     4.2267 </r>
       <r>     9.9308     0.0392     4.2304 </r>
       <r>    10.0246     0.2095     4.2501 </r>
       <r>    10.1184     0.3682     4.2846 </r>
       <r>    10.2122     0.3125     4.3139 </r>
       <r>    10.3061     0.1193     4.3251 </r>
       <r>    10.3999     0.3159     4.3548 </r>
       <r>    10.4937     0.0767     4.3620 </r>
       <r>    10.5875     0.7694     4.4341 </r>
       <r>    10.6813     0.7804     4.5074 </r>
       <r>    10.7751     0.4592     4.5504 </r>
       <r>    10.8690     0.6419     4.6107 </r>
       <r>    10.9628     0.2390     4.6331 </r>
       <r>    11.0566     0.2291     4.6546 </r>
       <r>    11.1504     0.1415     4.6679 </r>
       <r>    11.2442     0.0254     4.6702 </r>
       <r>    11.3381     0.3954     4.7073 </r>
       <r>    11.4319     0.3729     4.7423 </r>
       <r>    11.5257     0.4012     4.7799 </r>
       <r>    11.6195     0.7232     4.8478 </r>
       <r>    11.7133     1.5312     4.9914 </r>
       <r>    11.8071     0.2008     5.0103 </r>
       <r>    11.9010     1.1006     5.1135 </r>
       <r>    11.9948     0.3644     5.1477 </r>
       <r>    12.0886     0.2136     5.1678 </r>
       <r>    12.1824     0.1361     5.1805 </r>
       <r>    12.2762     0.6099     5.2378 </r>
       <r>    12.3700     0.2336     5.2597 </r>
       <r>    12.4639     0.5178     5.3082 </r>
       <r>    12.5577     0.5374     5.3587 </r>
       <r>    12.6515     0.6350     5.4182 </r>
       <r>    12.7453     0.3410     5.4502 </r>
       <r>    12.8391    -0.0110     5.4492 </r>
       <r>    12.9330     0.0092     5.4501 </r>
       <r>    13.0268     0.1668     5.4657 </r>
       <r>    13.1206     0.1889     5.4834 </r>
       <r>    13.2144     0.5606     5.5360 </r>
       <r>    13.3082     0.1976     5.5546 </r>
       <r>    13.4020     0.2801     5.5809 </r>
       <r>    13.4959     0.7063     5.6471 </r>
       <r>    13.5897     0.3972     5.6844 </r>
       <r>    13.6835     0.1202     5.6957 </r>
       <r>    13.7773    -0.0198     5.6938 </r>
       <r>    13.8711     0.6245     5.7524 </r>
       <r>    13.9650     0.2725     5.7780 </r>
       <r>    14.0588    -0.0080     5.7772 </r>
       <r>    14.1526     0.2761     5.8031 </r>
       <r>    14.2464     0.4486     5.8452 </r>
       <r>    14.3402     0.2710     5.8706 </r>
       <r>    14.4340     0.2091     5.8902 </r>
       <r>    14.5279     0.2893     5.9174 </r>
       <r>    14.6217     0.1300     5.9296 </r>
       <r>    14.7155     0.0012     5.9297 </r>
       <r>    14.8093    -0.0001     5.9297 </r>
       <r>    14.9031     0.0000     5.9297 </r>
       <r>    14.9970    -0.0087     5.9289 </r>
       <r>    15.0908     0.2367     5.9511 </r>
       <r>    15.1846     0.0135     5.9523 </r>
[...]
       </set>
       <set comment="band 6">
        <r>  0.1306  0.0086  0.1906  0.0096  0.0021  0.5221  0.0711  0.0153  0.0363 </r>
       </set>
       <set comment="band 7">
        <r>  0.2879  0.1172  0.0936  0.0855  0.0252  0.0004  0.0015  0.0467  0.1540 </r>
       </set>
       <set comment="band 8">
        <r>  0.4347  0.0356  0.0320  0.5162  0.0673  0.0017  0.0045  0.1215  0.0551 </r>
       </set>
       <set comment="band 9">
        <r> 43.6485  0.0022  0.0003  0.0059  0.0006  0.0001  0.0000  0.0011  0.0020 </r>
       </set>
      </set>
      <set comment="kpoint 46">
       <set comment="band 1">
        <r>  0.0133  0.1182  0.0031  0.0002  0.0087  0.0000  0.6526  0.0000  0.0928 </r>
       </set>
       <set comment="band 2">
        <r>  0.0132  0.0062  0.0028  0.1791  0.7687  0.0093  0.0015  0.0039  0.0054 </r>
       </set>
       <set comment="band 3">
        <r>  0.0183  0.0003  0.2823  0.0037  0.0147  0.6439  0.0002  0.0048  0.0088 </r>
       </set>
       <set comment="band 4">
        <r>  0.1560  0.0098  0.0151  0.0053  0.0041  0.0079  0.0920  0.0020  0.6172 </r>
       </set>
       <set comment="band 5">
        <r>  0.0074  0.0000  0.0094  0.0126  0.0150  0.0296  0.0000  0.9024  0.0000 </r>
       </set>
       <set comment="band 6">
        <r>  0.4079  0.0019  0.0949  0.0472  0.0311  0.0998  0.0470  0.0531  0.1181 </r>
       </set>
       <set comment="band 7">
        <r>  0.0222  0.0154  0.3518  0.2062  0.0815  0.1979  0.0088  0.0009  0.0406 </r>
       </set>
       <set comment="band 8">
        <r>  0.1032  0.0006  0.1125  0.3787  0.1014  0.0415  0.0445  0.0316  0.0893 </r>
       </set>
       <set comment="band 9">
        <r> 44.1794  0.0001  0.0001  0.0003  0.0000  0.0000  0.0001  0.0000  0.0007 </r>
       </set>
      </set>
      <set comment="kpoint 47">
       <set comment="band 1">
        <r>  0.0421  0.1184  0.0002  0.0417  0.0058  0.0241  0.3884  0.0013  0.2690 </r>
       </set>
       <set comment="band 2">
        <r>  0.0527  0.0085  0.1271  0.0359  0.1513  0.5137  0.0599  0.0302  0.0030 </r>
       </set>
       <set comment="band 3">
        <r>  0.0680  0.0025  0.0574  0.1592  0.4192  0.2306  0.0411  0.0013  0.0003 </r>
       </set>
       <set comment="band 4">
        <r>  0.0486  0.0108  0.0042  0.0799  0.0153  0.0000  0.2330  0.0198  0.5116 </r>
       </set>
       <set comment="band 5">
        <r>  0.0169  0.0004  0.0420  0.0000  0.0279  0.0823  0.0029  0.7759  0.0051 </r>
       </set>
       <set comment="band 6">
        <r>  0.3143  0.0036  0.0070  0.1484  0.3349  0.0009  0.0161  0.0278  0.0757 </r>
       </set>
       <set comment="band 7">
        <r>  0.1572  0.0605  0.1687  0.1505  0.0292  0.0741  0.1695  0.0627  0.0222 </r>
       </set>
       <set comment="band 8">
        <r>  0.3276  0.0279  0.4198  0.0957  0.0215  0.1111  0.0741  0.1086  0.0315 </r>
       </set>
       <set comment="band 9">
        <r> 43.8483  0.0010  0.0038  0.0011  0.0001  0.0009  0.0021  0.0008  0.0006 </r>
       </set>
      </set>
      <set comment="kpoint 48">
       <set comment="band 1">
        <r>  0.0985  0.0094  0.0043  0.0094  0.0966  0.0003  0.6993  0.0003  0.0000 </r>
       </set>
       <set comment="band 2">
        <r>  0.0003  0.0500  0.0000  0.0500  0.8338  0.0008  0.0631  0.0008  0.0000 </r>
       </set>
       <set comment="band 3">
        <r>  0.0184  0.0001  0.5302  0.0001  0.0038  0.2005  0.0097  0.2005  0.0000 </r>
       </set>
       <set comment="band 4">
        <r>  0.0000  0.0365  0.0000  0.0365  0.0000  0.0301  0.0000  0.0301  0.8044 </r>
       </set>
       <set comment="band 5">
        <r>  0.0000  0.0001  0.0000  0.0001  0.0000  0.4530  0.0000  0.4530  0.0663 </r>
       </set>
       <set comment="band 6">
        <r>  0.3020  0.1381  0.1172  0.1381  0.0527  0.0302  0.0000  0.0302  0.0000 </r>
       </set>
       <set comment="band 7">
        <r>  0.1471  0.0058  0.2370  0.0058  0.0032  0.2843  0.0226  0.2843  0.0000 </r>
       </set>
       <set comment="band 8">
        <r> 41.3169  0.0064  0.0017  0.0064  0.0009  0.0006  0.0147  0.0006  0.0000 </r>
       </set>
       <set comment="band 9">
        <r>  3.0501  0.1221  0.0361  0.1204  0.0157  0.0102  0.4190  0.0101  0.0000 </r>
       </set>
      </set>
      <set comment="kpoint 49">
       <set comment="band 1">
        <r>  0.0686  0.0634  0.0042  0.0000  0.0233  0.0003  0.7280  0.0001  0.0147 </r>
       </set>
       <set comment="band 2">
        <r>  0.0009  0.0098  0.0000  0.0975  0.8768  0.0004  0.0141  0.0015  0.0010 </r>
       </set>
       <set comment="band 3">
        <r>  0.0221  0.0008  0.4202  0.0001  0.0016  0.4935  0.0057  0.0118  0.0102 </r>
       </set>
       <set comment="band 4">
        <r>  0.0835  0.0531  0.0219  0.0029  0.0008  0.0021  0.0168  0.0042  0.7297 </r>
       </set>
       <set comment="band 5">
        <r>  0.0063  0.0004  0.0053  0.0144  0.0066  0.0584  0.0000  0.8838  0.0015 </r>
       </set>
       <set comment="band 6">
        <r>  0.0884  0.0000  0.3622  0.0005  0.0000  0.4387  0.0274  0.0642  0.0019 </r>
       </set>
       <set comment="band 7">
        <r>  0.3327  0.0592  0.0619  0.1641  0.0425  0.0199  0.0104  0.0077  0.1437 </r>
       </set>
       <set comment="band 8">
        <r>  0.0845  0.0118  0.0239  0.5081  0.0657  0.0058  0.0421  0.0246  0.0734 </r>
       </set>
       <set comment="band 9">
        <r> 44.0059  0.0013  0.0000  0.0005  0.0000  0.0000  0.0001  0.0000  0.0011 </r>
       </set>
      </set>
      <set comment="kpoint 50">
       <set comment="band 1">
        <r>  0.1481  0.0074  0.0429  0.0074  0.1238  0.0051  0.5832  0.0051  0.0000 </r>
       </set>
       <set comment="band 2">
        <r>  0.0000  0.0526  0.0005  0.0526  0.7746  0.0068  0.0942  0.0068  0.0000 </r>
       </set>
       <set comment="band 3">
        <r>  0.1033  0.0003  0.3916  0.0003  0.0333  0.1695  0.0940  0.1695  0.0000 </r>
       </set>
       <set comment="band 4">
        <r>  0.0000  0.0340  0.0000  0.0340  0.0000  0.1362  0.0000  0.1362  0.6000 </r>
       </set>
       <set comment="band 5">
        <r>  0.0000  0.0002  0.0000  0.0002  0.0000  0.3363  0.0000  0.3363  0.3136 </r>
       </set>
       <set comment="band 6">
        <r>  0.0023  0.0706  0.2662  0.0706  0.0280  0.2179  0.0699  0.2179  0.0000 </r>
       </set>
       <set comment="band 7">
        <r>  0.3793  0.0917  0.0137  0.0917  0.0306  0.0999  0.0105  0.0999  0.0000 </r>
       </set>
       <set comment="band 8">
        <r> 43.8374  0.0005  0.0003  0.0005  0.0001  0.0003  0.0003  0.0003  0.0000 </r>
       </set>
       <set comment="band 9">
        <r>  0.0002  0.3053  0.0000  0.3147  0.0001  0.0259  0.0000  0.0273  0.1214 </r>
       </set>
      </set>
      <set comment="kpoint 51">
       <set comment="band 1">
        <r>  0.5849  0.0367  0.0367  0.0367  0.0834  0.0834  0.0000  0.0834  0.0000 </r>
       </set>
       <set comment="band 2">
        <r>  0.0347  0.1073  0.1073  0.1073  0.1918  0.1918  0.0000  0.1918  0.0000 </r>
       </set>
       <set comment="band 3">
        <r>  0.0000  0.0009  0.0005  0.0025  0.0622  0.3339  0.0822  0.1266  0.3784 </r>
       </set>
       <set comment="band 4">
        <r>  0.0000  0.0016  0.0021  0.0001  0.2863  0.0146  0.3784  0.2219  0.0822 </r>
       </set>
       <set comment="band 5">
        <r>  0.0000  0.0049  0.0003  0.0074  0.0113  0.2603  0.0188  0.1726  0.4761 </r>
       </set>
       <set comment="band 6">
        <r>  0.0000  0.0035  0.0081  0.0010  0.2849  0.0358  0.4761  0.1235  0.0188 </r>
       </set>
       <set comment="band 7">
        <r>  0.0845  0.0176  0.0176  0.0176  0.0258  0.0258  0.0000  0.0258  0.0000 </r>
       </set>
       <set comment="band 8">
        <r> 43.8205  0.0001  0.0001  0.0001  0.0000  0.0000  0.0000  0.0000  0.0000 </r>
       </set>
       <set comment="band 9">
        <r>  0.3670  0.0765  0.0765  0.0765  0.1281  0.1281  0.0000  0.1281  0.0000 </r>
       </set>
      </set>
      <set comment="kpoint 52">
       <set comment="band 1">
        <r>  0.4734  0.0662  0.0662  0.0000  0.0958  0.1634  0.0009  0.0958  0.0028 </r>
       </set>
       <set comment="band 2">
        <r>  0.0311  0.1067  0.1067  0.1541  0.2161  0.0222  0.0175  0.2161  0.0524 </r>
       </set>
       <set comment="band 3">
        <r>  0.0055  0.0038  0.0038  0.0156  0.0852  0.2983  0.1155  0.0852  0.3466 </r>
       </set>
       <set comment="band 4">
        <r>  0.0000  0.0023  0.0023  0.0000  0.1717  0.0000  0.4665  0.1717  0.1555 </r>
       </set>
       <set comment="band 5">
        <r>  0.0000  0.0061  0.0061  0.0000  0.3097  0.0000  0.2343  0.3097  0.0781 </r>
       </set>
       <set comment="band 6">
        <r>  0.0281  0.0315  0.0315  0.0029  0.0149  0.4478  0.1032  0.0149  0.3096 </r>
       </set>
       <set comment="band 7">
        <r>  0.1732  0.0493  0.0493  0.0307  0.0411  0.1170  0.0116  0.0411  0.0348 </r>
       </set>
       <set comment="band 8">
        <r> 43.8656  0.0000  0.0000  0.0000  0.0000  0.0003  0.0001  0.0000  0.0002 </r>
       </set>
       <set comment="band 9">
        <r>  0.3397  0.0785  0.0785  0.0220  0.0615  0.0109  0.0026  0.0615  0.0077 </r>
       </set>
      </set>
      <set comment="kpoint 53">
       <set comment="band 1">
        <r>  0.3086  0.0925  0.0925  0.0081  0.0328  0.4152  0.0003  0.0328  0.0008 </r>
       </set>
       <set comment="band 2">
        <r>  0.0006  0.0802  0.0802  0.0026  0.0000  0.0806  0.1587  0.0000  0.4760 </r>
       </set>
       <set comment="band 3">
        <r>  0.0068  0.0136  0.0136  0.2295  0.3343  0.0412  0.0009  0.3343  0.0028 </r>
       </set>
       <set comment="band 4">
        <r>  0.0000  0.0184  0.0184  0.0000  0.0331  0.0000  0.6293  0.0331  0.2098 </r>
       </set>
       <set comment="band 5">
        <r>  0.0000  0.0016  0.0016  0.0000  0.4404  0.0000  0.0453  0.4404  0.0151 </r>
       </set>
       <set comment="band 6">
        <r>  0.2643  0.0206  0.0206  0.0039  0.0000  0.4710  0.0408  0.0000  0.1224 </r>
       </set>
       <set comment="band 7">
        <r>  0.1688  0.1369  0.1369  0.0369  0.0337  0.0000  0.0651  0.0337  0.1952 </r>
       </set>
       <set comment="band 8">
        <r> 44.1245  0.0002  0.0002  0.0003  0.0002  0.0001  0.0001  0.0002  0.0003 </r>
       </set>
       <set comment="band 9">
        <r>  0.0230  0.0143  0.0143  0.5072  0.2284  0.0003  0.0098  0.2284  0.0293 </r>
       </set>
      </set>
      <set comment="kpoint 54">
       <set comment="band 1">
        <r>  0.1075  0.0000  0.0000  0.0066  0.0047  0.4070  0.1057  0.0047  0.3171 </r>
       </set>
       <set comment="band 2">
        <r>  0.0227  0.1426  0.1426  0.0007  0.0075  0.3089  0.0751  0.0075  0.2252 </r>
       </set>
       <set comment="band 3">
        <r>  0.0043  0.0038  0.0038  0.3553  0.2853  0.0317  0.0006  0.2853  0.0019 </r>
       </set>
       <set comment="band 4">
        <r>  0.0000  0.0312  0.0312  0.0000  0.0260  0.0000  0.6151  0.0260  0.2050 </r>
       </set>
       <set comment="band 5">
        <r>  0.0000  0.0009  0.0009  0.0000  0.4500  0.0000  0.0376  0.4500  0.0125 </r>
       </set>
       <set comment="band 6">
        <r>  0.4863  0.0533  0.0533  0.0131  0.0007  0.2125  0.0035  0.0007  0.0106 </r>
       </set>
       <set comment="band 7">
        <r>  0.0594  0.0316  0.0316  0.3490  0.2166  0.0057  0.0265  0.2166  0.0794 </r>
       </set>
       <set comment="band 8">
        <r> 36.0317  0.0168  0.0168  0.0264  0.0109  0.0038  0.0129  0.0109  0.0387 </r>
       </set>
       <set comment="band 9">
        <r>  8.1853  0.0896  0.0896  0.1231  0.0474  0.0168  0.0777  0.0474  0.2332 </r>
       </set>
      </set>
      <set comment="kpoint 55">
       <set comment="band 1">
        <r>  0.3925  0.0018  0.0799  0.0018  0.2057  0.1406  0.0198  0.1406  0.0000 </r>
       </set>
       <set comment="band 2">
        <r>  0.0123  0.1284  0.0662  0.1284  0.0682  0.0568  0.3777  0.0568  0.0000 </r>
       </set>
       <set comment="band 3">
        <r>  0.0350  0.0338  0.0792  0.0338  0.4597  0.0434  0.2490  0.0434  0.0000 </r>
       </set>
       <set comment="band 4">
        <r>  0.0000  0.0105  0.0000  0.0105  0.0000  0.2101  0.0000  0.2101  0.5347 </r>
       </set>
       <set comment="band 5">
        <r>  0.0088  0.0303  0.1042  0.0303  0.1716  0.1563  0.2831  0.1563  0.0000 </r>
       </set>
       <set comment="band 6">
        <r>  0.0000  0.0020  0.0000  0.0020  0.0000  0.2746  0.0000  0.2746  0.4288 </r>
       </set>
       <set comment="band 7">
        <r>  0.2832  0.0369  0.0333  0.0369  0.0540  0.1355  0.0043  0.1355  0.0000 </r>
       </set>
       <set comment="band 8">
        <r> 43.4679  0.0000  0.0005  0.0000  0.0002  0.0001  0.0006  0.0001  0.0000 </r>
       </set>
       <set comment="band 9">
        <r>  0.7213  0.0218  0.0586  0.0218  0.0627  0.0077  0.0468  0.0077  0.0000 </r>
       </set>
      </set>
      <set comment="kpoint 56">
       <set comment="band 1">
        <r>  0.2656  0.0129  0.0935  0.0222  0.2545  0.2117  0.0405  0.0854  0.0002 </r>
       </set>
       <set comment="band 2">
        <r>  0.0002  0.1145  0.0144  0.0431  0.0084  0.0764  0.4943  0.0119  0.1253 </r>
       </set>
       <set comment="band 3">
        <r>  0.0274  0.0338  0.1105  0.1299  0.4163  0.2142  0.0132  0.0099  0.0199 </r>
       </set>
       <set comment="band 4">
        <r>  0.0002  0.0051  0.0467  0.0105  0.0239  0.0104  0.1587  0.2013  0.4950 </r>
       </set>
       <set comment="band 5">
        <r>  0.0140  0.0029  0.0230  0.0155  0.1382  0.0545  0.0693  0.4974  0.1320 </r>
       </set>
       <set comment="band 6">
        <r>  0.1102  0.0278  0.1112  0.0525  0.0243  0.4128  0.1303  0.0051  0.0908 </r>
       </set>
       <set comment="band 7">
        <r>  0.3427  0.0513  0.0533  0.0585  0.0871  0.0217  0.0042  0.1467  0.0910 </r>
       </set>
       <set comment="band 8">
        <r> 44.0892  0.0000  0.0000  0.0002  0.0001  0.0002  0.0000  0.0003  0.0000 </r>
       </set>
       <set comment="band 9">
        <r>  0.0026  0.0059  0.0376  0.0559  0.0533  0.0393  0.1285  0.0102  0.0306 </r>
       </set>
      </set>
      <set comment="kpoint 57">
       <set comment="band 1">
        <r>  0.0302  0.0773  0.0000  0.0051  0.0014  0.1238  0.3513  0.0009  0.3126 </r>
       </set>
       <set comment="band 2">
        <r>  0.0744  0.0624  0.1629  0.0083  0.0353  0.5412  0.0714  0.0096  0.0087 </r>
       </set>
       <set comment="band 3">
        <r>  0.0024  0.0042  0.0148  0.2765  0.5756  0.0534  0.0016  0.0485  0.0000 </r>
       </set>
       <set comment="band 4">
        <r>  0.0721  0.0054  0.0384  0.0084  0.0001  0.0154  0.3321  0.0179  0.4317 </r>
       </set>
       <set comment="band 5">
        <r>  0.0217  0.0002  0.0017  0.0223  0.1562  0.0169  0.0026  0.7296  0.0030 </r>
       </set>
       <set comment="band 6">
        <r>  0.4079  0.0139  0.1307  0.0097  0.0009  0.1879  0.0795  0.0295  0.0140 </r>
       </set>
       <set comment="band 7">
        <r>  0.0672  0.0211  0.0748  0.3496  0.2072  0.0167  0.0134  0.1301  0.0915 </r>
       </set>
       <set comment="band 8">
        <r>  0.9157  0.0308  0.2230  0.1863  0.0690  0.0467  0.0058  0.0567  0.2260 </r>
       </set>
       <set comment="band 9">
        <r> 43.3292  0.0011  0.0068  0.0047  0.0015  0.0011  0.0002  0.0012  0.0094 </r>
       </set>
      </set>
      <set comment="kpoint 58">
       <set comment="band 1">
        <r>  0.1828  0.0022  0.0503  0.0022  0.4394  0.0536  0.1955  0.0536  0.0000 </r>
       </set>
       <set comment="band 2">
        <r>  0.0057  0.1190  0.0001  0.1190  0.1023  0.0318  0.4948  0.0318  0.0000 </r>
       </set>
       <set comment="band 3">
        <r>  0.0265  0.0270  0.2689  0.0270  0.2231  0.1885  0.0228  0.1885  0.0000 </r>
       </set>
       <set comment="band 4">
        <r>  0.0000  0.0237  0.0000  0.0237  0.0000  0.1160  0.0000  0.1160  0.6670 </r>
       </set>
       <set comment="band 5">
        <r>  0.0000  0.0015  0.0000  0.0015  0.0000  0.3657  0.0000  0.3657  0.2313 </r>
       </set>
       <set comment="band 6">
        <r>  0.2336  0.0903  0.1458  0.0903  0.2043  0.0032  0.0763  0.0032  0.0000 </r>
       </set>
       <set comment="band 7">
        <r>  0.2948  0.0103  0.1035  0.0103  0.0008  0.2205  0.1138  0.2205  0.0000 </r>
       </set>
       <set comment="band 8">
        <r> 44.0011  0.0001  0.0003  0.0001  0.0001  0.0003  0.0001  0.0003  0.0000 </r>
       </set>
       <set comment="band 9">
        <r>  0.1238  0.0305  0.1872  0.0305  0.0001  0.0633  0.2949  0.0633  0.0000 </r>
       </set>
      </set>
      <set comment="kpoint 59">
       <set comment="band 1">
        <r>  0.3880  0.0048  0.0048  0.0048  0.1996  0.1996  0.0000  0.1996  0.0000 </r>
       </set>
       <set comment="band 2">
        <r>  0.0000  0.0002  0.0001  0.0002  0.0604  0.1825  0.1324  0.1583  0.4544 </r>
       </set>
       <set comment="band 3">
        <r>  0.0000  0.0001  0.0002  0.0001  0.2071  0.0849  0.4544  0.1092  0.1324 </r>
       </set>
       <set comment="band 4">
        <r>  0.0240  0.2533  0.2533  0.2533  0.0282  0.0282  0.0000  0.0282  0.0000 </r>
       </set>
       <set comment="band 5">
        <r>  0.0000  0.0021  0.0000  0.0022  0.0036  0.2972  0.0035  0.2880  0.3763 </r>
       </set>
       <set comment="band 6">
        <r>  0.0000  0.0008  0.0029  0.0007  0.3889  0.0953  0.3763  0.1045  0.0035 </r>
       </set>
       <set comment="band 7">
        <r>  0.3191  0.0070  0.0070  0.0070  0.1195  0.1195  0.0000  0.1195  0.0000 </r>
       </set>
       <set comment="band 8">
        <r>  0.0723  0.0317  0.0317  0.0317  0.0395  0.0395  0.0000  0.0395  0.0000 </r>
       </set>
       <set comment="band 9">
        <r> 44.1654  0.0001  0.0001  0.0001  0.0006  0.0006  0.0000  0.0006  0.0000 </r>
       </set>
      </set>
      <set comment="kpoint 60">
       <set comment="band 1">
        <r>  0.3254  0.0117  0.0117  0.0201  0.1866  0.2609  0.0003  0.1866  0.0008 </r>
       </set>
       <set comment="band 2">
        <r>  0.0003  0.0771  0.0771  0.0213  0.0195  0.0853  0.1501  0.0195  0.4503 </r>
       </set>
       <set comment="band 3">
        <r>  0.0016  0.1438  0.1438  0.2194  0.1047  0.2100  0.0049  0.1047  0.0147 </r>
       </set>
       <set comment="band 4">
        <r>  0.0000  0.0057  0.0057  0.0000  0.1705  0.0000  0.4665  0.1705  0.1555 </r>
       </set>
       <set comment="band 5">
        <r>  0.0000  0.0023  0.0023  0.0000  0.3206  0.0000  0.2405  0.3206  0.0802 </r>
       </set>
       <set comment="band 6">
        <r>  0.0222  0.0455  0.0455  0.0664  0.0429  0.3645  0.0815  0.0429  0.2444 </r>
       </set>
       <set comment="band 7">
        <r>  0.4461  0.0070  0.0070  0.0055  0.1588  0.0970  0.0052  0.1588  0.0155 </r>
       </set>
       <set comment="band 8">
        <r>  0.0392  0.0153  0.0153  0.0238  0.0172  0.0234  0.0065  0.0172  0.0195 </r>
       </set>
       <set comment="band 9">
        <r> 44.1021  0.0000  0.0000  0.0001  0.0004  0.0001  0.0000  0.0004  0.0000 </r>
       </set>
      </set>
     </set>
    </set>
   </array>
  </projected>
 </calculation>
 <structure name="finalpos" >
  <crystal>
   <varray name="basis" >
    <v>       0.00000000       2.08500000       2.08500000 </v>
    <v>       2.08500000       0.00000000       2.08500000 </v>
    <v>       2.08500000       2.08500000       0.00000000 </v>
   </varray>
   <i name="volume">     18.12792825 </i>
   <varray name="rec_basis" >
    <v>      -0.23980815       0.23980815       0.23980815 </v>
    <v>       0.23980815      -0.23980815       0.23980815 </v>
    <v>       0.23980815       0.23980815      -0.23980815 </v>
   </varray>
  </crystal>
  <varray name="positions" >
   <v>       0.00000000       0.00000000       0.00000000 </v>
  </varray>
 </structure>
</modeling>
