unknown system                          
           1
     0.000000    2.085000    2.085000
     2.085000    0.000000    2.085000
     2.085000    2.085000    0.000000
   Ta
   1
Direct configuration=     1
   0.00000000  0.00000000  0.00000000
