    2    2   50    1
  0.5000000E+03  0.1000000E-08  0.1000000E-08  0.1000000E-08  0.5000000E-15
  1.000000000000000E-004
  CAR 
 unknown system                          
   10    1    9
 
  0.0000000E+00  0.0000000E+00  0.0000000E+00  0.1000000E+01
   1      -29.758784
   2      -14.223570
   3      -11.764160
   4      -11.764160
   5       -8.947691
   6       -1.822402
   7       -1.822402
   8       -0.267215
   9        0.995688
