       N       E                     dE             d eps       ncg     rms          rms(c)
DAV:   1     0.471422021417E+02    0.47142E+02   -0.16841E+03    26   0.306E+02
DAV:   2    -0.714195060111E+01   -0.54284E+02   -0.54245E+02    27   0.121E+02
DAV:   3    -0.152905297781E+02   -0.81486E+01   -0.81447E+01    34   0.537E+01
DAV:   4    -0.153303615245E+02   -0.39832E-01   -0.39831E-01    28   0.376E+00
DAV:   5    -0.153303972795E+02   -0.35755E-04   -0.35755E-04    28   0.102E-01    0.551E+00
DAV:   6    -0.150270914279E+02    0.30331E+00   -0.61031E-01    18   0.475E+00    0.329E+00
DAV:   7    -0.149641933292E+02    0.62898E-01   -0.26595E-01    18   0.346E+00    0.111E+00
DAV:   8    -0.149566334398E+02    0.75599E-02   -0.71491E-02    20   0.181E+00    0.156E-01
DAV:   9    -0.149580510216E+02   -0.14176E-02   -0.53963E-03    18   0.537E-01    0.102E-01
DAV:  10    -0.149589762722E+02   -0.92525E-03   -0.13051E-03    20   0.253E-01    0.255E-02
DAV:  11    -0.149604240623E+02   -0.14478E-02   -0.56822E-04    18   0.146E-01    0.241E-02
DAV:  12    -0.149608161024E+02   -0.39204E-03   -0.81633E-05    20   0.681E-02    0.114E-02
DAV:  13    -0.149616104980E+02   -0.79440E-03   -0.10766E-04    18   0.549E-02    0.467E-03
DAV:  14    -0.149617653141E+02   -0.15482E-03   -0.95415E-06    19   0.174E-02    0.439E-03
DAV:  15    -0.149619492824E+02   -0.18397E-03   -0.14138E-05    20   0.213E-02    0.111E-03
DAV:  16    -0.149620107433E+02   -0.61461E-04   -0.15014E-06    20   0.799E-03
   1 F= -.14962011E+02 E0= -.14962977E+02  d E =-.149620E+02
       N       E                     dE             d eps       ncg     rms          rms(c)
DAV:   1     0.397351844744E+02    0.54697E+02   -0.83915E+02    18   0.295E+02    0.109E+01
DAV:   2     0.412302047729E+02    0.14950E+01   -0.23958E+01    36   0.511E+01    0.748E+00
DAV:   3     0.427962324472E+02    0.15660E+01   -0.12177E+01    27   0.321E+01    0.247E+00
DAV:   4     0.429469375603E+02    0.15071E+00   -0.11865E+00    18   0.948E+00    0.732E-01
DAV:   5     0.429415927889E+02   -0.53448E-02   -0.88114E-02    36   0.284E+00    0.214E-01
DAV:   6     0.429404463325E+02   -0.11465E-02   -0.47964E-03    20   0.609E-01    0.933E-02
DAV:   7     0.429368298365E+02   -0.36165E-02   -0.13317E-03    28   0.303E-01    0.540E-02
DAV:   8     0.429336688365E+02   -0.31610E-02   -0.18956E-03    20   0.277E-01    0.315E-02
DAV:   9     0.429319252200E+02   -0.17436E-02   -0.33701E-04    20   0.119E-01    0.145E-02
DAV:  10     0.429302900596E+02   -0.16352E-02   -0.35133E-04    20   0.872E-02    0.818E-03
DAV:  11     0.429300764549E+02   -0.21360E-03   -0.30157E-05    28   0.420E-02    0.708E-03
DAV:  12     0.429298087625E+02   -0.26769E-03   -0.20743E-05    18   0.323E-02    0.197E-03
DAV:  13     0.429297441285E+02   -0.64634E-04   -0.22595E-06    20   0.105E-02
   2 F= 0.42929744E+02 E0= 0.42928778E+02  d E =0.578918E+02
       N       E                     dE             d eps       ncg     rms          rms(c)
DAV:   1    -0.196983079970E+02   -0.62628E+02   -0.80052E+02    18   0.289E+02    0.133E+01
DAV:   2    -0.159774387329E+02    0.37209E+01   -0.20606E+01    34   0.401E+01    0.557E+00
DAV:   3    -0.150752590653E+02    0.90218E+00   -0.40651E+00    28   0.146E+01    0.217E+00
DAV:   4    -0.149954151241E+02    0.79844E-01   -0.40205E-01    28   0.561E+00    0.682E-01
DAV:   5    -0.149968621462E+02   -0.14470E-02   -0.32191E-02    18   0.174E+00    0.265E-01
DAV:   6    -0.149970724698E+02   -0.21032E-03   -0.12313E-02    20   0.716E-01    0.827E-02
DAV:   7    -0.149982998436E+02   -0.12274E-02   -0.68252E-04    19   0.198E-01    0.384E-02
DAV:   8    -0.150000689523E+02   -0.17691E-02   -0.76621E-04    19   0.189E-01    0.365E-02
DAV:   9    -0.150008272182E+02   -0.75827E-03   -0.21109E-04    19   0.943E-02    0.111E-02
DAV:  10    -0.150013439178E+02   -0.51670E-03   -0.56659E-05    20   0.551E-02    0.937E-03
DAV:  11    -0.150015385664E+02   -0.19465E-03   -0.12727E-05    18   0.279E-02    0.360E-03
DAV:  12    -0.150016232731E+02   -0.84707E-04   -0.31249E-06    20   0.129E-02
   3 F= -.15001623E+02 E0= -.15002590E+02  d E =-.579314E+02
       N       E                     dE             d eps       ncg     rms          rms(c)
DAV:   1    -0.150345857896E+02   -0.33047E-01   -0.10807E-01    18   0.338E+00    0.109E-01
DAV:   2    -0.150343300945E+02    0.25570E-03   -0.24072E-03    19   0.416E-01    0.533E-02
DAV:   3    -0.150344217040E+02   -0.91610E-04   -0.22237E-04    20   0.127E-01
   4 F= -.15034422E+02 E0= -.15035388E+02  d E =-.327984E-01
       N       E                     dE             d eps       ncg     rms          rms(c)
DAV:   1    -0.151618412421E+02   -0.12751E+00   -0.12257E+01    19   0.363E+01    0.115E+00
DAV:   2    -0.151494684475E+02    0.12373E-01   -0.25222E-01    18   0.452E+00    0.601E-01
DAV:   3    -0.151451067143E+02    0.43617E-02   -0.39728E-02    28   0.165E+00    0.110E-01
DAV:   4    -0.151468193486E+02   -0.17126E-02   -0.71777E-04    20   0.253E-01    0.554E-02
DAV:   5    -0.151476644721E+02   -0.84512E-03   -0.19313E-04    20   0.122E-01    0.155E-02
DAV:   6    -0.151477812933E+02   -0.11682E-03   -0.18906E-05    19   0.338E-02    0.910E-03
DAV:   7    -0.151481634314E+02   -0.38214E-03   -0.53289E-05    20   0.465E-02    0.913E-03
DAV:   8    -0.151484064535E+02   -0.24302E-03   -0.41163E-05    20   0.397E-02    0.502E-03
DAV:   9    -0.151485360971E+02   -0.12964E-03   -0.13305E-05    20   0.222E-02    0.246E-03
DAV:  10    -0.151486384143E+02   -0.10232E-03   -0.46779E-06    20   0.134E-02    0.128E-03
DAV:  11    -0.151486927647E+02   -0.54350E-04   -0.15230E-06    18   0.829E-03
   5 F= -.15148693E+02 E0= -.15149659E+02  d E =-.114271E+00
       N       E                     dE             d eps       ncg     rms          rms(c)
DAV:   1    -0.151683368569E+02   -0.19698E-01   -0.12274E+00    20   0.116E+01    0.382E-01
DAV:   2    -0.151654668638E+02    0.28700E-02   -0.25028E-02    18   0.141E+00    0.184E-01
DAV:   3    -0.151657917333E+02   -0.32487E-03   -0.40522E-03    18   0.529E-01    0.357E-02
DAV:   4    -0.151660245515E+02   -0.23282E-03   -0.11198E-04    19   0.938E-02    0.177E-02
DAV:   5    -0.151661497631E+02   -0.12521E-03   -0.19769E-05    19   0.329E-02    0.831E-03
DAV:   6    -0.151662123267E+02   -0.62564E-04   -0.62096E-06    18   0.205E-02
   6 F= -.15166212E+02 E0= -.15167179E+02  d E =-.175196E-01
       N       E                     dE             d eps       ncg     rms          rms(c)
DAV:   1    -0.151672782456E+02   -0.11285E-02   -0.37998E-02    19   0.203E+00    0.670E-02
DAV:   2    -0.151671884473E+02    0.89798E-04   -0.78690E-04    18   0.250E-01
   7 F= -.15167188E+02 E0= -.15168155E+02  d E =-.976121E-03
       N       E                     dE             d eps       ncg     rms          rms(c)
DAV:   1    -0.151672638801E+02    0.14366E-04   -0.81074E-04    20   0.297E-01    0.147E-02
DAV:   2    -0.151672744399E+02   -0.10560E-04   -0.14169E-05    18   0.325E-02
   8 F= -.15167274E+02 E0= -.15168241E+02  d E =-.859926E-04
