 vasp.5.2.12 11Nov11 complex                                                    
  
 executed on             LinuxIFC date 2012.10.09  20:19:17
 running on    1 nodes
 distr:  one band on    1 nodes,    1 groups


--------------------------------------------------------------------------------------------------------


 INCAR:
 POTCAR:   PAW_PBE C 08Apr2002                    
 POTCAR:   PAW_PBE O 08Apr2002                    
 POTCAR:   PAW_PBE C 08Apr2002                    
   VRHFIN =C: s2p2                                                              
   LEXCH  = PE                                                                  
   EATOM  =   147.1560 eV,   10.8157 Ry                                         
                                                                                
   TITEL  = PAW_PBE C 08Apr2002                                                 
   LULTRA =        F    use ultrasoft PP ?                                      
   IUNSCR =        0    unscreen: 0-lin 1-nonlin 2-no                           
   RPACOR =     .000    partial core radius                                     
   POMASS =   12.011; ZVAL   =    4.000    mass and valenz                      
   RCORE  =    1.500    outmost cutoff radius                                   
   RWIGS  =    1.630; RWIGS  =     .863    wigner-seitz radius (au A)           
   ENMAX  =  400.000; ENMIN  =  300.000 eV                                      
   ICORE  =        2    local potential                                         
   LCOR   =        T    correct aug charges                                     
   LPAW   =        T    paw PP                                                  
   EAUG   =  644.873                                                            
   DEXC   =     .000                                                            
   RMAX   =    2.266    core radius for proj-oper                               
   RAUG   =    1.300    factor for augmentation sphere                          
   RDEP   =    1.501    radius for radial grids                                 
   RDEPT  =    1.300    core radius for aug-charge                              
   QCUT   =   -5.516; QGAM   =   11.032    optimization parameters              
                                                                                
   Description                                                                  
     l     E      TYP  RCUT    TYP  RCUT                                        
     0   .000     23  1.200                                                     
     0   .000     23  1.200                                                     
     1   .000     23  1.500                                                     
     1  2.500     23  1.500                                                     
     2   .000      7  1.500                                                     
  local pseudopotential read in
  atomic valenz-charges read in
  non local Contribution for L=           0  read in
    real space projection operators read in
  non local Contribution for L=           0  read in
    real space projection operators read in
  non local Contribution for L=           1  read in
    real space projection operators read in
  non local Contribution for L=           1  read in
    real space projection operators read in
    PAW grid and wavefunctions read in
 
   number of l-projection  operators is LMAX  =           4
   number of lm-projection operators is LMMAX =           8
 
 POTCAR:   PAW_PBE O 08Apr2002                    
   VRHFIN =O: s2p4                                                              
   LEXCH  = PE                                                                  
   EATOM  =   432.3788 eV,   31.7789 Ry                                         
                                                                                
   TITEL  = PAW_PBE O 08Apr2002                                                 
   LULTRA =        F    use ultrasoft PP ?                                      
   IUNSCR =        0    unscreen: 0-lin 1-nonlin 2-no                           
   RPACOR =     .000    partial core radius                                     
   POMASS =   16.000; ZVAL   =    6.000    mass and valenz                      
   RCORE  =    1.520    outmost cutoff radius                                   
   RWIGS  =    1.550; RWIGS  =     .820    wigner-seitz radius (au A)           
   ENMAX  =  400.000; ENMIN  =  300.000 eV                                      
   ICORE  =        2    local potential                                         
   LCOR   =        T    correct aug charges                                     
   LPAW   =        T    paw PP                                                  
   EAUG   =  605.392                                                            
   DEXC   =     .000                                                            
   RMAX   =    2.264    core radius for proj-oper                               
   RAUG   =    1.300    factor for augmentation sphere                          
   RDEP   =    1.550    radius for radial grids                                 
   QCUT   =   -5.520; QGAM   =   11.041    optimization parameters              
                                                                                
   Description                                                                  
     l     E      TYP  RCUT    TYP  RCUT                                        
     0   .000     23  1.200                                                     
     0  -.700     23  1.200                                                     
     1   .000     23  1.520                                                     
     1   .600     23  1.520                                                     
     2   .000      7  1.500                                                     
  local pseudopotential read in
  atomic valenz-charges read in
  non local Contribution for L=           0  read in
    real space projection operators read in
  non local Contribution for L=           0  read in
    real space projection operators read in
  non local Contribution for L=           1  read in
    real space projection operators read in
  non local Contribution for L=           1  read in
    real space projection operators read in
    PAW grid and wavefunctions read in
 
   number of l-projection  operators is LMAX  =           4
   number of lm-projection operators is LMMAX =           8
 
 PAW_PBE C 08Apr2002                    :
 energy of atom  1       EATOM= -147.1560
 kinetic energy error for atom=    0.6876 (will be added to EATOM!!)
 PAW_PBE O 08Apr2002                    :
 energy of atom  2       EATOM= -432.3788
 kinetic energy error for atom=    3.3160 (will be added to EATOM!!)
 
 
 POSCAR:  C  O                                   
  positions in cartesian coordinates
  No initial velocities read in
 exchange correlation table for  LEXCH =        8
   RHO(1)=    0.500       N(1)  =     2000
   RHO(2)=  100.500       N(2)  =     4000
 


--------------------------------------------------------------------------------------------------------


 ion  position               nearest neighbor table
   1  0.000  0.000  0.000-   2 1.20
   2  0.120  0.000  0.000-   1 1.20
 
  LATTYP: Found a simple cubic cell.
 ALAT       =    10.0000000000
  
  Lattice vectors:
  
 A1 = (  10.0000000000,   0.0000000000,   0.0000000000)
 A2 = (   0.0000000000,  10.0000000000,   0.0000000000)
 A3 = (   0.0000000000,   0.0000000000,  10.0000000000)
 Subroutine PRICEL returns:
 Original cell was already a primitive cell.
 

Analysis of symmetry for initial positions (statically):

 Routine SETGRP: Setting up the symmetry group for a 
 simple cubic supercell.


 Subroutine GETGRP returns: Found  8 space group operations
 (whereof  8 operations were pure point group operations)
 out of a pool of 48 trial point group operations.


The static configuration has the point symmetry C_4v.

Analysis of symmetry for dynamics (positions and initial velocities):

 Subroutine DYNSYM returns: Found  8 space group operations
 (whereof  8 operations were pure point group operations)
 out of a pool of  8 trial space group operations
 (whereof  8 operations were pure point group operations)
 and found also     1 'primitive' translations


The dynamic configuration has the point symmetry C_4v.
 
 
 KPOINTS: KPOINTS created by Atomic Simulation Env

Automatic generation of k-mesh.
 
 Subroutine IBZKPT returns following result:
 ===========================================
 
 Found      1 irreducible k-points:
 
 Following reciprocal coordinates:
            Coordinates               Weight
  0.000000  0.000000  0.000000      1.000000
 
 Following cartesian coordinates:
            Coordinates               Weight
  0.000000  0.000000  0.000000      1.000000
 


--------------------------------------------------------------------------------------------------------




 Dimension of arrays:
   k-points           NKPTS =      1   k-points in BZ     NKDIM =      1   number of bands    NBANDS=      9
   number of dos      NEDOS =    301   number of ions     NIONS =      2
   non local maximal  LDIM  =      4   non local SUM 2l+1 LMDIM =      8
   total plane-waves  NPLWV = 157464
   max r-space proj   IRMAX =      1   max aug-charges    IRDMAX=   2242
   dimension x,y,z NGX =    54 NGY =   54 NGZ =   54
   dimension x,y,z NGXF=   108 NGYF=  108 NGZF=  108
   support grid    NGXF=   108 NGYF=  108 NGZF=  108
   ions per type =               1   1
 NGX,Y,Z   is equivalent  to a cutoff of   8.98,  8.98,  8.98 a.u.
 NGXF,Y,Z  is equivalent  to a cutoff of  17.95, 17.95, 17.95 a.u.


 I would recommend the setting:
   dimension x,y,z NGX =    52 NGY =   52 NGZ =   52
 SYSTEM =  unknown system                          
 POSCAR =   C  O                                   

 Startparameter for this run:
   NWRITE =      2    write-flag & timer
   PREC   = accura    normal or accurate (medium, high low for compatibility)
   ISTART =      0    job   : 0-new  1-cont  2-samecut
   ICHARG =      2    charge: 1-file 2-atom 10-const
   ISPIN  =      1    spin polarized calculation?
   LNONCOLLINEAR =      F non collinear calculations
   LSORBIT =      F    spin-orbit coupling
   INIWAV =      1    electr: 0-lowe 1-rand  2-diag
   LASPH  =      F    aspherical Exc in radial PAW
   METAGGA=      F    non-selfconsistent MetaGGA calc.

 Electronic Relaxation 1
   ENCUT  =  250.0 eV  18.37 Ry    4.29 a.u.  12.89 12.89 12.89*2*pi/ulx,y,z
   ENINI  =  250.0     initial cutoff
   ENAUG  =  644.9 eV  augmentation charge cutoff
   NELM   =     60;   NELMIN=  2; NELMDL= -5     # of ELM steps 
   EDIFF  = 0.1E-03   stopping-criterion for ELM
   LREAL  =      F    real-space projection
   NLSPLINE    = F    spline interpolate recip. space projectors
   LCOMPAT=      F    compatible to vasp.4.4
   GGA_COMPAT  = T    GGA compatible to vasp.4.4-vasp.4.6
   LMAXPAW     = -100 max onsite density
   LMAXMIX     =    2 max onsite mixed and CHGCAR
   VOSKOWN=      0    Vosko Wilk Nusair interpolation
   ROPT   =    0.00000   0.00000
 Ionic relaxation
   EDIFFG = -.5E-01   stopping-criterion for IOM
   NSW    =     50    number of steps for IOM
   NBLOCK =      1;   KBLOCK =     50    inner block; outer block 
   IBRION =      1    ionic relax: 0-MD 1-quasi-New 2-CG
   NFREE  =      0    steps in history (QN), initial steepest desc. (CG)
   ISIF   =      2    stress and relaxation
   IWAVPR =     11    prediction:  0-non 1-charg 2-wave 3-comb
   ISYM   =      2    0-nonsym 1-usesym 2-fastsym
   LCORR  =      T    Harris-Foulkes like correction to forces

   POTIM  = 0.5000    time-step for ionic-motion
   TEIN   =    0.0    initial temperature
   TEBEG  =    0.0;   TEEND  =   0.0 temperature during run
   SMASS  =  -3.00    Nose mass-parameter (am)
   estimated Nose-frequenzy (Omega)   =  0.10E-29 period in steps =****** mass=  -0.229E-26a.u.
   SCALEE = 1.0000    scale energy and forces
   NPACO  =    256;   APACO  = 16.0  distance and # of slots for P.C.
   PSTRESS=    0.0 pullay stress

  Mass of Ions in am
   POMASS =  12.01 16.00
  Ionic Valenz
   ZVAL   =   4.00  6.00
  Atomic Wigner-Seitz radii
   RWIGS  =  -1.00 -1.00
  virtual crystal weights 
   VCA    =   1.00  1.00
   NELECT =      10.0000    total number of electrons
   NUPDOWN=      -1.0000    fix difference up-down

 DOS related values:
   EMIN   =  10.00;   EMAX   =-10.00  energy-range for DOS
   EFERMI =   0.00
   ISMEAR =     1;   SIGMA  =   0.05  broadening in eV -4-tet -1-fermi 0-gaus

 Electronic relaxation 2 (details)
   IALGO  =     38    algorithm
   LDIAG  =      T    sub-space diagonalisation (order eigenvalues)
   LSUBROT=      T    optimize rotation matrix (better conditioning)
   TURBO    =      0    0=normal 1=particle mesh
   IRESTART =      0    0=no restart 2=restart with 2 vectors
   NREBOOT  =      0    no. of reboots
   NMIN     =      0    reboot dimension
   EREF     =   0.00    reference energy to select bands
   IMIX   =      4    mixing-type and parameters
     AMIX     =   0.40;   BMIX     =  1.00
     AMIX_MAG =   1.60;   BMIX_MAG =  1.00
     AMIN     =   0.10
     WC   =   100.;   INIMIX=   1;  MIXPRE=   1

 Intra band minimization:
   WEIMIN = 0.0010     energy-eigenvalue tresh-hold
   EBREAK =  0.28E-05  absolut break condition
   DEPER  =   0.30     relativ break condition  

   TIME   =   0.40     timestep for ELM

  volume/ion in A,a.u.               =     500.00      3374.17
  Fermi-wavevector in a.u.,A,eV,Ry     =   0.352702  0.666511  1.692549  0.124399
  Thomas-Fermi vector in A             =   1.266362
 
 Write flags
   LWAVE  =      T    write WAVECAR
   LCHARG =      T    write CHGCAR
   LVTOT  =      F    write LOCPOT, total local potential
   LVHAR  =      F    write LOCPOT, Hartree potential only
   LELF   =      F    write electronic localiz. function (ELF)
   LORBIT =      0    0 simple, 1 ext, 2 COOP (PROOUT)


 Dipole corrections
   LMONO  =      F    monopole corrections only (constant potential shift)
   LDIPOL =      F    correct potential (dipole corrections)
   IDIPOL =      0    1-x, 2-y, 3-z, 4-all directions 
   EPSILON=  1.0000000 bulk dielectric constant

 Exchange correlation treatment:
   GGA     =    --    GGA type
   LEXCH   =     8    internal setting for exchange type
   VOSKOWN=      0    Vosko Wilk Nusair interpolation
   LHFCALC =     F    Hartree Fock is set to
   LHFONE  =     F    Hartree Fock one center treatment
   AEXX    =    0.0000 exact exchange contribution

 Linear response parameters
   LEPSILON=     F    determine dielectric tensor
   LRPA    =     F    only Hartree local field effects (RPA)
   LNABLA  =     F    use nabla operator in PAW spheres
   LVEL    =     F    velocity operator in full k-point grid
   LINTERFAST=   F  fast interpolation
   KINTER  =     0    interpolate to denser k-point grid
   CSHIFT  =0.1000    complex shift for real part using Kramers Kronig
   OMEGAMAX=  -1.0    maximum frequency
   RTIME   =    0.100 relaxation time in fs

 Orbital magnetization related:
   ORBITALMAG=     F  switch on orbital magnetization
   LCHIMAG   =     F  perturbation theory with respect to B field
   DQ        =  0.001000  dq finite difference perturbation B field



--------------------------------------------------------------------------------------------------------


 quasi-Newton-method for relaxation of ions
 charge density and potential will be updated during run
 non-spin polarized calculation
 Variant of blocked Davidson
 Davidson routine will perform the subspace rotation
 perform sub-space diagonalisation
    after iterative eigenvector-optimisation
 modified Broyden-mixing scheme, WC =      100.0
 initial mixing is a Kerker type mixing with AMIX =  0.4000 and BMIX =      1.0000
 Hartree-type preconditioning will be used
 using additional bands            4
 reciprocal scheme for non local part
 calculate Harris-corrections to forces 
   (improved forces if not selfconsistent)
 use gradient corrections 
 use of overlap-Matrix (Vanderbilt PP)
 Methfessel and Paxton  Order N= 1 SIGMA  =   0.05


--------------------------------------------------------------------------------------------------------


  energy-cutoff  :      250.00
  volume of cell :     1000.00
      direct lattice vectors                 reciprocal lattice vectors
    10.000000000  0.000000000  0.000000000     0.100000000  0.000000000  0.000000000
     0.000000000 10.000000000  0.000000000     0.000000000  0.100000000  0.000000000
     0.000000000  0.000000000 10.000000000     0.000000000  0.000000000  0.100000000

  length of vectors
    10.000000000 10.000000000 10.000000000     0.100000000  0.100000000  0.100000000


 
 k-points in units of 2pi/SCALE and weight: KPOINTS created by Atomic Simulation Env
   0.00000000  0.00000000  0.00000000       1.000
 
 k-points in reciprocal lattice and weights: KPOINTS created by Atomic Simulation Env
   0.00000000  0.00000000  0.00000000       1.000
 
 position of ions in fractional coordinates (direct lattice) 
   0.00000000  0.00000000  0.00000000
   0.12000000  0.00000000  0.00000000
 
 position of ions in cartesian coordinates  (Angst):
   0.00000000  0.00000000  0.00000000
   1.20000000  0.00000000  0.00000000
 


--------------------------------------------------------------------------------------------------------


 k-point  1 :  0.00000.00000.0000  plane waves:    9045

 maximum and minimum number of plane-waves per node :      9045     9045

 maximum number of plane-waves:      9045
 maximum index in each direction: 
   IXMAX=   12   IYMAX=   12   IZMAX=   12
   IXMIN=  -12   IYMIN=  -12   IZMIN=  -12

 NGX is ok and might be reduce to  50
 NGY is ok and might be reduce to  50
 NGZ is ok and might be reduce to  50

 serial   3D FFT for wavefunctions
 parallel 3D FFT for charge:
    minimum data exchange during FFTs selected (reduces bandwidth)


 total amount of memory used by VASP on root node   154247. kBytes
========================================================================

   base      :      30000. kBytes
   nonl-proj :       1447. kBytes
   fftplans  :      43668. kBytes
   grid      :      77822. kBytes
   one-center:          6. kBytes
   wavefun   :       1304. kBytes
 
 Broyden mixing: mesh for mixing (old mesh)
   NGX = 25   NGY = 25   NGZ = 25
  (NGX  =108   NGY  =108   NGZ  =108)
  gives a total of  15625 points

 initial charge density was supplied:
 charge density of overlapping atoms calculated
 number of electron      10.0000000 magnetization 
 keeping initial charge density in first step


--------------------------------------------------------------------------------------------------------


 Maximum index for augmentation-charges         1959 (set IRDMAX)


--------------------------------------------------------------------------------------------------------


 First call to EWALD:  gamma=   0.177
 Maximum number of real-space cells 3x 3x 3
 Maximum number of reciprocal cells 3x 3x 3

    FEWALD:  cpu time    0.00: real time    0.00


----------------------------------------- Iteration    1(   1)  ---------------------------------------


    POTLOK:  cpu time    3.07: real time    3.68
    SETDIJ:  cpu time    0.01: real time    0.01
     EDDAV:  cpu time    1.12: real time    1.67
       DOS:  cpu time    0.00: real time    0.00
    --------------------------------------------
      LOOP:  cpu time    4.19: real time    5.36

 eigenvalue-minimisations  :    26
 total energy-change (2. order) : 0.4714220E+02  (-0.1684125E+03)
 number of electron      10.0000000 magnetization 
 augmentation part       10.0000000 magnetization 

 Free energy of the ion-electron system (eV)
  ---------------------------------------------------
  alpha Z        PSCENC =         0.43525486
  Ewald energy   TEWEN  =        84.77797003
  -1/2 Hartree   DENC   =      -552.03476690
  -exchange  EXHF       =         0.00000000
  -V(xc)+E(xc)   XCENC  =        39.59593989
  PAW double counting   =       283.82984571     -286.83001101
  entropy T*S    EENTRO =         0.00289895
  eigenvalues    EBANDS =       -98.16619622
  atomic energy  EATOM  =       575.53126682
  ---------------------------------------------------
  free energy    TOTEN  =        47.14220214 eV

  energy without entropy =       47.13930319  energy(sigma->0) =       47.14123582


--------------------------------------------------------------------------------------------------------




----------------------------------------- Iteration    1(   2)  ---------------------------------------


     EDDAV:  cpu time    1.60: real time    2.07
       DOS:  cpu time    0.00: real time    0.00
    --------------------------------------------
      LOOP:  cpu time    1.60: real time    2.07

 eigenvalue-minimisations  :    27
 total energy-change (2. order) :-0.5428415E+02  (-0.5424513E+02)
 number of electron      10.0000000 magnetization 
 augmentation part       10.0000000 magnetization 

 Free energy of the ion-electron system (eV)
  ---------------------------------------------------
  alpha Z        PSCENC =         0.43525486
  Ewald energy   TEWEN  =        84.77797003
  -1/2 Hartree   DENC   =      -552.03476690
  -exchange  EXHF       =         0.00000000
  -V(xc)+E(xc)   XCENC  =        39.59593989
  PAW double counting   =       283.82984571     -286.83001101
  entropy T*S    EENTRO =         0.00289895
  eigenvalues    EBANDS =      -152.45034896
  atomic energy  EATOM  =       575.53126682
  ---------------------------------------------------
  free energy    TOTEN  =        -7.14195060 eV

  energy without entropy =       -7.14484955  energy(sigma->0) =       -7.14291692


--------------------------------------------------------------------------------------------------------




----------------------------------------- Iteration    1(   3)  ---------------------------------------


     EDDAV:  cpu time    1.97: real time    2.09
       DOS:  cpu time    0.00: real time    0.00
    --------------------------------------------
      LOOP:  cpu time    1.97: real time    2.19

 eigenvalue-minimisations  :    34
 total energy-change (2. order) :-0.8148579E+01  (-0.8144740E+01)
 number of electron      10.0000000 magnetization 
 augmentation part       10.0000000 magnetization 

 Free energy of the ion-electron system (eV)
  ---------------------------------------------------
  alpha Z        PSCENC =         0.43525486
  Ewald energy   TEWEN  =        84.77797003
  -1/2 Hartree   DENC   =      -552.03476690
  -exchange  EXHF       =         0.00000000
  -V(xc)+E(xc)   XCENC  =        39.59593989
  PAW double counting   =       283.82984571     -286.83001101
  entropy T*S    EENTRO =         0.00289895
  eigenvalues    EBANDS =      -160.59892814
  atomic energy  EATOM  =       575.53126682
  ---------------------------------------------------
  free energy    TOTEN  =       -15.29052978 eV

  energy without entropy =      -15.29342873  energy(sigma->0) =      -15.29149610


--------------------------------------------------------------------------------------------------------




----------------------------------------- Iteration    1(   4)  ---------------------------------------


     EDDAV:  cpu time    1.49: real time    1.86
       DOS:  cpu time    0.00: real time    0.00
    --------------------------------------------
      LOOP:  cpu time    1.50: real time    1.87

 eigenvalue-minimisations  :    28
 total energy-change (2. order) :-0.3983175E-01  (-0.3983074E-01)
 number of electron      10.0000000 magnetization 
 augmentation part       10.0000000 magnetization 

 Free energy of the ion-electron system (eV)
  ---------------------------------------------------
  alpha Z        PSCENC =         0.43525486
  Ewald energy   TEWEN  =        84.77797003
  -1/2 Hartree   DENC   =      -552.03476690
  -exchange  EXHF       =         0.00000000
  -V(xc)+E(xc)   XCENC  =        39.59593989
  PAW double counting   =       283.82984571     -286.83001101
  entropy T*S    EENTRO =         0.00289895
  eigenvalues    EBANDS =      -160.63875988
  atomic energy  EATOM  =       575.53126682
  ---------------------------------------------------
  free energy    TOTEN  =       -15.33036152 eV

  energy without entropy =      -15.33326048  energy(sigma->0) =      -15.33132784


--------------------------------------------------------------------------------------------------------




----------------------------------------- Iteration    1(   5)  ---------------------------------------


     EDDAV:  cpu time    1.51: real time    1.88
       DOS:  cpu time    0.00: real time    0.00
    CHARGE:  cpu time    0.40: real time    0.56
    MIXING:  cpu time    0.07: real time    0.07
    --------------------------------------------
      LOOP:  cpu time    1.99: real time    2.52

 eigenvalue-minimisations  :    28
 total energy-change (2. order) :-0.3575499E-04  (-0.3575469E-04)
 number of electron       9.9999958 magnetization 
 augmentation part        0.5676871 magnetization 

 Broyden mixing:
  rms(total) = 0.55091E+00    rms(broyden)= 0.54007E+00
  rms(prec ) = 0.62691E+00
  weight for this iteration     100.00

 Free energy of the ion-electron system (eV)
  ---------------------------------------------------
  alpha Z        PSCENC =         0.43525486
  Ewald energy   TEWEN  =        84.77797003
  -1/2 Hartree   DENC   =      -552.03476690
  -exchange  EXHF       =         0.00000000
  -V(xc)+E(xc)   XCENC  =        39.59593989
  PAW double counting   =       283.82984571     -286.83001101
  entropy T*S    EENTRO =         0.00289895
  eigenvalues    EBANDS =      -160.63879564
  atomic energy  EATOM  =       575.53126682
  ---------------------------------------------------
  free energy    TOTEN  =       -15.33039728 eV

  energy without entropy =      -15.33329623  energy(sigma->0) =      -15.33136360


--------------------------------------------------------------------------------------------------------




----------------------------------------- Iteration    1(   6)  ---------------------------------------


    POTLOK:  cpu time    2.51: real time    3.40
    SETDIJ:  cpu time    0.01: real time    0.01
     EDDAV:  cpu time    1.14: real time    1.73
       DOS:  cpu time    0.00: real time    0.00
    CHARGE:  cpu time    0.41: real time    0.61
    MIXING:  cpu time    0.07: real time    0.14
    --------------------------------------------
      LOOP:  cpu time    4.14: real time    5.93

 eigenvalue-minimisations  :    18
 total energy-change (2. order) : 0.3033059E+00  (-0.6103098E-01)
 number of electron       9.9999960 magnetization 
 augmentation part        0.5398528 magnetization 

 Broyden mixing:
  rms(total) = 0.32913E+00    rms(broyden)= 0.32830E+00
  rms(prec ) = 0.36998E+00
  weight for this iteration     100.00

 eigenvalues of (default mixing * dielectric matrix)
  average eigenvalue GAMMA=   1.8243
  1.8243

 Free energy of the ion-electron system (eV)
  ---------------------------------------------------
  alpha Z        PSCENC =         0.43525486
  Ewald energy   TEWEN  =        84.77797003
  -1/2 Hartree   DENC   =      -558.61336952
  -exchange  EXHF       =         0.00000000
  -V(xc)+E(xc)   XCENC  =        40.01385712
  PAW double counting   =       326.24765710     -329.00556631
  entropy T*S    EENTRO =         0.00289895
  eigenvalues    EBANDS =      -154.41706048
  atomic energy  EATOM  =       575.53126682
  ---------------------------------------------------
  free energy    TOTEN  =       -15.02709143 eV

  energy without entropy =      -15.02999038  energy(sigma->0) =      -15.02805775


--------------------------------------------------------------------------------------------------------




----------------------------------------- Iteration    1(   7)  ---------------------------------------


    POTLOK:  cpu time    2.85: real time    3.70
    SETDIJ:  cpu time    0.01: real time    0.01
     EDDAV:  cpu time    1.17: real time    1.29
       DOS:  cpu time    0.00: real time    0.00
    CHARGE:  cpu time    0.43: real time    0.56
    MIXING:  cpu time    0.08: real time    0.08
    --------------------------------------------
      LOOP:  cpu time    4.54: real time    5.65

 eigenvalue-minimisations  :    18
 total energy-change (2. order) : 0.6289810E-01  (-0.2659455E-01)
 number of electron       9.9999960 magnetization 
 augmentation part        0.5506155 magnetization 

 Broyden mixing:
  rms(total) = 0.11099E+00    rms(broyden)= 0.11090E+00
  rms(prec ) = 0.13662E+00
  weight for this iteration     100.00

 eigenvalues of (default mixing * dielectric matrix)
  average eigenvalue GAMMA=   1.5826
  0.7651  2.4002

 Free energy of the ion-electron system (eV)
  ---------------------------------------------------
  alpha Z        PSCENC =         0.43525486
  Ewald energy   TEWEN  =        84.77797003
  -1/2 Hartree   DENC   =      -561.54001114
  -exchange  EXHF       =         0.00000000
  -V(xc)+E(xc)   XCENC  =        40.19168936
  PAW double counting   =       361.35523312     -363.83532297
  entropy T*S    EENTRO =         0.00289895
  eigenvalues    EBANDS =      -151.88317237
  atomic energy  EATOM  =       575.53126682
  ---------------------------------------------------
  free energy    TOTEN  =       -14.96419333 eV

  energy without entropy =      -14.96709228  energy(sigma->0) =      -14.96515965


--------------------------------------------------------------------------------------------------------




----------------------------------------- Iteration    1(   8)  ---------------------------------------


    POTLOK:  cpu time    3.28: real time    4.06
    SETDIJ:  cpu time    0.01: real time    0.01
     EDDAV:  cpu time    1.28: real time    1.55
       DOS:  cpu time    0.00: real time    0.00
    CHARGE:  cpu time    0.50: real time    0.68
    MIXING:  cpu time    0.08: real time    0.14
    --------------------------------------------
      LOOP:  cpu time    5.13: real time    6.45

 eigenvalue-minimisations  :    20
 total energy-change (2. order) : 0.7559889E-02  (-0.7149052E-02)
 number of electron       9.9999960 magnetization 
 augmentation part        0.5427037 magnetization 

 Broyden mixing:
  rms(total) = 0.15649E-01    rms(broyden)= 0.15390E-01
  rms(prec ) = 0.22561E-01
  weight for this iteration     100.00

 eigenvalues of (default mixing * dielectric matrix)
  average eigenvalue GAMMA=   1.5782
  2.3876  1.5816  0.7655

 Free energy of the ion-electron system (eV)
  ---------------------------------------------------
  alpha Z        PSCENC =         0.43525486
  Ewald energy   TEWEN  =        84.77797003
  -1/2 Hartree   DENC   =      -564.15094209
  -exchange  EXHF       =         0.00000000
  -V(xc)+E(xc)   XCENC  =        40.34881746
  PAW double counting   =       381.53934804     -383.89156009
  entropy T*S    EENTRO =         0.00289895
  eigenvalues    EBANDS =      -149.54968743
  atomic energy  EATOM  =       575.53126682
  ---------------------------------------------------
  free energy    TOTEN  =       -14.95663344 eV

  energy without entropy =      -14.95953239  energy(sigma->0) =      -14.95759976


--------------------------------------------------------------------------------------------------------




----------------------------------------- Iteration    1(   9)  ---------------------------------------


    POTLOK:  cpu time    3.30: real time    4.25
    SETDIJ:  cpu time    0.01: real time    0.01
     EDDAV:  cpu time    1.01: real time    1.33
       DOS:  cpu time    0.00: real time    0.00
    CHARGE:  cpu time    0.53: real time    0.78
    MIXING:  cpu time    0.10: real time    0.11
    --------------------------------------------
      LOOP:  cpu time    4.95: real time    6.48

 eigenvalue-minimisations  :    18
 total energy-change (2. order) :-0.1417582E-02  (-0.5396339E-03)
 number of electron       9.9999960 magnetization 
 augmentation part        0.5401081 magnetization 

 Broyden mixing:
  rms(total) = 0.10249E-01    rms(broyden)= 0.10172E-01
  rms(prec ) = 0.15075E-01
  weight for this iteration     100.00

 eigenvalues of (default mixing * dielectric matrix)
  average eigenvalue GAMMA=   1.5727
  0.8240  0.8240  2.3214  2.3214

 Free energy of the ion-electron system (eV)
  ---------------------------------------------------
  alpha Z        PSCENC =         0.43525486
  Ewald energy   TEWEN  =        84.77797003
  -1/2 Hartree   DENC   =      -564.23869434
  -exchange  EXHF       =         0.00000000
  -V(xc)+E(xc)   XCENC  =        40.34798829
  PAW double counting   =       381.45500546     -383.79058299
  entropy T*S    EENTRO =         0.00289895
  eigenvalues    EBANDS =      -149.47915811
  atomic energy  EATOM  =       575.53126682
  ---------------------------------------------------
  free energy    TOTEN  =       -14.95805102 eV

  energy without entropy =      -14.96094997  energy(sigma->0) =      -14.95901734


--------------------------------------------------------------------------------------------------------




----------------------------------------- Iteration    1(  10)  ---------------------------------------


    POTLOK:  cpu time    2.52: real time    3.60
    SETDIJ:  cpu time    0.01: real time    0.01
     EDDAV:  cpu time    1.01: real time    1.66
       DOS:  cpu time    0.00: real time    0.03
    CHARGE:  cpu time    0.38: real time    0.74
    MIXING:  cpu time    0.08: real time    0.08
    --------------------------------------------
      LOOP:  cpu time    4.00: real time    6.13

 eigenvalue-minimisations  :    20
 total energy-change (2. order) :-0.9252507E-03  (-0.1305094E-03)
 number of electron       9.9999960 magnetization 
 augmentation part        0.5415088 magnetization 

 Broyden mixing:
  rms(total) = 0.25451E-02    rms(broyden)= 0.25239E-02
  rms(prec ) = 0.67893E-02
  weight for this iteration     100.00

 eigenvalues of (default mixing * dielectric matrix)
  average eigenvalue GAMMA=   1.6784
  0.8400  0.8400  2.5141  2.0989  2.0989

 Free energy of the ion-electron system (eV)
  ---------------------------------------------------
  alpha Z        PSCENC =         0.43525486
  Ewald energy   TEWEN  =        84.77797003
  -1/2 Hartree   DENC   =      -564.20505331
  -exchange  EXHF       =         0.00000000
  -V(xc)+E(xc)   XCENC  =        40.34150012
  PAW double counting   =       381.04455825     -383.36944236
  entropy T*S    EENTRO =         0.00289895
  eigenvalues    EBANDS =      -149.51792965
  atomic energy  EATOM  =       575.53126682
  ---------------------------------------------------
  free energy    TOTEN  =       -14.95897627 eV

  energy without entropy =      -14.96187522  energy(sigma->0) =      -14.95994259


--------------------------------------------------------------------------------------------------------




----------------------------------------- Iteration    1(  11)  ---------------------------------------


    POTLOK:  cpu time    2.80: real time    4.11
    SETDIJ:  cpu time    0.01: real time    0.04
     EDDAV:  cpu time    1.14: real time    1.49
       DOS:  cpu time    0.00: real time    0.00
    CHARGE:  cpu time    0.41: real time    0.52
    MIXING:  cpu time    0.08: real time    0.08
    --------------------------------------------
      LOOP:  cpu time    4.44: real time    6.36

 eigenvalue-minimisations  :    18
 total energy-change (2. order) :-0.1447790E-02  (-0.5682174E-04)
 number of electron       9.9999960 magnetization 
 augmentation part        0.5412147 magnetization 

 Broyden mixing:
  rms(total) = 0.24094E-02    rms(broyden)= 0.24065E-02
  rms(prec ) = 0.43837E-02
  weight for this iteration     100.00

 eigenvalues of (default mixing * dielectric matrix)
  average eigenvalue GAMMA=   1.6812
  3.1534  2.4700  1.6098  1.2102  0.8219  0.8219

 Free energy of the ion-electron system (eV)
  ---------------------------------------------------
  alpha Z        PSCENC =         0.43525486
  Ewald energy   TEWEN  =        84.77797003
  -1/2 Hartree   DENC   =      -564.58151537
  -exchange  EXHF       =         0.00000000
  -V(xc)+E(xc)   XCENC  =        40.35728194
  PAW double counting   =       381.49291357     -383.81713315
  entropy T*S    EENTRO =         0.00289895
  eigenvalues    EBANDS =      -149.15936172
  atomic energy  EATOM  =       575.53126682
  ---------------------------------------------------
  free energy    TOTEN  =       -14.96042406 eV

  energy without entropy =      -14.96332302  energy(sigma->0) =      -14.96139038


--------------------------------------------------------------------------------------------------------




----------------------------------------- Iteration    1(  12)  ---------------------------------------


    POTLOK:  cpu time    3.01: real time    3.73
    SETDIJ:  cpu time    0.01: real time    0.01
     EDDAV:  cpu time    1.24: real time    1.42
       DOS:  cpu time    0.00: real time    0.00
    CHARGE:  cpu time    0.47: real time    0.47
    MIXING:  cpu time    0.09: real time    0.09
    --------------------------------------------
      LOOP:  cpu time    4.81: real time    5.73

 eigenvalue-minimisations  :    20
 total energy-change (2. order) :-0.3920401E-03  (-0.8163289E-05)
 number of electron       9.9999960 magnetization 
 augmentation part        0.5412862 magnetization 

 Broyden mixing:
  rms(total) = 0.11350E-02    rms(broyden)= 0.11321E-02
  rms(prec ) = 0.26103E-02
  weight for this iteration     100.00

 eigenvalues of (default mixing * dielectric matrix)
  average eigenvalue GAMMA=   1.9875
  4.3241  2.6337  2.4633  1.7993  1.0594  0.8162  0.8162

 Free energy of the ion-electron system (eV)
  ---------------------------------------------------
  alpha Z        PSCENC =         0.43525486
  Ewald energy   TEWEN  =        84.77797003
  -1/2 Hartree   DENC   =      -564.55721026
  -exchange  EXHF       =         0.00000000
  -V(xc)+E(xc)   XCENC  =        40.35286398
  PAW double counting   =       381.04282747     -383.36637076
  entropy T*S    EENTRO =         0.00289895
  eigenvalues    EBANDS =      -149.18031721
  atomic energy  EATOM  =       575.53126682
  ---------------------------------------------------
  free energy    TOTEN  =       -14.96081610 eV

  energy without entropy =      -14.96371506  energy(sigma->0) =      -14.96178242


--------------------------------------------------------------------------------------------------------




----------------------------------------- Iteration    1(  13)  ---------------------------------------


    POTLOK:  cpu time    2.98: real time    3.47
    SETDIJ:  cpu time    0.01: real time    0.01
     EDDAV:  cpu time    1.21: real time    1.39
       DOS:  cpu time    0.00: real time    0.00
    CHARGE:  cpu time    0.47: real time    0.53
    MIXING:  cpu time    0.09: real time    0.09
    --------------------------------------------
      LOOP:  cpu time    4.76: real time    5.53

 eigenvalue-minimisations  :    18
 total energy-change (2. order) :-0.7943956E-03  (-0.1076555E-04)
 number of electron       9.9999960 magnetization 
 augmentation part        0.5412506 magnetization 

 Broyden mixing:
  rms(total) = 0.46666E-03    rms(broyden)= 0.46644E-03
  rms(prec ) = 0.10078E-02
  weight for this iteration     100.00

 eigenvalues of (default mixing * dielectric matrix)
  average eigenvalue GAMMA=   1.9782
  5.1499  2.6936  2.4498  1.7140  1.1869  0.9968  0.8173  0.8173

 Free energy of the ion-electron system (eV)
  ---------------------------------------------------
  alpha Z        PSCENC =         0.43525486
  Ewald energy   TEWEN  =        84.77797003
  -1/2 Hartree   DENC   =      -564.60996132
  -exchange  EXHF       =         0.00000000
  -V(xc)+E(xc)   XCENC  =        40.35257542
  PAW double counting   =       381.04493821     -383.36995515
  entropy T*S    EENTRO =         0.00289895
  eigenvalues    EBANDS =      -149.12659832
  atomic energy  EATOM  =       575.53126682
  ---------------------------------------------------
  free energy    TOTEN  =       -14.96161050 eV

  energy without entropy =      -14.96450945  energy(sigma->0) =      -14.96257682


--------------------------------------------------------------------------------------------------------




----------------------------------------- Iteration    1(  14)  ---------------------------------------


    POTLOK:  cpu time    2.55: real time    3.09
    SETDIJ:  cpu time    0.01: real time    0.01
     EDDAV:  cpu time    1.21: real time    1.31
       DOS:  cpu time    0.00: real time    0.00
    CHARGE:  cpu time    0.48: real time    0.56
    MIXING:  cpu time    0.09: real time    0.09
    --------------------------------------------
      LOOP:  cpu time    4.33: real time    5.14

 eigenvalue-minimisations  :    19
 total energy-change (2. order) :-0.1548160E-03  (-0.9541479E-06)
 number of electron       9.9999960 magnetization 
 augmentation part        0.5411889 magnetization 

 Broyden mixing:
  rms(total) = 0.43869E-03    rms(broyden)= 0.43788E-03
  rms(prec ) = 0.77065E-03
  weight for this iteration     100.00

 eigenvalues of (default mixing * dielectric matrix)
  average eigenvalue GAMMA=   2.2977
  6.7500  3.5701  2.4908  2.4205  1.7249  0.8187  0.8187  1.0039  1.0819

 Free energy of the ion-electron system (eV)
  ---------------------------------------------------
  alpha Z        PSCENC =         0.43525486
  Ewald energy   TEWEN  =        84.77797003
  -1/2 Hartree   DENC   =      -564.61838373
  -exchange  EXHF       =         0.00000000
  -V(xc)+E(xc)   XCENC  =        40.35263153
  PAW double counting   =       381.05715809     -383.38220162
  entropy T*S    EENTRO =         0.00289895
  eigenvalues    EBANDS =      -149.11836025
  atomic energy  EATOM  =       575.53126682
  ---------------------------------------------------
  free energy    TOTEN  =       -14.96176531 eV

  energy without entropy =      -14.96466427  energy(sigma->0) =      -14.96273163


--------------------------------------------------------------------------------------------------------




----------------------------------------- Iteration    1(  15)  ---------------------------------------


    POTLOK:  cpu time    3.07: real time    3.94
    SETDIJ:  cpu time    0.01: real time    0.01
     EDDAV:  cpu time    1.14: real time    1.34
       DOS:  cpu time    0.00: real time    0.00
    CHARGE:  cpu time    0.44: real time    0.44
    MIXING:  cpu time    0.08: real time    0.13
    --------------------------------------------
      LOOP:  cpu time    4.73: real time    5.87

 eigenvalue-minimisations  :    20
 total energy-change (2. order) :-0.1839684E-03  (-0.1413752E-05)
 number of electron       9.9999960 magnetization 
 augmentation part        0.5412244 magnetization 

 Broyden mixing:
  rms(total) = 0.11090E-03    rms(broyden)= 0.11025E-03
  rms(prec ) = 0.24665E-03
  weight for this iteration     100.00

 eigenvalues of (default mixing * dielectric matrix)
  average eigenvalue GAMMA=   2.3558
  7.6404  3.8652  2.4802  2.4802  1.9534  0.8185  0.8185  1.3409  1.1603  1.0006

 Free energy of the ion-electron system (eV)
  ---------------------------------------------------
  alpha Z        PSCENC =         0.43525486
  Ewald energy   TEWEN  =        84.77797003
  -1/2 Hartree   DENC   =      -564.60241964
  -exchange  EXHF       =         0.00000000
  -V(xc)+E(xc)   XCENC  =        40.35144975
  PAW double counting   =       381.05402821     -383.37859867
  entropy T*S    EENTRO =         0.00289895
  eigenvalues    EBANDS =      -149.13379960
  atomic energy  EATOM  =       575.53126682
  ---------------------------------------------------
  free energy    TOTEN  =       -14.96194928 eV

  energy without entropy =      -14.96484824  energy(sigma->0) =      -14.96291560


--------------------------------------------------------------------------------------------------------




----------------------------------------- Iteration    1(  16)  ---------------------------------------


    POTLOK:  cpu time    2.67: real time    3.37
    SETDIJ:  cpu time    0.01: real time    0.01
     EDDAV:  cpu time    1.26: real time    1.31
       DOS:  cpu time    0.00: real time    0.00
    --------------------------------------------
      LOOP:  cpu time    3.93: real time    4.70

 eigenvalue-minimisations  :    20
 total energy-change (2. order) :-0.6146089E-04  (-0.1501407E-06)
 number of electron       9.9999960 magnetization 
 augmentation part        0.5412244 magnetization 

 Free energy of the ion-electron system (eV)
  ---------------------------------------------------
  alpha Z        PSCENC =         0.43525486
  Ewald energy   TEWEN  =        84.77797003
  -1/2 Hartree   DENC   =      -564.60277800
  -exchange  EXHF       =         0.00000000
  -V(xc)+E(xc)   XCENC  =        40.35154489
  PAW double counting   =       381.05758026     -383.38223596
  entropy T*S    EENTRO =         0.00289895
  eigenvalues    EBANDS =      -149.13351260
  atomic energy  EATOM  =       575.53126682
  ---------------------------------------------------
  free energy    TOTEN  =       -14.96201074 eV

  energy without entropy =      -14.96490970  energy(sigma->0) =      -14.96297706


--------------------------------------------------------------------------------------------------------




 average (electrostatic) potential at core
  the test charge radii are     0.6991  0.7215
  (the norm of the test charge is              1.0000)
       1 -62.4352       2 -84.8966
 
 
 
 E-fermi :  -9.0201     XC(G=0):  -0.7266     alpha+bet : -0.1753


 k-point   1 :       0.0000    0.0000    0.0000
  band No.  band energies     occupation 
      1     -28.8032      2.00000
      2     -14.2695      2.00000
      3     -11.2159      2.00000
      4     -11.2159      2.00000
      5      -9.0622      2.00000
      6      -2.4272      0.00000
      7      -2.4272      0.00000
      8      -0.2700      0.00000
      9       0.9985      0.00000


--------------------------------------------------------------------------------------------------------


 soft charge-density along one line, spin component           1
         0         1         2         3         4         5         6         7         8         9
 total charge-density along one line
 
 pseudopotential strength for first ion, spin component:           1
 10.412   0.027   0.000   0.000   0.016   0.000   0.000  -0.015
  0.027  -0.001   0.000   0.000  -0.001   0.000   0.000   0.000
  0.000   0.000  -4.614   0.000   0.000  -0.005   0.000   0.000
  0.000   0.000   0.000  -4.614   0.000   0.000  -0.005   0.000
  0.016  -0.001   0.000   0.000  -4.607   0.000   0.000  -0.011
  0.000   0.000  -0.005   0.000   0.000  -0.779   0.000   0.000
  0.000   0.000   0.000  -0.005   0.000   0.000  -0.779   0.000
 -0.015   0.000   0.000   0.000  -0.011   0.000   0.000  -0.778
 total augmentation occupancy for first ion, spin component:           1
  1.881   0.076   0.000   0.000  -0.212   0.000   0.000   0.061
  0.076   1.078   0.000   0.000  -1.048   0.000   0.000  -0.385
  0.000   0.000   0.511   0.000   0.000   0.132   0.000   0.000
  0.000   0.000   0.000   0.511   0.000   0.000   0.132   0.000
 -0.212  -1.048   0.000   0.000   1.246   0.000   0.000   0.403
  0.000   0.000   0.132   0.000   0.000   0.034   0.000   0.000
  0.000   0.000   0.000   0.132   0.000   0.000   0.034   0.000
  0.061  -0.385   0.000   0.000   0.403   0.000   0.000   0.147


------------------------ aborting loop because EDIFF is reached ----------------------------------------


    CHARGE:  cpu time    0.41: real time    0.68
    FORLOC:  cpu time    0.21: real time    0.25
    FORNL :  cpu time    0.04: real time    0.04
    STRESS:  cpu time    0.45: real time    0.53
    FORHAR:  cpu time    1.05: real time    1.63
    MIXING:  cpu time    0.10: real time    0.23

  FORCE on cell =-STRESS in cart. coord.  units (eV):
  Direction    XX          YY          ZZ          XY          YZ          ZX
  --------------------------------------------------------------------------------------
  Alpha Z     0.43525     0.43525     0.43525
  Ewald     221.98815   -68.60511   -68.60511     0.00000     0.00000     0.00000
  Hartree   260.92831   151.83409   151.83409     0.00000     0.00000     0.00000
  E(xc)     -41.85747   -42.99901   -42.99901     0.00000     0.00000     0.00000
  Local    -607.14240  -225.95854  -225.95854     0.00000     0.00000     0.00000
  n-local   -31.89746   -21.09296   -21.09296     0.00000     0.00000     0.00000
  augment     5.65764     5.76475     5.76475     0.00000     0.00000     0.00000
  Kinetic   172.37267   189.00217   189.00217     0.00000     0.00000     0.00000
  Fock        0.00000     0.00000     0.00000     0.00000     0.00000     0.00000
  -------------------------------------------------------------------------------------
  Total     -19.51531   -11.61936   -11.61936     0.00000     0.00000     0.00000
  in kB     -31.26698   -18.61627   -18.61627     0.00000     0.00000     0.00000
  external pressure =      -22.83 kB  Pullay stress =        0.00 kB


 VOLUME and BASIS-vectors are now :
 -----------------------------------------------------------------------------
  energy-cutoff  :      250.00
  volume of cell :     1000.00
      direct lattice vectors                 reciprocal lattice vectors
    10.000000000  0.000000000  0.000000000     0.100000000  0.000000000  0.000000000
     0.000000000 10.000000000  0.000000000     0.000000000  0.100000000  0.000000000
     0.000000000  0.000000000 10.000000000     0.000000000  0.000000000  0.100000000

  length of vectors
    10.000000000 10.000000000 10.000000000     0.100000000  0.100000000  0.100000000


 FORCES acting on ions
    electron-ion (+dipol)            ewald-force                    non-local-force                 convergence-correction
 -----------------------------------------------------------------------------------------------
   0.216E+03 -.304E-15 -.529E-14   -.238E+03 0.304E-17 -.363E-17   0.275E+02 0.000E+00 -.827E-24   0.680E-03 0.338E-13 0.232E-13
   -.188E+03 0.103E-13 -.169E-05   0.238E+03 -.728E-17 -.383E-17   -.560E+02 0.000E+00 0.000E+00   -.421E-02 0.105E-12 -.138E-13
 -----------------------------------------------------------------------------------------------
   0.285E+02 0.100E-13 -.169E-05   0.000E+00 -.424E-17 -.746E-17   -.285E+02 0.000E+00 -.827E-24   -.353E-02 0.139E-12 0.948E-14
 
 
 POSITION                                       TOTAL-FORCE (eV/Angst)
 -----------------------------------------------------------------------------------
      0.00000      0.00000      0.00000         5.695388      0.000000      0.000000
      1.20000      0.00000      0.00000        -5.695388      0.000000      0.000000
 -----------------------------------------------------------------------------------
    total drift:                               -0.003705      0.000000     -0.000002


--------------------------------------------------------------------------------------------------------



  FREE ENERGIE OF THE ION-ELECTRON SYSTEM (eV)
  ---------------------------------------------------
  free  energy   TOTEN  =       -14.962011 eV

  energy  without entropy=      -14.964910  energy(sigma->0) =      -14.962977
 


--------------------------------------------------------------------------------------------------------


    POTLOK:  cpu time    3.31: real time    4.26


--------------------------------------------------------------------------------------------------------


 Quasi-Newton relaxation of ions (Broydens 2nd method)
  g(Force)  = 0.313E+01   g(Stress)= 0.000E+00

 Reset! Starting new Quasi-Newton update for ions 


--------------------------------------------------------------------------------------------------------


    WAVPRE:  cpu time    0.44: real time    0.58
    FEWALD:  cpu time    0.00: real time    0.00
    ORTHCH:  cpu time    0.01: real time    0.01
     LOOP+:  cpu time   69.63: real time   90.36


----------------------------------------- Iteration    2(   1)  ---------------------------------------


    POTLOK:  cpu time    2.95: real time    4.34
    SETDIJ:  cpu time    0.01: real time    0.01
     EDDAV:  cpu time    0.92: real time    1.23
       DOS:  cpu time    0.00: real time    0.00
    CHARGE:  cpu time    0.48: real time    0.48
    MIXING:  cpu time    0.09: real time    0.09
    --------------------------------------------
      LOOP:  cpu time    4.46: real time    6.15

 eigenvalue-minimisations  :    18
 total energy-change (2. order) : 0.5469713E+02  (-0.8391481E+02)
 number of electron       9.9999928 magnetization 
 augmentation part        0.9959226 magnetization 

 Broyden mixing:
  rms(total) = 0.10914E+01    rms(broyden)= 0.10462E+01
  rms(prec ) = 0.13031E+01
  weight for this iteration     100.00

 Free energy of the ion-electron system (eV)
  ---------------------------------------------------
  alpha Z        PSCENC =         0.43525486
  Ewald energy   TEWEN  =       327.31896607
  -1/2 Hartree   DENC   =      -653.96605084
  -exchange  EXHF       =         0.00000000
  -V(xc)+E(xc)   XCENC  =        43.45132271
  PAW double counting   =       381.04801067     -383.37257978
  entropy T*S    EENTRO =         0.00289895
  eigenvalues    EBANDS =      -250.71390500
  atomic energy  EATOM  =       575.53126682
  ---------------------------------------------------
  free energy    TOTEN  =        39.73518447 eV

  energy without entropy =       39.73228552  energy(sigma->0) =       39.73421816


--------------------------------------------------------------------------------------------------------




----------------------------------------- Iteration    2(   2)  ---------------------------------------


    POTLOK:  cpu time    3.44: real time    4.49
    SETDIJ:  cpu time    0.01: real time    0.01
     EDDAV:  cpu time    2.52: real time    2.59
       DOS:  cpu time    0.00: real time    0.00
    CHARGE:  cpu time    0.43: real time    0.63
    MIXING:  cpu time    0.07: real time    0.07
    --------------------------------------------
      LOOP:  cpu time    6.47: real time    7.79

 eigenvalue-minimisations  :    36
 total energy-change (2. order) : 0.1495020E+01  (-0.2395849E+01)
 number of electron       9.9999927 magnetization 
 augmentation part        1.0107774 magnetization 

 Broyden mixing:
  rms(total) = 0.74800E+00    rms(broyden)= 0.74441E+00
  rms(prec ) = 0.92275E+00
  weight for this iteration     100.00

 eigenvalues of (default mixing * dielectric matrix)
  average eigenvalue GAMMA=   1.8431
  1.8431

 Free energy of the ion-electron system (eV)
  ---------------------------------------------------
  alpha Z        PSCENC =         0.43525486
  Ewald energy   TEWEN  =       327.31896607
  -1/2 Hartree   DENC   =      -682.22063786
  -exchange  EXHF       =         0.00000000
  -V(xc)+E(xc)   XCENC  =        44.98136789
  PAW double counting   =       504.20404354     -507.44873934
  entropy T*S    EENTRO =         0.00289895
  eigenvalues    EBANDS =      -221.57421615
  atomic energy  EATOM  =       575.53126682
  ---------------------------------------------------
  free energy    TOTEN  =        41.23020477 eV

  energy without entropy =       41.22730582  energy(sigma->0) =       41.22923846


--------------------------------------------------------------------------------------------------------




----------------------------------------- Iteration    2(   3)  ---------------------------------------


    POTLOK:  cpu time    2.44: real time    2.78
    SETDIJ:  cpu time    0.01: real time    0.01
     EDDAV:  cpu time    1.49: real time    1.57
       DOS:  cpu time    0.00: real time    0.00
    CHARGE:  cpu time    0.35: real time    0.35
    MIXING:  cpu time    0.10: real time    0.10
    --------------------------------------------
      LOOP:  cpu time    4.39: real time    4.82

 eigenvalue-minimisations  :    27
 total energy-change (2. order) : 0.1566028E+01  (-0.1217742E+01)
 number of electron       9.9999933 magnetization 
 augmentation part        0.9272127 magnetization 

 Broyden mixing:
  rms(total) = 0.24727E+00    rms(broyden)= 0.24331E+00
  rms(prec ) = 0.30749E+00
  weight for this iteration     100.00

 eigenvalues of (default mixing * dielectric matrix)
  average eigenvalue GAMMA=   1.2877
  1.2877  1.2877

 Free energy of the ion-electron system (eV)
  ---------------------------------------------------
  alpha Z        PSCENC =         0.43525486
  Ewald energy   TEWEN  =       327.31896607
  -1/2 Hartree   DENC   =      -726.96531543
  -exchange  EXHF       =         0.00000000
  -V(xc)+E(xc)   XCENC  =        47.23520796
  PAW double counting   =       697.86670713     -702.30085419
  entropy T*S    EENTRO =         0.00289895
  eigenvalues    EBANDS =      -176.32789973
  atomic energy  EATOM  =       575.53126682
  ---------------------------------------------------
  free energy    TOTEN  =        42.79623245 eV

  energy without entropy =       42.79333349  energy(sigma->0) =       42.79526613


--------------------------------------------------------------------------------------------------------




----------------------------------------- Iteration    2(   4)  ---------------------------------------


    POTLOK:  cpu time    2.85: real time    3.72
    SETDIJ:  cpu time    0.01: real time    0.01
     EDDAV:  cpu time    1.08: real time    1.56
       DOS:  cpu time    0.00: real time    0.00
    CHARGE:  cpu time    0.45: real time    0.45
    MIXING:  cpu time    0.09: real time    0.17
    --------------------------------------------
      LOOP:  cpu time    4.48: real time    5.97

 eigenvalue-minimisations  :    18
 total energy-change (2. order) : 0.1507051E+00  (-0.1186514E+00)
 number of electron       9.9999931 magnetization 
 augmentation part        0.9516481 magnetization 

 Broyden mixing:
  rms(total) = 0.73231E-01    rms(broyden)= 0.73112E-01
  rms(prec ) = 0.93537E-01
  weight for this iteration     100.00

 eigenvalues of (default mixing * dielectric matrix)
  average eigenvalue GAMMA=   1.5795
  2.2947  1.0300  1.4138

 Free energy of the ion-electron system (eV)
  ---------------------------------------------------
  alpha Z        PSCENC =         0.43525486
  Ewald energy   TEWEN  =       327.31896607
  -1/2 Hartree   DENC   =      -713.35183510
  -exchange  EXHF       =         0.00000000
  -V(xc)+E(xc)   XCENC  =        46.51285020
  PAW double counting   =       657.05312767     -661.18778875
  entropy T*S    EENTRO =         0.00289895
  eigenvalues    EBANDS =      -189.36780317
  atomic energy  EATOM  =       575.53126682
  ---------------------------------------------------
  free energy    TOTEN  =        42.94693756 eV

  energy without entropy =       42.94403861  energy(sigma->0) =       42.94597124


--------------------------------------------------------------------------------------------------------




----------------------------------------- Iteration    2(   5)  ---------------------------------------


    POTLOK:  cpu time    3.07: real time    3.89
    SETDIJ:  cpu time    0.01: real time    0.01
     EDDAV:  cpu time    1.81: real time    2.47
       DOS:  cpu time    0.00: real time    0.00
    CHARGE:  cpu time    0.47: real time    0.85
    MIXING:  cpu time    0.08: real time    0.15
    --------------------------------------------
      LOOP:  cpu time    5.43: real time    7.43

 eigenvalue-minimisations  :    36
 total energy-change (2. order) :-0.5344771E-02  (-0.8811436E-02)
 number of electron       9.9999932 magnetization 
 augmentation part        0.9482367 magnetization 

 Broyden mixing:
  rms(total) = 0.21401E-01    rms(broyden)= 0.21178E-01
  rms(prec ) = 0.33261E-01
  weight for this iteration     100.00

 eigenvalues of (default mixing * dielectric matrix)
  average eigenvalue GAMMA=   1.3226
  2.2321  1.4929  1.0041  0.5613

 Free energy of the ion-electron system (eV)
  ---------------------------------------------------
  alpha Z        PSCENC =         0.43525486
  Ewald energy   TEWEN  =       327.31896607
  -1/2 Hartree   DENC   =      -716.09622772
  -exchange  EXHF       =         0.00000000
  -V(xc)+E(xc)   XCENC  =        46.64848293
  PAW double counting   =       693.49578033     -697.73186072
  entropy T*S    EENTRO =         0.00289895
  eigenvalues    EBANDS =      -186.66296874
  atomic energy  EATOM  =       575.53126682
  ---------------------------------------------------
  free energy    TOTEN  =        42.94159279 eV

  energy without entropy =       42.93869384  energy(sigma->0) =       42.94062647


--------------------------------------------------------------------------------------------------------




----------------------------------------- Iteration    2(   6)  ---------------------------------------


    POTLOK:  cpu time    3.01: real time    3.76
    SETDIJ:  cpu time    0.01: real time    0.01
     EDDAV:  cpu time    1.29: real time    1.37
       DOS:  cpu time    0.00: real time    0.00
    CHARGE:  cpu time    0.42: real time    0.46
    MIXING:  cpu time    0.07: real time    0.11
    --------------------------------------------
      LOOP:  cpu time    4.80: real time    5.72

 eigenvalue-minimisations  :    20
 total energy-change (2. order) :-0.1146456E-02  (-0.4796370E-03)
 number of electron       9.9999931 magnetization 
 augmentation part        0.9486163 magnetization 

 Broyden mixing:
  rms(total) = 0.93305E-02    rms(broyden)= 0.93182E-02
  rms(prec ) = 0.20470E-01
  weight for this iteration     100.00

 eigenvalues of (default mixing * dielectric matrix)
  average eigenvalue GAMMA=   1.5306
  2.5356  1.7054  1.4646  0.9738  0.9738

 Free energy of the ion-electron system (eV)
  ---------------------------------------------------
  alpha Z        PSCENC =         0.43525486
  Ewald energy   TEWEN  =       327.31896607
  -1/2 Hartree   DENC   =      -715.43388664
  -exchange  EXHF       =         0.00000000
  -V(xc)+E(xc)   XCENC  =        46.61234758
  PAW double counting   =       691.41987072     -695.63673993
  entropy T*S    EENTRO =         0.00289895
  eigenvalues    EBANDS =      -187.30953211
  atomic energy  EATOM  =       575.53126682
  ---------------------------------------------------
  free energy    TOTEN  =        42.94044633 eV

  energy without entropy =       42.93754738  energy(sigma->0) =       42.93948001


--------------------------------------------------------------------------------------------------------




----------------------------------------- Iteration    2(   7)  ---------------------------------------


    POTLOK:  cpu time    2.46: real time    2.74
    SETDIJ:  cpu time    0.01: real time    0.01
     EDDAV:  cpu time    1.67: real time    2.08
       DOS:  cpu time    0.00: real time    0.00
    CHARGE:  cpu time    0.49: real time    0.55
    MIXING:  cpu time    0.14: real time    0.17
    --------------------------------------------
      LOOP:  cpu time    4.78: real time    5.56

 eigenvalue-minimisations  :    28
 total energy-change (2. order) :-0.3616496E-02  (-0.1331660E-03)
 number of electron       9.9999932 magnetization 
 augmentation part        0.9482313 magnetization 

 Broyden mixing:
  rms(total) = 0.54005E-02    rms(broyden)= 0.53841E-02
  rms(prec ) = 0.12446E-01
  weight for this iteration     100.00

 eigenvalues of (default mixing * dielectric matrix)
  average eigenvalue GAMMA=   1.6150
  2.7941  1.7772  1.7772  1.4481  0.9467  0.9467

 Free energy of the ion-electron system (eV)
  ---------------------------------------------------
  alpha Z        PSCENC =         0.43525486
  Ewald energy   TEWEN  =       327.31896607
  -1/2 Hartree   DENC   =      -715.53187067
  -exchange  EXHF       =         0.00000000
  -V(xc)+E(xc)   XCENC  =        46.61501703
  PAW double counting   =       694.67669271     -698.88920002
  entropy T*S    EENTRO =         0.00289895
  eigenvalues    EBANDS =      -187.22219592
  atomic energy  EATOM  =       575.53126682
  ---------------------------------------------------
  free energy    TOTEN  =        42.93682984 eV

  energy without entropy =       42.93393088  energy(sigma->0) =       42.93586352


--------------------------------------------------------------------------------------------------------




----------------------------------------- Iteration    2(   8)  ---------------------------------------


    POTLOK:  cpu time    2.71: real time    3.25
    SETDIJ:  cpu time    0.01: real time    0.01
     EDDAV:  cpu time    1.04: real time    1.33
       DOS:  cpu time    0.00: real time    0.00
    CHARGE:  cpu time    0.56: real time    0.56
    MIXING:  cpu time    0.11: real time    0.11
    --------------------------------------------
      LOOP:  cpu time    4.43: real time    5.28

 eigenvalue-minimisations  :    20
 total energy-change (2. order) :-0.3161000E-02  (-0.1895624E-03)
 number of electron       9.9999932 magnetization 
 augmentation part        0.9483020 magnetization 

 Broyden mixing:
  rms(total) = 0.31455E-02    rms(broyden)= 0.31106E-02
  rms(prec ) = 0.64979E-02
  weight for this iteration     100.00

 eigenvalues of (default mixing * dielectric matrix)
  average eigenvalue GAMMA=   1.7887
  4.0823  2.5132  1.6364  1.3454  0.9574  0.9574  1.0292

 Free energy of the ion-electron system (eV)
  ---------------------------------------------------
  alpha Z        PSCENC =         0.43525486
  Ewald energy   TEWEN  =       327.31896607
  -1/2 Hartree   DENC   =      -715.84341442
  -exchange  EXHF       =         0.00000000
  -V(xc)+E(xc)   XCENC  =        46.62553166
  PAW double counting   =       694.51675494     -698.73192907
  entropy T*S    EENTRO =         0.00289895
  eigenvalues    EBANDS =      -186.92166098
  atomic energy  EATOM  =       575.53126682
  ---------------------------------------------------
  free energy    TOTEN  =        42.93366884 eV

  energy without entropy =       42.93076988  energy(sigma->0) =       42.93270252


--------------------------------------------------------------------------------------------------------




----------------------------------------- Iteration    2(   9)  ---------------------------------------


    POTLOK:  cpu time    3.50: real time    3.89
    SETDIJ:  cpu time    0.01: real time    0.01
     EDDAV:  cpu time    1.28: real time    1.53
       DOS:  cpu time    0.00: real time    0.00
    CHARGE:  cpu time    0.45: real time    0.73
    MIXING:  cpu time    0.08: real time    0.08
    --------------------------------------------
      LOOP:  cpu time    5.32: real time    6.26

 eigenvalue-minimisations  :    20
 total energy-change (2. order) :-0.1743617E-02  (-0.3370103E-04)
 number of electron       9.9999932 magnetization 
 augmentation part        0.9482444 magnetization 

 Broyden mixing:
  rms(total) = 0.14481E-02    rms(broyden)= 0.14451E-02
  rms(prec ) = 0.34180E-02
  weight for this iteration     100.00

 eigenvalues of (default mixing * dielectric matrix)
  average eigenvalue GAMMA=   2.1429
  5.6597  3.0299  2.5316  1.5867  1.3944  0.9746  0.9746  0.9917

 Free energy of the ion-electron system (eV)
  ---------------------------------------------------
  alpha Z        PSCENC =         0.43525486
  Ewald energy   TEWEN  =       327.31896607
  -1/2 Hartree   DENC   =      -715.90023684
  -exchange  EXHF       =         0.00000000
  -V(xc)+E(xc)   XCENC  =        46.62480268
  PAW double counting   =       693.21160400     -697.42397291
  entropy T*S    EENTRO =         0.00289895
  eigenvalues    EBANDS =      -186.86865841
  atomic energy  EATOM  =       575.53126682
  ---------------------------------------------------
  free energy    TOTEN  =        42.93192522 eV

  energy without entropy =       42.92902627  energy(sigma->0) =       42.93095890


--------------------------------------------------------------------------------------------------------




----------------------------------------- Iteration    2(  10)  ---------------------------------------


    POTLOK:  cpu time    3.02: real time    4.24
    SETDIJ:  cpu time    0.01: real time    0.01
     EDDAV:  cpu time    1.09: real time    1.37
       DOS:  cpu time    0.00: real time    0.00
    CHARGE:  cpu time    0.43: real time    0.57
    MIXING:  cpu time    0.08: real time    0.08
    --------------------------------------------
      LOOP:  cpu time    4.63: real time    6.37

 eigenvalue-minimisations  :    20
 total energy-change (2. order) :-0.1635160E-02  (-0.3513261E-04)
 number of electron       9.9999932 magnetization 
 augmentation part        0.9481729 magnetization 

 Broyden mixing:
  rms(total) = 0.81820E-03    rms(broyden)= 0.81660E-03
  rms(prec ) = 0.14361E-02
  weight for this iteration     100.00

 eigenvalues of (default mixing * dielectric matrix)
  average eigenvalue GAMMA=   2.1257
  6.4436  3.2280  2.4540  1.6284  1.2297  1.2297  0.9690  0.9690  0.9795

 Free energy of the ion-electron system (eV)
  ---------------------------------------------------
  alpha Z        PSCENC =         0.43525486
  Ewald energy   TEWEN  =       327.31896607
  -1/2 Hartree   DENC   =      -715.88572197
  -exchange  EXHF       =         0.00000000
  -V(xc)+E(xc)   XCENC  =        46.62133511
  PAW double counting   =       693.67192675     -697.88612615
  entropy T*S    EENTRO =         0.00289895
  eigenvalues    EBANDS =      -186.87951040
  atomic energy  EATOM  =       575.53126682
  ---------------------------------------------------
  free energy    TOTEN  =        42.93029006 eV

  energy without entropy =       42.92739111  energy(sigma->0) =       42.92932374


--------------------------------------------------------------------------------------------------------




----------------------------------------- Iteration    2(  11)  ---------------------------------------


    POTLOK:  cpu time    2.95: real time    3.24
    SETDIJ:  cpu time    0.01: real time    0.01
     EDDAV:  cpu time    1.79: real time    2.18
       DOS:  cpu time    0.00: real time    0.00
    CHARGE:  cpu time    0.54: real time    0.71
    MIXING:  cpu time    0.09: real time    0.09
    --------------------------------------------
      LOOP:  cpu time    5.38: real time    6.25

 eigenvalue-minimisations  :    28
 total energy-change (2. order) :-0.2136046E-03  (-0.3015709E-05)
 number of electron       9.9999932 magnetization 
 augmentation part        0.9482890 magnetization 

 Broyden mixing:
  rms(total) = 0.70815E-03    rms(broyden)= 0.70731E-03
  rms(prec ) = 0.10724E-02
  weight for this iteration     100.00

 eigenvalues of (default mixing * dielectric matrix)
  average eigenvalue GAMMA=   2.3576
  7.6520  3.8901  2.8158  2.3113  1.6291  1.2242  1.1285  0.9704  0.9704  0.9841

 Free energy of the ion-electron system (eV)
  ---------------------------------------------------
  alpha Z        PSCENC =         0.43525486
  Ewald energy   TEWEN  =       327.31896607
  -1/2 Hartree   DENC   =      -715.84456157
  -exchange  EXHF       =         0.00000000
  -V(xc)+E(xc)   XCENC  =        46.61901885
  PAW double counting   =       693.50844663     -697.72194890
  entropy T*S    EENTRO =         0.00289895
  eigenvalues    EBANDS =      -186.91926526
  atomic energy  EATOM  =       575.53126682
  ---------------------------------------------------
  free energy    TOTEN  =        42.93007645 eV

  energy without entropy =       42.92717750  energy(sigma->0) =       42.92911014


--------------------------------------------------------------------------------------------------------




----------------------------------------- Iteration    2(  12)  ---------------------------------------


    POTLOK:  cpu time    2.96: real time    3.50
    SETDIJ:  cpu time    0.01: real time    0.01
     EDDAV:  cpu time    1.06: real time    1.23
       DOS:  cpu time    0.00: real time    0.00
    CHARGE:  cpu time    0.40: real time    0.58
    MIXING:  cpu time    0.09: real time    0.09
    --------------------------------------------
      LOOP:  cpu time    4.53: real time    5.49

 eigenvalue-minimisations  :    18
 total energy-change (2. order) :-0.2676925E-03  (-0.2074274E-05)
 number of electron       9.9999932 magnetization 
 augmentation part        0.9482324 magnetization 

 Broyden mixing:
  rms(total) = 0.19693E-03    rms(broyden)= 0.19644E-03
  rms(prec ) = 0.30735E-03
  weight for this iteration     100.00

 eigenvalues of (default mixing * dielectric matrix)
  average eigenvalue GAMMA=   2.3727
  8.0404  4.3450  2.8079  2.5443  1.6325  1.4868  1.1633  1.1633  0.9597  0.9597
  0.9964

 Free energy of the ion-electron system (eV)
  ---------------------------------------------------
  alpha Z        PSCENC =         0.43525486
  Ewald energy   TEWEN  =       327.31896607
  -1/2 Hartree   DENC   =      -715.84792622
  -exchange  EXHF       =         0.00000000
  -V(xc)+E(xc)   XCENC  =        46.61954943
  PAW double counting   =       693.66657804     -697.88023915
  entropy T*S    EENTRO =         0.00289895
  eigenvalues    EBANDS =      -186.91654005
  atomic energy  EATOM  =       575.53126682
  ---------------------------------------------------
  free energy    TOTEN  =        42.92980876 eV

  energy without entropy =       42.92690981  energy(sigma->0) =       42.92884244


--------------------------------------------------------------------------------------------------------




----------------------------------------- Iteration    2(  13)  ---------------------------------------


    POTLOK:  cpu time    3.11: real time    4.29
    SETDIJ:  cpu time    0.01: real time    0.01
     EDDAV:  cpu time    1.22: real time    1.46
       DOS:  cpu time    0.00: real time    0.00
    --------------------------------------------
      LOOP:  cpu time    4.34: real time    5.85

 eigenvalue-minimisations  :    20
 total energy-change (2. order) :-0.6463396E-04  (-0.2259522E-06)
 number of electron       9.9999932 magnetization 
 augmentation part        0.9482324 magnetization 

 Free energy of the ion-electron system (eV)
  ---------------------------------------------------
  alpha Z        PSCENC =         0.43525486
  Ewald energy   TEWEN  =       327.31896607
  -1/2 Hartree   DENC   =      -715.83981218
  -exchange  EXHF       =         0.00000000
  -V(xc)+E(xc)   XCENC  =        46.61914676
  PAW double counting   =       693.56089288     -697.77438796
  entropy T*S    EENTRO =         0.00289895
  eigenvalues    EBANDS =      -186.92448208
  atomic energy  EATOM  =       575.53126682
  ---------------------------------------------------
  free energy    TOTEN  =        42.92974413 eV

  energy without entropy =       42.92684518  energy(sigma->0) =       42.92877781


--------------------------------------------------------------------------------------------------------




 average (electrostatic) potential at core
  the test charge radii are     0.6991  0.7215
  (the norm of the test charge is              1.0000)
       1 -70.2694       2 -93.4572
 
 
 
 E-fermi :  -7.2827     XC(G=0):  -0.7326     alpha+bet : -0.1753


 k-point   1 :       0.0000    0.0000    0.0000
  band No.  band energies     occupation 
      1     -34.1932      2.00000
      2     -19.4633      2.00000
      3     -19.4633      2.00000
      4     -13.0176      2.00000
      5      -7.3248      2.00000
      6      -0.3002      0.00000
      7       0.7516      0.00000
      8       0.7516      0.00000
      9       1.0053      0.00000


--------------------------------------------------------------------------------------------------------


 soft charge-density along one line, spin component           1
         0         1         2         3         4         5         6         7         8         9
 total charge-density along one line
 
 pseudopotential strength for first ion, spin component:           1
 11.162   0.040   0.000   0.000   0.190   0.000   0.000  -0.196
  0.040  -0.001   0.000   0.000  -0.003   0.000   0.000  -0.002
  0.000   0.000  -4.809   0.000   0.000  -0.072   0.000   0.000
  0.000   0.000   0.000  -4.809   0.000   0.000  -0.072   0.000
  0.190  -0.003   0.000   0.000  -5.166   0.000   0.000  -0.128
  0.000   0.000  -0.072   0.000   0.000  -0.777   0.000   0.000
  0.000   0.000   0.000  -0.072   0.000   0.000  -0.777   0.000
 -0.196  -0.002   0.000   0.000  -0.128   0.000   0.000  -0.790
 total augmentation occupancy for first ion, spin component:           1
  2.666   6.351   0.000   0.000   1.153   0.000   0.000  -0.403
  6.351  61.162   0.000   0.000   7.260   0.000   0.000  -4.770
  0.000   0.000   1.488   0.000   0.000   0.207   0.000   0.000
  0.000   0.000   0.000   1.488   0.000   0.000   0.207   0.000
  1.153   7.260   0.000   0.000   3.177   0.000   0.000  -0.211
  0.000   0.000   0.207   0.000   0.000   0.029   0.000   0.000
  0.000   0.000   0.000   0.207   0.000   0.000   0.029   0.000
 -0.403  -4.770   0.000   0.000  -0.211   0.000   0.000   0.427


------------------------ aborting loop because EDIFF is reached ----------------------------------------


    CHARGE:  cpu time    0.41: real time    0.67
    FORLOC:  cpu time    0.16: real time    0.16
    FORNL :  cpu time    0.04: real time    0.04
    STRESS:  cpu time    0.37: real time    0.54
    FORHAR:  cpu time    0.79: real time    0.79
    MIXING:  cpu time    0.09: real time    0.09

  FORCE on cell =-STRESS in cart. coord.  units (eV):
  Direction    XX          YY          ZZ          XY          YZ          ZX
  --------------------------------------------------------------------------------------
  Alpha Z     0.43525     0.43525     0.43525
  Ewald     463.81811   -68.24957   -68.24957     0.00000     0.00000     0.00000
  Hartree   291.88685   211.97766   211.97766     0.00000     0.00000     0.00000
  E(xc)     -48.35608   -49.59419   -49.59419     0.00000     0.00000     0.00000
  Local    -635.29376  -305.19617  -305.19617     0.00000     0.00000     0.00000
  n-local   -58.39456   -39.52461   -39.52461     0.00000     0.00000     0.00000
  augment     5.17350     9.33206     9.33206     0.00000     0.00000     0.00000
  Kinetic   239.64190   219.76086   219.76086     0.00000     0.00000     0.00000
  Fock        0.00000     0.00000     0.00000     0.00000     0.00000     0.00000
  -------------------------------------------------------------------------------------
  Total     258.91122   -21.05870   -21.05870     0.00000     0.00000     0.00000
  in kB     414.82168   -33.73977   -33.73977     0.00000     0.00000     0.00000
  external pressure =      115.78 kB  Pullay stress =        0.00 kB


 VOLUME and BASIS-vectors are now :
 -----------------------------------------------------------------------------
  energy-cutoff  :      250.00
  volume of cell :     1000.00
      direct lattice vectors                 reciprocal lattice vectors
    10.000000000  0.000000000  0.000000000     0.100000000  0.000000000  0.000000000
     0.000000000 10.000000000  0.000000000     0.000000000  0.100000000  0.000000000
     0.000000000  0.000000000 10.000000000     0.000000000  0.000000000  0.100000000

  length of vectors
    10.000000000 10.000000000 10.000000000     0.100000000  0.100000000  0.100000000


 FORCES acting on ions
    electron-ion (+dipol)            ewald-force                    non-local-force                 convergence-correction
 -----------------------------------------------------------------------------------------------
   0.379E+03 0.496E-14 0.205E-05   -.816E+03 -.150E-16 -.279E-16   0.109E+02 0.827E-24 0.000E+00   -.192E-02 0.536E-13 0.899E-14
[...]
  -V(xc)+E(xc)   XCENC  =        40.83391727
  PAW double counting   =       400.87255627     -403.27787586
  entropy T*S    EENTRO =         0.00289895
  eigenvalues    EBANDS =      -153.07516871
  atomic energy  EATOM  =       575.53126682
  ---------------------------------------------------
  free energy    TOTEN  =       -15.16727825 eV

  energy without entropy =      -15.17017720  energy(sigma->0) =      -15.16824456


--------------------------------------------------------------------------------------------------------




----------------------------------------- Iteration    7(   2)  ---------------------------------------


    POTLOK:  cpu time    3.26: real time    4.55
    SETDIJ:  cpu time    0.01: real time    0.01
     EDDAV:  cpu time    1.12: real time    1.44
       DOS:  cpu time    0.00: real time    0.00
    --------------------------------------------
      LOOP:  cpu time    4.39: real time    6.11

 eigenvalue-minimisations  :    18
 total energy-change (2. order) : 0.8979832E-04  (-0.7869020E-04)
 number of electron       9.9999992 magnetization 
 augmentation part        0.5753590 magnetization 

 Free energy of the ion-electron system (eV)
  ---------------------------------------------------
  alpha Z        PSCENC =         0.43525486
  Ewald energy   TEWEN  =       101.22198442
  -1/2 Hartree   DENC   =      -577.82170608
  -exchange  EXHF       =         0.00000000
  -V(xc)+E(xc)   XCENC  =        40.84071270
  PAW double counting   =       401.48264449     -403.89022324
  entropy T*S    EENTRO =         0.00289895
  eigenvalues    EBANDS =      -152.97002137
  atomic energy  EATOM  =       575.53126682
  ---------------------------------------------------
  free energy    TOTEN  =       -15.16718845 eV

  energy without entropy =      -15.17008740  energy(sigma->0) =      -15.16815476


--------------------------------------------------------------------------------------------------------




 average (electrostatic) potential at core
  the test charge radii are     0.6991  0.7215
  (the norm of the test charge is              1.0000)
       1 -62.1528       2 -85.1647
 
 
 
 E-fermi :  -8.9151     XC(G=0):  -0.6996     alpha+bet : -0.1753


 k-point   1 :       0.0000    0.0000    0.0000
  band No.  band energies     occupation 
      1     -29.7627      2.00000
      2     -14.2313      2.00000
      3     -11.7669      2.00000
      4     -11.7669      2.00000
      5      -8.9572      2.00000
      6      -1.8357      0.00000
      7      -1.8357      0.00000
      8      -0.2513      0.00000
      9       1.0023      0.00000


--------------------------------------------------------------------------------------------------------


 soft charge-density along one line, spin component           1
         0         1         2         3         4         5         6         7         8         9
 total charge-density along one line
 
 pseudopotential strength for first ion, spin component:           1
 10.409   0.026   0.000   0.000   0.022   0.000   0.000  -0.020
  0.026  -0.001   0.000   0.000  -0.001   0.000   0.000   0.000
  0.000   0.000  -4.588   0.000   0.000  -0.009   0.000   0.000
  0.000   0.000   0.000  -4.588   0.000   0.000  -0.009   0.000
  0.022  -0.001   0.000   0.000  -4.595   0.000   0.000  -0.017
  0.000   0.000  -0.009   0.000   0.000  -0.778   0.000   0.000
  0.000   0.000   0.000  -0.009   0.000   0.000  -0.778   0.000
 -0.020   0.000   0.000   0.000  -0.017   0.000   0.000  -0.778
 total augmentation occupancy for first ion, spin component:           1
  1.879  -0.230   0.000   0.000  -0.149   0.000   0.000   0.086
 -0.230   1.636   0.000   0.000  -1.389   0.000   0.000  -0.514
  0.000   0.000   0.550   0.000   0.000   0.151   0.000   0.000
  0.000   0.000   0.000   0.550   0.000   0.000   0.151   0.000
 -0.149  -1.389   0.000   0.000   1.385   0.000   0.000   0.439
  0.000   0.000   0.151   0.000   0.000   0.041   0.000   0.000
  0.000   0.000   0.000   0.151   0.000   0.000   0.041   0.000
  0.086  -0.514   0.000   0.000   0.439   0.000   0.000   0.162


------------------------ aborting loop because EDIFF is reached ----------------------------------------


    CHARGE:  cpu time    0.47: real time    0.68
    FORLOC:  cpu time    0.17: real time    0.17
    FORNL :  cpu time    0.04: real time    0.04
    STRESS:  cpu time    0.57: real time    0.72
    FORHAR:  cpu time    1.09: real time    1.27
    MIXING:  cpu time    0.09: real time    0.19

  FORCE on cell =-STRESS in cart. coord.  units (eV):
  Direction    XX          YY          ZZ          XY          YZ          ZX
  --------------------------------------------------------------------------------------
  Alpha Z     0.43525     0.43525     0.43525
  Ewald     238.32882   -68.55343   -68.55343     0.00000     0.00000     0.00000
  Hartree   264.17531   156.92928   156.92928     0.00000     0.00000     0.00000
  E(xc)     -42.34596   -43.50307   -43.50307     0.00000     0.00000     0.00000
  Local    -620.06201  -232.54234  -232.54234     0.00000     0.00000     0.00000
  n-local   -33.77781   -21.92259   -21.92259     0.00000     0.00000     0.00000
  augment     5.50056     5.88012     5.88013     0.00000     0.00000     0.00000
  Kinetic   176.05537   191.70013   191.70013     0.00000     0.00000     0.00000
  Fock        0.00000     0.00000     0.00000     0.00000     0.00000     0.00000
  -------------------------------------------------------------------------------------
  Total     -11.69047   -11.57665   -11.57665     0.00000     0.00000     0.00000
  in kB     -18.73021   -18.54784   -18.54784     0.00000     0.00000     0.00000
  external pressure =      -18.61 kB  Pullay stress =        0.00 kB


 VOLUME and BASIS-vectors are now :
 -----------------------------------------------------------------------------
  energy-cutoff  :      250.00
  volume of cell :     1000.00
      direct lattice vectors                 reciprocal lattice vectors
    10.000000000  0.000000000  0.000000000     0.100000000  0.000000000  0.000000000
     0.000000000 10.000000000  0.000000000     0.000000000  0.100000000  0.000000000
     0.000000000  0.000000000 10.000000000     0.000000000  0.000000000  0.100000000

  length of vectors
    10.000000000 10.000000000 10.000000000     0.100000000  0.100000000  0.100000000


 FORCES acting on ions
    electron-ion (+dipol)            ewald-force                    non-local-force                 convergence-correction
 -----------------------------------------------------------------------------------------------
   0.239E+03 0.428E-15 -.338E-05   -.267E+03 0.116E-17 -.269E-16   0.280E+02 -.404E-27 0.000E+00   -.232E-01 0.482E-13 -.336E-12
   -.206E+03 0.821E-14 -.391E-05   0.267E+03 -.540E-17 0.194E-16   -.610E+02 0.000E+00 0.129E-25   0.164E+00 0.132E-12 -.165E-11
 -----------------------------------------------------------------------------------------------
   0.328E+02 0.864E-14 -.729E-05   0.000E+00 -.424E-17 -.746E-17   -.330E+02 -.404E-27 0.129E-25   0.141E+00 0.181E-12 -.198E-11
 
 
 POSITION                                       TOTAL-FORCE (eV/Angst)
 -----------------------------------------------------------------------------------
      0.03262      0.00000      0.00000         0.066584      0.000000      0.000000
      1.16738      0.00000      0.00000        -0.066584      0.000000      0.000000
 -----------------------------------------------------------------------------------
    total drift:                                0.005359      0.000000     -0.000007


--------------------------------------------------------------------------------------------------------



  FREE ENERGIE OF THE ION-ELECTRON SYSTEM (eV)
  ---------------------------------------------------
  free  energy   TOTEN  =       -15.167188 eV

  energy  without entropy=      -15.170087  energy(sigma->0) =      -15.168155
 
 d Force = 0.1025310E-02[ 0.256E-03, 0.180E-02]  d Energy = 0.9761206E-03 0.492E-04
 d Force =-0.1020223E+01[-0.102E+01,-0.102E+01]  d Ewald  =-0.1020217E+01-0.585E-05


--------------------------------------------------------------------------------------------------------


    POTLOK:  cpu time    3.02: real time    4.04


--------------------------------------------------------------------------------------------------------


 Quasi-Newton relaxation of ions (Broydens 2nd method)
  g(Force)  = 0.428E-03   g(Stress)= 0.000E+00

 retain information from N=  1 steps
 eigenvalues of (default step * inverse Hessian matrix)
  average eigenvalue of G=   0.0992
 eigenvalue spectrum of G is  0.0992


--------------------------------------------------------------------------------------------------------


    WAVPRE:  cpu time    0.38: real time    0.60
    FEWALD:  cpu time    0.00: real time    0.00
    ORTHCH:  cpu time    0.01: real time    0.01
     LOOP+:  cpu time   14.86: real time   19.72


----------------------------------------- Iteration    8(   1)  ---------------------------------------


    POTLOK:  cpu time    2.35: real time    2.87
    SETDIJ:  cpu time    0.01: real time    0.09
     EDDAV:  cpu time    1.05: real time    1.53
       DOS:  cpu time    0.00: real time    0.00
    CHARGE:  cpu time    0.46: real time    0.70
    MIXING:  cpu time    0.12: real time    0.16
    --------------------------------------------
      LOOP:  cpu time    3.99: real time    5.35

 eigenvalue-minimisations  :    20
 total energy-change (2. order) : 0.1436556E-04  (-0.8107446E-04)
 number of electron       9.9999993 magnetization 
 augmentation part        0.5758856 magnetization 

 Broyden mixing:
  rms(total) = 0.14738E-02    rms(broyden)= 0.14204E-02
  rms(prec ) = 0.17178E-02
  weight for this iteration     100.00

 Free energy of the ion-electron system (eV)
  ---------------------------------------------------
  alpha Z        PSCENC =         0.43525486
  Ewald energy   TEWEN  =       101.39204555
  -1/2 Hartree   DENC   =      -578.03100149
  -exchange  EXHF       =         0.00000000
  -V(xc)+E(xc)   XCENC  =        40.84995478
  PAW double counting   =       402.08807551     -404.49898189
  entropy T*S    EENTRO =         0.00289895
  eigenvalues    EBANDS =      -152.93677698
  atomic energy  EATOM  =       575.53126682
  ---------------------------------------------------
  free energy    TOTEN  =       -15.16726388 eV

  energy without entropy =      -15.17016283  energy(sigma->0) =      -15.16823020


--------------------------------------------------------------------------------------------------------




----------------------------------------- Iteration    8(   2)  ---------------------------------------


    POTLOK:  cpu time    3.26: real time    4.99
    SETDIJ:  cpu time    0.01: real time    0.01
     EDDAV:  cpu time    1.17: real time    1.39
       DOS:  cpu time    0.00: real time    0.00
    --------------------------------------------
      LOOP:  cpu time    4.43: real time    6.39

 eigenvalue-minimisations  :    18
 total energy-change (2. order) :-0.1055985E-04  (-0.1416891E-05)
 number of electron       9.9999993 magnetization 
 augmentation part        0.5758856 magnetization 

 Free energy of the ion-electron system (eV)
  ---------------------------------------------------
  alpha Z        PSCENC =         0.43525486
  Ewald energy   TEWEN  =       101.39204555
  -1/2 Hartree   DENC   =      -578.05156450
  -exchange  EXHF       =         0.00000000
  -V(xc)+E(xc)   XCENC  =        40.85118977
  PAW double counting   =       402.26879082     -404.68042659
  entropy T*S    EENTRO =         0.00289895
  eigenvalues    EBANDS =      -152.91673013
  atomic energy  EATOM  =       575.53126682
  ---------------------------------------------------
  free energy    TOTEN  =       -15.16727444 eV

  energy without entropy =      -15.17017339  energy(sigma->0) =      -15.16824076


--------------------------------------------------------------------------------------------------------




 average (electrostatic) potential at core
  the test charge radii are     0.6991  0.7215
  (the norm of the test charge is              1.0000)
       1 -62.1293       2 -85.1522
 
 
 
 E-fermi :  -8.9056     XC(G=0):  -0.7180     alpha+bet : -0.1753


 k-point   1 :       0.0000    0.0000    0.0000
  band No.  band energies     occupation 
      1     -29.7588      2.00000
      2     -14.2236      2.00000
      3     -11.7642      2.00000
      4     -11.7642      2.00000
      5      -8.9477      2.00000
      6      -1.8224      0.00000
      7      -1.8224      0.00000
      8      -0.2672      0.00000
      9       0.9957      0.00000


--------------------------------------------------------------------------------------------------------


 soft charge-density along one line, spin component           1
         0         1         2         3         4         5         6         7         8         9
 total charge-density along one line
 
 pseudopotential strength for first ion, spin component:           1
 10.408   0.026   0.000   0.000   0.022   0.000   0.000  -0.020
  0.026  -0.001   0.000   0.000  -0.001   0.000   0.000   0.000
  0.000   0.000  -4.586   0.000   0.000  -0.009   0.000   0.000
  0.000   0.000   0.000  -4.586   0.000   0.000  -0.009   0.000
  0.022  -0.001   0.000   0.000  -4.593   0.000   0.000  -0.017
  0.000   0.000  -0.009   0.000   0.000  -0.778   0.000   0.000
  0.000   0.000   0.000  -0.009   0.000   0.000  -0.778   0.000
 -0.020   0.000   0.000   0.000  -0.017   0.000   0.000  -0.778
 total augmentation occupancy for first ion, spin component:           1
  1.878  -0.237   0.000   0.000  -0.148   0.000   0.000   0.087
 -0.237   1.625   0.000   0.000  -1.382   0.000   0.000  -0.512
  0.000   0.000   0.550   0.000   0.000   0.151   0.000   0.000
  0.000   0.000   0.000   0.550   0.000   0.000   0.151   0.000
 -0.148  -1.382   0.000   0.000   1.386   0.000   0.000   0.439
  0.000   0.000   0.151   0.000   0.000   0.042   0.000   0.000
  0.000   0.000   0.000   0.151   0.000   0.000   0.042   0.000
  0.087  -0.512   0.000   0.000   0.439   0.000   0.000   0.162


------------------------ aborting loop because EDIFF is reached ----------------------------------------


    CHARGE:  cpu time    0.41: real time    0.47
    FORLOC:  cpu time    0.17: real time    0.25
    FORNL :  cpu time    0.04: real time    0.04
    STRESS:  cpu time    0.38: real time    0.41
    FORHAR:  cpu time    1.01: real time    1.40
    MIXING:  cpu time    0.07: real time    0.17

  FORCE on cell =-STRESS in cart. coord.  units (eV):
  Direction    XX          YY          ZZ          XY          YZ          ZX
  --------------------------------------------------------------------------------------
  Alpha Z     0.43525     0.43525     0.43525
  Ewald     238.49789   -68.55294   -68.55294     0.00000     0.00000     0.00000
  Hartree   264.15426   156.96417   156.96417     0.00000     0.00000     0.00000
  E(xc)     -42.35684   -43.51445   -43.51445     0.00000     0.00000     0.00000
  Local    -620.10984  -232.61472  -232.61472     0.00000     0.00000     0.00000
  n-local   -33.78731   -21.92802   -21.92802     0.00000     0.00000     0.00000
  augment     5.49622     5.87827     5.87827     0.00000     0.00000     0.00000
  Kinetic   176.07019   191.67971   191.67971     0.00000     0.00000     0.00000
  Fock        0.00000     0.00000     0.00000     0.00000     0.00000     0.00000
  -------------------------------------------------------------------------------------
  Total     -11.60018   -11.65273   -11.65273     0.00000     0.00000     0.00000
  in kB     -18.58555   -18.66974   -18.66974     0.00000     0.00000     0.00000
  external pressure =      -18.64 kB  Pullay stress =        0.00 kB


 VOLUME and BASIS-vectors are now :
 -----------------------------------------------------------------------------
  energy-cutoff  :      250.00
  volume of cell :     1000.00
      direct lattice vectors                 reciprocal lattice vectors
    10.000000000  0.000000000  0.000000000     0.100000000  0.000000000  0.000000000
     0.000000000 10.000000000  0.000000000     0.000000000  0.100000000  0.000000000
     0.000000000  0.000000000 10.000000000     0.000000000  0.000000000  0.100000000

  length of vectors
    10.000000000 10.000000000 10.000000000     0.100000000  0.100000000  0.100000000


 FORCES acting on ions
    electron-ion (+dipol)            ewald-force                    non-local-force                 convergence-correction
 -----------------------------------------------------------------------------------------------
   0.239E+03 0.663E-15 -.328E-05   -.267E+03 -.227E-16 -.910E-18   0.280E+02 0.000E+00 0.000E+00   -.264E-02 0.514E-13 0.127E-12
   -.206E+03 0.703E-14 -.379E-05   0.267E+03 0.185E-16 -.655E-17   -.609E+02 0.420E-25 0.000E+00   0.293E-01 0.145E-12 0.433E-12
 -----------------------------------------------------------------------------------------------
   0.329E+02 0.770E-14 -.707E-05   0.000E+00 -.424E-17 -.746E-17   -.330E+02 0.420E-25 0.000E+00   0.266E-01 0.197E-12 0.560E-12
 
 
 POSITION                                       TOTAL-FORCE (eV/Angst)
 -----------------------------------------------------------------------------------
      0.03294      0.00000      0.00000        -0.033226      0.000000      0.000000
      1.16706      0.00000      0.00000         0.033226      0.000000      0.000000
 -----------------------------------------------------------------------------------
    total drift:                               -0.000463      0.000000     -0.000007


--------------------------------------------------------------------------------------------------------



  FREE ENERGIE OF THE ION-ELECTRON SYSTEM (eV)
  ---------------------------------------------------
  free  energy   TOTEN  =       -15.167274 eV

  energy  without entropy=      -15.170173  energy(sigma->0) =      -15.168241
 
 d Force = 0.1062987E-04[-0.212E-04, 0.424E-04]  d Energy = 0.8599261E-04-0.754E-04
 d Force =-0.1700612E+00[-0.170E+00,-0.170E+00]  d Ewald  =-0.1700611E+00-0.268E-07


--------------------------------------------------------------------------------------------------------


    POTLOK:  cpu time    3.23: real time    4.33


--------------------------------------------------------------------------------------------------------


 Quasi-Newton relaxation of ions (Broydens 2nd method)
  g(Force)  = 0.107E-03   g(Stress)= 0.000E+00

 retain information from N=  1 steps
 eigenvalues of (default step * inverse Hessian matrix)
  average eigenvalue of G=   0.0662
 eigenvalue spectrum of G is  0.0662


--------------------------------------------------------------------------------------------------------


  
 reached required accuracy - stopping structural energy minimisation
 writing wavefunctions
     LOOP+:  cpu time   13.73: real time   18.97
    4ORBIT:  cpu time    0.00: real time    0.00

 total amount of memory used by VASP on root node   154247. kBytes
========================================================================

   base      :      30000. kBytes
   nonl-proj :       1447. kBytes
   fftplans  :      43668. kBytes
   grid      :      77822. kBytes
   one-center:          6. kBytes
   wavefun   :       1304. kBytes
 
  
  
 General timing and accounting informations for this job:
 ========================================================
  
                  Total CPU time used (sec):      351.259
                            User time (sec):      346.709
                          System time (sec):        4.549
                         Elapsed time (sec):      449.777
  
                   Maximum memory used (kb):           0.
                   Average memory used (kb):           0.
  
                          Minor page faults:      1067112
                          Major page faults:            1
                 Voluntary context switches:         2680
