<?xml version="1.0" encoding="ISO-8859-1"?>
<modeling>
 <generator>
  <i name="program" type="string">vasp </i>
  <i name="version" type="string">5.2.12  </i>
  <i name="subversion" type="string">11Nov11 complex                                                      parallel </i>
  <i name="platform" type="string">LinuxIFC </i>
  <i name="date" type="string">2012 10 09 </i>
  <i name="time" type="string">20:19:17 </i>
 </generator>
 <incar>
  <i type="string" name="PREC">accurate</i>
  <i type="int" name="IBRION">     1</i>
  <i name="EDIFFG">     -0.05000000</i>
  <i type="int" name="NSW">    50</i>
  <i type="int" name="ISIF">     2</i>
  <i name="ENCUT">    250.00000000</i>
  <i type="logical" name="LREAL"> F  </i>
  <i type="int" name="ISMEAR">     1</i>
  <i name="SIGMA">      0.05000000</i>
 </incar>
 <kpoints>
  <generation param="Monkhorst-Pack">
   <v type="int" name="divisions">       1        1        1 </v>
   <v name="usershift">      0.00000000       0.00000000       0.00000000 </v>
   <v name="genvec1">      1.00000000       0.00000000       0.00000000 </v>
   <v name="genvec2">      0.00000000       1.00000000       0.00000000 </v>
   <v name="genvec3">      0.00000000       0.00000000       1.00000000 </v>
   <v name="shift">      0.00000000       0.00000000       0.00000000 </v>
  </generation>
  <varray name="kpointlist" >
   <v>       0.00000000       0.00000000       0.00000000 </v>
  </varray>
  <varray name="weights" >
   <v>       1.00000000 </v>
  </varray>
 </kpoints>
 <parameters>
  <separator name="general" >
   <i type="string" name="SYSTEM">unknown system</i>
   <i type="logical" name="LCOMPAT"> F  </i>
  </separator>
  <separator name="electronic" >
   <i type="string" name="PREC">accura</i>
   <i name="ENMAX">    250.00000000</i>
   <i name="ENAUG">    644.87300000</i>
   <i name="EDIFF">      0.00010000</i>
   <i type="int" name="IALGO">    38</i>
   <i type="int" name="IWAVPR">    11</i>
   <i type="int" name="NBANDS">     9</i>
   <i name="NELECT">     10.00000000</i>
   <i type="int" name="TURBO">     0</i>
   <i type="int" name="IRESTART">     0</i>
   <i type="int" name="NREBOOT">     0</i>
   <i type="int" name="NMIN">     0</i>
   <i name="EREF">      0.00000000</i>
   <separator name="electronic smearing" >
    <i type="int" name="ISMEAR">     1</i>
    <i name="SIGMA">      0.05000000</i>
    <i name="KSPACING">      0.50000000</i>
    <i type="logical" name="KGAMMA"> T  </i>
   </separator>
   <separator name="electronic projectors" >
    <i type="logical" name="LREAL"> F  </i>
    <v name="ROPT">      0.00000000      0.00000000</v>
    <i type="int" name="LMAXPAW">  -100</i>
    <i type="int" name="LMAXMIX">     2</i>
    <i type="logical" name="NLSPLINE"> F  </i>
   </separator>
   <separator name="electronic startup" >
    <i type="int" name="ISTART">     0</i>
    <i type="int" name="ICHARG">     2</i>
    <i type="int" name="INIWAV">     1</i>
   </separator>
   <separator name="electronic spin" >
    <i type="int" name="ISPIN">     1</i>
    <i type="logical" name="LNONCOLLINEAR"> F  </i>
    <v name="MAGMOM">      1.00000000      1.00000000</v>
    <i name="NUPDOWN">     -1.00000000</i>
    <i type="logical" name="LSORBIT"> F  </i>
    <v name="SAXIS">      0.00000000      0.00000000      1.00000000</v>
    <i type="logical" name="LSPIRAL"> F  </i>
    <v name="QSPIRAL">      0.00000000      0.00000000      0.00000000</v>
    <i type="logical" name="LZEROZ"> F  </i>
   </separator>
   <separator name="electronic exchange-correlation" >
    <i type="logical" name="LASPH"> F  </i>
    <i type="logical" name="LMETAGGA"> F  </i>
   </separator>
   <separator name="electronic convergence" >
    <i type="int" name="NELM">    60</i>
    <i type="int" name="NELMDL">    -5</i>
    <i type="int" name="NELMIN">     2</i>
    <i name="ENINI">    250.00000000</i>
    <separator name="electronic convergence detail" >
     <i type="logical" name="LDIAG"> T  </i>
     <i type="logical" name="LSUBROT"> T  </i>
     <i name="WEIMIN">      0.00100000</i>
     <i name="EBREAK">      0.00000278</i>
     <i name="DEPER">      0.30000000</i>
     <i type="int" name="NRMM">     4</i>
     <i name="TIME">      0.40000000</i>
    </separator>
   </separator>
   <separator name="electronic mixer" >
    <i name="AMIX">      0.40000000</i>
    <i name="BMIX">      1.00000000</i>
    <i name="AMIN">      0.10000000</i>
    <i name="AMIX_MAG">      1.60000000</i>
    <i name="BMIX_MAG">      1.00000000</i>
    <separator name="electronic mixer details" >
     <i type="int" name="IMIX">     4</i>
     <i type="int" name="MAXMIX">   -45</i>
     <i name="WC">    100.00000000</i>
     <i type="int" name="INIMIX">     1</i>
     <i type="int" name="MIXPRE">     1</i>
     <i type="int" name="MREMOVE">     5</i>
    </separator>
   </separator>
   <separator name="electronic dipolcorrection" >
    <i type="logical" name="LDIPOL"> F  </i>
    <i type="logical" name="LMONO"> F  </i>
    <i type="int" name="IDIPOL">     0</i>
    <i name="EPSILON">      1.00000000</i>
    <v name="DIPOL">   -100.00000000   -100.00000000   -100.00000000</v>
    <i name="EFIELD">      0.00000000</i>
   </separator>
  </separator>
  <separator name="grids" >
   <i type="int" name="NGX">    54</i>
   <i type="int" name="NGY">    54</i>
   <i type="int" name="NGZ">    54</i>
   <i type="int" name="NGXF">   108</i>
   <i type="int" name="NGYF">   108</i>
   <i type="int" name="NGZF">   108</i>
   <i type="logical" name="ADDGRID"> F  </i>
  </separator>
  <separator name="ionic" >
   <i type="int" name="NSW">    50</i>
   <i type="int" name="IBRION">     1</i>
   <i type="int" name="ISIF">     2</i>
   <i name="PSTRESS">      0.00000000</i>
   <i name="EDIFFG">     -0.05000000</i>
   <i type="int" name="NFREE">     0</i>
   <i name="POTIM">      0.50000000</i>
   <i name="SMASS">     -3.00000000</i>
   <i name="SCALEE">      1.00000000</i>
  </separator>
  <separator name="ionic md" >
   <i name="TEBEG">      0.00010000</i>
   <i name="TEEND">      0.00010000</i>
   <i type="int" name="NBLOCK">     1</i>
   <i type="int" name="KBLOCK">    50</i>
   <i type="int" name="NPACO">   256</i>
   <i name="APACO">     16.00000000</i>
  </separator>
  <separator name="symmetry" >
   <i type="int" name="ISYM">     2</i>
   <i name="SYMPREC">      0.00001000</i>
  </separator>
  <separator name="dos" >
   <i type="logical" name="LORBIT"> F  </i>
   <v name="RWIGS">     -1.00000000     -1.00000000</v>
   <i type="int" name="NEDOS">   301</i>
   <i name="EMIN">     10.00000000</i>
   <i name="EMAX">    -10.00000000</i>
   <i name="EFERMI">      0.00000000</i>
  </separator>
  <separator name="writing" >
   <i type="int" name="NWRITE">     2</i>
   <i type="logical" name="LWAVE"> T  </i>
   <i type="logical" name="LCHARG"> T  </i>
   <i type="logical" name="LPARD"> F  </i>
   <i type="logical" name="LVTOT"> F  </i>
   <i type="logical" name="LVHAR"> F  </i>
   <i type="logical" name="LELF"> F  </i>
   <i type="logical" name="LOPTICS"> F  </i>
   <v name="STM">      0.00000000      0.00000000      0.00000000      0.00000000      0.00000000      0.00000000      0.00000000</v>
  </separator>
  <separator name="performance" >
   <i type="int" name="NPAR">     1</i>
   <i type="int" name="NSIM">     4</i>
   <i type="int" name="NBLK">    -1</i>
   <i type="logical" name="LPLANE"> T  </i>
   <i type="logical" name="LSCALAPACK"> F  </i>
   <i type="logical" name="LSCAAWARE"> F  </i>
   <i type="logical" name="LSCALU"> F  </i>
   <i type="logical" name="LASYNC"> F  </i>
   <i type="logical" name="LORBITALREAL"> F  </i>
  </separator>
  <separator name="miscellaneous" >
   <i type="int" name="IDIOT">     3</i>
   <i type="logical" name="LMUSIC"> F  </i>
   <v name="POMASS">     12.01100000     16.00000000</v>
   <v name="DARWINR">      0.00000000      0.00000000</v>
   <v name="DARWINV">      1.00000000      1.00000000</v>
   <i type="logical" name="LCORR"> T  </i>
  </separator>
  <i type="logical" name="GGA_COMPAT"> T  </i>
  <i type="logical" name="LBERRY"> F  </i>
  <i type="int" name="ICORELEVEL">     0</i>
  <i type="logical" name="LDAU"> F  </i>
  <i type="int" name="I_CONSTRAINED_M">     0</i>
  <separator name="electronic exchange-correlation" >
   <i type="string" name="GGA">--</i>
   <i type="int" name="VOSKOWN">     0</i>
   <i type="logical" name="LHFCALC"> F  </i>
   <i type="string" name="PRECFOCK"></i>
   <i type="logical" name="LHFONE"> F  </i>
   <i type="logical" name="LRHFCALC"> F  </i>
   <i type="logical" name="LTHOMAS"> F  </i>
   <i type="logical" name="LMODELHF"> F  </i>
   <i name="ENCUT4O">     -1.00000000</i>
   <i type="int" name="EXXOEP">     0</i>
   <i type="int" name="FOURORBIT">     0</i>
   <i name="AEXX">      0.00000000</i>
   <i name="HFALPHA">      0.00000000</i>
   <i name="ALDAX">      1.00000000</i>
   <i name="AGGAX">      1.00000000</i>
   <i name="ALDAC">      1.00000000</i>
   <i name="AGGAC">      1.00000000</i>
   <i type="int" name="NKREDX">     1</i>
   <i type="int" name="NKREDY">     1</i>
   <i type="int" name="NKREDZ">     1</i>
   <i type="logical" name="SHIFTRED"> F  </i>
   <i type="logical" name="ODDONLY"> F  </i>
   <i type="logical" name="EVENONLY"> F  </i>
   <i type="int" name="LMAXFOCK">     0</i>
   <i type="int" name="NMAXFOCKAE">     0</i>
   <i type="logical" name="LFOCKAEDFT"> F  </i>
   <i name="HFSCREEN">      0.00000000</i>
   <i name="HFSCREENC">      0.00000000</i>
  </separator>
  <separator name="vdW DFT" >
   <i type="logical" name="LUSE_VDW"> F  </i>
   <i name="Zab_VDW">     -0.84910000</i>
   <i name="PARAM1">      0.12340000</i>
   <i name="PARAM2">      1.00000000</i>
   <i name="PARAM3">      0.00000000</i>
  </separator>
  <separator name="model GW" >
   <i type="int" name="MODEL_GW">     0</i>
   <i name="MODEL_EPS0">    300.00000000</i>
   <i name="MODEL_ALPHA">      1.00000000</i>
  </separator>
  <separator name="linear response parameters" >
   <i type="logical" name="LEPSILON"> F  </i>
   <i type="logical" name="LRPA"> F  </i>
   <i type="logical" name="LNABLA"> F  </i>
   <i type="logical" name="LVEL"> F  </i>
   <i type="int" name="KINTER">     0</i>
   <i name="CSHIFT">      0.10000000</i>
   <i name="OMEGAMAX">     -1.00000000</i>
  </separator>
  <separator name="orbital magnetization" >
   <i type="logical" name="NUCIND"> F  </i>
   <v name="MAGPOS">      0.00000000      0.00000000      0.00000000</v>
   <i type="logical" name="LNICSALL"> T  </i>
   <i type="logical" name="ORBITALMAG"> F  </i>
   <i type="logical" name="LMAGBLOCH"> F  </i>
   <i type="logical" name="LCHIMAG"> F  </i>
   <i type="logical" name="LGAUGE"> T  </i>
   <i type="int" name="MAGATOM">     0</i>
   <v name="MAGDIPOL">      0.00000000      0.00000000      0.00000000</v>
   <v name="AVECCONST">      0.00000000      0.00000000      0.00000000</v>
  </separator>
  <separator name="response functions" >
   <i type="logical" name="LADDER"> F  </i>
   <i type="logical" name="LHARTREE"> T  </i>
   <i type="int" name="IBSE">     0</i>
   <i type="logical" name="LTCTE"> F  </i>
   <i type="logical" name="LTETE"> F  </i>
   <i type="logical" name="LFXCEPS"> F  </i>
   <i type="logical" name="L2ORDER"> F  </i>
   <i type="logical" name="LUSEW"> F  </i>
   <i name="ENCUTGW">     -2.00000000</i>
   <i name="ENCUTGWSOFT">     -2.00000000</i>
   <i name="ENCUTLF">     -1.00000000</i>
   <i type="int" name="LMAXMP2">    -1</i>
   <i name="SCISSOR">      0.00000000</i>
   <i type="int" name="NOMEGA">     0</i>
   <i type="int" name="NOMEGAR">     0</i>
   <i type="int" name="NBANDSGW">    -1</i>
   <i type="int" name="NBANDSO">    -1</i>
   <i type="int" name="NBANDSV">    -1</i>
   <i name="OPTEMAX">      0.00000000</i>
   <i type="int" name="NELM">     1</i>
   <i type="int" name="DIM">     3</i>
   <i type="int" name="ANTIRES">     0</i>
   <i name="OMEGAMAX">    -30.00000000</i>
   <i name="OMEGATL">   -200.00000000</i>
   <i type="int" name="OMEGAGRID">     0</i>
   <i name="CSHIFT">     -0.10000000</i>
   <i type="logical" name="SELFENERGY"> F  </i>
   <i type="logical" name="LSPECTRAL"> F  </i>
   <i type="logical" name="ODDONLYGW"> F  </i>
   <i type="logical" name="EVENONLYGW"> F  </i>
   <i type="int" name="NKREDLFX">     1</i>
   <i type="int" name="NKREDLFY">     1</i>
   <i type="int" name="NKREDLFZ">     1</i>
   <i type="int" name="MAXMEM">  1800</i>
   <i type="int" name="TELESCOPE">     0</i>
  </separator>
 </parameters>
 <atominfo>
  <atoms>       2 </atoms>
  <types>       2 </types>
  <array name="atoms" >
   <dimension dim="1">ion</dimension>
   <field type="string">element</field>
   <field type="int">atomtype</field>
   <set>
    <rc><c>C </c><c>   1</c></rc>
    <rc><c>O </c><c>   2</c></rc>
   </set>
  </array>
  <array name="atomtypes" >
   <dimension dim="1">type</dimension>
   <field type="int">atomspertype</field>
   <field type="string">element</field>
   <field>mass</field>
   <field>valence</field>
   <field type="string">pseudopotential</field>
   <set>
    <rc><c>   1</c><c>C </c><c>     12.01100000</c><c>      4.00000000</c><c> PAW_PBE C 08Apr2002                    </c></rc>
    <rc><c>   1</c><c>O </c><c>     16.00000000</c><c>      6.00000000</c><c> PAW_PBE O 08Apr2002                    </c></rc>
   </set>
  </array>
 </atominfo>
 <structure name="initialpos" >
  <crystal>
   <varray name="basis" >
    <v>      10.00000000       0.00000000       0.00000000 </v>
    <v>       0.00000000      10.00000000       0.00000000 </v>
    <v>       0.00000000       0.00000000      10.00000000 </v>
   </varray>
   <i name="volume">   1000.00000000 </i>
   <varray name="rec_basis" >
    <v>       0.10000000       0.00000000       0.00000000 </v>
    <v>       0.00000000       0.10000000       0.00000000 </v>
    <v>       0.00000000       0.00000000       0.10000000 </v>
   </varray>
  </crystal>
  <varray name="positions" >
   <v>       0.00000000       0.00000000       0.00000000 </v>
   <v>       0.12000000       0.00000000       0.00000000 </v>
  </varray>
 </structure>
 <calculation>
  <scstep>
   <time name="dav">    1.12    1.67</time>
   <time name="total">    4.19    5.36</time>
   <energy>
    <i name="alphaZ">      0.43525486 </i>
    <i name="ewald">     84.77797003 </i>
    <i name="hartreedc">   -552.03476690 </i>
    <i name="XCdc">     39.59593989 </i>
    <i name="pawpsdc">    283.82984571 </i>
    <i name="pawaedc">   -286.83001101 </i>
    <i name="eentropy">      0.00289895 </i>
    <i name="bandstr">    -98.16619622 </i>
    <i name="atom">    575.53126682 </i>
    <i name="e_fr_energy">     47.14220214 </i>
    <i name="e_wo_entrp">     47.13930319 </i>
    <i name="e_0_energy">     47.14123582 </i>
   </energy>
  </scstep>
  <scstep>
   <time name="dav">    1.60    2.07</time>
   <time name="total">    1.60    2.07</time>
   <energy>
    <i name="e_fr_energy">     -7.14195060 </i>
    <i name="e_wo_entrp">     -7.14484955 </i>
    <i name="e_0_energy">     -7.14291692 </i>
   </energy>
  </scstep>
  <scstep>
   <time name="dav">    1.97    2.09</time>
   <time name="total">    1.97    2.19</time>
   <energy>
    <i name="e_fr_energy">    -15.29052978 </i>
    <i name="e_wo_entrp">    -15.29342873 </i>
    <i name="e_0_energy">    -15.29149610 </i>
   </energy>
  </scstep>
  <scstep>
   <time name="dav">    1.49    1.86</time>
   <time name="total">    1.50    1.87</time>
   <energy>
    <i name="e_fr_energy">    -15.33036152 </i>
    <i name="e_wo_entrp">    -15.33326048 </i>
    <i name="e_0_energy">    -15.33132784 </i>
   </energy>
  </scstep>
  <scstep>
   <time name="dav">    1.51    1.88</time>
   <time name="total">    1.99    2.52</time>
   <energy>
    <i name="e_fr_energy">    -15.33039728 </i>
    <i name="e_wo_entrp">    -15.33329623 </i>
    <i name="e_0_energy">    -15.33136360 </i>
   </energy>
  </scstep>
  <scstep>
   <time name="dav">    1.14    1.73</time>
   <time name="total">    4.14    5.93</time>
   <energy>
    <i name="e_fr_energy">    -15.02709143 </i>
    <i name="e_wo_entrp">    -15.02999038 </i>
    <i name="e_0_energy">    -15.02805775 </i>
   </energy>
  </scstep>
  <scstep>
   <time name="dav">    1.17    1.29</time>
   <time name="total">    4.54    5.65</time>
   <energy>
    <i name="e_fr_energy">    -14.96419333 </i>
    <i name="e_wo_entrp">    -14.96709228 </i>
    <i name="e_0_energy">    -14.96515965 </i>
   </energy>
  </scstep>
  <scstep>
   <time name="dav">    1.28    1.55</time>
   <time name="total">    5.13    6.45</time>
   <energy>
    <i name="e_fr_energy">    -14.95663344 </i>
    <i name="e_wo_entrp">    -14.95953239 </i>
    <i name="e_0_energy">    -14.95759976 </i>
   </energy>
  </scstep>
  <scstep>
   <time name="dav">    1.01    1.33</time>
   <time name="total">    4.95    6.48</time>
   <energy>
    <i name="e_fr_energy">    -14.95805102 </i>
    <i name="e_wo_entrp">    -14.96094997 </i>
    <i name="e_0_energy">    -14.95901734 </i>
   </energy>
  </scstep>
  <scstep>
   <time name="dav">    1.01    1.66</time>
   <time name="total">    4.00    6.13</time>
   <energy>
    <i name="e_fr_energy">    -14.95897627 </i>
    <i name="e_wo_entrp">    -14.96187522 </i>
    <i name="e_0_energy">    -14.95994259 </i>
   </energy>
  </scstep>
  <scstep>
   <time name="dav">    1.14    1.49</time>
   <time name="total">    4.44    6.36</time>
   <energy>
    <i name="e_fr_energy">    -14.96042406 </i>
    <i name="e_wo_entrp">    -14.96332302 </i>
    <i name="e_0_energy">    -14.96139038 </i>
   </energy>
  </scstep>
  <scstep>
   <time name="dav">    1.24    1.42</time>
   <time name="total">    4.81    5.73</time>
   <energy>
    <i name="e_fr_energy">    -14.96081610 </i>
    <i name="e_wo_entrp">    -14.96371506 </i>
    <i name="e_0_energy">    -14.96178242 </i>
   </energy>
  </scstep>
  <scstep>
   <time name="dav">    1.21    1.39</time>
   <time name="total">    4.76    5.53</time>
   <energy>
    <i name="e_fr_energy">    -14.96161050 </i>
    <i name="e_wo_entrp">    -14.96450945 </i>
    <i name="e_0_energy">    -14.96257682 </i>
   </energy>
  </scstep>
  <scstep>
   <time name="dav">    1.21    1.31</time>
   <time name="total">    4.33    5.14</time>
   <energy>
    <i name="e_fr_energy">    -14.96176531 </i>
    <i name="e_wo_entrp">    -14.96466427 </i>
    <i name="e_0_energy">    -14.96273163 </i>
   </energy>
  </scstep>
  <scstep>
   <time name="dav">    1.14    1.34</time>
   <time name="total">    4.73    5.87</time>
   <energy>
    <i name="e_fr_energy">    -14.96194928 </i>
    <i name="e_wo_entrp">    -14.96484824 </i>
    <i name="e_0_energy">    -14.96291560 </i>
   </energy>
  </scstep>
  <scstep>
   <time name="dav">    1.26    1.31</time>
   <time name="total">    3.93    4.70</time>
   <energy>
    <i name="alphaZ">      0.43525486 </i>
    <i name="ewald">     84.77797003 </i>
    <i name="hartreedc">   -564.60277800 </i>
    <i name="XCdc">     40.35154489 </i>
    <i name="pawpsdc">    381.05758026 </i>
    <i name="pawaedc">   -383.38223596 </i>
    <i name="eentropy">      0.00289895 </i>
    <i name="bandstr">   -149.13351260 </i>
    <i name="atom">    575.53126682 </i>
    <i name="e_fr_energy">    -14.96201074 </i>
    <i name="e_wo_entrp">    -14.96490970 </i>
    <i name="e_0_energy">    -14.96297706 </i>
   </energy>
  </scstep>
  <parameters_embedded>
   <separator name="dft+d2" >
    <i type="logical" name="LVDW"> F  </i>
   </separator>
  </parameters_embedded>
  <structure>
   <crystal>
    <varray name="basis" >
     <v>      10.00000000       0.00000000       0.00000000 </v>
     <v>       0.00000000      10.00000000       0.00000000 </v>
     <v>       0.00000000       0.00000000      10.00000000 </v>
    </varray>
    <i name="volume">   1000.00000000 </i>
    <varray name="rec_basis" >
     <v>       0.10000000       0.00000000       0.00000000 </v>
     <v>       0.00000000       0.10000000       0.00000000 </v>
     <v>       0.00000000       0.00000000       0.10000000 </v>
    </varray>
   </crystal>
   <varray name="positions" >
    <v>       0.00000000       0.00000000       0.00000000 </v>
    <v>       0.12000000       0.00000000       0.00000000 </v>
   </varray>
  </structure>
  <varray name="forces" >
   <v>       5.69538848       0.00000000       0.00000000 </v>
   <v>      -5.69538848       0.00000000       0.00000000 </v>
  </varray>
  <varray name="stress" >
   <v>     -31.26698173       0.00000000       0.00000000 </v>
   <v>       0.00000000     -18.61627219       0.00000000 </v>
   <v>       0.00000000       0.00000000     -18.61627219 </v>
  </varray>
  <energy>
   <i name="e_fr_energy">    -14.96201074 </i>
   <i name="e_wo_entrp">    -14.96297706 </i>
   <i name="e_0_energy">      0.00289895 </i>
  </energy>
  <time name="totalsc">   69.63   90.36</time>
 </calculation>
 <calculation>
  <scstep>
   <time name="dav">    0.92    1.23</time>
   <time name="total">    4.46    6.15</time>
   <energy>
    <i name="alphaZ">      0.43525486 </i>
    <i name="ewald">    327.31896607 </i>
    <i name="hartreedc">   -653.96605084 </i>
    <i name="XCdc">     43.45132271 </i>
    <i name="pawpsdc">    381.04801067 </i>
    <i name="pawaedc">   -383.37257978 </i>
    <i name="eentropy">      0.00289895 </i>
    <i name="bandstr">   -250.71390500 </i>
    <i name="atom">    575.53126682 </i>
    <i name="e_fr_energy">     39.73518447 </i>
    <i name="e_wo_entrp">     39.73228552 </i>
    <i name="e_0_energy">     39.73421816 </i>
   </energy>
  </scstep>
  <scstep>
   <time name="dav">    2.52    2.59</time>
   <time name="total">    6.47    7.79</time>
   <energy>
    <i name="e_fr_energy">     41.23020477 </i>
    <i name="e_wo_entrp">     41.22730582 </i>
    <i name="e_0_energy">     41.22923846 </i>
   </energy>
  </scstep>
  <scstep>
   <time name="dav">    1.49    1.57</time>
   <time name="total">    4.39    4.82</time>
   <energy>
    <i name="e_fr_energy">     42.79623245 </i>
    <i name="e_wo_entrp">     42.79333349 </i>
    <i name="e_0_energy">     42.79526613 </i>
   </energy>
  </scstep>
  <scstep>
   <time name="dav">    1.08    1.56</time>
   <time name="total">    4.48    5.97</time>
   <energy>
    <i name="e_fr_energy">     42.94693756 </i>
    <i name="e_wo_entrp">     42.94403861 </i>
    <i name="e_0_energy">     42.94597124 </i>
   </energy>
  </scstep>
  <scstep>
   <time name="dav">    1.81    2.47</time>
   <time name="total">    5.43    7.43</time>
   <energy>
    <i name="e_fr_energy">     42.94159279 </i>
    <i name="e_wo_entrp">     42.93869384 </i>
    <i name="e_0_energy">     42.94062647 </i>
   </energy>
  </scstep>
  <scstep>
   <time name="dav">    1.29    1.37</time>
   <time name="total">    4.80    5.72</time>
   <energy>
    <i name="e_fr_energy">     42.94044633 </i>
    <i name="e_wo_entrp">     42.93754738 </i>
    <i name="e_0_energy">     42.93948001 </i>
   </energy>
  </scstep>
  <scstep>
   <time name="dav">    1.67    2.08</time>
   <time name="total">    4.78    5.56</time>
   <energy>
    <i name="e_fr_energy">     42.93682984 </i>
    <i name="e_wo_entrp">     42.93393088 </i>
    <i name="e_0_energy">     42.93586352 </i>
   </energy>
  </scstep>
  <scstep>
   <time name="dav">    1.04    1.33</time>
   <time name="total">    4.43    5.28</time>
   <energy>
    <i name="e_fr_energy">     42.93366884 </i>
    <i name="e_wo_entrp">     42.93076988 </i>
    <i name="e_0_energy">     42.93270252 </i>
   </energy>
  </scstep>
  <scstep>
   <time name="dav">    1.28    1.53</time>
   <time name="total">    5.32    6.26</time>
   <energy>
    <i name="e_fr_energy">     42.93192522 </i>
    <i name="e_wo_entrp">     42.92902627 </i>
    <i name="e_0_energy">     42.93095890 </i>
   </energy>
  </scstep>
  <scstep>
   <time name="dav">    1.09    1.37</time>
   <time name="total">    4.63    6.37</time>
   <energy>
    <i name="e_fr_energy">     42.93029006 </i>
    <i name="e_wo_entrp">     42.92739111 </i>
    <i name="e_0_energy">     42.92932374 </i>
   </energy>
  </scstep>
  <scstep>
   <time name="dav">    1.79    2.18</time>
   <time name="total">    5.38    6.25</time>
   <energy>
    <i name="e_fr_energy">     42.93007645 </i>
    <i name="e_wo_entrp">     42.92717750 </i>
    <i name="e_0_energy">     42.92911014 </i>
   </energy>
  </scstep>
  <scstep>
   <time name="dav">    1.06    1.23</time>
   <time name="total">    4.53    5.49</time>
   <energy>
    <i name="e_fr_energy">     42.92980876 </i>
    <i name="e_wo_entrp">     42.92690981 </i>
    <i name="e_0_energy">     42.92884244 </i>
   </energy>
  </scstep>
  <scstep>
   <time name="dav">    1.22    1.46</time>
   <time name="total">    4.34    5.85</time>
   <energy>
    <i name="alphaZ">      0.43525486 </i>
    <i name="ewald">    327.31896607 </i>
    <i name="hartreedc">   -715.83981218 </i>
    <i name="XCdc">     46.61914676 </i>
    <i name="pawpsdc">    693.56089288 </i>
    <i name="pawaedc">   -697.77438796 </i>
    <i name="eentropy">      0.00289895 </i>
    <i name="bandstr">   -186.92448208 </i>
    <i name="atom">    575.53126682 </i>
    <i name="e_fr_energy">     42.92974413 </i>
    <i name="e_wo_entrp">     42.92684518 </i>
    <i name="e_0_energy">     42.92877781 </i>
   </energy>
  </scstep>
  <structure>
   <crystal>
    <varray name="basis" >
     <v>      10.00000000       0.00000000       0.00000000 </v>
     <v>       0.00000000      10.00000000       0.00000000 </v>
     <v>       0.00000000       0.00000000      10.00000000 </v>
    </varray>
    <i name="volume">   1000.00000000 </i>
    <varray name="rec_basis" >
     <v>       0.10000000       0.00000000       0.00000000 </v>
     <v>       0.00000000       0.10000000       0.00000000 </v>
     <v>       0.00000000       0.00000000       0.10000000 </v>
    </varray>
   </crystal>
   <varray name="positions" >
    <v>       0.02747607       0.00000000       0.00000000 </v>
    <v>       0.09252393       0.00000000       0.00000000 </v>
   </varray>
  </structure>
  <varray name="forces" >
   <v>    -425.58952836       0.00000000       0.00000000 </v>
   <v>     425.58952836       0.00000000       0.00000000 </v>
  </varray>
  <varray name="stress" >
   <v>     414.82168138       0.00000000       0.00000000 </v>
   <v>       0.00000000     -33.73977207       0.00000000 </v>
   <v>       0.00000000       0.00000000     -33.73977207 </v>
  </varray>
  <energy>
   <i name="e_fr_energy">     42.92974413 </i>
   <i name="e_wo_entrp">     42.92877781 </i>
   <i name="e_0_energy">      0.00289895 </i>
  </energy>
  <time name="totalsc">   69.46   86.67</time>
 </calculation>
 <calculation>
  <scstep>
   <time name="dav">    1.04    1.04</time>
   <time name="total">    4.68    5.34</time>
   <energy>
    <i name="alphaZ">      0.43525486 </i>
    <i name="ewald">     86.51696425 </i>
    <i name="hartreedc">   -612.98813376 </i>
    <i name="XCdc">     43.11033695 </i>
    <i name="pawpsdc">    693.58165386 </i>
    <i name="pawaedc">   -697.79521398 </i>
    <i name="eentropy">      0.00289895 </i>
    <i name="bandstr">   -108.09333595 </i>
    <i name="atom">    575.53126682 </i>
    <i name="e_fr_energy">    -19.69830800 </i>
    <i name="e_wo_entrp">    -19.70120695 </i>
    <i name="e_0_energy">    -19.69927431 </i>
   </energy>
  </scstep>
  <scstep>
   <time name="dav">    1.81    2.55</time>
   <time name="total">    5.23    6.43</time>
   <energy>
    <i name="e_fr_energy">    -15.97743873 </i>
    <i name="e_wo_entrp">    -15.98033769 </i>
    <i name="e_0_energy">    -15.97840505 </i>
   </energy>
  </scstep>
  <scstep>
   <time name="dav">    1.63    2.05</time>
   <time name="total">    5.17    6.96</time>
   <energy>
    <i name="e_fr_energy">    -15.07525907 </i>
    <i name="e_wo_entrp">    -15.07815802 </i>
    <i name="e_0_energy">    -15.07622538 </i>
   </energy>
  </scstep>
  <scstep>
   <time name="dav">    1.61    1.98</time>
   <time name="total">    5.86    7.35</time>
   <energy>
    <i name="e_fr_energy">    -14.99541512 </i>
    <i name="e_wo_entrp">    -14.99831408 </i>
    <i name="e_0_energy">    -14.99638144 </i>
   </energy>
  </scstep>
  <scstep>
   <time name="dav">    0.96    1.16</time>
   <time name="total">    4.69    6.97</time>
   <energy>
    <i name="e_fr_energy">    -14.99686215 </i>
    <i name="e_wo_entrp">    -14.99976110 </i>
    <i name="e_0_energy">    -14.99782846 </i>
   </energy>
  </scstep>
  <scstep>
   <time name="dav">    1.09    1.22</time>
   <time name="total">    4.59    5.56</time>
   <energy>
    <i name="e_fr_energy">    -14.99707247 </i>
    <i name="e_wo_entrp">    -14.99997142 </i>
    <i name="e_0_energy">    -14.99803879 </i>
   </energy>
  </scstep>
  <scstep>
   <time name="dav">    0.96    1.29</time>
   <time name="total">    4.31    5.92</time>
   <energy>
    <i name="e_fr_energy">    -14.99829984 </i>
    <i name="e_wo_entrp">    -15.00119880 </i>
    <i name="e_0_energy">    -14.99926616 </i>
   </energy>
  </scstep>
  <scstep>
   <time name="dav">    1.32    1.72</time>
   <time name="total">    4.70    6.61</time>
   <energy>
    <i name="e_fr_energy">    -15.00006895 </i>
    <i name="e_wo_entrp">    -15.00296790 </i>
    <i name="e_0_energy">    -15.00103527 </i>
   </energy>
  </scstep>
  <scstep>
   <time name="dav">    1.19    1.85</time>
   <time name="total">    4.90    6.84</time>
   <energy>
    <i name="e_fr_energy">    -15.00082722 </i>
    <i name="e_wo_entrp">    -15.00372617 </i>
    <i name="e_0_energy">    -15.00179354 </i>
   </energy>
  </scstep>
  <scstep>
   <time name="dav">    1.22    1.53</time>
   <time name="total">    4.60    6.28</time>
   <energy>
    <i name="e_fr_energy">    -15.00134392 </i>
    <i name="e_wo_entrp">    -15.00424287 </i>
    <i name="e_0_energy">    -15.00231024 </i>
   </energy>
  </scstep>
  <scstep>
   <time name="dav">    1.07    1.17</time>
   <time name="total">    4.93    5.84</time>
   <energy>
    <i name="e_fr_energy">    -15.00153857 </i>
    <i name="e_wo_entrp">    -15.00443752 </i>
    <i name="e_0_energy">    -15.00250488 </i>
   </energy>
  </scstep>
  <scstep>
   <time name="dav">    1.22    1.62</time>
   <time name="total">    5.11    6.52</time>
   <energy>
    <i name="alphaZ">      0.43525486 </i>
    <i name="ewald">     86.51696425 </i>
    <i name="hartreedc">   -566.02038656 </i>
    <i name="XCdc">     40.40340496 </i>
    <i name="pawpsdc">    383.18375804 </i>
    <i name="pawaedc">   -385.51606230 </i>
    <i name="eentropy">      0.00289895 </i>
    <i name="bandstr">   -149.53872229 </i>
    <i name="atom">    575.53126682 </i>
    <i name="e_fr_energy">    -15.00162327 </i>
    <i name="e_wo_entrp">    -15.00452223 </i>
    <i name="e_0_energy">    -15.00258959 </i>
   </energy>
  </scstep>
  <structure>
   <crystal>
    <varray name="basis" >
     <v>      10.00000000       0.00000000       0.00000000 </v>
     <v>       0.00000000      10.00000000       0.00000000 </v>
     <v>       0.00000000       0.00000000      10.00000000 </v>
    </varray>
    <i name="volume">   1000.00000000 </i>
    <varray name="rec_basis" >
     <v>       0.10000000       0.00000000       0.00000000 </v>
     <v>       0.00000000       0.10000000       0.00000000 </v>
     <v>       0.00000000       0.00000000       0.10000000 </v>
    </varray>
   </crystal>
   <varray name="positions" >
    <v>       0.00036282       0.00000000       0.00000000 </v>
    <v>       0.11963718       0.00000000       0.00000000 </v>
   </varray>
  </structure>
  <varray name="forces" >
   <v>       5.22327860       0.00000000       0.00000000 </v>
   <v>      -5.22327860       0.00000000       0.00000000 </v>
  </varray>
  <varray name="stress" >
   <v>     -30.13834550       0.00000000       0.00000000 </v>
   <v>       0.00000000     -18.61118076       0.00000000 </v>
   <v>       0.00000000       0.00000000     -18.61118076 </v>
  </varray>
  <energy>
   <i name="e_fr_energy">    -15.00162327 </i>
   <i name="e_wo_entrp">    -15.00258959 </i>
   <i name="e_0_energy">      0.00289895 </i>
  </energy>
  <time name="totalsc">   64.45   83.82</time>
 </calculation>
 <calculation>
  <scstep>
   <time name="dav">    1.14    1.18</time>
   <time name="total">    5.08    5.79</time>
   <energy>
    <i name="alphaZ">      0.43525486 </i>
    <i name="ewald">     88.11114587 </i>
    <i name="hartreedc">   -566.99903714 </i>
    <i name="XCdc">     40.43132297 </i>
    <i name="pawpsdc">    383.20607629 </i>
    <i name="pawaedc">   -385.53871773 </i>
    <i name="eentropy">      0.00289895 </i>
    <i name="bandstr">   -150.21479668 </i>
    <i name="atom">    575.53126682 </i>
    <i name="e_fr_energy">    -15.03458579 </i>
    <i name="e_wo_entrp">    -15.03748474 </i>
    <i name="e_0_energy">    -15.03555211 </i>
   </energy>
  </scstep>
  <scstep>
   <time name="dav">    1.28    1.53</time>
   <time name="total">    5.05    6.55</time>
   <energy>
    <i name="e_fr_energy">    -15.03433009 </i>
    <i name="e_wo_entrp">    -15.03722905 </i>
    <i name="e_0_energy">    -15.03529641 </i>
   </energy>
  </scstep>
  <scstep>
   <time name="dav">    1.59    2.04</time>
   <time name="total">    4.92    6.58</time>
   <energy>
    <i name="alphaZ">      0.43525486 </i>
    <i name="ewald">     88.11114587 </i>
    <i name="hartreedc">   -567.29665441 </i>
    <i name="XCdc">     40.44980492 </i>
    <i name="pawpsdc">    384.79855139 </i>
    <i name="pawaedc">   -387.13711249 </i>
    <i name="eentropy">      0.00289895 </i>
    <i name="bandstr">   -149.92957761 </i>
    <i name="atom">    575.53126682 </i>
    <i name="e_fr_energy">    -15.03442170 </i>
    <i name="e_wo_entrp">    -15.03732066 </i>
    <i name="e_0_energy">    -15.03538802 </i>
   </energy>
  </scstep>
  <structure>
   <crystal>
    <varray name="basis" >
     <v>      10.00000000       0.00000000       0.00000000 </v>
     <v>       0.00000000      10.00000000       0.00000000 </v>
     <v>       0.00000000       0.00000000      10.00000000 </v>
    </varray>
    <i name="volume">   1000.00000000 </i>
    <varray name="rec_basis" >
     <v>       0.10000000       0.00000000       0.00000000 </v>
     <v>       0.00000000       0.10000000       0.00000000 </v>
     <v>       0.00000000       0.00000000       0.10000000 </v>
    </varray>
   </crystal>
   <varray name="positions" >
    <v>       0.00069155       0.00000000       0.00000000 </v>
    <v>       0.11930845       0.00000000       0.00000000 </v>
   </varray>
  </structure>
  <varray name="forces" >
   <v>       4.77056636       0.00000000       0.00000000 </v>
   <v>      -4.77056636       0.00000000       0.00000000 </v>
  </varray>
  <varray name="stress" >
   <v>     -29.07667595       0.00000000       0.00000000 </v>
   <v>       0.00000000     -18.58031604       0.00000000 </v>
   <v>       0.00000000       0.00000000     -18.58031604 </v>
  </varray>
  <energy>
   <i name="e_fr_energy">    -15.03442170 </i>
   <i name="e_wo_entrp">    -15.03538802 </i>
   <i name="e_0_energy">      0.00289895 </i>
  </energy>
  <time name="totalsc">   21.64   27.44</time>
 </calculation>
 <calculation>
  <scstep>
   <time name="dav">    1.44    1.62</time>
   <time name="total">    4.98    6.05</time>
   <energy>
    <i name="alphaZ">      0.43525486 </i>
    <i name="ewald">    106.06387914 </i>
    <i name="hartreedc">   -577.87974837 </i>
    <i name="XCdc">     40.76256606 </i>
    <i name="pawpsdc">    385.07426236 </i>
    <i name="pawaedc">   -387.41398780 </i>
    <i name="eentropy">      0.00289895 </i>
    <i name="bandstr">   -157.73823327 </i>
    <i name="atom">    575.53126682 </i>
    <i name="e_fr_energy">    -15.16184124 </i>
    <i name="e_wo_entrp">    -15.16474019 </i>
    <i name="e_0_energy">    -15.16280756 </i>
   </energy>
  </scstep>
  <scstep>
   <time name="dav">    1.27    1.60</time>
   <time name="total">    4.90    6.33</time>
   <energy>
    <i name="e_fr_energy">    -15.14946845 </i>
    <i name="e_wo_entrp">    -15.15236740 </i>
    <i name="e_0_energy">    -15.15043477 </i>
   </energy>
  </scstep>
  <scstep>
   <time name="dav">    1.65    1.83</time>
   <time name="total">    5.38    6.20</time>
   <energy>
    <i name="e_fr_energy">    -15.14510671 </i>
    <i name="e_wo_entrp">    -15.14800567 </i>
    <i name="e_0_energy">    -15.14607303 </i>
   </energy>
  </scstep>
  <scstep>
   <time name="dav">    1.04    1.35</time>
   <time name="total">    4.38    5.48</time>
   <energy>
    <i name="e_fr_energy">    -15.14681935 </i>
    <i name="e_wo_entrp">    -15.14971830 </i>
    <i name="e_0_energy">    -15.14778567 </i>
   </energy>
  </scstep>
  <scstep>
   <time name="dav">    1.15    1.27</time>
   <time name="total">    4.87    5.73</time>
   <energy>
    <i name="e_fr_energy">    -15.14766447 </i>
    <i name="e_wo_entrp">    -15.15056342 </i>
    <i name="e_0_energy">    -15.14863079 </i>
   </energy>
  </scstep>
  <scstep>
   <time name="dav">    1.06    1.37</time>
   <time name="total">    4.51    5.19</time>
   <energy>
    <i name="e_fr_energy">    -15.14778129 </i>
    <i name="e_wo_entrp">    -15.15068025 </i>
    <i name="e_0_energy">    -15.14874761 </i>
   </energy>
  </scstep>
  <scstep>
   <time name="dav">    1.33    1.81</time>
   <time name="total">    5.11    7.62</time>
   <energy>
    <i name="e_fr_energy">    -15.14816343 </i>
    <i name="e_wo_entrp">    -15.15106238 </i>
    <i name="e_0_energy">    -15.14912975 </i>
   </energy>
  </scstep>
  <scstep>
   <time name="dav">    1.24    1.35</time>
   <time name="total">    4.53    5.52</time>
   <energy>
    <i name="e_fr_energy">    -15.14840645 </i>
    <i name="e_wo_entrp">    -15.15130541 </i>
    <i name="e_0_energy">    -15.14937277 </i>
   </energy>
  </scstep>
  <scstep>
   <time name="dav">    1.12    1.24</time>
   <time name="total">    4.35    5.03</time>
   <energy>
    <i name="e_fr_energy">    -15.14853610 </i>
    <i name="e_wo_entrp">    -15.15143505 </i>
    <i name="e_0_energy">    -15.14950241 </i>
   </energy>
  </scstep>
  <scstep>
   <time name="dav">    1.43    1.54</time>
   <time name="total">    5.24    5.93</time>
   <energy>
    <i name="e_fr_energy">    -15.14863841 </i>
    <i name="e_wo_entrp">    -15.15153737 </i>
    <i name="e_0_energy">    -15.14960473 </i>
   </energy>
  </scstep>
  <scstep>
   <time name="dav">    1.22    1.38</time>
   <time name="total">    4.67    5.32</time>
   <energy>
    <i name="alphaZ">      0.43525486 </i>
    <i name="ewald">    106.06387914 </i>
    <i name="hartreedc">   -581.79869830 </i>
    <i name="XCdc">     40.99369747 </i>
    <i name="pawpsdc">    408.82490029 </i>
    <i name="pawaedc">   -411.26746693 </i>
    <i name="eentropy">      0.00289895 </i>
    <i name="bandstr">   -153.93442508 </i>
    <i name="atom">    575.53126682 </i>
    <i name="e_fr_energy">    -15.14869276 </i>
    <i name="e_wo_entrp">    -15.15159172 </i>
    <i name="e_0_energy">    -15.14965908 </i>
   </energy>
  </scstep>
  <structure>
   <crystal>
    <varray name="basis" >
     <v>      10.00000000       0.00000000       0.00000000 </v>
     <v>       0.00000000      10.00000000       0.00000000 </v>
     <v>       0.00000000       0.00000000      10.00000000 </v>
    </varray>
    <i name="volume">   1000.00000000 </i>
    <varray name="rec_basis" >
     <v>       0.10000000       0.00000000       0.00000000 </v>
     <v>       0.00000000       0.10000000       0.00000000 </v>
     <v>       0.00000000       0.00000000       0.10000000 </v>
    </varray>
   </crystal>
   <varray name="positions" >
    <v>       0.00415560       0.00000000       0.00000000 </v>
    <v>       0.11584440       0.00000000       0.00000000 </v>
   </varray>
  </structure>
  <varray name="forces" >
   <v>      -2.17657468       0.00000000       0.00000000 </v>
   <v>       2.17657468       0.00000000       0.00000000 </v>
  </varray>
  <varray name="stress" >
   <v>     -14.25834264       0.00000000       0.00000000 </v>
   <v>       0.00000000     -18.75228098       0.00000000 </v>
   <v>       0.00000000       0.00000000     -18.75228098 </v>
  </varray>
  <energy>
   <i name="e_fr_energy">    -15.14869276 </i>
   <i name="e_wo_entrp">    -15.14965908 </i>
   <i name="e_0_energy">      0.00289895 </i>
  </energy>
  <time name="totalsc">   59.19   71.69</time>
 </calculation>
 <calculation>
  <scstep>
   <time name="dav">    1.07    1.80</time>
   <time name="total">    5.47    8.05</time>
   <energy>
    <i name="alphaZ">      0.43525486 </i>
    <i name="ewald">    100.20176725 </i>
    <i name="hartreedc">   -578.40699322 </i>
    <i name="XCdc">     40.89188508 </i>
    <i name="pawpsdc">    408.83410843 </i>
    <i name="pawaedc">   -411.27666293 </i>
    <i name="eentropy">      0.00289895 </i>
    <i name="bandstr">   -151.38186210 </i>
    <i name="atom">    575.53126682 </i>
    <i name="e_fr_energy">    -15.16833686 </i>
    <i name="e_wo_entrp">    -15.17123581 </i>
    <i name="e_0_energy">    -15.16930317 </i>
   </energy>
  </scstep>
  <scstep>
   <time name="dav">    1.10    1.36</time>
   <time name="total">    5.47    7.20</time>
   <energy>
    <i name="e_fr_energy">    -15.16546686 </i>
    <i name="e_wo_entrp">    -15.16836582 </i>
    <i name="e_0_energy">    -15.16643318 </i>
   </energy>
  </scstep>
  <scstep>
   <time name="dav">    1.19    1.39</time>
   <time name="total">    4.56    5.41</time>
   <energy>
    <i name="e_fr_energy">    -15.16579173 </i>
    <i name="e_wo_entrp">    -15.16869069 </i>
    <i name="e_0_energy">    -15.16675805 </i>
   </energy>
  </scstep>
  <scstep>
   <time name="dav">    0.95    1.02</time>
   <time name="total">    4.21    5.21</time>
   <energy>
    <i name="e_fr_energy">    -15.16602455 </i>
    <i name="e_wo_entrp">    -15.16892350 </i>
    <i name="e_0_energy">    -15.16699087 </i>
   </energy>
  </scstep>
  <scstep>
   <time name="dav">    1.12    1.29</time>
   <time name="total">    4.19    5.25</time>
   <energy>
    <i name="e_fr_energy">    -15.16614976 </i>
    <i name="e_wo_entrp">    -15.16904872 </i>
    <i name="e_0_energy">    -15.16711608 </i>
   </energy>
  </scstep>
  <scstep>
   <time name="dav">    1.15    1.51</time>
   <time name="total">    4.04    5.79</time>
   <energy>
    <i name="alphaZ">      0.43525486 </i>
    <i name="ewald">    100.20176725 </i>
    <i name="hartreedc">   -577.13147396 </i>
    <i name="XCdc">     40.81699704 </i>
    <i name="pawpsdc">    400.90167495 </i>
    <i name="pawaedc">   -403.30701196 </i>
    <i name="eentropy">      0.00289895 </i>
    <i name="bandstr">   -152.61758629 </i>
    <i name="atom">    575.53126682 </i>
    <i name="e_fr_energy">    -15.16621233 </i>
    <i name="e_wo_entrp">    -15.16911128 </i>
    <i name="e_0_energy">    -15.16717864 </i>
   </energy>
  </scstep>
  <structure>
   <crystal>
    <varray name="basis" >
     <v>      10.00000000       0.00000000       0.00000000 </v>
     <v>       0.00000000      10.00000000       0.00000000 </v>
     <v>       0.00000000       0.00000000      10.00000000 </v>
    </varray>
    <i name="volume">   1000.00000000 </i>
    <varray name="rec_basis" >
     <v>       0.10000000       0.00000000       0.00000000 </v>
     <v>       0.00000000       0.10000000       0.00000000 </v>
     <v>       0.00000000       0.00000000       0.10000000 </v>
    </varray>
   </crystal>
   <varray name="positions" >
    <v>       0.00307029       0.00000000       0.00000000 </v>
    <v>       0.11692971       0.00000000       0.00000000 </v>
   </varray>
  </structure>
  <varray name="forces" >
   <v>       0.46761819       0.00000000       0.00000000 </v>
   <v>      -0.46761819       0.00000000       0.00000000 </v>
  </varray>
  <varray name="stress" >
   <v>     -19.64178332       0.00000000       0.00000000 </v>
   <v>       0.00000000     -18.69079029       0.00000000 </v>
   <v>       0.00000000       0.00000000     -18.69079029 </v>
  </varray>
  <energy>
   <i name="e_fr_energy">    -15.16621233 </i>
   <i name="e_wo_entrp">    -15.16717864 </i>
   <i name="e_0_energy">      0.00289895 </i>
  </energy>
  <time name="totalsc">   33.89   44.79</time>
 </calculation>
 <calculation>
  <scstep>
   <time name="dav">    1.25    1.58</time>
   <time name="total">    4.63    5.69</time>
   <energy>
    <i name="alphaZ">      0.43525486 </i>
    <i name="ewald">    101.22198442 </i>
    <i name="hartreedc">   -577.71211227 </i>
    <i name="XCdc">     40.83391727 </i>
    <i name="pawpsdc">    400.87255627 </i>
    <i name="pawaedc">   -403.27787586 </i>
    <i name="eentropy">      0.00289895 </i>
    <i name="bandstr">   -153.07516871 </i>
    <i name="atom">    575.53126682 </i>
    <i name="e_fr_energy">    -15.16727825 </i>
    <i name="e_wo_entrp">    -15.17017720 </i>
    <i name="e_0_energy">    -15.16824456 </i>
   </energy>
  </scstep>
  <scstep>
   <time name="dav">    1.12    1.44</time>
   <time name="total">    4.39    6.11</time>
   <energy>
    <i name="alphaZ">      0.43525486 </i>
    <i name="ewald">    101.22198442 </i>
    <i name="hartreedc">   -577.82170608 </i>
    <i name="XCdc">     40.84071270 </i>
    <i name="pawpsdc">    401.48264449 </i>
    <i name="pawaedc">   -403.89022324 </i>
    <i name="eentropy">      0.00289895 </i>
    <i name="bandstr">   -152.97002137 </i>
    <i name="atom">    575.53126682 </i>
    <i name="e_fr_energy">    -15.16718845 </i>
    <i name="e_wo_entrp">    -15.17008740 </i>
    <i name="e_0_energy">    -15.16815476 </i>
   </energy>
  </scstep>
  <structure>
   <crystal>
    <varray name="basis" >
     <v>      10.00000000       0.00000000       0.00000000 </v>
     <v>       0.00000000      10.00000000       0.00000000 </v>
     <v>       0.00000000       0.00000000      10.00000000 </v>
    </varray>
    <i name="volume">   1000.00000000 </i>
    <varray name="rec_basis" >
     <v>       0.10000000       0.00000000       0.00000000 </v>
     <v>       0.00000000       0.10000000       0.00000000 </v>
     <v>       0.00000000       0.00000000       0.10000000 </v>
    </varray>
   </crystal>
   <varray name="positions" >
    <v>       0.00326222       0.00000000       0.00000000 </v>
    <v>       0.11673778       0.00000000       0.00000000 </v>
   </varray>
  </structure>
  <varray name="forces" >
   <v>       0.06658353       0.00000000       0.00000000 </v>
   <v>      -0.06658353       0.00000000       0.00000000 </v>
  </varray>
  <varray name="stress" >
   <v>     -18.73021200       0.00000000       0.00000000 </v>
   <v>       0.00000000     -18.54784116       0.00000000 </v>
   <v>       0.00000000       0.00000000     -18.54784116 </v>
  </varray>
  <energy>
   <i name="e_fr_energy">    -15.16718845 </i>
   <i name="e_wo_entrp">    -15.16815476 </i>
   <i name="e_0_energy">      0.00289895 </i>
  </energy>
  <time name="totalsc">   14.86   19.72</time>
 </calculation>
 <calculation>
  <scstep>
   <time name="dav">    1.05    1.53</time>
   <time name="total">    3.99    5.35</time>
   <energy>
    <i name="alphaZ">      0.43525486 </i>
    <i name="ewald">    101.39204555 </i>
    <i name="hartreedc">   -578.03100149 </i>
    <i name="XCdc">     40.84995478 </i>
    <i name="pawpsdc">    402.08807551 </i>
    <i name="pawaedc">   -404.49898189 </i>
    <i name="eentropy">      0.00289895 </i>
    <i name="bandstr">   -152.93677698 </i>
    <i name="atom">    575.53126682 </i>
    <i name="e_fr_energy">    -15.16726388 </i>
    <i name="e_wo_entrp">    -15.17016283 </i>
    <i name="e_0_energy">    -15.16823020 </i>
   </energy>
  </scstep>
  <scstep>
   <time name="dav">    1.17    1.39</time>
   <time name="total">    4.43    6.39</time>
   <energy>
    <i name="alphaZ">      0.43525486 </i>
    <i name="ewald">    101.39204555 </i>
    <i name="hartreedc">   -578.05156450 </i>
    <i name="XCdc">     40.85118977 </i>
    <i name="pawpsdc">    402.26879082 </i>
    <i name="pawaedc">   -404.68042659 </i>
    <i name="eentropy">      0.00289895 </i>
    <i name="bandstr">   -152.91673013 </i>
    <i name="atom">    575.53126682 </i>
    <i name="e_fr_energy">    -15.16727444 </i>
    <i name="e_wo_entrp">    -15.17017339 </i>
    <i name="e_0_energy">    -15.16824076 </i>
   </energy>
  </scstep>
  <structure>
   <crystal>
    <varray name="basis" >
     <v>      10.00000000       0.00000000       0.00000000 </v>
     <v>       0.00000000      10.00000000       0.00000000 </v>
     <v>       0.00000000       0.00000000      10.00000000 </v>
    </varray>
    <i name="volume">   1000.00000000 </i>
    <varray name="rec_basis" >
     <v>       0.10000000       0.00000000       0.00000000 </v>
     <v>       0.00000000       0.10000000       0.00000000 </v>
     <v>       0.00000000       0.00000000       0.10000000 </v>
    </varray>
   </crystal>
   <varray name="positions" >
    <v>       0.00329409       0.00000000       0.00000000 </v>
    <v>       0.11670591       0.00000000       0.00000000 </v>
   </varray>
  </structure>
  <varray name="forces" >
   <v>      -0.03322607       0.00000000       0.00000000 </v>
   <v>       0.03322607       0.00000000       0.00000000 </v>
  </varray>
  <varray name="stress" >
   <v>     -18.58555105       0.00000000       0.00000000 </v>
   <v>       0.00000000     -18.66973723       0.00000000 </v>
   <v>       0.00000000       0.00000000     -18.66973723 </v>
  </varray>
  <energy>
   <i name="e_fr_energy">    -15.16727444 </i>
   <i name="e_wo_entrp">    -15.16824076 </i>
   <i name="e_0_energy">      0.00289895 </i>
  </energy>
  <time name="totalsc">   13.73   18.97</time>
  <eigenvalues>
   <array>
    <dimension dim="1">band</dimension>
    <dimension dim="2">kpoint</dimension>
    <dimension dim="3">spin</dimension>
    <field>eigene</field>
    <field>occ</field>
    <set>
     <set comment="spin 1">
      <set comment="kpoint 1">
       <r>  -29.7588    1.0000 </r>
       <r>  -14.2236    1.0000 </r>
       <r>  -11.7642    1.0000 </r>
       <r>  -11.7642    1.0000 </r>
       <r>   -8.9477    1.0000 </r>
       <r>   -1.8224    0.0000 </r>
       <r>   -1.8224    0.0000 </r>
       <r>   -0.2672    0.0000 </r>
       <r>    0.9957    0.0000 </r>
      </set>
     </set>
    </set>
   </array>
  </eigenvalues>
  <separator name="orbital magnetization" >
   <v name="MAGDIPOLOUT">      0.00000000      0.00000000      0.00000000</v>
  </separator>
 </calculation>
 <structure name="finalpos" >
  <crystal>
   <varray name="basis" >
    <v>      10.00000000       0.00000000       0.00000000 </v>
    <v>       0.00000000      10.00000000       0.00000000 </v>
    <v>       0.00000000       0.00000000      10.00000000 </v>
   </varray>
   <i name="volume">   1000.00000000 </i>
   <varray name="rec_basis" >
    <v>       0.10000000       0.00000000       0.00000000 </v>
    <v>       0.00000000       0.10000000       0.00000000 </v>
    <v>       0.00000000       0.00000000       0.10000000 </v>
   </varray>
  </crystal>
  <varray name="positions" >
   <v>       0.00329409       0.00000000       0.00000000 </v>
   <v>       0.11670591       0.00000000       0.00000000 </v>
  </varray>
 </structure>
</modeling>
