   1   1   1   0
  0.1892174E+02  0.2991062E-09  0.2991062E-09  0.2991062E-09  0.5000000E-15
  1.000000000000000E-004
  CAR 
 unknown system                          
     24.05232646     -3.47153469  301      5.69291768      1.00000000
     -3.472  0.0000E+00  0.0000E+00  0.0000E+00  0.0000E+00
     -3.380  0.0000E+00  0.0000E+00  0.0000E+00  0.0000E+00
     -3.288  0.0000E+00  0.0000E+00  0.0000E+00  0.0000E+00
     -3.196  0.0000E+00  0.0000E+00  0.0000E+00  0.0000E+00
     -3.105  0.0000E+00  0.0000E+00  0.0000E+00  0.0000E+00
     -3.013  0.0000E+00  0.0000E+00  0.0000E+00  0.0000E+00
     -2.921  0.0000E+00  0.0000E+00  0.0000E+00  0.0000E+00
     -2.829  0.0000E+00  0.0000E+00  0.0000E+00  0.0000E+00
     -2.738  0.0000E+00  0.0000E+00  0.0000E+00  0.0000E+00
     -2.646 -0.3777E-32 -0.3373E-34 -0.3465E-33 -0.3094E-35
     -2.554 -0.3701E-20 -0.9138E-22 -0.3396E-21 -0.8384E-23
     -2.462 -0.3823E-11 -0.2637E-12 -0.3507E-12 -0.2420E-13
     -2.371 -0.3919E-05 -0.7758E-06 -0.3595E-06 -0.7118E-07
     -2.279 -0.1483E-02 -0.1282E-02 -0.1364E-03 -0.1177E-03
     -2.187  0.4185E-01  0.3558E-01  0.3703E-02  0.3146E-02
     -2.095  0.2266E-02  0.8434E-02  0.3911E-02  0.3920E-02
     -2.004 -0.4914E-04 -0.1526E-03  0.3906E-02  0.3906E-02
     -1.912 -0.2100E-02 -0.9476E-03  0.3714E-02  0.3819E-02
     -1.820  0.7515E-01  0.4489E-01  0.1061E-01  0.7938E-02
     -1.728  0.5599E-01  0.8646E-01  0.1575E-01  0.1587E-01
     -1.637 -0.1310E-02 -0.2670E-02  0.1562E-01  0.1563E-01
     -1.545 -0.1424E-02 -0.5810E-03  0.1549E-01  0.1557E-01
     -1.453  0.5911E-01  0.3093E-01  0.2092E-01  0.1841E-01
     -1.361  0.7200E-01  0.1009E+00  0.2752E-01  0.2766E-01
     -1.270 -0.1956E-02 -0.3497E-02  0.2734E-01  0.2734E-01
     -1.178 -0.2333E-02 -0.1245E-02  0.2713E-01  0.2723E-01
     -1.086  0.8226E-01  0.4870E-01  0.3468E-01  0.3170E-01
     -0.994  0.9318E-01  0.1273E+00  0.4322E-01  0.4338E-01
     -0.903 -0.2798E-02 -0.4483E-02  0.4297E-01  0.4297E-01
     -0.811 -0.8240E-02 -0.5249E-02  0.4221E-01  0.4249E-01
     -0.719  0.2231E+00  0.1711E+00  0.6268E-01  0.5819E-01
     -0.627  0.4138E-01  0.9151E-01  0.6647E-01  0.6658E-01
     -0.536 -0.4431E-02 -0.4109E-02  0.6607E-01  0.6621E-01
     -0.444  0.1042E+00  0.7647E-01  0.7563E-01  0.7322E-01
     -0.352  0.2772E-01  0.5469E-01  0.7817E-01  0.7824E-01
     -0.260 -0.5169E-03 -0.1266E-02  0.7812E-01  0.7812E-01
     -0.169 -0.7459E-02 -0.4935E-02  0.7744E-01  0.7767E-01
     -0.077  0.2125E+00  0.1611E+00  0.9694E-01  0.9245E-01
      0.015  0.4772E-01  0.9735E-01  0.1013E+00  0.1014E+00
      0.107  0.1267E+00  0.1141E+00  0.1129E+00  0.1118E+00
      0.198  0.1008E+00  0.6223E-01  0.1222E+00  0.1176E+00
      0.290  0.1629E+00  0.2166E+00  0.1371E+00  0.1374E+00
      0.382  0.1844E-01 -0.3975E-02  0.1388E+00  0.1371E+00
      0.474  0.1532E+00  0.1718E+00  0.1529E+00  0.1528E+00
      0.565 -0.5713E-02 -0.5277E-02  0.1523E+00  0.1523E+00
      0.657 -0.2820E-02 -0.1147E-02  0.1521E+00  0.1522E+00
      0.749  0.1211E+00  0.5184E-01  0.1632E+00  0.1570E+00
      0.841  0.4000E+00  0.4610E+00  0.1999E+00  0.1993E+00
      0.932  0.2465E+00  0.2283E+00  0.2225E+00  0.2202E+00
      1.024 -0.1877E-02  0.2447E-01  0.2223E+00  0.2225E+00
      1.116  0.1082E+00  0.7723E-01  0.2323E+00  0.2296E+00
      1.208  0.2841E+00  0.2701E+00  0.2583E+00  0.2544E+00
      1.299  0.2502E+00  0.2376E+00  0.2813E+00  0.2762E+00
      1.391  0.1641E+00  0.2267E+00  0.2963E+00  0.2970E+00
      1.483  0.4008E+00  0.2308E+00  0.3331E+00  0.3181E+00
      1.575  0.6050E+00  0.6955E+00  0.3886E+00  0.3819E+00
      1.666  0.2487E+00  0.2686E+00  0.4114E+00  0.4066E+00
      1.758  0.2985E+00  0.3322E+00  0.4388E+00  0.4370E+00
      1.850  0.5247E+00  0.4822E+00  0.4870E+00  0.4813E+00
      1.941  0.5074E+00  0.5384E+00  0.5335E+00  0.5307E+00
      2.033  0.2670E+00  0.2314E+00  0.5580E+00  0.5519E+00
      2.125  0.3931E+00  0.4018E+00  0.5941E+00  0.5888E+00
      2.217  0.9596E-01  0.1313E+00  0.6029E+00  0.6008E+00
      2.308  0.6026E+00  0.5880E+00  0.6582E+00  0.6548E+00
      2.400  0.4634E+00  0.3948E+00  0.7007E+00  0.6910E+00
      2.492  0.2374E+00  0.2518E+00  0.7225E+00  0.7141E+00
      2.584  0.9464E+00  0.9438E+00  0.8093E+00  0.8007E+00
      2.675  0.3495E+00  0.3713E+00  0.8414E+00  0.8348E+00
      2.767  0.2603E+00  0.2953E+00  0.8652E+00  0.8618E+00
      2.859  0.3694E+00  0.3822E+00  0.8991E+00  0.8969E+00
      2.951  0.2820E+00  0.2017E+00  0.9250E+00  0.9154E+00
      3.042  0.6199E+00  0.6692E+00  0.9819E+00  0.9768E+00
      3.134  0.4885E+00  0.4787E+00  0.1027E+01  0.1021E+01
      3.226  0.7537E+00  0.7252E+00  0.1096E+01  0.1087E+01
      3.318  0.3969E+00  0.3993E+00  0.1132E+01  0.1124E+01
      3.409  0.2181E+00  0.3023E+00  0.1152E+01  0.1152E+01
      3.501  0.5115E+00  0.4923E+00  0.1199E+01  0.1197E+01
      3.593  0.2639E+00  0.2185E+00  0.1223E+01  0.1217E+01
      3.685  0.4474E+00  0.4371E+00  0.1264E+01  0.1257E+01
      3.776  0.8591E+00  0.7956E+00  0.1343E+01  0.1330E+01
      3.868  0.4741E+00  0.6108E+00  0.1387E+01  0.1386E+01
      3.960  0.2559E+00  0.1684E+00  0.1410E+01  0.1401E+01
      4.052  0.8785E+00  0.7926E+00  0.1491E+01  0.1474E+01
      4.143  0.6051E+00  0.7185E+00  0.1546E+01  0.1540E+01
      4.235  0.1801E+00  0.2444E+00  0.1563E+01  0.1562E+01
      4.327  0.3463E+00  0.3036E+00  0.1595E+01  0.1590E+01
      4.419  0.4200E+00  0.3903E+00  0.1633E+01  0.1626E+01
      4.510  0.8066E+00  0.7466E+00  0.1707E+01  0.1695E+01
      4.602  0.8259E+00  0.8703E+00  0.1783E+01  0.1775E+01
      4.694  0.1558E+00  0.2390E+00  0.1797E+01  0.1796E+01
      4.786  0.6266E+00  0.5253E+00  0.1855E+01  0.1845E+01
      4.877  0.4508E+00  0.5124E+00  0.1896E+01  0.1892E+01
      4.969  0.7970E+00  0.6952E+00  0.1969E+01  0.1955E+01
      5.061  0.1119E+01  0.1178E+01  0.2072E+01  0.2063E+01
      5.153  0.3924E+00  0.4170E+00  0.2108E+01  0.2102E+01
      5.244  0.1079E+01  0.1037E+01  0.2207E+01  0.2197E+01
      5.336  0.2364E+00  0.2996E+00  0.2229E+01  0.2224E+01
      5.428  0.6433E+00  0.5160E+00  0.2288E+01  0.2272E+01
      5.520  0.1186E+01  0.1235E+01  0.2396E+01  0.2385E+01
      5.611  0.5081E+00  0.5889E+00  0.2443E+01  0.2439E+01
      5.703  0.8092E+00  0.7047E+00  0.2517E+01  0.2504E+01
      5.795  0.1798E+00  0.3043E+00  0.2534E+01  0.2532E+01
      5.887  0.5218E+00  0.5006E+00  0.2582E+01  0.2578E+01
      5.978  0.7223E+00  0.6273E+00  0.2648E+01  0.2635E+01
      6.070  0.7126E+00  0.6822E+00  0.2713E+01  0.2698E+01
      6.162  0.6554E+00  0.7922E+00  0.2773E+01  0.2770E+01
      6.254  0.4511E+00  0.4289E+00  0.2815E+01  0.2810E+01
      6.345  0.4721E+00  0.3904E+00  0.2858E+01  0.2846E+01
      6.437  0.8169E+00  0.8423E+00  0.2933E+01  0.2923E+01
      6.529  0.3820E+00  0.4496E+00  0.2968E+01  0.2964E+01
      6.621  0.9862E+00  0.8824E+00  0.3059E+01  0.3045E+01
      6.712  0.3256E+00  0.3999E+00  0.3088E+01  0.3082E+01
      6.804  0.6231E+00  0.6433E+00  0.3146E+01  0.3141E+01
      6.896  0.4401E+00  0.3991E+00  0.3186E+01  0.3177E+01
      6.988  0.4750E+00  0.5464E+00  0.3230E+01  0.3228E+01
      7.079  0.1926E+00  0.1479E+00  0.3247E+01  0.3241E+01
      7.171  0.4371E+00  0.4880E+00  0.3287E+01  0.3286E+01
      7.263  0.4562E+00  0.4332E+00  0.3329E+01  0.3326E+01
      7.355  0.4541E+00  0.3116E+00  0.3371E+01  0.3354E+01
      7.446  0.4498E+00  0.5729E+00  0.3412E+01  0.3407E+01
      7.538  0.6586E+00  0.6441E+00  0.3473E+01  0.3466E+01
      7.630  0.1236E+00  0.2017E+00  0.3484E+01  0.3484E+01
      7.722  0.2530E+00  0.1849E+00  0.3507E+01  0.3501E+01
      7.813  0.4088E+00  0.3613E+00  0.3545E+01  0.3535E+01
      7.905  0.7354E+00  0.7184E+00  0.3612E+01  0.3600E+01
      7.997  0.6454E+00  0.7111E+00  0.3671E+01  0.3666E+01
      8.088  0.5427E+00  0.5378E+00  0.3721E+01  0.3715E+01
      8.180  0.8314E+00  0.7206E+00  0.3797E+01  0.3781E+01
      8.272  0.4222E+00  0.6109E+00  0.3836E+01  0.3837E+01
      8.364  0.3010E+00  0.2047E+00  0.3864E+01  0.3856E+01
      8.455  0.4855E+00  0.4470E+00  0.3908E+01  0.3897E+01
      8.547  0.3511E+00  0.4232E+00  0.3941E+01  0.3936E+01
      8.639  0.1418E+00  0.1962E+00  0.3954E+01  0.3954E+01
      8.731 -0.1135E-01 -0.2174E-01  0.3952E+01  0.3952E+01
      8.822  0.4713E+00  0.4131E+00  0.3996E+01  0.3990E+01
      8.914  0.4924E+00  0.4055E+00  0.4041E+01  0.4027E+01
      9.006  0.1070E+01  0.1096E+01  0.4139E+01  0.4127E+01
      9.098  0.2731E+00  0.3624E+00  0.4164E+01  0.4161E+01
      9.189  0.5519E+00  0.4947E+00  0.4215E+01  0.4206E+01
      9.281  0.1312E+00  0.2297E+00  0.4227E+01  0.4227E+01
      9.373  0.2973E-01  0.8254E-03  0.4230E+01  0.4227E+01
      9.465  0.2290E+00  0.2414E+00  0.4251E+01  0.4249E+01
      9.556  0.4077E+00  0.3547E+00  0.4288E+01  0.4282E+01
      9.648  0.2960E+00  0.3309E+00  0.4315E+01  0.4312E+01
      9.740  0.1725E+00  0.1459E+00  0.4331E+01  0.4326E+01
      9.832  0.3166E+00  0.3451E+00  0.4360E+01  0.4357E+01
      9.923  0.6722E-01  0.6172E-01  0.4366E+01  0.4363E+01
     10.015  0.1122E+01  0.9708E+00  0.4469E+01  0.4452E+01
     10.107  0.5657E+00  0.6893E+00  0.4521E+01  0.4515E+01
     10.199  0.5401E+00  0.4966E+00  0.4571E+01  0.4561E+01
     10.290  0.6313E+00  0.6863E+00  0.4628E+01  0.4624E+01
     10.382  0.1174E+00  0.1315E+00  0.4639E+01  0.4636E+01
     10.474  0.2544E+00  0.2604E+00  0.4663E+01  0.4660E+01
     10.566  0.5043E-01  0.8579E-01  0.4667E+01  0.4668E+01
     10.657  0.2887E+00  0.2178E+00  0.4694E+01  0.4688E+01
     10.749  0.4115E+00  0.4171E+00  0.4731E+01  0.4726E+01
     10.841  0.3545E+00  0.3665E+00  0.4764E+01  0.4760E+01
     10.933  0.6326E+00  0.5753E+00  0.4822E+01  0.4812E+01
     11.024  0.1591E+01  0.1499E+01  0.4968E+01  0.4950E+01
     11.116  0.4239E+00  0.6172E+00  0.5007E+01  0.5006E+01
     11.208  0.1019E+01  0.8844E+00  0.5100E+01  0.5088E+01
     11.300  0.4977E+00  0.6010E+00  0.5146E+01  0.5143E+01
     11.391  0.2362E+00  0.2436E+00  0.5168E+01  0.5165E+01
     11.483  0.1561E+00  0.1541E+00  0.5182E+01  0.5179E+01
     11.575  0.6145E+00  0.6127E+00  0.5238E+01  0.5235E+01
     11.667  0.3199E+00  0.2767E+00  0.5268E+01  0.5261E+01
     11.758  0.4756E+00  0.5264E+00  0.5311E+01  0.5309E+01
     11.850  0.6796E+00  0.6123E+00  0.5374E+01  0.5365E+01
     11.942  0.6706E+00  0.6752E+00  0.5435E+01  0.5427E+01
     12.034  0.1562E+00  0.2465E+00  0.5450E+01  0.5450E+01
     12.125 -0.4100E-02 -0.7335E-02  0.5449E+01  0.5449E+01
     12.217  0.1594E-01  0.2570E-02  0.5451E+01  0.5449E+01
     12.309  0.2895E+00  0.2596E+00  0.5477E+01  0.5473E+01
     12.401  0.2215E+00  0.1854E+00  0.5498E+01  0.5490E+01
     12.492  0.6257E+00  0.6850E+00  0.5555E+01  0.5553E+01
     12.584 -0.3435E-02 -0.1430E-02  0.5555E+01  0.5553E+01
     12.676  0.7930E+00  0.7205E+00  0.5627E+01  0.5619E+01
     12.768  0.3623E+00  0.3779E+00  0.5661E+01  0.5654E+01
     12.859  0.3868E+00  0.4558E+00  0.5696E+01  0.5696E+01
     12.951 -0.1767E-01 -0.8694E-02  0.5694E+01  0.5695E+01
     13.043  0.2490E+00  0.1756E+00  0.5717E+01  0.5711E+01
     13.135  0.6570E+00  0.6879E+00  0.5778E+01  0.5774E+01
     13.226 -0.1157E-01  0.2998E-01  0.5777E+01  0.5777E+01
     13.318  0.2271E+00  0.2012E+00  0.5797E+01  0.5795E+01
     13.410  0.3887E+00  0.3104E+00  0.5833E+01  0.5824E+01
     13.502  0.3386E+00  0.3865E+00  0.5864E+01  0.5859E+01
     13.593  0.9380E-01  0.1296E+00  0.5873E+01  0.5871E+01
     13.685  0.4828E+00  0.4631E+00  0.5917E+01  0.5914E+01
     13.777  0.1415E-01  0.4602E-01  0.5918E+01  0.5918E+01
     13.868  0.1280E+00  0.1293E+00  0.5930E+01  0.5930E+01
     13.960 -0.4120E-02  0.9325E-03  0.5930E+01  0.5930E+01
     14.052 -0.1762E-04 -0.7451E-04  0.5930E+01  0.5930E+01
     14.144 -0.1774E-02 -0.7310E-03  0.5930E+01  0.5930E+01
     14.235  0.8544E-01  0.4112E-01  0.5937E+01  0.5933E+01
     14.327  0.1717E+00  0.2101E+00  0.5953E+01  0.5953E+01
     14.419  0.5289E+00  0.4595E+00  0.6002E+01  0.5995E+01
     14.511  0.1073E+00  0.1872E+00  0.6011E+01  0.6012E+01
     14.602  0.1719E+00  0.1109E+00  0.6027E+01  0.6022E+01
     14.694  0.1858E+00  0.1914E+00  0.6044E+01  0.6040E+01
     14.786  0.1554E+00  0.2086E+00  0.6059E+01  0.6059E+01
     14.878  0.1880E+00  0.1336E+00  0.6076E+01  0.6071E+01
     14.969  0.1958E+00  0.2522E+00  0.6094E+01  0.6094E+01
     15.061  0.1895E+00  0.1269E+00  0.6111E+01  0.6106E+01
     15.153  0.1201E+00  0.1452E+00  0.6122E+01  0.6119E+01
     15.245  0.5612E+00  0.5416E+00  0.6174E+01  0.6169E+01
     15.336  0.2617E+00  0.2813E+00  0.6198E+01  0.6195E+01
     15.428  0.5047E+00  0.4923E+00  0.6244E+01  0.6240E+01
     15.520  0.2707E+00  0.2451E+00  0.6269E+01  0.6262E+01
     15.612  0.1338E+00  0.2092E+00  0.6281E+01  0.6282E+01
     15.703  0.1596E+00  0.1013E+00  0.6296E+01  0.6291E+01
     15.795  0.1832E+00  0.2119E+00  0.6313E+01  0.6310E+01
     15.887  0.1284E+00  0.9172E-01  0.6324E+01  0.6319E+01
     15.979  0.4851E+00  0.5427E+00  0.6369E+01  0.6369E+01
     16.070 -0.3316E-01 -0.3151E-01  0.6366E+01  0.6366E+01
     16.162  0.5940E+00  0.5118E+00  0.6420E+01  0.6413E+01
     16.254  0.5563E-01  0.1437E+00  0.6425E+01  0.6426E+01
     16.346  0.1580E+00  0.1080E+00  0.6440E+01  0.6436E+01
     16.437  0.4860E+00  0.4236E+00  0.6484E+01  0.6475E+01
     16.529  0.2563E+00  0.3590E+00  0.6508E+01  0.6507E+01
     16.621 -0.2311E-02  0.3617E-02  0.6508E+01  0.6508E+01
     16.713  0.2967E-01  0.2475E-02  0.6510E+01  0.6508E+01
     16.804  0.2317E+00  0.2589E+00  0.6532E+01  0.6532E+01
     16.896  0.1447E+00  0.6161E-01  0.6545E+01  0.6537E+01
     16.988  0.3602E+00  0.4504E+00  0.6578E+01  0.6579E+01
     17.080  0.3312E+00  0.2495E+00  0.6608E+01  0.6602E+01
     17.171  0.3078E+00  0.3625E+00  0.6637E+01  0.6635E+01
     17.263  0.3182E+00  0.2467E+00  0.6666E+01  0.6658E+01
     17.355  0.2780E+00  0.3387E+00  0.6691E+01  0.6689E+01
     17.447  0.4931E+00  0.4735E+00  0.6737E+01  0.6732E+01
     17.538  0.3689E+00  0.4035E+00  0.6770E+01  0.6769E+01
     17.630 -0.1028E-01  0.5236E-02  0.6770E+01  0.6770E+01
     17.722 -0.9857E-04 -0.2794E-03  0.6770E+01  0.6770E+01
     17.814 -0.8571E-02 -0.8116E-02  0.6769E+01  0.6769E+01
     17.905  0.2548E+00  0.2208E+00  0.6792E+01  0.6789E+01
     17.997  0.5463E-02  0.4185E-01  0.6793E+01  0.6793E+01
     18.089  0.1855E+00  0.8795E-01  0.6810E+01  0.6801E+01
     18.181  0.3827E+00  0.4818E+00  0.6845E+01  0.6845E+01
     18.272  0.6882E-02 -0.1531E-01  0.6845E+01  0.6844E+01
     18.364  0.4928E+00  0.4039E+00  0.6891E+01  0.6881E+01
     18.456  0.6913E+00  0.7396E+00  0.6954E+01  0.6949E+01
     18.548  0.2544E+00  0.2624E+00  0.6977E+01  0.6973E+01
     18.639  0.3602E+00  0.3744E+00  0.7010E+01  0.7007E+01
     18.731  0.1292E-01  0.4015E-01  0.7012E+01  0.7011E+01
     18.823  0.4699E+00  0.4248E+00  0.7055E+01  0.7050E+01
     18.915  0.2259E+00  0.2350E+00  0.7075E+01  0.7071E+01
     19.006  0.3608E+00  0.3284E+00  0.7109E+01  0.7101E+01
     19.098  0.6304E+00  0.7053E+00  0.7166E+01  0.7166E+01
     19.190 -0.3311E-01 -0.1874E+00  0.7163E+01  0.7149E+01
     19.282  0.6115E+01  0.9602E+01  0.7724E+01  0.8030E+01
     19.373  0.5194E+01  0.1757E+01  0.8201E+01  0.8191E+01
     19.465  0.4883E-02  0.9918E-01  0.8201E+01  0.8200E+01
     19.557  0.5143E-01  0.5137E-01  0.8206E+01  0.8205E+01
     19.649  0.4391E+00  0.3708E+00  0.8246E+01  0.8239E+01
     19.740  0.1691E+00  0.2475E+00  0.8262E+01  0.8262E+01
     19.832  0.3147E+00  0.2974E+00  0.8291E+01  0.8289E+01
     19.924  0.4595E+00  0.3667E+00  0.8333E+01  0.8323E+01
     20.015  0.3828E+00  0.4950E+00  0.8368E+01  0.8368E+01
     20.107  0.2196E+00  0.1700E+00  0.8388E+01  0.8384E+01
     20.199  0.2042E+00  0.1995E+00  0.8407E+01  0.8402E+01
     20.291  0.1215E+01  0.1198E+01  0.8518E+01  0.8512E+01
     20.382  0.2032E+00  0.2546E+00  0.8537E+01  0.8535E+01
     20.474  0.2227E+00  0.2201E+00  0.8557E+01  0.8555E+01
     20.566  0.2219E+00  0.2459E+00  0.8578E+01  0.8578E+01
     20.658  0.3726E+00  0.3117E+00  0.8612E+01  0.8606E+01
     20.749  0.1369E+00  0.1990E+00  0.8625E+01  0.8625E+01
     20.841  0.2511E+00  0.2270E+00  0.8648E+01  0.8646E+01
     20.933  0.1258E-01  0.3179E-01  0.8649E+01  0.8648E+01
     21.025  0.9256E-01  0.1448E+00  0.8657E+01  0.8662E+01
     21.116  0.6216E+00  0.7227E+00  0.8714E+01  0.8728E+01
     21.208  0.3965E+00  0.5029E+00  0.8751E+01  0.8774E+01
     21.300  0.2510E+00 -0.1370E-01  0.8774E+01  0.8773E+01
     21.392  0.3312E+00  0.3042E+00  0.8804E+01  0.8801E+01
     21.483  0.1228E+00  0.1324E+00  0.8815E+01  0.8813E+01
     21.575  0.1867E+00  0.2099E+00  0.8832E+01  0.8832E+01
     21.667 -0.8106E-02 -0.1527E-02  0.8832E+01  0.8832E+01
     21.759  0.3047E+00  0.2902E+00  0.8860E+01  0.8859E+01
     21.850  0.2092E+00  0.2141E+00  0.8879E+01  0.8878E+01
     21.942  0.1242E-03  0.5721E-02  0.8879E+01  0.8879E+01
     22.034 -0.7806E-02 -0.8455E-02  0.8878E+01  0.8878E+01
     22.126  0.2869E+00  0.2589E+00  0.8905E+01  0.8902E+01
     22.217  0.2800E+00  0.4416E+00  0.8930E+01  0.8942E+01
     22.309  0.1455E+00  0.1021E+00  0.8944E+01  0.8952E+01
     22.401  0.1068E+00  0.1464E+00  0.8953E+01  0.8965E+01
     22.493 -0.2439E-02 -0.4021E-02  0.8953E+01  0.8965E+01
     22.584 -0.2923E-02 -0.2293E-02  0.8953E+01  0.8965E+01
     22.676  0.8175E-01  0.7091E-01  0.8960E+01  0.8971E+01
     22.768  0.2860E+00  0.2729E+00  0.8987E+01  0.8996E+01
     22.860  0.1510E+00  0.4242E-01  0.9000E+01  0.9000E+01
     22.951 -0.4924E-02 -0.7767E-03  0.9000E+01  0.9000E+01
     23.043 -0.1176E-04 -0.1340E-07  0.9000E+01  0.9000E+01
     23.135 -0.1147E-10 -0.2269E-15  0.9000E+01  0.9000E+01
     23.227  0.0000E+00  0.0000E+00  0.9000E+01  0.9000E+01
     23.318  0.0000E+00  0.0000E+00  0.9000E+01  0.9000E+01
     23.410  0.0000E+00  0.0000E+00  0.9000E+01  0.9000E+01
     23.502  0.0000E+00  0.0000E+00  0.9000E+01  0.9000E+01
     23.594  0.0000E+00  0.0000E+00  0.9000E+01  0.9000E+01
     23.685  0.0000E+00  0.0000E+00  0.9000E+01  0.9000E+01
     23.777  0.0000E+00  0.0000E+00  0.9000E+01  0.9000E+01
     23.869  0.0000E+00  0.0000E+00  0.9000E+01  0.9000E+01
     23.961  0.0000E+00  0.0000E+00  0.9000E+01  0.9000E+01
     24.052  0.0000E+00  0.0000E+00  0.9000E+01  0.9000E+01
     24.05232646     -3.47153469  301      5.69291768      1.00000000
     -3.472  0.0000E+00  0.0000E+00  0.0000E+00  0.0000E+00  0.0000E+00  0.0000E+00  0.0000E+00  0.0000E+00  0.0000E+00  0.0000E+00  0.0000E+00  0.0000E+00  0.0000E+00  0.0000E+00  0.0000E+00  0.0000E+00  0.0000E+00  0.0000E+00
     -3.380  0.0000E+00  0.0000E+00  0.0000E+00  0.0000E+00  0.0000E+00  0.0000E+00  0.0000E+00  0.0000E+00  0.0000E+00  0.0000E+00  0.0000E+00  0.0000E+00  0.0000E+00  0.0000E+00  0.0000E+00  0.0000E+00  0.0000E+00  0.0000E+00
     -3.288  0.0000E+00  0.0000E+00  0.0000E+00  0.0000E+00  0.0000E+00  0.0000E+00  0.0000E+00  0.0000E+00  0.0000E+00  0.0000E+00  0.0000E+00  0.0000E+00  0.0000E+00  0.0000E+00  0.0000E+00  0.0000E+00  0.0000E+00  0.0000E+00
     -3.196  0.0000E+00  0.0000E+00  0.0000E+00  0.0000E+00  0.0000E+00  0.0000E+00  0.0000E+00  0.0000E+00  0.0000E+00  0.0000E+00  0.0000E+00  0.0000E+00  0.0000E+00  0.0000E+00  0.0000E+00  0.0000E+00  0.0000E+00  0.0000E+00
     -3.105  0.0000E+00  0.0000E+00  0.0000E+00  0.0000E+00  0.0000E+00  0.0000E+00  0.0000E+00  0.0000E+00  0.0000E+00  0.0000E+00  0.0000E+00  0.0000E+00  0.0000E+00  0.0000E+00  0.0000E+00  0.0000E+00  0.0000E+00  0.0000E+00
     -3.013  0.0000E+00  0.0000E+00  0.0000E+00  0.0000E+00  0.0000E+00  0.0000E+00  0.0000E+00  0.0000E+00  0.0000E+00  0.0000E+00  0.0000E+00  0.0000E+00  0.0000E+00  0.0000E+00  0.0000E+00  0.0000E+00  0.0000E+00  0.0000E+00
     -2.921  0.0000E+00  0.0000E+00  0.0000E+00  0.0000E+00  0.0000E+00  0.0000E+00  0.0000E+00  0.0000E+00  0.0000E+00  0.0000E+00  0.0000E+00  0.0000E+00  0.0000E+00  0.0000E+00  0.0000E+00  0.0000E+00  0.0000E+00  0.0000E+00
     -2.829  0.0000E+00  0.0000E+00  0.0000E+00  0.0000E+00  0.0000E+00  0.0000E+00  0.0000E+00  0.0000E+00  0.0000E+00  0.0000E+00  0.0000E+00  0.0000E+00  0.0000E+00  0.0000E+00  0.0000E+00  0.0000E+00  0.0000E+00  0.0000E+00
     -2.738  0.0000E+00  0.0000E+00  0.0000E+00  0.0000E+00  0.0000E+00  0.0000E+00  0.0000E+00  0.0000E+00  0.0000E+00  0.0000E+00  0.0000E+00  0.0000E+00  0.0000E+00  0.0000E+00  0.0000E+00  0.0000E+00  0.0000E+00  0.0000E+00
     -2.646 -0.3062E-32 -0.2738E-34 -0.1426E-34 -0.1274E-36 -0.1426E-34 -0.1274E-36 -0.1426E-34 -0.1274E-36 -0.2963E-36 -0.2644E-38 -0.2963E-36 -0.2644E-38 -0.1696E-45 -0.2088E-50 -0.2963E-36 -0.2644E-38 -0.2544E-45 -0.1464E-50
     -2.554 -0.3001E-20 -0.7418E-22 -0.1398E-22 -0.3451E-24 -0.1398E-22 -0.3451E-24 -0.1398E-22 -0.3451E-24 -0.2904E-24 -0.7163E-26 -0.2904E-24 -0.7163E-26 -0.1662E-33 -0.5657E-38 -0.2904E-24 -0.7163E-26 -0.2494E-33 -0.3965E-38
     -2.462 -0.3099E-11 -0.2141E-12 -0.1444E-13 -0.9959E-15 -0.1444E-13 -0.9959E-15 -0.1444E-13 -0.9959E-15 -0.2999E-15 -0.2067E-16 -0.2999E-15 -0.2067E-16 -0.1716E-24 -0.1633E-28 -0.2999E-15 -0.2067E-16 -0.2576E-24 -0.1144E-28
     -2.371 -0.3177E-05 -0.6298E-06 -0.1480E-07 -0.2930E-08 -0.1480E-07 -0.2930E-08 -0.1480E-07 -0.2930E-08 -0.3075E-09 -0.6081E-10 -0.3075E-09 -0.6081E-10 -0.1760E-18 -0.4802E-22 -0.3075E-09 -0.6081E-10 -0.2640E-18 -0.3366E-22
     -2.279 -0.1202E-02 -0.1041E-02 -0.5599E-05 -0.4841E-05 -0.5599E-05 -0.4841E-05 -0.5598E-05 -0.4841E-05 -0.1163E-06 -0.1005E-06 -0.1163E-06 -0.1005E-06 -0.6657E-16 -0.7935E-19 -0.1163E-06 -0.1005E-06 -0.9989E-16 -0.5562E-19
     -2.187  0.3393E-01  0.2888E-01  0.1580E-03  0.1344E-03  0.1580E-03  0.1344E-03  0.1580E-03  0.1344E-03  0.3283E-05  0.2789E-05  0.3283E-05  0.2789E-05  0.1879E-14  0.2202E-17  0.3283E-05  0.2789E-05  0.2819E-14  0.1544E-17
     -2.095  0.1838E-02  0.6847E-02  0.8558E-05  0.3185E-04  0.8558E-05  0.3185E-04  0.8558E-05  0.3185E-04  0.1778E-06  0.6611E-06  0.1778E-06  0.6611E-06  0.9434E-16  0.1466E-18  0.1778E-06  0.6611E-06  0.1304E-15 -0.7606E-18
     -2.004 -0.3983E-04 -0.1239E-03 -0.1855E-06 -0.5764E-06 -0.1855E-06 -0.5764E-06 -0.1948E-06 -0.5777E-06 -0.4045E-08 -0.1199E-07 -0.3862E-08 -0.1197E-07 -0.7031E-10 -0.9997E-11 -0.4045E-08 -0.1199E-07 -0.2110E-09 -0.2999E-10
     -1.912 -0.1651E-02 -0.7464E-03 -0.7433E-05 -0.3355E-05 -0.7433E-05 -0.3355E-05 -0.6978E-04 -0.3150E-04 -0.1433E-05 -0.6472E-06 -0.2123E-06 -0.9576E-07 -0.4701E-06 -0.2119E-06 -0.1433E-05 -0.6472E-06 -0.1410E-05 -0.6358E-06
     -1.820  0.5911E-01  0.3535E-01  0.2660E-03  0.1589E-03  0.2660E-03  0.1589E-03  0.2498E-02  0.1492E-02  0.5130E-04  0.3066E-04  0.7599E-05  0.4536E-05  0.1683E-04  0.1004E-04  0.5130E-04  0.3066E-04  0.5048E-04  0.3012E-04
     -1.728  0.4404E-01  0.6810E-01  0.1982E-03  0.3061E-03  0.1982E-03  0.3061E-03  0.1861E-02  0.2874E-02  0.3822E-04  0.5905E-04  0.5662E-05  0.8737E-05  0.1254E-04  0.1934E-04  0.3822E-04  0.5905E-04  0.3761E-04  0.5801E-04
     -1.637 -0.1030E-02 -0.2103E-02 -0.4641E-05 -0.9456E-05 -0.4641E-05 -0.9456E-05 -0.4354E-04 -0.8877E-04 -0.8943E-06 -0.1824E-05 -0.1332E-06 -0.2699E-06 -0.2933E-06 -0.5972E-06 -0.8943E-06 -0.1824E-05 -0.8800E-06 -0.1792E-05
     -1.545 -0.1086E-02 -0.4436E-03 -0.4438E-04 -0.1810E-04 -0.4438E-04 -0.1810E-04 -0.4568E-05 -0.1882E-05 -0.1257E-05 -0.5130E-06 -0.8514E-05 -0.3471E-05 -0.2570E-06 -0.1048E-06 -0.1257E-05 -0.5130E-06 -0.7710E-06 -0.3143E-06
     -1.453  0.4506E-01  0.2361E-01  0.1843E-02  0.9642E-03  0.1843E-02  0.9642E-03  0.1895E-03  0.9917E-04  0.5218E-04  0.2731E-04  0.3535E-03  0.1850E-03  0.1067E-04  0.5576E-05  0.5218E-04  0.2731E-04  0.3201E-04  0.1673E-04
     -1.361  0.5489E-01  0.7702E-01  0.2244E-02  0.3145E-02  0.2244E-02  0.3145E-02  0.2308E-03  0.3235E-03  0.6356E-04  0.8910E-04  0.4305E-03  0.6033E-03  0.1300E-04  0.1819E-04  0.6356E-04  0.8910E-04  0.3899E-04  0.5456E-04
     -1.270 -0.1491E-02 -0.2669E-02 -0.6096E-04 -0.1090E-03 -0.6096E-04 -0.1090E-03 -0.6299E-05 -0.1122E-04 -0.1734E-05 -0.3090E-05 -0.1170E-04 -0.2091E-04 -0.3532E-06 -0.6304E-06 -0.1735E-05 -0.3090E-05 -0.1058E-05 -0.1891E-05
     -1.178 -0.1718E-02 -0.9180E-03 -0.4197E-04 -0.2621E-04 -0.1217E-03 -0.5589E-04 -0.4197E-04 -0.2617E-04 -0.1085E-04 -0.6931E-05 -0.1234E-04 -0.7494E-05 -0.8839E-05 -0.3286E-05 -0.1234E-04 -0.7486E-05 -0.1402E-09 -0.8458E-09
     -1.086  0.6054E-01  0.3590E-01  0.1193E-02  0.8734E-03  0.4970E-02  0.2547E-02  0.1193E-02  0.8734E-03  0.2961E-03  0.2257E-03  0.3667E-03  0.2570E-03  0.4189E-03  0.1854E-03  0.3667E-03  0.2570E-03  0.5332E-14 -0.1649E-15
     -0.994  0.6849E-01  0.9374E-01  0.4577E-03  0.7721E-03  0.7748E-02  0.1024E-01  0.4577E-03  0.7721E-03  0.6568E-04  0.1339E-03  0.2021E-03  0.3111E-03  0.8086E-03  0.1049E-02  0.2021E-03  0.3111E-03 -0.7946E-14 -0.2582E-15
     -0.903 -0.2057E-02 -0.3300E-02 -0.1186E-04 -0.2194E-04 -0.2370E-03 -0.3730E-03 -0.1222E-04 -0.2200E-04 -0.1456E-05 -0.3143E-05 -0.5578E-05 -0.9694E-05 -0.2500E-04 -0.3888E-04 -0.5583E-05 -0.9695E-05 -0.2121E-07 -0.3819E-08
     -0.811 -0.5863E-02 -0.3740E-02 -0.2266E-03 -0.1443E-03 -0.2150E-04 -0.1397E-04 -0.6770E-03 -0.4311E-03 -0.1275E-03 -0.8121E-04 -0.1197E-04 -0.7630E-05 -0.2403E-04 -0.1531E-04 -0.1879E-04 -0.1197E-04 -0.2653E-04 -0.1687E-04
     -0.719  0.1587E+00  0.1219E+00  0.6136E-02  0.4709E-02  0.5806E-03  0.4456E-03  0.1833E-01  0.1407E-01  0.3452E-02  0.2650E-02  0.3241E-03  0.2488E-03  0.6504E-03  0.4983E-03  0.5087E-03  0.3903E-03  0.7182E-03  0.5503E-03
     -0.627  0.2944E-01  0.6520E-01  0.1138E-02  0.2518E-02  0.1077E-03  0.2383E-03  0.3400E-02  0.7521E-02  0.6404E-03  0.1417E-02  0.6009E-04  0.1330E-03  0.1207E-03  0.2664E-03  0.9433E-04  0.2087E-03  0.1332E-03  0.2942E-03
     -0.536 -0.3053E-02 -0.2869E-02 -0.1038E-03 -0.1025E-03 -0.8554E-04 -0.5401E-04 -0.3326E-03 -0.3193E-03 -0.8504E-04 -0.7326E-04 -0.4738E-04 -0.2993E-04 -0.5263E-05 -0.7492E-05 -0.7534E-04 -0.4755E-04 -0.1173E-04 -0.1173E-04
     -0.444  0.7134E-01  0.5242E-01  0.2358E-02  0.1731E-02  0.2358E-02  0.1731E-02  0.7677E-02  0.5634E-02  0.2077E-02  0.1525E-02  0.1306E-02  0.9583E-03  0.8799E-04  0.6446E-04  0.2077E-02  0.1525E-02  0.2640E-03  0.1934E-03
     -0.352  0.1898E-01  0.3749E-01  0.6273E-03  0.1238E-02  0.6273E-03  0.1238E-02  0.2042E-02  0.4029E-02  0.5526E-03  0.1090E-02  0.3474E-03  0.6853E-03  0.2340E-04  0.4610E-04  0.5526E-03  0.1090E-02  0.7021E-04  0.1383E-03
     -0.260 -0.3537E-03 -0.8675E-03 -0.1204E-04 -0.2871E-04 -0.1217E-04 -0.2873E-04 -0.3750E-04 -0.9313E-04 -0.1017E-04 -0.2521E-04 -0.6677E-05 -0.1590E-04 -0.4788E-06 -0.1074E-05 -0.1017E-04 -0.2521E-04 -0.1314E-05 -0.3202E-05
     -0.169 -0.4892E-02 -0.3248E-02 -0.3348E-03 -0.2521E-03 -0.7732E-03 -0.4773E-03 -0.1548E-04 -0.9821E-05 -0.1811E-04 -0.1350E-04 -0.1947E-03 -0.1457E-03 -0.1454E-03 -0.7583E-04 -0.2537E-04 -0.1723E-04 -0.1566E-04 -0.1186E-04
     -0.077  0.1393E+00  0.1058E+00  0.9017E-02  0.7388E-02  0.2261E-01  0.1653E-01  0.4480E-03  0.3322E-03  0.4896E-03  0.3988E-03  0.5259E-02  0.4293E-02  0.4488E-02  0.3032E-02  0.7148E-03  0.5503E-03  0.4202E-03  0.3455E-03
      0.015  0.3109E-01  0.6359E-01  0.7256E-03  0.2265E-02  0.6652E-02  0.1260E-01  0.7259E-04  0.1765E-03 -0.5977E-04  0.6623E-05  0.3965E-03  0.1300E-02  0.1907E-02  0.3333E-02  0.3837E-04  0.1778E-03  0.3454E-04  0.1052E-03
      0.107  0.7967E-01  0.7181E-01  0.7496E-02  0.6768E-02  0.7113E-02  0.6392E-02  0.1863E-02  0.1683E-02  0.4100E-02  0.3708E-02  0.6642E-02  0.6013E-02 -0.5304E-04 -0.6108E-04  0.4096E-02  0.3702E-02  0.1897E-03  0.1699E-03
      0.198  0.6311E-01  0.3906E-01  0.2409E-02  0.1977E-02  0.1436E-01  0.7669E-02  0.2092E-03  0.3048E-03  0.3486E-03  0.6168E-03  0.2632E-02  0.1990E-02  0.3545E-02  0.1692E-02  0.4302E-03  0.6557E-03  0.1888E-04  0.2988E-04
      0.290  0.1020E+00  0.1358E+00  0.3796E-02  0.5044E-02  0.2346E-01  0.3121E-01  0.2948E-03  0.3988E-03  0.4680E-03  0.6339E-03  0.4172E-02  0.5557E-02  0.5834E-02  0.7745E-02  0.6001E-03  0.8120E-03  0.2695E-04  0.3553E-04
      0.382  0.1068E-01 -0.2657E-02  0.4014E-03 -0.8613E-04  0.1626E-02 -0.7982E-03  0.5052E-03  0.8335E-04  0.9251E-03  0.1635E-03  0.9552E-03  0.2733E-05  0.2359E-03 -0.2276E-03  0.1061E-02  0.1756E-03 -0.8019E-06 -0.1307E-05
      0.474  0.9052E-01  0.1017E+00  0.3175E-02  0.3580E-02  0.1624E-01  0.1814E-01  0.3175E-02  0.3580E-02  0.5659E-02  0.6396E-02  0.6670E-02  0.7523E-02  0.2955E-02  0.3286E-02  0.6670E-02  0.7523E-02 -0.1551E-09 -0.8738E-09
      0.565 -0.3377E-02 -0.3117E-02 -0.1181E-03 -0.1129E-03 -0.6076E-03 -0.5433E-03 -0.1181E-03 -0.1129E-03 -0.2101E-03 -0.2039E-03 -0.2480E-03 -0.2373E-03 -0.1107E-03 -0.9713E-04 -0.2480E-03 -0.2373E-03 -0.1582E-08 -0.2189E-09
      0.657 -0.1630E-02 -0.6655E-03 -0.1653E-03 -0.6696E-04 -0.3853E-05 -0.4045E-05 -0.3550E-03 -0.1428E-03 -0.2099E-03 -0.8406E-04 -0.3525E-04 -0.1353E-04 -0.2674E-04 -0.1127E-04 -0.3066E-04 -0.1185E-04 -0.2411E-04 -0.9666E-05
      0.749  0.7002E-01  0.3038E-01  0.7116E-02  0.3252E-02  0.1335E-03  0.8778E-05  0.1528E-01  0.6823E-02  0.9025E-02  0.3722E-02  0.1496E-02  0.1525E-03  0.1144E-02  0.5345E-03  0.1298E-02  0.1164E-03  0.1039E-02  0.4697E-03
      0.841  0.2234E+00  0.2591E+00  0.1918E-01  0.2282E-01  0.7803E-03  0.8350E-03  0.4475E-01  0.5255E-01  0.3326E-01  0.3774E-01  0.1578E-01  0.1639E-01  0.2087E-02  0.2680E-02  0.1404E-01  0.1454E-01  0.2886E-02  0.3410E-02
      0.932  0.1202E+00  0.1114E+00  0.1645E-02  0.1612E-02  0.2517E-01  0.2212E-01  0.6748E-02  0.6683E-02  0.1416E-01  0.1392E-01  0.1524E-01  0.1496E-01  0.2257E-01  0.1961E-01  0.1501E-01  0.1471E-01  0.2708E-03  0.2705E-03
      1.024 -0.5449E-03  0.1238E-01 -0.8685E-04  0.1019E-03  0.6152E-03  0.3837E-02 -0.1321E-03  0.3974E-03 -0.8537E-03  0.3090E-03 -0.8839E-03  0.3509E-03  0.6854E-03  0.3656E-02 -0.8447E-03  0.3549E-03 -0.7266E-05  0.1558E-04
      1.116  0.4281E-01  0.3035E-01  0.2011E-02  0.1310E-02  0.5954E-03  0.2959E-03  0.2914E-03  0.2243E-03  0.1936E-01  0.1405E-01  0.2039E-01  0.1470E-01 -0.1278E-02 -0.9178E-03  0.1938E-01  0.1406E-01  0.4116E-04  0.2563E-04