    1    1    1    2
  0.1892174E+02  0.2991062E-09  0.2991062E-09  0.2991062E-09  0.5000000E-15
  1.000000000000000E-004
  CAR 
 unknown system                          
    5   60    9
 
  0.6250000E-01  0.6250000E-01  0.6250000E-01  0.3906250E-02
   1       -2.220450     -2.206713
   2        6.020663      6.032964
   3        6.229597      6.242011
   4        6.229597      6.242011
   5        9.032215      9.048305
   6        9.032215      9.048305
   7       18.479042     18.484086
   8       19.276677     19.253283
   9       22.155644     22.172381
 
  0.1875000E+00  0.6250000E-01  0.6250000E-01  0.1171875E-01
   1       -1.450255     -1.436668
   2        5.437081      5.448948
   3        6.528975      6.541657
   4        6.561872      6.574255
   5        8.466284      8.482588
   6        9.156768      9.172498
   7       19.274765     19.251488
   8       19.829442     19.836916
   9       20.616923     20.629480
 
  0.3125000E+00  0.6250000E-01  0.6250000E-01  0.1171875E-01
   1        0.067044      0.080241
   2        4.898395      4.909865
   3        6.398697      6.412868
   4        6.618696      6.632910
   5        8.814336      8.828693
   6        9.941402      9.955386
   7       18.103397     18.117205
   8       19.277877     19.254521
   9       21.812504     21.819254
 
  0.4375000E+00  0.6250000E-01  0.6250000E-01  0.1171875E-01
   1        1.111335      1.123795
   2        5.497686      5.510313
   3        5.981297      5.995494
   4        6.175697      6.190953
   5       10.386150     10.398878
   6       11.321222     11.333720
   7       16.346080     16.359165
   8       19.011039     19.019401
   9       19.290216     19.267719
 
 -0.4375000E+00  0.6250000E-01  0.6250000E-01  0.1171875E-01
   1        1.268498      1.280677
   2        5.610843      5.626281
   3        6.062541      6.077851
   4        6.314633      6.326468
   5       11.423575     11.435680
   6       11.527322     11.539552
   7       15.495899     15.508035
   8       18.092394     18.102687
   9       19.280358     19.256835
 
 -0.3125000E+00  0.6250000E-01  0.6250000E-01  0.1171875E-01
   1        0.885501      0.898231
   2        5.143102      5.154947
   3        6.041541      6.056438
   4        6.361989      6.376751
   5       10.049086     10.062112
   6       10.708784     10.721835
   7       16.899673     16.913172
   8       19.273003     19.250018
   9       19.962819     19.971038
 
 -0.1875000E+00  0.6250000E-01  0.6250000E-01  0.1171875E-01
   1       -0.462137     -0.448765
   2        4.960949      4.972507
   3        6.553122      6.566963
   4        6.702953      6.716288
   5        8.562370      8.577166
   6        9.496957      9.511899
   7       18.778512     18.792084
   8       19.280912     19.257774
   9       21.767446     21.773478
 
 -0.6250000E-01  0.6250000E-01  0.6250000E-01  0.1171875E-01
   1       -1.824368     -1.810705
   2        5.646291      5.658360
   3        6.441524      6.453899
   4        6.453824      6.466218
   5        8.540152      8.556436
   6        9.199917      9.215916
   7       19.275752     19.252664
   8       19.286026     19.291036
   9       21.387071     21.402142
 
  0.1875000E+00  0.1875000E+00  0.6250000E-01  0.1171875E-01
   1       -1.076707     -1.063142
   2        5.009602      5.021342
   3        6.824346      6.837148
   4        6.899634      6.911999
   5        7.797603      7.813545
   6        9.519739      9.535541
   7       19.275136     19.251796
   8       20.671549     20.678725
   9       21.141527     21.153572
 
  0.3125000E+00  0.1875000E+00  0.6250000E-01  0.2343750E-01
   1        0.205517      0.218960
   2        4.377476      4.388835
   3        6.208131      6.223336
   4        7.455873      7.468912
   5        8.174367      8.188007
   6       10.234894     10.249312
   7       19.270138     19.247224
   8       19.940556     19.953780
   9       22.740106     22.746126
 
  0.4375000E+00  0.1875000E+00  0.6250000E-01  0.2343750E-01
   1        1.577494      1.590386
   2        4.415104      4.427431
   3        5.404080      5.418438
   4        7.110510      7.125214
   5        9.996960     10.009631
   6       11.626768     11.639200
   7       17.274621     17.288143
   8       19.280428     19.256993
   9       20.637564     20.647439
 
 -0.4375000E+00  0.1875000E+00  0.6250000E-01  0.2343750E-01
   1        2.028642      2.040590
   2        4.572963      4.589015
   3        5.821250      5.832223
   4        6.770505      6.785826
   5       11.162645     11.174603
   6       12.671313     12.683569
   7       14.893692     14.906423
   8       19.279067     19.255574
   9       19.782573     19.792863
 
 -0.3125000E+00  0.1875000E+00  0.6250000E-01  0.2343750E-01
   1        1.888647      1.900937
   2        4.749226      4.763760
   3        5.326920      5.339235
   4        6.862895      6.878298
   5        9.978471      9.990867
   6       12.415894     12.427941
   7       16.414481     16.427855
   8       19.279885     19.256408
   9       20.226917     20.236931
 
 -0.1875000E+00  0.1875000E+00  0.6250000E-01  0.2343750E-01
   1        0.753474      0.766636
   2        4.485592      4.496784
   3        5.841422      5.856449
   4        7.341123      7.355813
   5        8.198111      8.211541
   6       10.985685     10.998855
   7       19.019618     19.030606
   8       19.298842     19.278184
   9       22.303707     22.312555
 
 -0.6250000E-01  0.1875000E+00  0.6250000E-01  0.2343750E-01
   1       -0.741605     -0.728136
   2        4.967068      4.978670
   3        6.586051      6.599595
   4        6.925111      6.937628
   5        8.038606      8.054350
   6        9.580633      9.595779
   7       19.272235     19.249174
   8       19.899818     19.913133
   9       21.340670     21.346785
 
  0.3125000E+00  0.3125000E+00  0.6250000E-01  0.1171875E-01
   1        0.895740      0.909890
   2        3.629759      3.641007
   3        6.065854      6.081109
   4        8.412981      8.425287
   5        8.783215      8.795126
   6       10.474655     10.489714
   7       19.272648     19.249407
   8       21.040094     21.053834
   9       22.801242     22.144724
 
  0.4375000E+00  0.3125000E+00  0.6250000E-01  0.2343750E-01
   1        1.798968      1.814214
   2        3.311775      3.322879
   3        5.697491      5.710814
   4        8.945924      8.959849
   5       10.098506     10.110453
   6       11.695849     11.708256
   7       18.097290     18.111170
   8       19.282491     19.259155
   9       20.301481     20.314958
 
 -0.4375000E+00  0.3125000E+00  0.6250000E-01  0.2343750E-01
   1        2.554581      2.569371
   2        3.589037      3.601742
   3        5.488968      5.500107
   4        8.344964      8.360230
   5       11.262933     11.274260
   6       13.621277     13.632967
   7       14.592097     14.605468
   8       19.275444     19.252166
   9       20.239696     20.251485
 
 -0.3125000E+00  0.3125000E+00  0.6250000E-01  0.2343750E-01
   1        3.212710      3.224655
   2        3.771078      3.787173
   3        5.017741      5.028131
   4        7.884561      7.900802
   5       10.203773     10.214773
   6       12.774652     12.788022
   7       16.919187     16.931340
   8       19.040863     19.050648
   9       19.286318     19.263665
 
 -0.1875000E+00  0.3125000E+00  0.6250000E-01  0.2343750E-01
   1        2.277190      2.289736
   2        4.458186      4.469920
   3        4.795049      4.809884
   4        7.476496      7.492613
   5        9.105479      9.117286
   6       12.632067     12.644009
   7       17.405223     17.419183
   8       19.281860     19.258365
   9       21.098349     21.108439
 
 -0.6250000E-01  0.3125000E+00  0.6250000E-01  0.2343750E-01
   1        0.783485      0.796473
   2        4.728598      4.740108
   3        5.961470      5.976390
   4        6.733596      6.748176
   5        9.166737      9.180101
   6       10.799677     10.812893
   7       17.869783     17.883553
   8       19.278512     19.255171
   9       21.108522     21.116936
 
  0.4375000E+00  0.4375000E+00  0.6250000E-01  0.1171875E-01
   1        1.549839      1.566543
   2        2.703258      2.714275
   3        7.192025      7.203200
   4       10.408489     10.421755
   5       11.224544     11.235231
   6       11.500731     11.513412
   7       17.494019     17.508198
   8       18.434370     18.448545
   9       19.261544     19.239973
 
 -0.4375000E+00  0.4375000E+00  0.6250000E-01  0.2343750E-01
   1        1.797577      1.814626
   2        2.785407      2.796349
   3        7.231008      7.240933
   4       10.170799     10.186384
   5       11.852042     11.861876
   6       13.289910     13.299647
   7       15.296447     15.311441
   8       17.476905     17.491297
   9       19.257366     19.259886
 
 -0.3125000E+00  0.4375000E+00  0.6250000E-01  0.2343750E-01
   1        2.551877      2.567899
   2        3.455187      3.466922
   3        5.907710      5.917878
   4        8.773358      8.789408
   5       11.198273     11.208644
   6       13.402897     13.417495
   7       15.396147     15.406188
   8       18.800836     18.812630
   9       19.291625     19.268540
 
 -0.1875000E+00  0.4375000E+00  0.6250000E-01  0.2343750E-01
   1        2.663580      2.675347
   2        4.048979      4.065254
   3        5.449380      5.459965
   4        7.350446      7.366048
   5       10.734737     10.746396
   6       13.097576     13.110430
   7       15.193610     15.205989
   8       19.278196     19.254736
   9       20.502263     20.512637
 
 -0.6250000E-01  0.4375000E+00  0.6250000E-01  0.2343750E-01
   1        1.493154      1.505349
   2        5.198950      5.214280
   3        5.952171      5.963916
   4        6.349022      6.364290
   5       10.893359     10.905680
   6       11.935806     11.948024
   7       15.695704     15.708388
   8       18.929287     18.939301
   9       19.281466     19.258047
 
 -0.4375000E+00 -0.4375000E+00  0.6250000E-01  0.1171875E-01
   1        1.468729      1.485896
   2        2.507634      2.518608
   3        8.102489      8.112209
   4       11.045005     11.060017
   5       11.935616     11.945647
   6       12.292372     12.302039
   7       16.134079     16.149118
   8       17.211108     17.225941
   9       18.459526     18.473262
 
 -0.3125000E+00 -0.4375000E+00  0.6250000E-01  0.2343750E-01
   1        1.884834      1.901375
   2        2.964215      2.975221
   3        6.439593      6.450897
   4        9.741957      9.756608
   5       11.184663     11.195789
   6       12.456620     12.467606
   7       16.427578     16.441915
   8       18.607684     18.621469
   9       19.276595     19.253398
 
 -0.1875000E+00 -0.4375000E+00  0.6250000E-01  0.2343750E-01
   1        2.251641      2.264950
   2        3.954000      3.967418
   3        5.207594      5.220117
   4        7.693268      7.708131
   5       10.953438     10.965510
   6       12.410529     12.422334
   7       15.914858     15.928302
   8       19.279162     19.255700
   9       21.254258     21.038937
 
 -0.3125000E+00 -0.3125000E+00  0.6250000E-01  0.1171875E-01
   1        1.476540      1.492070
   2        3.084842      3.095949
   3        6.263531      6.276803
   4        9.410698      9.423121
   5        9.943134      9.954539
   6       11.003849     11.018190
   7       19.244024     19.226123
   8       19.441171     19.449657
   9       20.236022     20.249929
 
 -0.1875000E+00 -0.3125000E+00  0.6250000E-01  0.2343750E-01
   1        1.181738      1.195616
   2        3.799423      3.810622
   3        5.671062      5.686146
   4        8.130924      8.144429
   5        8.993121      9.005651
   6       10.967456     10.981033
   7       19.255964     19.234952
   8       19.623132     19.634626
   9       22.147075     22.160988
 
 -0.1875000E+00 -0.1875000E+00  0.6250000E-01  0.1171875E-01
   1       -0.088733     -0.075144
   2        4.295991      4.307450
   3        6.576650      6.592405
   4        7.559179      7.571492
   5        7.878228      7.890875
   6        9.960347      9.975867
   7       19.274150     19.250835
   8       21.155498     21.168617
   9       22.664680     22.670133
 
  0.1875000E+00  0.1875000E+00  0.1875000E+00  0.3906250E-02
   1       -1.109061     -1.095553
   2        5.290812      5.302556
   3        6.576478      6.589344
   4        6.576478      6.589344
   5        8.853242      8.868923
   6        8.853242      8.868923
   7       19.185962     19.191259
   8       19.294715     19.279121
   9       20.957629     20.964547
 
  0.3125000E+00  0.1875000E+00  0.1875000E+00  0.1171875E-01
   1       -0.106006     -0.092695
   2        4.798263      4.809639
   3        6.327391      6.341520
   4        7.087229      7.100466
   5        7.959158      7.974646
   6       10.127099     10.141089
   7       19.227401     19.217055
   8       19.349929     19.350620
   9       22.105456     22.111539
 
  0.4375000E+00  0.1875000E+00  0.1875000E+00  0.1171875E-01
   1        1.477625      1.490448
   2        4.536793      4.547831
   3        5.405633      5.420875
   4        7.227929      7.243973
   5        8.455193      8.467603
   6       11.911500     11.923833
   7       18.289212     18.302965
   8       19.285214     19.261863
   9       21.480167     21.490755
 
 -0.4375000E+00  0.1875000E+00  0.1875000E+00  0.1171875E-01
   1        2.246028      2.257928
   2        4.536202      4.552289
   3        5.477742      5.488573
   4        6.934769      6.950423
   5       10.285003     10.297051
   6       12.782622     12.794848
   7       15.784944     15.797948
   8       19.279372     19.255872
   9       20.385675     20.395358
 
 -0.3125000E+00  0.1875000E+00  0.1875000E+00  0.1171875E-01
   1        2.111489      2.123862
   2        4.302164      4.317403
   3        5.557606      5.569059
   4        7.096024      7.111107
   5       11.527793     11.539702
   6       12.238793     12.251062
   7       15.154637     15.167571
   8       19.278802     19.255330
   9       20.243192     20.249113
 
 -0.1875000E+00  0.1875000E+00  0.1875000E+00  0.1171875E-01
   1        1.326682      1.340185
   2        4.019739      4.031283
   3        5.564441      5.579338
   4        7.516809      7.530774
   5        9.819904      9.832290
   6       10.992568     11.005946
   7       18.381459     18.395054
   8       19.284299     19.261012
   9       21.523014     21.532539
 
  0.3125000E+00  0.3125000E+00  0.1875000E+00  0.1171875E-01
   1        0.407372      0.420655
   2        4.507695      4.519114
   3        6.119110      6.134263
   4        7.010204      7.023914
   5        8.877156      8.890399
   6       10.257483     10.271630
   7       18.762241     18.775735
   8       19.283679     19.260672
   9       22.083061     22.090407
 
  0.4375000E+00  0.3125000E+00  0.1875000E+00  0.2343750E-01
   1        1.687456      1.700781
   2        4.105794      4.116945
   3        5.197753      5.212923
   4        7.803052      7.818134
   5        8.979139      8.991467
   6       11.862270     11.874608
   7       18.328368     18.342131
   8       19.285955     19.262626
   9       21.711071     21.707616
 
 -0.4375000E+00  0.3125000E+00  0.1875000E+00  0.2343750E-01
   1        3.006784      3.019777
   2        4.041191      4.055848
   3        4.515107      4.526464
   4        7.958429      7.974348
   5       10.010616     10.021853
   6       13.019201     13.031298
   7       16.739086     16.752657
   8       19.278735     19.255393
   9       19.650737     19.661597
 
 -0.3125000E+00  0.3125000E+00  0.1875000E+00  0.2343750E-01
   1        3.091697      3.104592
   2        3.689430      3.704481
   3        5.128664      5.139276
   4        7.845207      7.860897
   5       10.864758     10.876028
   6       14.245877     14.258004
   7       14.416038     14.429108
   8       19.276104     19.252787
   9       20.230176     20.241179
 
 -0.1875000E+00  0.3125000E+00  0.1875000E+00  0.2343750E-01
   1        2.373333      2.387866
   2        3.733694      3.744953
   3        4.942678      4.956284
   4        8.444533      8.459736
   5       10.007261     10.018872
   6       12.618167     12.629804
   7       17.056255     17.070305
   8       19.280391     19.256944
   9       20.113817     20.126109
 
  0.4375000E+00  0.4375000E+00  0.1875000E+00  0.1171875E-01
   1        1.969372      1.983913
   2        3.558626      3.570415
   3        5.489633      5.502792
   4        8.201072      8.215344
   5       11.160692     11.172461
   6       11.530488     11.542935
   7       16.900176     16.913709
   8       19.279575     19.256139
   9       21.082978     21.097681
 
 -0.4375000E+00  0.4375000E+00  0.1875000E+00  0.2343750E-01
   1        2.487471      2.503706
   2        3.454219      3.465231
   3        5.423710      5.435291
   4        8.921034      8.936552
   5       11.021970     11.032679
   6       13.391843     13.402965
   7       15.912451     15.926530
   8       18.544337     18.557163
   9       19.280358     19.256962
 
 -0.3125000E+00  0.4375000E+00  0.1875000E+00  0.2343750E-01
   1        2.947761      2.964568
   2        4.034551      4.045180
   3        4.993323      5.003748
   4        7.924743      7.941109
   5       11.788537     11.798353
   6       14.701186     14.714966
   7       15.517677     15.529388
   8       17.126824     17.139258
   9       19.280986     19.257448
 
 -0.1875000E+00  0.4375000E+00  0.1875000E+00  0.2343750E-01
   1        3.156049      3.172215
   2        3.960683      3.972026
   3        4.605931      4.616996
   4        8.150976      8.166895
   5       10.966429     10.976988
   6       13.654452     13.667161
   7       16.115783     16.128591
   8       18.369261     18.380973
   9       19.281751     19.258076
 
 -0.4375000E+00 -0.4375000E+00  0.1875000E+00  0.1171875E-01
   1        2.057759      2.074377
   2        3.042029      3.053309
   3        6.727531      6.737512
   4        9.647404      9.663051
   5       11.532470     11.542696
   6       13.813743     13.827851
   7       14.379925     14.390454
   8       19.133700     19.135234
   9       19.329240     19.343451
 
 -0.3125000E+00 -0.4375000E+00  0.1875000E+00  0.2343750E-01
   1        2.376356      2.393225
   2        3.315604      3.326452
   3        6.087032      6.097250
   4        8.912271      8.928332
   5       11.802302     11.812113
   6       14.367574     14.378235
   7       15.045670     15.059910
   8       17.376779     17.390304
   9       19.278629     19.255174
 
 -0.3125000E+00 -0.3125000E+00  0.1875000E+00  0.1171875E-01
   1        2.119548      2.135469
   2        3.212784      3.224337
   3        6.071534      6.082749
   4        8.985743      9.000464
   5       11.699138     11.710610
   6       12.719457     12.730607
   7       15.220682     15.234612
   8       19.274912     19.251668
   9       19.898690     19.912832
 
  0.3125000E+00  0.3125000E+00  0.3125000E+00  0.3906250E-02
   1        0.403708      0.416703
   2        5.057800      5.069340
   3        6.363306      6.377887
   4        6.363306      6.377887
   5        9.787055      9.800717
   6        9.787055      9.800717
   7       17.249562     17.263224
   8       19.275758     19.252450
   9       20.999147     21.006690
 
  0.4375000E+00  0.3125000E+00  0.3125000E+00  0.1171875E-01
   1        1.291267      1.303903
   2        4.919131      4.930976
   3        5.670698      5.685359
   4        6.617158      6.632520
   5        9.389535      9.402454
   6       11.678529     11.690977
   7       17.256867     17.270434
   8       19.278501     19.255163
   9       20.240786     20.250168
 
 -0.4375000E+00  0.3125000E+00  0.3125000E+00  0.1171875E-01
   1        2.803463      2.815354
   2        4.268048      4.284271
   3        4.845352      4.855959
   4        7.511970      7.528365
   5        9.519835      9.531275
   6       12.816376     12.828739
   7       17.049278     17.062700
   8       19.280446     19.256952
   9       20.057483     20.067371
 
 -0.3125000E+00  0.3125000E+00  0.3125000E+00  0.1171875E-01
   1        2.868438      2.882864
   2        3.663269      3.676696
   3        5.532659      5.542860
   4        8.338371      8.354527
   5       10.632443     10.643217
   6       12.634078     12.648309
   7       16.488237     16.498699
   8       18.883141     18.894049
   9       19.289422     19.266613
 
  0.4375000E+00  0.4375000E+00  0.3125000E+00  0.1171875E-01
   1        1.478467      1.490941
   2        4.882749      4.896668
   3        5.686509      5.699598
   4        6.614264      6.629193
   5       10.915570     10.928092
   6       11.364908     11.377283
   7       16.325038     16.338032
   8       19.276066     19.253143
   9       19.566149     19.575491
 
 -0.4375000E+00  0.4375000E+00  0.3125000E+00  0.2343750E-01
   1        2.529390      2.541459
   2        4.154821      4.170692
   3        5.221651      5.232696
   4        7.361763      7.377160
   5       10.645090     10.656918
   6       13.067877     13.079839
   7       15.385345     15.398508
   8       19.278825     19.255347
   9       20.805292     20.815477
 
 -0.3125000E+00  0.4375000E+00  0.3125000E+00  0.2343750E-01
   1        3.179411      3.195672
   2        3.748715      3.760272
   3        5.049857      5.060188
   4        8.046568      8.062769
   5       11.012665     11.023147
   6       13.489861     13.503715
   7       16.143063     16.154278
   8       18.402773     18.414498
   9       19.283657     19.260212
 
 -0.4375000E+00 -0.4375000E+00  0.3125000E+00  0.1171875E-01
   1        2.638313      2.651224
   2        3.830775      3.845687
   3        5.519707      5.530411
   4        7.740070      7.755514
   5       11.167983     11.179425
   6       13.091505     13.104919
   7       14.839445     14.851188
   8       19.276894     19.253495
   9       20.422825     20.433434
 
  0.4375000E+00  0.4375000E+00  0.4375000E+00  0.3906250E-02
   1        1.083347      1.095665
   2        5.986195      6.001483
   3        5.986195      6.001483
   4        6.073653      6.085621
   5       11.159894     11.172204
   6       11.159894     11.172204
   7       15.876890     15.889258
   8       18.130652     18.140450
   9       19.281486     19.257961
 
 -0.4375000E+00  0.4375000E+00  0.4375000E+00  0.1171875E-01
   1        1.672477      1.684502
   2        5.035506      5.051369
   3        6.080335      6.091563
   4        6.394078      6.409496
   5       11.060967     11.073023
   6       12.301723     12.313959
   7       15.211196     15.223643
   8       19.030612     19.040816
   9       19.279872     19.256370
