       N       E                     dE             d eps       ncg     rms          rms(c)
DAV:   1     0.901813560669E+01    0.90181E+01   -0.21251E+03  2272   0.406E+02
DAV:   2    -0.160624413983E+01   -0.10624E+02   -0.93140E+01  2862   0.620E+01
DAV:   3    -0.180195507194E+01   -0.19571E+00   -0.19050E+00  2583   0.764E+00
DAV:   4    -0.180232677522E+01   -0.37170E-03   -0.37167E-03  2895   0.270E-01
DAV:   5    -0.180232708841E+01   -0.31318E-06   -0.31241E-06  2681   0.662E-03    0.674E+00
DAV:   6    -0.111694062099E+02   -0.93671E+01   -0.26808E+00  2388   0.541E+00    0.453E+00
DAV:   7    -0.110005482936E+02    0.16886E+00   -0.76215E-02  2545   0.152E+00    0.501E+00
DAV:   8    -0.115337733090E+02   -0.53323E+00   -0.84830E-01  2305   0.583E+00    0.193E+00
DAV:   9    -0.116039238104E+02   -0.70151E-01   -0.75038E-02  2518   0.166E+00    0.933E-01
DAV:  10    -0.116121661719E+02   -0.82424E-02   -0.64551E-02  2384   0.126E+00    0.177E-01
DAV:  11    -0.116126513841E+02   -0.48521E-03   -0.33754E-03  2515   0.311E-01    0.183E-01
DAV:  12    -0.116136031492E+02   -0.95177E-03   -0.93362E-04  2330   0.164E-01    0.488E-02
DAV:  13    -0.116136361633E+02   -0.33014E-04   -0.22210E-04  2280   0.835E-02
   1 F= -.11613636E+02 E0= -.11613407E+02  d E =-.688410E-03  mag=     0.0219
