 vasp.5.2.12 11Nov11 complex                                                    
  
 executed on             LinuxIFC date 2012.10.17  11:06:49
 running on    1 nodes
 distr:  one band on    1 nodes,    1 groups


--------------------------------------------------------------------------------------------------------


 INCAR:
 POTCAR:    PAW_PBE Ta 17Jan2003                  
 POTCAR:    PAW_PBE Ta 17Jan2003                  
   VRHFIN =Ta:  6s5d                                                            
   LEXCH  = PE                                                                  
   EATOM  =   130.6506 eV,    9.6025 Ry                                         
                                                                                
   TITEL  = PAW_PBE Ta 17Jan2003                                                
   LULTRA =        F    use ultrasoft PP ?                                      
   IUNSCR =        1    unscreen: 0-lin 1-nonlin 2-no                           
   RPACOR =    2.330    partial core radius                                     
   POMASS =  180.948; ZVAL   =    5.000    mass and valenz                      
   RCORE  =    2.900    outmost cutoff radius                                   
   RWIGS  =    2.840; RWIGS  =    1.503    wigner-seitz radius (au A)           
   ENMAX  =  223.667; ENMIN  =  167.750 eV                                      
   RCLOC  =    2.205    cutoff for local pot                                    
   LCOR   =        T    correct aug charges                                     
   LPAW   =        T    paw PP                                                  
   EAUG   =  332.075                                                            
   DEXC   =    -.049                                                            
   RMAX   =    3.083    core radius for proj-oper                               
   RAUG   =    1.300    factor for augmentation sphere                          
   RDEP   =    3.060    radius for radial grids                                 
   QCUT   =   -4.055; QGAM   =    8.109    optimization parameters              
                                                                                
   Description                                                                  
     l     E      TYP  RCUT    TYP  RCUT                                        
     2   .000     23  2.500                                                     
     2   .000     23  2.500                                                     
     0   .000     23  2.500                                                     
     0   .000     23  2.500                                                     
     1   .000     23  2.900                                                     
     1  2.000     23  2.900                                                     
     3   .000      7   .000                                                     
  local pseudopotential read in
  partial core-charges read in
  atomic valenz-charges read in
  non local Contribution for L=           2  read in
    real space projection operators read in
  non local Contribution for L=           2  read in
    real space projection operators read in
  non local Contribution for L=           0  read in
    real space projection operators read in
  non local Contribution for L=           0  read in
    real space projection operators read in
  non local Contribution for L=           1  read in
    real space projection operators read in
  non local Contribution for L=           1  read in
    real space projection operators read in
    PAW grid and wavefunctions read in
 
   number of l-projection  operators is LMAX  =           6
   number of lm-projection operators is LMMAX =          18
 
  PAW_PBE Ta 17Jan2003                  :
 energy of atom  1       EATOM= -130.6506
 kinetic energy error for atom=    0.0018 (will be added to EATOM!!)
 
 
 POSCAR: Ta                                      
  positions in cartesian coordinates
  No initial velocities read in
 exchange correlation table for  LEXCH =        8
   RHO(1)=    0.500       N(1)  =     2000
   RHO(2)=  100.500       N(2)  =     4000
 


--------------------------------------------------------------------------------------------------------


 ion  position               nearest neighbor table
   1  0.000  0.000  0.000-
 
  LATTYP: Found a face centered cubic cell.
 ALAT       =     4.2300000000
  
  Lattice vectors:
  
 A1 = (   0.0000000000,   2.1150000000,   2.1150000000)
 A2 = (   2.1150000000,   0.0000000000,   2.1150000000)
 A3 = (   2.1150000000,   2.1150000000,   0.0000000000)
 Subroutine PRICEL returns:
 Original cell was already a primitive cell.
 

Analysis of symmetry for initial positions (statically):

 Routine SETGRP: Setting up the symmetry group for a 
 face centered cubic supercell.


 Subroutine GETGRP returns: Found 48 space group operations
 (whereof 48 operations were pure point group operations)
 out of a pool of 48 trial point group operations.


The static configuration has the point symmetry O_h .

Analysis of symmetry for dynamics (positions and initial velocities):

 Subroutine DYNSYM returns: Found 48 space group operations
 (whereof 48 operations were pure point group operations)
 out of a pool of 48 trial space group operations
 (whereof 48 operations were pure point group operations)
 and found also     1 'primitive' translations


The dynamic configuration has the point symmetry O_h .

Analysis of magnetic symmetry:

 Subroutine MAGSYM returns: Found 48 space group operations
 (whereof 48 operations were pure point group operations)
 out of a pool of 48 trial space group operations
 (whereof 48 operations were pure point group operations)
 and found also     1 'primitive' translations


The magnetic configuration has the point symmetry O_h .
 
 
 KPOINTS: KPOINTS created by Atomic Simulation Env

Automatic generation of k-mesh.
 
 Subroutine IBZKPT returns following result:
 ===========================================
 
 Found     60 irreducible k-points:
 
 Following reciprocal coordinates:
            Coordinates               Weight
  0.062500  0.062500  0.062500     96.000000
  0.187500  0.062500  0.062500    288.000000
  0.312500  0.062500  0.062500    288.000000
  0.437500  0.062500  0.062500    288.000000
 -0.437500  0.062500  0.062500    288.000000
 -0.312500  0.062500  0.062500    288.000000
 -0.187500  0.062500  0.062500    288.000000
 -0.062500  0.062500  0.062500    288.000000
  0.187500  0.187500  0.062500    288.000000
  0.312500  0.187500  0.062500    576.000000
  0.437500  0.187500  0.062500    576.000000
 -0.437500  0.187500  0.062500    576.000000
 -0.312500  0.187500  0.062500    576.000000
 -0.187500  0.187500  0.062500    576.000000
 -0.062500  0.187500  0.062500    576.000000
  0.312500  0.312500  0.062500    288.000000
  0.437500  0.312500  0.062500    576.000000
 -0.437500  0.312500  0.062500    576.000000
 -0.312500  0.312500  0.062500    576.000000
 -0.187500  0.312500  0.062500    576.000000
 -0.062500  0.312500  0.062500    576.000000
  0.437500  0.437500  0.062500    288.000000
 -0.437500  0.437500  0.062500    576.000000
 -0.312500  0.437500  0.062500    576.000000
 -0.187500  0.437500  0.062500    576.000000
 -0.062500  0.437500  0.062500    576.000000
 -0.437500 -0.437500  0.062500    288.000000
 -0.312500 -0.437500  0.062500    576.000000
 -0.187500 -0.437500  0.062500    576.000000
 -0.312500 -0.312500  0.062500    288.000000
 -0.187500 -0.312500  0.062500    576.000000
 -0.187500 -0.187500  0.062500    288.000000
  0.187500  0.187500  0.187500     96.000000
  0.312500  0.187500  0.187500    288.000000
  0.437500  0.187500  0.187500    288.000000
 -0.437500  0.187500  0.187500    288.000000
 -0.312500  0.187500  0.187500    288.000000
 -0.187500  0.187500  0.187500    288.000000
  0.312500  0.312500  0.187500    288.000000
  0.437500  0.312500  0.187500    576.000000
 -0.437500  0.312500  0.187500    576.000000
 -0.312500  0.312500  0.187500    576.000000
 -0.187500  0.312500  0.187500    576.000000
  0.437500  0.437500  0.187500    288.000000
 -0.437500  0.437500  0.187500    576.000000
 -0.312500  0.437500  0.187500    576.000000
 -0.187500  0.437500  0.187500    576.000000
 -0.437500 -0.437500  0.187500    288.000000
 -0.312500 -0.437500  0.187500    576.000000
 -0.312500 -0.312500  0.187500    288.000000
  0.312500  0.312500  0.312500     96.000000
  0.437500  0.312500  0.312500    288.000000
 -0.437500  0.312500  0.312500    288.000000
 -0.312500  0.312500  0.312500    288.000000
  0.437500  0.437500  0.312500    288.000000
 -0.437500  0.437500  0.312500    576.000000
 -0.312500  0.437500  0.312500    576.000000
 -0.437500 -0.437500  0.312500    288.000000
  0.437500  0.437500  0.437500     96.000000
 -0.437500  0.437500  0.437500    288.000000
 
 Following cartesian coordinates:
            Coordinates               Weight
  0.014775  0.014775  0.014775     96.000000
 -0.014775  0.044326  0.044326    288.000000
 -0.044326  0.073877  0.073877    288.000000
 -0.073877  0.103428  0.103428    288.000000
  0.132979 -0.103428 -0.103428    288.000000
  0.103428 -0.073877 -0.073877    288.000000
  0.073877 -0.044326 -0.044326    288.000000
  0.044326 -0.014775 -0.014775    288.000000
  0.014775  0.014775  0.073877    288.000000
 -0.014775  0.044326  0.103428    576.000000
 -0.044326  0.073877  0.132979    576.000000
  0.162530 -0.132979 -0.073877    576.000000
  0.132979 -0.103428 -0.044326    576.000000
  0.103428 -0.073877 -0.014775    576.000000
  0.073877 -0.044326  0.014775    576.000000
  0.014775  0.014775  0.132979    288.000000
 -0.014775  0.044326  0.162530    576.000000
  0.192080 -0.162530 -0.044326    576.000000
  0.162530 -0.132979 -0.014775    576.000000
  0.132979 -0.103428  0.014775    576.000000
  0.103428 -0.073877  0.044326    576.000000
  0.014775  0.014775  0.192080    288.000000
  0.221631 -0.192080 -0.014775    576.000000
  0.192080 -0.162530  0.014775    576.000000
  0.162530 -0.132979  0.044326    576.000000
  0.132979 -0.103428  0.073877    576.000000
  0.014775  0.014775 -0.221631    288.000000
 -0.014775  0.044326 -0.192080    576.000000
 -0.044326  0.073877 -0.162530    576.000000
  0.014775  0.014775 -0.162530    288.000000
 -0.014775  0.044326 -0.132979    576.000000
  0.014775  0.014775 -0.103428    288.000000
  0.044326  0.044326  0.044326     96.000000
  0.014775  0.073877  0.073877    288.000000
 -0.014775  0.103428  0.103428    288.000000
  0.192080 -0.103428 -0.103428    288.000000
  0.162530 -0.073877 -0.073877    288.000000
  0.132979 -0.044326 -0.044326    288.000000
  0.044326  0.044326  0.103428    288.000000
  0.014775  0.073877  0.132979    576.000000
  0.221631 -0.132979 -0.073877    576.000000
  0.192080 -0.103428 -0.044326    576.000000
  0.162530 -0.073877 -0.014775    576.000000
  0.044326  0.044326  0.162530    288.000000
  0.251182 -0.162530 -0.044326    576.000000
  0.221631 -0.132979 -0.014775    576.000000
  0.192080 -0.103428  0.014775    576.000000
  0.044326  0.044326 -0.251182    288.000000
  0.014775  0.073877 -0.221631    576.000000
  0.044326  0.044326 -0.192080    288.000000
  0.073877  0.073877  0.073877     96.000000
  0.044326  0.103428  0.103428    288.000000
  0.251182 -0.103428 -0.103428    288.000000
  0.221631 -0.073877 -0.073877    288.000000
  0.073877  0.073877  0.132979    288.000000
  0.280733 -0.132979 -0.073877    576.000000
  0.251182 -0.103428 -0.044326    576.000000
  0.073877  0.073877 -0.280733    288.000000
  0.103428  0.103428  0.103428     96.000000
  0.310284 -0.103428 -0.103428    288.000000
 


--------------------------------------------------------------------------------------------------------




 Dimension of arrays:
   k-points           NKPTS =     60   k-points in BZ     NKDIM =     60   number of bands    NBANDS=      9
   number of dos      NEDOS =    301   number of ions     NIONS =      1
   non local maximal  LDIM  =      6   non local SUM 2l+1 LMDIM =     18
   total plane-waves  NPLWV =   8000
   max r-space proj   IRMAX =      1   max aug-charges    IRDMAX=  28976
   dimension x,y,z NGX =    20 NGY =   20 NGZ =   20
   dimension x,y,z NGXF=    40 NGYF=   40 NGZF=   40
   support grid    NGXF=    40 NGYF=   40 NGZF=   40
   ions per type =               1
 NGX,Y,Z   is equivalent  to a cutoff of  11.12, 11.12, 11.12 a.u.
 NGXF,Y,Z  is equivalent  to a cutoff of  22.23, 22.23, 22.23 a.u.


 I would recommend the setting:
   dimension x,y,z NGX =    20 NGY =   20 NGZ =   20
 SYSTEM =  unknown system                          
 POSCAR =  Ta                                      

 Startparameter for this run:
   NWRITE =      2    write-flag & timer
   PREC   = accura    normal or accurate (medium, high low for compatibility)
   ISTART =      0    job   : 0-new  1-cont  2-samecut
   ICHARG =      2    charge: 1-file 2-atom 10-const
   ISPIN  =      2    spin polarized calculation?
   LNONCOLLINEAR =      F non collinear calculations
   LSORBIT =      F    spin-orbit coupling
   INIWAV =      1    electr: 0-lowe 1-rand  2-diag
   LASPH  =      F    aspherical Exc in radial PAW
   METAGGA=      F    non-selfconsistent MetaGGA calc.

 Electronic Relaxation 1
   ENCUT  =  400.0 eV  29.40 Ry    5.42 a.u.   4.88  4.88  4.88*2*pi/ulx,y,z
   ENINI  =  400.0     initial cutoff
   ENAUG  =  332.1 eV  augmentation charge cutoff
   NELM   =     60;   NELMIN=  2; NELMDL= -5     # of ELM steps 
   EDIFF  = 0.1E-03   stopping-criterion for ELM
   LREAL  =      F    real-space projection
   NLSPLINE    = F    spline interpolate recip. space projectors
   LCOMPAT=      F    compatible to vasp.4.4
   GGA_COMPAT  = T    GGA compatible to vasp.4.4-vasp.4.6
   LMAXPAW     = -100 max onsite density
   LMAXMIX     =    2 max onsite mixed and CHGCAR
   VOSKOWN=      0    Vosko Wilk Nusair interpolation
   ROPT   =    0.00000
 Ionic relaxation
   EDIFFG = 0.1E-02   stopping-criterion for IOM
   NSW    =      0    number of steps for IOM
   NBLOCK =      1;   KBLOCK =      1    inner block; outer block 
   IBRION =     -1    ionic relax: 0-MD 1-quasi-New 2-CG
   NFREE  =      0    steps in history (QN), initial steepest desc. (CG)
   ISIF   =      2    stress and relaxation
   IWAVPR =     10    prediction:  0-non 1-charg 2-wave 3-comb
   ISYM   =      2    0-nonsym 1-usesym 2-fastsym
   LCORR  =      T    Harris-Foulkes like correction to forces

   POTIM  = 0.5000    time-step for ionic-motion
   TEIN   =    0.0    initial temperature
   TEBEG  =    0.0;   TEEND  =   0.0 temperature during run
   SMASS  =  -3.00    Nose mass-parameter (am)
   estimated Nose-frequenzy (Omega)   =  0.10E-29 period in steps =****** mass=  -0.204E-27a.u.
   SCALEE = 1.0000    scale energy and forces
   NPACO  =    256;   APACO  = 16.0  distance and # of slots for P.C.
   PSTRESS=    0.0 pullay stress

  Mass of Ions in am
   POMASS = 180.95
  Ionic Valenz
   ZVAL   =   5.00
  Atomic Wigner-Seitz radii
   RWIGS  =  -1.00
  virtual crystal weights 
   VCA    =   1.00
   NELECT =       5.0000    total number of electrons
   NUPDOWN=      -1.0000    fix difference up-down

 DOS related values:
   EMIN   =  10.00;   EMAX   =-10.00  energy-range for DOS
   EFERMI =   0.00
   ISMEAR =     1;   SIGMA  =   0.05  broadening in eV -4-tet -1-fermi 0-gaus

 Electronic relaxation 2 (details)
   IALGO  =     38    algorithm
   LDIAG  =      T    sub-space diagonalisation (order eigenvalues)
   LSUBROT=      T    optimize rotation matrix (better conditioning)
   TURBO    =      0    0=normal 1=particle mesh
   IRESTART =      0    0=no restart 2=restart with 2 vectors
   NREBOOT  =      0    no. of reboots
   NMIN     =      0    reboot dimension
   EREF     =   0.00    reference energy to select bands
   IMIX   =      4    mixing-type and parameters
     AMIX     =   0.40;   BMIX     =  1.00
     AMIX_MAG =   1.60;   BMIX_MAG =  1.00
     AMIN     =   0.10
     WC   =   100.;   INIMIX=   1;  MIXPRE=   1

 Intra band minimization:
   WEIMIN = 0.0000     energy-eigenvalue tresh-hold
   EBREAK =  0.28E-05  absolut break condition
   DEPER  =   0.30     relativ break condition  

   TIME   =   0.40     timestep for ELM

  volume/ion in A,a.u.               =      18.92       127.69
  Fermi-wavevector in a.u.,A,eV,Ry     =   1.050536  1.985226 15.015755  1.103627
  Thomas-Fermi vector in A             =   2.185544
 
 Write flags
   LWAVE  =      T    write WAVECAR
   LCHARG =      T    write CHGCAR
   LVTOT  =      F    write LOCPOT, total local potential
   LVHAR  =      F    write LOCPOT, Hartree potential only
   LELF   =      F    write electronic localiz. function (ELF)
   LORBIT =     11    0 simple, 1 ext, 2 COOP (PROOUT)


 Dipole corrections
   LMONO  =      F    monopole corrections only (constant potential shift)
   LDIPOL =      F    correct potential (dipole corrections)
   IDIPOL =      0    1-x, 2-y, 3-z, 4-all directions 
   EPSILON=  1.0000000 bulk dielectric constant

 Exchange correlation treatment:
   GGA     =    --    GGA type
   LEXCH   =     8    internal setting for exchange type
   VOSKOWN=      0    Vosko Wilk Nusair interpolation
   LHFCALC =     F    Hartree Fock is set to
   LHFONE  =     F    Hartree Fock one center treatment
   AEXX    =    0.0000 exact exchange contribution

 Linear response parameters
   LEPSILON=     F    determine dielectric tensor
   LRPA    =     F    only Hartree local field effects (RPA)
   LNABLA  =     F    use nabla operator in PAW spheres
   LVEL    =     F    velocity operator in full k-point grid
   LINTERFAST=   F  fast interpolation
   KINTER  =     0    interpolate to denser k-point grid
   CSHIFT  =0.1000    complex shift for real part using Kramers Kronig
   OMEGAMAX=  -1.0    maximum frequency
   RTIME   =    0.100 relaxation time in fs

 Orbital magnetization related:
   ORBITALMAG=     F  switch on orbital magnetization
   LCHIMAG   =     F  perturbation theory with respect to B field
   DQ        =  0.001000  dq finite difference perturbation B field



--------------------------------------------------------------------------------------------------------


 Static calculation
 charge density and potential will be updated during run
 spin polarized calculation
 Variant of blocked Davidson
 Davidson routine will perform the subspace rotation
 perform sub-space diagonalisation
    after iterative eigenvector-optimisation
 modified Broyden-mixing scheme, WC =      100.0
 initial mixing is a Kerker type mixing with AMIX =  0.4000 and BMIX =      1.0000
 Hartree-type preconditioning will be used
 using additional bands            6
 reciprocal scheme for non local part
 use partial core corrections
 calculate Harris-corrections to forces 
   (improved forces if not selfconsistent)
 use gradient corrections 
 use of overlap-Matrix (Vanderbilt PP)
 Methfessel and Paxton  Order N= 1 SIGMA  =   0.05


--------------------------------------------------------------------------------------------------------


  energy-cutoff  :      400.00
  volume of cell :       18.92
      direct lattice vectors                 reciprocal lattice vectors
     0.000000000  2.115000000  2.115000000    -0.236406619  0.236406619  0.236406619
     2.115000000  0.000000000  2.115000000     0.236406619 -0.236406619  0.236406619
     2.115000000  2.115000000  0.000000000     0.236406619  0.236406619 -0.236406619

  length of vectors
     2.991061684  2.991061684  2.991061684     0.409468276  0.409468276  0.409468276


 
 k-points in units of 2pi/SCALE and weight: KPOINTS created by Atomic Simulation Env
   0.01477541  0.01477541  0.01477541       0.004
  -0.01477541  0.04432624  0.04432624       0.012
  -0.04432624  0.07387707  0.07387707       0.012
  -0.07387707  0.10342790  0.10342790       0.012
   0.13297872 -0.10342790 -0.10342790       0.012
   0.10342790 -0.07387707 -0.07387707       0.012
   0.07387707 -0.04432624 -0.04432624       0.012
   0.04432624 -0.01477541 -0.01477541       0.012
   0.01477541  0.01477541  0.07387707       0.012
  -0.01477541  0.04432624  0.10342790       0.023
  -0.04432624  0.07387707  0.13297872       0.023
   0.16252955 -0.13297872 -0.07387707       0.023
   0.13297872 -0.10342790 -0.04432624       0.023
   0.10342790 -0.07387707 -0.01477541       0.023
   0.07387707 -0.04432624  0.01477541       0.023
   0.01477541  0.01477541  0.13297872       0.012
  -0.01477541  0.04432624  0.16252955       0.023
   0.19208038 -0.16252955 -0.04432624       0.023
   0.16252955 -0.13297872 -0.01477541       0.023
   0.13297872 -0.10342790  0.01477541       0.023
   0.10342790 -0.07387707  0.04432624       0.023
   0.01477541  0.01477541  0.19208038       0.012
   0.22163121 -0.19208038 -0.01477541       0.023
   0.19208038 -0.16252955  0.01477541       0.023
   0.16252955 -0.13297872  0.04432624       0.023
   0.13297872 -0.10342790  0.07387707       0.023
   0.01477541  0.01477541 -0.22163121       0.012
  -0.01477541  0.04432624 -0.19208038       0.023
  -0.04432624  0.07387707 -0.16252955       0.023
   0.01477541  0.01477541 -0.16252955       0.012
  -0.01477541  0.04432624 -0.13297872       0.023
   0.01477541  0.01477541 -0.10342790       0.012
   0.04432624  0.04432624  0.04432624       0.004
   0.01477541  0.07387707  0.07387707       0.012
  -0.01477541  0.10342790  0.10342790       0.012
   0.19208038 -0.10342790 -0.10342790       0.012
   0.16252955 -0.07387707 -0.07387707       0.012
   0.13297872 -0.04432624 -0.04432624       0.012
   0.04432624  0.04432624  0.10342790       0.012
   0.01477541  0.07387707  0.13297872       0.023
   0.22163121 -0.13297872 -0.07387707       0.023
   0.19208038 -0.10342790 -0.04432624       0.023
   0.16252955 -0.07387707 -0.01477541       0.023
   0.04432624  0.04432624  0.16252955       0.012
   0.25118203 -0.16252955 -0.04432624       0.023
   0.22163121 -0.13297872 -0.01477541       0.023
   0.19208038 -0.10342790  0.01477541       0.023
   0.04432624  0.04432624 -0.25118203       0.012
   0.01477541  0.07387707 -0.22163121       0.023
   0.04432624  0.04432624 -0.19208038       0.012
   0.07387707  0.07387707  0.07387707       0.004
   0.04432624  0.10342790  0.10342790       0.012
   0.25118203 -0.10342790 -0.10342790       0.012
   0.22163121 -0.07387707 -0.07387707       0.012
   0.07387707  0.07387707  0.13297872       0.012
   0.28073286 -0.13297872 -0.07387707       0.023
   0.25118203 -0.10342790 -0.04432624       0.023
   0.07387707  0.07387707 -0.28073286       0.012
   0.10342790  0.10342790  0.10342790       0.004
   0.31028369 -0.10342790 -0.10342790       0.012
 
 k-points in reciprocal lattice and weights: KPOINTS created by Atomic Simulation Env
   0.06250000  0.06250000  0.06250000       0.004
   0.18750000  0.06250000  0.06250000       0.012
   0.31250000  0.06250000  0.06250000       0.012
   0.43750000  0.06250000  0.06250000       0.012
  -0.43750000  0.06250000  0.06250000       0.012
  -0.31250000  0.06250000  0.06250000       0.012
  -0.18750000  0.06250000  0.06250000       0.012
  -0.06250000  0.06250000  0.06250000       0.012
   0.18750000  0.18750000  0.06250000       0.012
   0.31250000  0.18750000  0.06250000       0.023
   0.43750000  0.18750000  0.06250000       0.023
  -0.43750000  0.18750000  0.06250000       0.023
  -0.31250000  0.18750000  0.06250000       0.023
  -0.18750000  0.18750000  0.06250000       0.023
  -0.06250000  0.18750000  0.06250000       0.023
   0.31250000  0.31250000  0.06250000       0.012
   0.43750000  0.31250000  0.06250000       0.023
  -0.43750000  0.31250000  0.06250000       0.023
  -0.31250000  0.31250000  0.06250000       0.023
  -0.18750000  0.31250000  0.06250000       0.023
  -0.06250000  0.31250000  0.06250000       0.023
   0.43750000  0.43750000  0.06250000       0.012
  -0.43750000  0.43750000  0.06250000       0.023
  -0.31250000  0.43750000  0.06250000       0.023
  -0.18750000  0.43750000  0.06250000       0.023
  -0.06250000  0.43750000  0.06250000       0.023
  -0.43750000 -0.43750000  0.06250000       0.012
  -0.31250000 -0.43750000  0.06250000       0.023
  -0.18750000 -0.43750000  0.06250000       0.023
  -0.31250000 -0.31250000  0.06250000       0.012
  -0.18750000 -0.31250000  0.06250000       0.023
  -0.18750000 -0.18750000  0.06250000       0.012
   0.18750000  0.18750000  0.18750000       0.004
   0.31250000  0.18750000  0.18750000       0.012
   0.43750000  0.18750000  0.18750000       0.012
  -0.43750000  0.18750000  0.18750000       0.012
  -0.31250000  0.18750000  0.18750000       0.012
  -0.18750000  0.18750000  0.18750000       0.012
   0.31250000  0.31250000  0.18750000       0.012
   0.43750000  0.31250000  0.18750000       0.023
  -0.43750000  0.31250000  0.18750000       0.023
  -0.31250000  0.31250000  0.18750000       0.023
  -0.18750000  0.31250000  0.18750000       0.023
   0.43750000  0.43750000  0.18750000       0.012
  -0.43750000  0.43750000  0.18750000       0.023
  -0.31250000  0.43750000  0.18750000       0.023
  -0.18750000  0.43750000  0.18750000       0.023
  -0.43750000 -0.43750000  0.18750000       0.012
  -0.31250000 -0.43750000  0.18750000       0.023
  -0.31250000 -0.31250000  0.18750000       0.012
   0.31250000  0.31250000  0.31250000       0.004
   0.43750000  0.31250000  0.31250000       0.012
  -0.43750000  0.31250000  0.31250000       0.012
  -0.31250000  0.31250000  0.31250000       0.012
   0.43750000  0.43750000  0.31250000       0.012
  -0.43750000  0.43750000  0.31250000       0.023
  -0.31250000  0.43750000  0.31250000       0.023
  -0.43750000 -0.43750000  0.31250000       0.012
   0.43750000  0.43750000  0.43750000       0.004
  -0.43750000  0.43750000  0.43750000       0.012
 
 position of ions in fractional coordinates (direct lattice) 
   0.00000000  0.00000000  0.00000000
 
 position of ions in cartesian coordinates  (Angst):
   0.00000000  0.00000000  0.00000000
 


--------------------------------------------------------------------------------------------------------


 k-point  1 :  0.06250.06250.0625  plane waves:     335
 k-point  2 :  0.18750.06250.0625  plane waves:     337
 k-point  3 :  0.31250.06250.0625  plane waves:     346
 k-point  4 :  0.43750.06250.0625  plane waves:     350
 k-point  5 :  -.43750.06250.0625  plane waves:     345
 k-point  6 :  -.31250.06250.0625  plane waves:     345
 k-point  7 :  -.18750.06250.0625  plane waves:     341
 k-point  8 :  -.06250.06250.0625  plane waves:     335
 k-point  9 :  0.18750.18750.0625  plane waves:     340
 k-point 10 :  0.31250.18750.0625  plane waves:     338
 k-point 11 :  0.43750.18750.0625  plane waves:     341
 k-point 12 :  -.43750.18750.0625  plane waves:     349
 k-point 13 :  -.31250.18750.0625  plane waves:     345
 k-point 14 :  -.18750.18750.0625  plane waves:     338
 k-point 15 :  -.06250.18750.0625  plane waves:     339
 k-point 16 :  0.31250.31250.0625  plane waves:     343
 k-point 17 :  0.43750.31250.0625  plane waves:     338
 k-point 18 :  -.43750.31250.0625  plane waves:     348
 k-point 19 :  -.31250.31250.0625  plane waves:     347
 k-point 20 :  -.18750.31250.0625  plane waves:     344
 k-point 21 :  -.06250.31250.0625  plane waves:     343
 k-point 22 :  0.43750.43750.0625  plane waves:     339
 k-point 23 :  -.43750.43750.0625  plane waves:     348
 k-point 24 :  -.31250.43750.0625  plane waves:     346
 k-point 25 :  -.18750.43750.0625  plane waves:     350
 k-point 26 :  -.06250.43750.0625  plane waves:     345
 k-point 27 :  -.4375-.43750.0625  plane waves:     342
 k-point 28 :  -.3125-.43750.0625  plane waves:     343
 k-point 29 :  -.1875-.43750.0625  plane waves:     341
 k-point 30 :  -.3125-.31250.0625  plane waves:     335
 k-point 31 :  -.1875-.31250.0625  plane waves:     339
 k-point 32 :  -.1875-.18750.0625  plane waves:     346
 k-point 33 :  0.18750.18750.1875  plane waves:     335
 k-point 34 :  0.31250.18750.1875  plane waves:     339
 k-point 35 :  0.43750.18750.1875  plane waves:     340
 k-point 36 :  -.43750.18750.1875  plane waves:     348
 k-point 37 :  -.31250.18750.1875  plane waves:     347
 k-point 38 :  -.18750.18750.1875  plane waves:     341
 k-point 39 :  0.31250.31250.1875  plane waves:     338
 k-point 40 :  0.43750.31250.1875  plane waves:     341
 k-point 41 :  -.43750.31250.1875  plane waves:     346
 k-point 42 :  -.31250.31250.1875  plane waves:     348
 k-point 43 :  -.18750.31250.1875  plane waves:     341
 k-point 44 :  0.43750.43750.1875  plane waves:     340
 k-point 45 :  -.43750.43750.1875  plane waves:     345
 k-point 46 :  -.31250.43750.1875  plane waves:     348
 k-point 47 :  -.18750.43750.1875  plane waves:     348
 k-point 48 :  -.4375-.43750.1875  plane waves:     349
 k-point 49 :  -.3125-.43750.1875  plane waves:     348
 k-point 50 :  -.3125-.31250.1875  plane waves:     342
 k-point 51 :  0.31250.31250.3125  plane waves:     344
 k-point 52 :  0.43750.31250.3125  plane waves:     346
 k-point 53 :  -.43750.31250.3125  plane waves:     343
 k-point 54 :  -.31250.31250.3125  plane waves:     349
 k-point 55 :  0.43750.43750.3125  plane waves:     341
 k-point 56 :  -.43750.43750.3125  plane waves:     347
 k-point 57 :  -.31250.43750.3125  plane waves:     349
 k-point 58 :  -.4375-.43750.3125  plane waves:     353
 k-point 59 :  0.43750.43750.4375  plane waves:     347
 k-point 60 :  -.43750.43750.4375  plane waves:     345

 maximum and minimum number of plane-waves per node :       353      335

 maximum number of plane-waves:       353
 maximum index in each direction: 
   IXMAX=    5   IYMAX=    5   IZMAX=    4
   IXMIN=   -5   IYMIN=   -5   IZMIN=   -5

 WARNING: aliasing errors must be expected set NGX to  22 to avoid them
 WARNING: aliasing errors must be expected set NGY to  22 to avoid them
 NGZ is ok and might be reduce to  20
 aliasing errors are usually negligible using standard VASP settings
 and one can safely disregard these warnings

 serial   3D FFT for wavefunctions
 parallel 3D FFT for charge:
    minimum data exchange during FFTs selected (reduces bandwidth)


 total amount of memory used by VASP on root node    47220. kBytes
========================================================================

   base      :      30000. kBytes
   nonl-proj :       3055. kBytes
   fftplans  :       2284. kBytes
   grid      :       5440. kBytes
   one-center:         31. kBytes
   wavefun   :       6410. kBytes
 
 Broyden mixing: mesh for mixing (old mesh)
   NGX =  9   NGY =  9   NGZ =  9
  (NGX  = 40   NGY  = 40   NGZ  = 40)
  gives a total of    729 points

 initial charge density was supplied:
 charge density of overlapping atoms calculated
 number of electron       5.0000000 magnetization       6.0000000
 keeping initial charge density in first step


--------------------------------------------------------------------------------------------------------


 Maximum index for augmentation-charges        27979 (set IRDMAX)


--------------------------------------------------------------------------------------------------------


 First call to EWALD:  gamma=   0.665
 Maximum number of real-space cells 3x 3x 3
 Maximum number of reciprocal cells 3x 3x 3

    FEWALD:  cpu time    0.00: real time    0.00


----------------------------------------- Iteration    1(   1)  ---------------------------------------


    POTLOK:  cpu time    0.21: real time    0.21
    SETDIJ:  cpu time    0.05: real time    0.05
     EDDAV:  cpu time    3.00: real time    3.00
       DOS:  cpu time    0.01: real time    0.01
    --------------------------------------------
      LOOP:  cpu time    3.26: real time    3.27

 eigenvalue-minimisations  :  2272
 total energy-change (2. order) : 0.9018136E+01  (-0.2125135E+03)
 number of electron       5.0000000 magnetization       6.0000000
 augmentation part        5.0000000 magnetization       6.0000000

 Free energy of the ion-electron system (eV)
  ---------------------------------------------------
  alpha Z        PSCENC =        29.30743413
  Ewald energy   TEWEN  =      -195.09763016
  -1/2 Hartree   DENC   =        -2.79657379
  -exchange  EXHF       =         0.00000000
  -V(xc)+E(xc)   XCENC  =       -60.71810453
  PAW double counting   =       143.51874798      -69.33493833
  entropy T*S    EENTRO =        -0.00010497
  eigenvalues    EBANDS =        33.49046391
  atomic energy  EATOM  =       130.64884137
  ---------------------------------------------------
  free energy    TOTEN  =         9.01813561 eV

  energy without entropy =        9.01824058  energy(sigma->0) =        9.01817060


--------------------------------------------------------------------------------------------------------




----------------------------------------- Iteration    1(   2)  ---------------------------------------


     EDDAV:  cpu time    3.56: real time    3.56
       DOS:  cpu time    0.01: real time    0.01
    --------------------------------------------
      LOOP:  cpu time    3.56: real time    3.57

 eigenvalue-minimisations  :  2862
 total energy-change (2. order) :-0.1062438E+02  (-0.9314002E+01)
 number of electron       5.0000000 magnetization       6.0000000
 augmentation part        5.0000000 magnetization       6.0000000

 Free energy of the ion-electron system (eV)
  ---------------------------------------------------
  alpha Z        PSCENC =        29.30743413
  Ewald energy   TEWEN  =      -195.09763016
  -1/2 Hartree   DENC   =        -2.79657379
  -exchange  EXHF       =         0.00000000
  -V(xc)+E(xc)   XCENC  =       -60.71810453
  PAW double counting   =       143.51874798      -69.33493833
  entropy T*S    EENTRO =         0.00008365
  eigenvalues    EBANDS =        22.86589554
  atomic energy  EATOM  =       130.64884137
  ---------------------------------------------------
  free energy    TOTEN  =        -1.60624414 eV

  energy without entropy =       -1.60632779  energy(sigma->0) =       -1.60627202


--------------------------------------------------------------------------------------------------------




----------------------------------------- Iteration    1(   3)  ---------------------------------------


     EDDAV:  cpu time    3.27: real time    3.27
       DOS:  cpu time    0.01: real time    0.01
    --------------------------------------------
      LOOP:  cpu time    3.28: real time    3.30

 eigenvalue-minimisations  :  2583
 total energy-change (2. order) :-0.1957109E+00  (-0.1904976E+00)
 number of electron       5.0000000 magnetization       6.0000000
 augmentation part        5.0000000 magnetization       6.0000000

 Free energy of the ion-electron system (eV)
  ---------------------------------------------------
  alpha Z        PSCENC =        29.30743413
  Ewald energy   TEWEN  =      -195.09763016
  -1/2 Hartree   DENC   =        -2.79657379
  -exchange  EXHF       =         0.00000000
  -V(xc)+E(xc)   XCENC  =       -60.71810453
  PAW double counting   =       143.51874798      -69.33493833
  entropy T*S    EENTRO =        -0.00021308
  eigenvalues    EBANDS =        22.67048134
  atomic energy  EATOM  =       130.64884137
  ---------------------------------------------------
  free energy    TOTEN  =        -1.80195507 eV

  energy without entropy =       -1.80174199  energy(sigma->0) =       -1.80188405


--------------------------------------------------------------------------------------------------------




----------------------------------------- Iteration    1(   4)  ---------------------------------------


     EDDAV:  cpu time    3.61: real time    3.61
       DOS:  cpu time    0.01: real time    0.01
    --------------------------------------------
      LOOP:  cpu time    3.62: real time    3.63

 eigenvalue-minimisations  :  2895
 total energy-change (2. order) :-0.3717033E-03  (-0.3716667E-03)
 number of electron       5.0000000 magnetization       6.0000000
 augmentation part        5.0000000 magnetization       6.0000000

 Free energy of the ion-electron system (eV)
  ---------------------------------------------------
  alpha Z        PSCENC =        29.30743413
  Ewald energy   TEWEN  =      -195.09763016
  -1/2 Hartree   DENC   =        -2.79657379
  -exchange  EXHF       =         0.00000000
  -V(xc)+E(xc)   XCENC  =       -60.71810453
  PAW double counting   =       143.51874798      -69.33493833
  entropy T*S    EENTRO =        -0.00021336
  eigenvalues    EBANDS =        22.67010991
  atomic energy  EATOM  =       130.64884137
  ---------------------------------------------------
  free energy    TOTEN  =        -1.80232678 eV

  energy without entropy =       -1.80211342  energy(sigma->0) =       -1.80225566


--------------------------------------------------------------------------------------------------------




----------------------------------------- Iteration    1(   5)  ---------------------------------------


     EDDAV:  cpu time    3.39: real time    3.39
       DOS:  cpu time    0.01: real time    0.01
    CHARGE:  cpu time    0.20: real time    0.20
    MIXING:  cpu time    0.00: real time    0.00
    --------------------------------------------
      LOOP:  cpu time    3.60: real time    3.61

 eigenvalue-minimisations  :  2681
 total energy-change (2. order) :-0.3131831E-06  (-0.3124132E-06)
 number of electron       5.0000000 magnetization       2.5101261
 augmentation part        0.4533205 magnetization      -0.6285075

 Broyden mixing:
  rms(total) = 0.67419E+00    rms(broyden)= 0.67416E+00
  rms(prec ) = 0.88728E+00
  weight for this iteration     100.00

 Free energy of the ion-electron system (eV)
  ---------------------------------------------------
  alpha Z        PSCENC =        29.30743413
  Ewald energy   TEWEN  =      -195.09763016
  -1/2 Hartree   DENC   =        -2.79657379
  -exchange  EXHF       =         0.00000000
  -V(xc)+E(xc)   XCENC  =       -60.71810453
  PAW double counting   =       143.51874798      -69.33493833
  entropy T*S    EENTRO =        -0.00021336
  eigenvalues    EBANDS =        22.67010960
  atomic energy  EATOM  =       130.64884137
  ---------------------------------------------------
  free energy    TOTEN  =        -1.80232709 eV

  energy without entropy =       -1.80211373  energy(sigma->0) =       -1.80225597


--------------------------------------------------------------------------------------------------------




----------------------------------------- Iteration    1(   6)  ---------------------------------------


    POTLOK:  cpu time    0.20: real time    0.20
    SETDIJ:  cpu time    0.05: real time    0.05
     EDDAV:  cpu time    3.11: real time    3.11
       DOS:  cpu time    0.01: real time    0.01
    CHARGE:  cpu time    0.20: real time    0.20
    MIXING:  cpu time    0.00: real time    0.00
    --------------------------------------------
      LOOP:  cpu time    3.57: real time    3.60

 eigenvalue-minimisations  :  2388
 total energy-change (2. order) :-0.9367079E+01  (-0.2680777E+00)
 number of electron       5.0000000 magnetization       2.8979154
 augmentation part        0.3642634 magnetization       2.0001551

 Broyden mixing:
  rms(total) = 0.45306E+00    rms(broyden)= 0.45303E+00
  rms(prec ) = 0.11436E+01
  weight for this iteration     100.00

 eigenvalues of (default mixing * dielectric matrix)
  average eigenvalue GAMMA=   1.6942
  1.6942

 Free energy of the ion-electron system (eV)
  ---------------------------------------------------
  alpha Z        PSCENC =        29.30743413
  Ewald energy   TEWEN  =      -195.09763016
  -1/2 Hartree   DENC   =        -2.27273628
  -exchange  EXHF       =         0.00000000
  -V(xc)+E(xc)   XCENC  =       -66.00534458
  PAW double counting   =       161.42412237      -87.46588318
  entropy T*S    EENTRO =        -0.00004309
  eigenvalues    EBANDS =        18.29183322
  atomic energy  EATOM  =       130.64884137
  ---------------------------------------------------
  free energy    TOTEN  =       -11.16940621 eV

  energy without entropy =      -11.16936312  energy(sigma->0) =      -11.16939185


--------------------------------------------------------------------------------------------------------




----------------------------------------- Iteration    1(   7)  ---------------------------------------


    POTLOK:  cpu time    0.20: real time    0.20
    SETDIJ:  cpu time    0.05: real time    0.05
     EDDAV:  cpu time    3.27: real time    3.27
       DOS:  cpu time    0.01: real time    0.01
    CHARGE:  cpu time    0.20: real time    0.20
    MIXING:  cpu time    0.00: real time    0.00
    --------------------------------------------
      LOOP:  cpu time    3.73: real time    3.75

 eigenvalue-minimisations  :  2545
 total energy-change (2. order) : 0.1688579E+00  (-0.7621531E-02)
 number of electron       5.0000000 magnetization      -0.1433023
 augmentation part        0.3637713 magnetization      -1.2226513

 Broyden mixing:
  rms(total) = 0.50086E+00    rms(broyden)= 0.50086E+00
  rms(prec ) = 0.12294E+01
  weight for this iteration     100.00

 eigenvalues of (default mixing * dielectric matrix)
  average eigenvalue GAMMA=   1.2320
  1.7890  0.6749

 Free energy of the ion-electron system (eV)
  ---------------------------------------------------
  alpha Z        PSCENC =        29.30743413
  Ewald energy   TEWEN  =      -195.09763016
  -1/2 Hartree   DENC   =        -2.44295091
  -exchange  EXHF       =         0.00000000
  -V(xc)+E(xc)   XCENC  =       -65.80623751
  PAW double counting   =       158.61413655      -84.63312718
  entropy T*S    EENTRO =         0.00011079
  eigenvalues    EBANDS =        18.40887463
  atomic energy  EATOM  =       130.64884137
  ---------------------------------------------------
  free energy    TOTEN  =       -11.00054829 eV

  energy without entropy =      -11.00065908  energy(sigma->0) =      -11.00058522


--------------------------------------------------------------------------------------------------------




----------------------------------------- Iteration    1(   8)  ---------------------------------------


    POTLOK:  cpu time    0.20: real time    0.20
    SETDIJ:  cpu time    0.05: real time    0.05
     EDDAV:  cpu time    3.04: real time    3.04
       DOS:  cpu time    0.01: real time    0.01
    CHARGE:  cpu time    0.20: real time    0.20
    MIXING:  cpu time    0.00: real time    0.00
    --------------------------------------------
      LOOP:  cpu time    3.50: real time    3.52

 eigenvalue-minimisations  :  2305
 total energy-change (2. order) :-0.5332250E+00  (-0.8482951E-01)
 number of electron       5.0000000 magnetization       0.4140271
 augmentation part        0.3804896 magnetization       0.4203051

 Broyden mixing:
  rms(total) = 0.19344E+00    rms(broyden)= 0.19344E+00
  rms(prec ) = 0.34440E+00
  weight for this iteration     100.00

 eigenvalues of (default mixing * dielectric matrix)
  average eigenvalue GAMMA=   1.1615
  1.4535  1.4535  0.5776

 Free energy of the ion-electron system (eV)
  ---------------------------------------------------
  alpha Z        PSCENC =        29.30743413
  Ewald energy   TEWEN  =      -195.09763016
  -1/2 Hartree   DENC   =        -0.95723566
  -exchange  EXHF       =         0.00000000
  -V(xc)+E(xc)   XCENC  =       -66.11680369
  PAW double counting   =       173.00626341      -99.44635455
  entropy T*S    EENTRO =        -0.00022296
  eigenvalues    EBANDS =        17.12193480
  atomic energy  EATOM  =       130.64884137
  ---------------------------------------------------
  free energy    TOTEN  =       -11.53377331 eV

  energy without entropy =      -11.53355035  energy(sigma->0) =      -11.53369899


--------------------------------------------------------------------------------------------------------




----------------------------------------- Iteration    1(   9)  ---------------------------------------


    POTLOK:  cpu time    0.20: real time    0.20
    SETDIJ:  cpu time    0.05: real time    0.05
     EDDAV:  cpu time    3.23: real time    3.24
       DOS:  cpu time    0.01: real time    0.01
    CHARGE:  cpu time    0.21: real time    0.21
    MIXING:  cpu time    0.00: real time    0.00
    --------------------------------------------
      LOOP:  cpu time    3.70: real time    3.71

 eigenvalue-minimisations  :  2518
 total energy-change (2. order) :-0.7015050E-01  (-0.7503785E-02)
 number of electron       5.0000000 magnetization      -0.0465465
 augmentation part        0.3824128 magnetization      -0.1736833

 Broyden mixing:
  rms(total) = 0.93273E-01    rms(broyden)= 0.93273E-01
  rms(prec ) = 0.25970E+00
  weight for this iteration     100.00

 eigenvalues of (default mixing * dielectric matrix)
  average eigenvalue GAMMA=   1.2046
  1.7201  1.7201  0.6891  0.6891

 Free energy of the ion-electron system (eV)
  ---------------------------------------------------
  alpha Z        PSCENC =        29.30743413
  Ewald energy   TEWEN  =      -195.09763016
  -1/2 Hartree   DENC   =        -0.92979715
  -exchange  EXHF       =         0.00000000
  -V(xc)+E(xc)   XCENC  =       -66.15726081
  PAW double counting   =       175.07968196     -101.54620957
  entropy T*S    EENTRO =         0.00008747
  eigenvalues    EBANDS =        17.09092895
  atomic energy  EATOM  =       130.64884137
  ---------------------------------------------------
  free energy    TOTEN  =       -11.60392381 eV

  energy without entropy =      -11.60401128  energy(sigma->0) =      -11.60395297


--------------------------------------------------------------------------------------------------------




----------------------------------------- Iteration    1(  10)  ---------------------------------------


    POTLOK:  cpu time    0.20: real time    0.20
    SETDIJ:  cpu time    0.05: real time    0.05
     EDDAV:  cpu time    3.09: real time    3.09
       DOS:  cpu time    0.01: real time    0.01
    CHARGE:  cpu time    0.20: real time    0.20
    MIXING:  cpu time    0.00: real time    0.00
    --------------------------------------------
      LOOP:  cpu time    3.55: real time    3.58

 eigenvalue-minimisations  :  2384
 total energy-change (2. order) :-0.8242362E-02  (-0.6455052E-02)
 number of electron       5.0000000 magnetization      -0.1244803
 augmentation part        0.3924409 magnetization      -0.0980608

 Broyden mixing:
  rms(total) = 0.17704E-01    rms(broyden)= 0.17701E-01
  rms(prec ) = 0.30185E-01
  weight for this iteration     100.00

 eigenvalues of (default mixing * dielectric matrix)
  average eigenvalue GAMMA=   1.1786
  1.8253  1.3503  1.3503  0.6372  0.7300

 Free energy of the ion-electron system (eV)
  ---------------------------------------------------
  alpha Z        PSCENC =        29.30743413
  Ewald energy   TEWEN  =      -195.09763016
  -1/2 Hartree   DENC   =        -0.69535928
  -exchange  EXHF       =         0.00000000
  -V(xc)+E(xc)   XCENC  =       -66.03203465
  PAW double counting   =       180.55000440     -107.12075724
  entropy T*S    EENTRO =        -0.00059572
  eigenvalues    EBANDS =        16.82793098
  atomic energy  EATOM  =       130.64884137
  ---------------------------------------------------
  free energy    TOTEN  =       -11.61216617 eV

  energy without entropy =      -11.61157045  energy(sigma->0) =      -11.61196760


--------------------------------------------------------------------------------------------------------




----------------------------------------- Iteration    1(  11)  ---------------------------------------


    POTLOK:  cpu time    0.20: real time    0.20
    SETDIJ:  cpu time    0.05: real time    0.05
     EDDAV:  cpu time    3.26: real time    3.26
       DOS:  cpu time    0.01: real time    0.01
    CHARGE:  cpu time    0.21: real time    0.21
    MIXING:  cpu time    0.00: real time    0.00
    --------------------------------------------
      LOOP:  cpu time    3.73: real time    3.75

 eigenvalue-minimisations  :  2515
 total energy-change (2. order) :-0.4852122E-03  (-0.3375395E-03)
 number of electron       5.0000000 magnetization      -0.0290538
 augmentation part        0.3928968 magnetization       0.0274362

 Broyden mixing:
  rms(total) = 0.18290E-01    rms(broyden)= 0.18290E-01
  rms(prec ) = 0.32085E-01
  weight for this iteration     100.00

 eigenvalues of (default mixing * dielectric matrix)
  average eigenvalue GAMMA=   1.1694
  1.7378  1.7378  1.3707  0.6485  0.7608  0.7608

 Free energy of the ion-electron system (eV)
  ---------------------------------------------------
  alpha Z        PSCENC =        29.30743413
  Ewald energy   TEWEN  =      -195.09763016
  -1/2 Hartree   DENC   =        -0.68892491
  -exchange  EXHF       =         0.00000000
  -V(xc)+E(xc)   XCENC  =       -66.02438594
  PAW double counting   =       182.83720499     -109.41490663
  entropy T*S    EENTRO =         0.00003213
  eigenvalues    EBANDS =        16.81968363
  atomic energy  EATOM  =       130.64884137
  ---------------------------------------------------
  free energy    TOTEN  =       -11.61265138 eV

  energy without entropy =      -11.61268352  energy(sigma->0) =      -11.61266209


--------------------------------------------------------------------------------------------------------




----------------------------------------- Iteration    1(  12)  ---------------------------------------


    POTLOK:  cpu time    0.20: real time    0.20
    SETDIJ:  cpu time    0.05: real time    0.05
     EDDAV:  cpu time    3.08: real time    3.09
       DOS:  cpu time    0.01: real time    0.01
    CHARGE:  cpu time    0.20: real time    0.20
    MIXING:  cpu time    0.00: real time    0.00
    --------------------------------------------
      LOOP:  cpu time    3.55: real time    3.57

 eigenvalue-minimisations  :  2330
 total energy-change (2. order) :-0.9517651E-03  (-0.9336202E-04)
 number of electron       5.0000000 magnetization       0.0209873
 augmentation part        0.3919762 magnetization       0.0398941

 Broyden mixing:
  rms(total) = 0.48806E-02    rms(broyden)= 0.48805E-02
  rms(prec ) = 0.11821E-01
  weight for this iteration     100.00

 eigenvalues of (default mixing * dielectric matrix)
  average eigenvalue GAMMA=   1.1707
  1.9292  1.9292  1.1193  1.1193  0.7273  0.7273  0.6432

 Free energy of the ion-electron system (eV)
  ---------------------------------------------------
  alpha Z        PSCENC =        29.30743413
  Ewald energy   TEWEN  =      -195.09763016
  -1/2 Hartree   DENC   =        -0.72027927
  -exchange  EXHF       =         0.00000000
  -V(xc)+E(xc)   XCENC  =       -66.04461921
  PAW double counting   =       183.72532480     -110.29270114
  entropy T*S    EENTRO =        -0.00066451
  eigenvalues    EBANDS =        16.86069084
  atomic energy  EATOM  =       130.64884137
  ---------------------------------------------------
  free energy    TOTEN  =       -11.61360315 eV

  energy without entropy =      -11.61293864  energy(sigma->0) =      -11.61338165


--------------------------------------------------------------------------------------------------------




----------------------------------------- Iteration    1(  13)  ---------------------------------------


    POTLOK:  cpu time    0.20: real time    0.20
    SETDIJ:  cpu time    0.05: real time    0.05
     EDDAV:  cpu time    3.06: real time    3.06
       DOS:  cpu time    0.01: real time    0.01
    --------------------------------------------
      LOOP:  cpu time    3.32: real time    3.33

 eigenvalue-minimisations  :  2280
 total energy-change (2. order) :-0.3301411E-04  (-0.2220993E-04)
 number of electron       5.0000000 magnetization       0.0209873
 augmentation part        0.3919762 magnetization       0.0398941

 Free energy of the ion-electron system (eV)
  ---------------------------------------------------
  alpha Z        PSCENC =        29.30743413
  Ewald energy   TEWEN  =      -195.09763016
  -1/2 Hartree   DENC   =        -0.72237101
  -exchange  EXHF       =         0.00000000
  -V(xc)+E(xc)   XCENC  =       -66.04348995
  PAW double counting   =       185.24785132     -111.81780452
  entropy T*S    EENTRO =        -0.00068841
  eigenvalues    EBANDS =        16.86422106
  atomic energy  EATOM  =       130.64884137
  ---------------------------------------------------
  free energy    TOTEN  =       -11.61363616 eV

  energy without entropy =      -11.61294775  energy(sigma->0) =      -11.61340669


--------------------------------------------------------------------------------------------------------




 average (electrostatic) potential at core
  the test charge radii are     1.2538
  (the norm of the test charge is              1.0000)
       1 -35.5770
 
 
 
 E-fermi :   5.6929     XC(G=0): -12.1669     alpha+bet :-12.9402


 spin component 1

 k-point   1 :       0.0625    0.0625    0.0625
  band No.  band energies     occupation 
      1      -2.2205      1.00000
      2       6.0207      0.00000
      3       6.2296      0.00000
      4       6.2296      0.00000
      5       9.0322      0.00000
      6       9.0322      0.00000
      7      18.4790      0.00000
      8      19.2767      0.00000
      9      22.1556      0.00000

 k-point   2 :       0.1875    0.0625    0.0625
  band No.  band energies     occupation 
      1      -1.4503      1.00000
      2       5.4371      1.00000
      3       6.5290      0.00000
      4       6.5619      0.00000
      5       8.4663      0.00000
      6       9.1568      0.00000
      7      19.2748      0.00000
      8      19.8294      0.00000
      9      20.6169      0.00000

 k-point   3 :       0.3125    0.0625    0.0625
  band No.  band energies     occupation 
      1       0.0670      1.00000
      2       4.8984      1.00000
      3       6.3987      0.00000
      4       6.6187      0.00000
      5       8.8143      0.00000
      6       9.9414      0.00000
      7      18.1034      0.00000
      8      19.2779      0.00000
      9      21.8125      0.00000

 k-point   4 :       0.4375    0.0625    0.0625
  band No.  band energies     occupation 
      1       1.1113      1.00000
      2       5.4977      1.00000
      3       5.9813      0.00000
      4       6.1757      0.00000
      5      10.3862      0.00000
      6      11.3212      0.00000
      7      16.3461      0.00000
      8      19.0110      0.00000
      9      19.2902      0.00000

 k-point   5 :      -0.4375    0.0625    0.0625
  band No.  band energies     occupation 
      1       1.2685      1.00000
      2       5.6108      1.02116
      3       6.0625      0.00000
      4       6.3146      0.00000
      5      11.4236      0.00000
      6      11.5273      0.00000
      7      15.4959      0.00000
      8      18.0924      0.00000
      9      19.2804      0.00000

 k-point   6 :      -0.3125    0.0625    0.0625
  band No.  band energies     occupation 
      1       0.8855      1.00000
      2       5.1431      1.00000
      3       6.0415      0.00000
      4       6.3620      0.00000
      5      10.0491      0.00000
      6      10.7088      0.00000
      7      16.8997      0.00000
      8      19.2730      0.00000
      9      19.9628      0.00000

 k-point   7 :      -0.1875    0.0625    0.0625
  band No.  band energies     occupation 
      1      -0.4621      1.00000
      2       4.9609      1.00000
      3       6.5531      0.00000
      4       6.7030      0.00000
      5       8.5624      0.00000
      6       9.4970      0.00000
      7      18.7785      0.00000
      8      19.2809      0.00000
      9      21.7674      0.00000

 k-point   8 :      -0.0625    0.0625    0.0625
  band No.  band energies     occupation 
      1      -1.8244      1.00000
      2       5.6463      1.01663
      3       6.4415      0.00000
      4       6.4538      0.00000
      5       8.5402      0.00000
      6       9.1999      0.00000
      7      19.2758      0.00000
      8      19.2860      0.00000
      9      21.3871      0.00000

 k-point   9 :       0.1875    0.1875    0.0625
  band No.  band energies     occupation 
      1      -1.0767      1.00000
      2       5.0096      1.00000
      3       6.8243      0.00000
      4       6.8996      0.00000
      5       7.7976      0.00000
      6       9.5197      0.00000
      7      19.2751      0.00000
      8      20.6715      0.00000
      9      21.1415      0.00000

 k-point  10 :       0.3125    0.1875    0.0625
  band No.  band energies     occupation 
      1       0.2055      1.00000
      2       4.3775      1.00000
      3       6.2081      0.00000
      4       7.4559      0.00000
      5       8.1744      0.00000
      6      10.2349      0.00000
      7      19.2701      0.00000
      8      19.9406      0.00000
      9      22.7401      0.00000

 k-point  11 :       0.4375    0.1875    0.0625
  band No.  band energies     occupation 
      1       1.5775      1.00000
      2       4.4151      1.00000
      3       5.4041      1.00000
      4       7.1105      0.00000
      5       9.9970      0.00000
      6      11.6268      0.00000
      7      17.2746      0.00000
      8      19.2804      0.00000
      9      20.6376      0.00000

 k-point  12 :      -0.4375    0.1875    0.0625
  band No.  band energies     occupation 
      1       2.0286      1.00000
      2       4.5730      1.00000
      3       5.8213     -0.00086
      4       6.7705      0.00000
      5      11.1626      0.00000
      6      12.6713      0.00000
      7      14.8937      0.00000
      8      19.2791      0.00000
      9      19.7826      0.00000

 k-point  13 :      -0.3125    0.1875    0.0625
  band No.  band energies     occupation 
      1       1.8886      1.00000
      2       4.7492      1.00000
      3       5.3269      1.00000
      4       6.8629      0.00000
      5       9.9785      0.00000
      6      12.4159      0.00000
      7      16.4145      0.00000
      8      19.2799      0.00000
      9      20.2269      0.00000

 k-point  14 :      -0.1875    0.1875    0.0625
  band No.  band energies     occupation 
      1       0.7535      1.00000
      2       4.4856      1.00000
      3       5.8414     -0.00011
      4       7.3411      0.00000
      5       8.1981      0.00000
      6      10.9857      0.00000
      7      19.0196      0.00000
      8      19.2988      0.00000
      9      22.3037      0.00000

 k-point  15 :      -0.0625    0.1875    0.0625
  band No.  band energies     occupation 
      1      -0.7416      1.00000
      2       4.9671      1.00000
      3       6.5861      0.00000
      4       6.9251      0.00000
      5       8.0386      0.00000
      6       9.5806      0.00000
      7      19.2722      0.00000
      8      19.8998      0.00000
      9      21.3407      0.00000

 k-point  16 :       0.3125    0.3125    0.0625
  band No.  band energies     occupation 
      1       0.8957      1.00000
      2       3.6298      1.00000
      3       6.0659      0.00000
      4       8.4130      0.00000
      5       8.7832      0.00000
      6      10.4747      0.00000
      7      19.2726      0.00000
      8      21.0401      0.00000
      9      22.8012      0.00000

 k-point  17 :       0.4375    0.3125    0.0625
  band No.  band energies     occupation 
      1       1.7990      1.00000
      2       3.3118      1.00000
      3       5.6975      0.42296
      4       8.9459      0.00000
      5      10.0985      0.00000
      6      11.6958      0.00000
      7      18.0973      0.00000
      8      19.2825      0.00000
      9      20.3015      0.00000

 k-point  18 :      -0.4375    0.3125    0.0625
  band No.  band energies     occupation 
      1       2.5546      1.00000
      2       3.5890      1.00000
      3       5.4890      1.00000
      4       8.3450      0.00000
      5      11.2629      0.00000
      6      13.6213      0.00000
      7      14.5921      0.00000
      8      19.2754      0.00000
      9      20.2397      0.00000

 k-point  19 :      -0.3125    0.3125    0.0625
  band No.  band energies     occupation 
      1       3.2127      1.00000
      2       3.7711      1.00000
      3       5.0177      1.00000
      4       7.8846      0.00000
      5      10.2038      0.00000
      6      12.7747      0.00000
      7      16.9192      0.00000
      8      19.0409      0.00000
      9      19.2863      0.00000

 k-point  20 :      -0.1875    0.3125    0.0625
  band No.  band energies     occupation 
      1       2.2772      1.00000
      2       4.4582      1.00000
      3       4.7950      1.00000
      4       7.4765      0.00000
      5       9.1055      0.00000
      6      12.6321      0.00000
      7      17.4052      0.00000
      8      19.2819      0.00000
      9      21.0983      0.00000

 k-point  21 :      -0.0625    0.3125    0.0625
  band No.  band energies     occupation 
      1       0.7835      1.00000
      2       4.7286      1.00000
      3       5.9615      0.00000
      4       6.7336      0.00000
      5       9.1667      0.00000
      6      10.7997      0.00000
      7      17.8698      0.00000
      8      19.2785      0.00000
      9      21.1085      0.00000

 k-point  22 :       0.4375    0.4375    0.0625
  band No.  band energies     occupation 
      1       1.5498      1.00000
      2       2.7033      1.00000
      3       7.1920      0.00000
      4      10.4085      0.00000
      5      11.2245      0.00000
      6      11.5007      0.00000
      7      17.4940      0.00000
      8      18.4344      0.00000
      9      19.2615      0.00000

 k-point  23 :      -0.4375    0.4375    0.0625
  band No.  band energies     occupation 
      1       1.7976      1.00000
      2       2.7854      1.00000
      3       7.2310      0.00000
      4      10.1708      0.00000
      5      11.8520      0.00000
      6      13.2899      0.00000
      7      15.2964      0.00000
      8      17.4769      0.00000
      9      19.2574      0.00000

 k-point  24 :      -0.3125    0.4375    0.0625
  band No.  band energies     occupation 
      1       2.5519      1.00000
      2       3.4552      1.00000
      3       5.9077      0.00000
      4       8.7734      0.00000
      5      11.1983      0.00000
      6      13.4029      0.00000
      7      15.3961      0.00000
      8      18.8008      0.00000
      9      19.2916      0.00000

 k-point  25 :      -0.1875    0.4375    0.0625
  band No.  band energies     occupation 
      1       2.6636      1.00000
      2       4.0490      1.00000
      3       5.4494      1.00000
      4       7.3504      0.00000
      5      10.7347      0.00000
      6      13.0976      0.00000
      7      15.1936      0.00000
      8      19.2782      0.00000
      9      20.5023      0.00000

 k-point  26 :      -0.0625    0.4375    0.0625
  band No.  band energies     occupation 
      1       1.4932      1.00000
      2       5.1990      1.00000
      3       5.9522      0.00000
      4       6.3490      0.00000
      5      10.8934      0.00000
      6      11.9358      0.00000
      7      15.6957      0.00000
      8      18.9293      0.00000
      9      19.2815      0.00000

 k-point  27 :      -0.4375   -0.4375    0.0625
  band No.  band energies     occupation 
      1       1.4687      1.00000
      2       2.5076      1.00000
      3       8.1025      0.00000
      4      11.0450      0.00000
      5      11.9356      0.00000
      6      12.2924      0.00000
      7      16.1341      0.00000
      8      17.2111      0.00000
      9      18.4595      0.00000

 k-point  28 :      -0.3125   -0.4375    0.0625
  band No.  band energies     occupation 
      1       1.8848      1.00000
      2       2.9642      1.00000
      3       6.4396      0.00000
      4       9.7420      0.00000
      5      11.1847      0.00000
      6      12.4566      0.00000
      7      16.4276      0.00000
      8      18.6077      0.00000
      9      19.2766      0.00000

 k-point  29 :      -0.1875   -0.4375    0.0625
  band No.  band energies     occupation 
      1       2.2516      1.00000
      2       3.9540      1.00000
      3       5.2076      1.00000
      4       7.6933      0.00000
      5      10.9534      0.00000
      6      12.4105      0.00000
      7      15.9149      0.00000
      8      19.2792      0.00000
      9      21.2543      0.00000

 k-point  30 :      -0.3125   -0.3125    0.0625
  band No.  band energies     occupation 
      1       1.4765      1.00000
      2       3.0848      1.00000
      3       6.2635      0.00000
      4       9.4107      0.00000
      5       9.9431      0.00000
      6      11.0038      0.00000
      7      19.2440      0.00000
      8      19.4412      0.00000
      9      20.2360      0.00000

 k-point  31 :      -0.1875   -0.3125    0.0625
  band No.  band energies     occupation 
      1       1.1817      1.00000
      2       3.7994      1.00000
      3       5.6711      0.83362
      4       8.1309      0.00000
      5       8.9931      0.00000
      6      10.9675      0.00000
      7      19.2560      0.00000
      8      19.6231      0.00000
      9      22.1471      0.00000

 k-point  32 :      -0.1875   -0.1875    0.0625
  band No.  band energies     occupation 
      1      -0.0887      1.00000
      2       4.2960      1.00000
      3       6.5766      0.00000
      4       7.5592      0.00000
      5       7.8782      0.00000
      6       9.9603      0.00000
      7      19.2741      0.00000
      8      21.1555      0.00000
      9      22.6647      0.00000

 k-point  33 :       0.1875    0.1875    0.1875
  band No.  band energies     occupation 
      1      -1.1091      1.00000
      2       5.2908      1.00000
      3       6.5765      0.00000
      4       6.5765      0.00000
      5       8.8532      0.00000
      6       8.8532      0.00000
      7      19.1860      0.00000
      8      19.2947      0.00000
      9      20.9576      0.00000

 k-point  34 :       0.3125    0.1875    0.1875
  band No.  band energies     occupation 
      1      -0.1060      1.00000
      2       4.7983      1.00000
      3       6.3274      0.00000
      4       7.0872      0.00000
      5       7.9592      0.00000
      6      10.1271      0.00000
      7      19.2274      0.00000
      8      19.3499      0.00000
      9      22.1055      0.00000

 k-point  35 :       0.4375    0.1875    0.1875
  band No.  band energies     occupation 
      1       1.4776      1.00000
      2       4.5368      1.00000
      3       5.4056      1.00000
      4       7.2279      0.00000
      5       8.4552      0.00000
      6      11.9115      0.00000
      7      18.2892      0.00000
      8      19.2852      0.00000
      9      21.4802      0.00000

 k-point  36 :      -0.4375    0.1875    0.1875
  band No.  band energies     occupation 
      1       2.2460      1.00000
      2       4.5362      1.00000
      3       5.4777      1.00000
      4       6.9348      0.00000
      5      10.2850      0.00000
      6      12.7826      0.00000
      7      15.7849      0.00000
      8      19.2794      0.00000
      9      20.3857      0.00000

 k-point  37 :      -0.3125    0.1875    0.1875
  band No.  band energies     occupation 
      1       2.1115      1.00000
      2       4.3022      1.00000
      3       5.5576      1.00044
      4       7.0960      0.00000
      5      11.5278      0.00000
      6      12.2388      0.00000
      7      15.1546      0.00000
      8      19.2788      0.00000
      9      20.2432      0.00000

 k-point  38 :      -0.1875    0.1875    0.1875
  band No.  band energies     occupation 
      1       1.3267      1.00000
      2       4.0197      1.00000
      3       5.5644      1.00084
      4       7.5168      0.00000
      5       9.8199      0.00000
      6      10.9926      0.00000
      7      18.3815      0.00000
      8      19.2843      0.00000
      9      21.5230      0.00000

 k-point  39 :       0.3125    0.3125    0.1875
  band No.  band energies     occupation 
      1       0.4074      1.00000
      2       4.5077      1.00000
      3       6.1191      0.00000
      4       7.0102      0.00000
      5       8.8772      0.00000
      6      10.2575      0.00000
      7      18.7622      0.00000
      8      19.2837      0.00000
      9      22.0831      0.00000

 k-point  40 :       0.4375    0.3125    0.1875
  band No.  band energies     occupation 
      1       1.6875      1.00000
      2       4.1058      1.00000
      3       5.1978      1.00000
      4       7.8031      0.00000
      5       8.9791      0.00000
      6      11.8623      0.00000
      7      18.3284      0.00000
      8      19.2860      0.00000
      9      21.7111      0.00000

 k-point  41 :      -0.4375    0.3125    0.1875
  band No.  band energies     occupation 
      1       3.0068      1.00000
      2       4.0412      1.00000
      3       4.5151      1.00000
      4       7.9584      0.00000
      5      10.0106      0.00000
      6      13.0192      0.00000
      7      16.7391      0.00000
      8      19.2787      0.00000
      9      19.6507      0.00000

 k-point  42 :      -0.3125    0.3125    0.1875
  band No.  band energies     occupation 
      1       3.0917      1.00000
      2       3.6894      1.00000
      3       5.1287      1.00000
      4       7.8452      0.00000
      5      10.8648      0.00000
      6      14.2459      0.00000
      7      14.4160      0.00000
      8      19.2761      0.00000
      9      20.2302      0.00000

 k-point  43 :      -0.1875    0.3125    0.1875
  band No.  band energies     occupation 
      1       2.3733      1.00000
      2       3.7337      1.00000
      3       4.9427      1.00000
      4       8.4445      0.00000
      5      10.0073      0.00000
      6      12.6182      0.00000
      7      17.0563      0.00000
      8      19.2804      0.00000
      9      20.1138      0.00000

 k-point  44 :       0.4375    0.4375    0.1875
  band No.  band energies     occupation 
      1       1.9694      1.00000
      2       3.5586      1.00000
      3       5.4896      1.00000
      4       8.2011      0.00000
      5      11.1607      0.00000
      6      11.5305      0.00000
      7      16.9002      0.00000
      8      19.2796      0.00000
      9      21.0830      0.00000

 k-point  45 :      -0.4375    0.4375    0.1875
  band No.  band energies     occupation 
      1       2.4875      1.00000
      2       3.4542      1.00000
      3       5.4237      1.00000
      4       8.9210      0.00000
      5      11.0220      0.00000
      6      13.3918      0.00000
      7      15.9125      0.00000
      8      18.5443      0.00000
      9      19.2804      0.00000

 k-point  46 :      -0.3125    0.4375    0.1875
  band No.  band energies     occupation 
      1       2.9478      1.00000
      2       4.0346      1.00000
      3       4.9933      1.00000
      4       7.9247      0.00000
      5      11.7885      0.00000
      6      14.7012      0.00000
      7      15.5177      0.00000
      8      17.1268      0.00000
      9      19.2810      0.00000

 k-point  47 :      -0.1875    0.4375    0.1875
  band No.  band energies     occupation 
      1       3.1560      1.00000
      2       3.9607      1.00000
      3       4.6059      1.00000
      4       8.1510      0.00000
      5      10.9664      0.00000
      6      13.6545      0.00000
      7      16.1158      0.00000
      8      18.3693      0.00000
      9      19.2818      0.00000

 k-point  48 :      -0.4375   -0.4375    0.1875
  band No.  band energies     occupation 
      1       2.0578      1.00000
      2       3.0420      1.00000
      3       6.7275      0.00000
      4       9.6474      0.00000
      5      11.5325      0.00000
      6      13.8137      0.00000
      7      14.3799      0.00000
      8      19.1337      0.00000
      9      19.3292      0.00000

 k-point  49 :      -0.3125   -0.4375    0.1875
  band No.  band energies     occupation 
      1       2.3764      1.00000
      2       3.3156      1.00000
      3       6.0870      0.00000
      4       8.9123      0.00000
      5      11.8023      0.00000
      6      14.3676      0.00000
      7      15.0457      0.00000
      8      17.3768      0.00000
      9      19.2786      0.00000

 k-point  50 :      -0.3125   -0.3125    0.1875
  band No.  band energies     occupation 
      1       2.1195      1.00000
      2       3.2128      1.00000
      3       6.0715      0.00000
      4       8.9857      0.00000
      5      11.6991      0.00000
      6      12.7195      0.00000
      7      15.2207      0.00000
      8      19.2749      0.00000
      9      19.8987      0.00000

 k-point  51 :       0.3125    0.3125    0.3125
  band No.  band energies     occupation 
      1       0.4037      1.00000
      2       5.0578      1.00000
      3       6.3633      0.00000
      4       6.3633      0.00000
      5       9.7871      0.00000
      6       9.7871      0.00000
      7      17.2496      0.00000
      8      19.2758      0.00000
      9      20.9991      0.00000

 k-point  52 :       0.4375    0.3125    0.3125
  band No.  band energies     occupation 
      1       1.2913      1.00000
      2       4.9191      1.00000
      3       5.6707      0.83805
      4       6.6172      0.00000
      5       9.3895      0.00000
      6      11.6785      0.00000
      7      17.2569      0.00000
      8      19.2785      0.00000
      9      20.2408      0.00000

 k-point  53 :      -0.4375    0.3125    0.3125
  band No.  band energies     occupation 
      1       2.8035      1.00000
      2       4.2680      1.00000
      3       4.8454      1.00000
      4       7.5120      0.00000
      5       9.5198      0.00000
      6      12.8164      0.00000
      7      17.0493      0.00000
      8      19.2804      0.00000
      9      20.0575      0.00000

 k-point  54 :      -0.3125    0.3125    0.3125
  band No.  band energies     occupation 
      1       2.8684      1.00000
      2       3.6633      1.00000
      3       5.5327      1.00003
      4       8.3384      0.00000
      5      10.6324      0.00000
      6      12.6341      0.00000
      7      16.4882      0.00000
      8      18.8831      0.00000
      9      19.2894      0.00000

 k-point  55 :       0.4375    0.4375    0.3125
  band No.  band energies     occupation 
      1       1.4785      1.00000
      2       4.8827      1.00000
      3       5.6865      0.60749
      4       6.6143      0.00000
      5      10.9156      0.00000
      6      11.3649      0.00000
      7      16.3250      0.00000
      8      19.2761      0.00000
      9      19.5661      0.00000

 k-point  56 :      -0.4375    0.4375    0.3125
  band No.  band energies     occupation 
      1       2.5294      1.00000
      2       4.1548      1.00000
      3       5.2217      1.00000
      4       7.3618      0.00000
      5      10.6451      0.00000
      6      13.0679      0.00000
      7      15.3853      0.00000
      8      19.2788      0.00000
      9      20.8053      0.00000

 k-point  57 :      -0.3125    0.4375    0.3125
  band No.  band energies     occupation 
      1       3.1794      1.00000
      2       3.7487      1.00000
      3       5.0499      1.00000
      4       8.0466      0.00000
      5      11.0127      0.00000
      6      13.4899      0.00000
      7      16.1431      0.00000
      8      18.4028      0.00000
      9      19.2837      0.00000

 k-point  58 :      -0.4375   -0.4375    0.3125
  band No.  band energies     occupation 
      1       2.6383      1.00000
      2       3.8308      1.00000
      3       5.5197      1.00001
      4       7.7401      0.00000
      5      11.1680      0.00000
      6      13.0915      0.00000
      7      14.8394      0.00000
      8      19.2769      0.00000
      9      20.4228      0.00000

 k-point  59 :       0.4375    0.4375    0.4375
  band No.  band energies     occupation 
      1       1.0833      1.00000
      2       5.9862      0.00000
      3       5.9862      0.00000
      4       6.0737      0.00000
      5      11.1599      0.00000
      6      11.1599      0.00000
      7      15.8769      0.00000
      8      18.1307      0.00000
      9      19.2815      0.00000

 k-point  60 :      -0.4375    0.4375    0.4375
  band No.  band energies     occupation 
      1       1.6725      1.00000
      2       5.0355      1.00000
      3       6.0803      0.00000
      4       6.3941      0.00000
      5      11.0610      0.00000
      6      12.3017      0.00000
      7      15.2112      0.00000
      8      19.0306      0.00000
      9      19.2799      0.00000

 spin component 2

 k-point   1 :       0.0625    0.0625    0.0625
  band No.  band energies     occupation 
      1      -2.2067      1.00000
      2       6.0330      0.00000
      3       6.2420      0.00000
      4       6.2420      0.00000
      5       9.0483      0.00000
      6       9.0483      0.00000
      7      18.4841      0.00000
      8      19.2533      0.00000
      9      22.1724      0.00000

 k-point   2 :       0.1875    0.0625    0.0625
  band No.  band energies     occupation 
      1      -1.4367      1.00000
      2       5.4489      1.00000
      3       6.5417      0.00000
      4       6.5743      0.00000
      5       8.4826      0.00000
      6       9.1725      0.00000
      7      19.2515      0.00000
      8      19.8369      0.00000
      9      20.6295      0.00000

 k-point   3 :       0.3125    0.0625    0.0625
  band No.  band energies     occupation 
      1       0.0802      1.00000
      2       4.9099      1.00000
      3       6.4129      0.00000
      4       6.6329      0.00000
      5       8.8287      0.00000
      6       9.9554      0.00000
      7      18.1172      0.00000
      8      19.2545      0.00000
      9      21.8193      0.00000

 k-point   4 :       0.4375    0.0625    0.0625
  band No.  band energies     occupation 
      1       1.1238      1.00000
      2       5.5103      1.00000
      3       5.9955      0.00000
      4       6.1910      0.00000
      5      10.3989      0.00000
      6      11.3337      0.00000
      7      16.3592      0.00000
      8      19.0194      0.00000
      9      19.2677      0.00000

 k-point   5 :      -0.4375    0.0625    0.0625
  band No.  band energies     occupation 
      1       1.2807      1.00000
      2       5.6263      1.03391
      3       6.0779      0.00000
      4       6.3265      0.00000
      5      11.4357      0.00000
      6      11.5396      0.00000
      7      15.5080      0.00000
      8      18.1027      0.00000
      9      19.2568      0.00000

 k-point   6 :      -0.3125    0.0625    0.0625
  band No.  band energies     occupation 
      1       0.8982      1.00000
      2       5.1549      1.00000
      3       6.0564      0.00000
      4       6.3768      0.00000
      5      10.0621      0.00000
      6      10.7218      0.00000
      7      16.9132      0.00000
      8      19.2500      0.00000
      9      19.9710      0.00000

 k-point   7 :      -0.1875    0.0625    0.0625
  band No.  band energies     occupation 
      1      -0.4488      1.00000
      2       4.9725      1.00000
      3       6.5670      0.00000
      4       6.7163      0.00000
      5       8.5772      0.00000
      6       9.5119      0.00000
      7      18.7921      0.00000
      8      19.2578      0.00000
      9      21.7735      0.00000

 k-point   8 :      -0.0625    0.0625    0.0625
  band No.  band energies     occupation 
      1      -1.8107      1.00000
      2       5.6584      0.95675
      3       6.4539      0.00000
      4       6.4662      0.00000
      5       8.5564      0.00000
      6       9.2159      0.00000
      7      19.2527      0.00000
      8      19.2910      0.00000
      9      21.4021      0.00000

 k-point   9 :       0.1875    0.1875    0.0625
  band No.  band energies     occupation 
      1      -1.0631      1.00000
      2       5.0213      1.00000
      3       6.8371      0.00000
      4       6.9120      0.00000
      5       7.8135      0.00000
[...]
      2       3.5704      1.00000
      3       5.5028      1.00000
      4       8.2153      0.00000
      5      11.1725      0.00000
      6      11.5429      0.00000
      7      16.9137      0.00000
      8      19.2561      0.00000
      9      21.0977      0.00000

 k-point  45 :      -0.4375    0.4375    0.1875
  band No.  band energies     occupation 
      1       2.5037      1.00000
      2       3.4652      1.00000
      3       5.4353      1.00000
      4       8.9366      0.00000
      5      11.0327      0.00000
      6      13.4030      0.00000
      7      15.9265      0.00000
      8      18.5572      0.00000
      9      19.2570      0.00000

 k-point  46 :      -0.3125    0.4375    0.1875
  band No.  band energies     occupation 
      1       2.9646      1.00000
      2       4.0452      1.00000
      3       5.0037      1.00000
      4       7.9411      0.00000
      5      11.7984      0.00000
      6      14.7150      0.00000
      7      15.5294      0.00000
      8      17.1393      0.00000
      9      19.2574      0.00000

 k-point  47 :      -0.1875    0.4375    0.1875
  band No.  band energies     occupation 
      1       3.1722      1.00000
      2       3.9720      1.00000
      3       4.6170      1.00000
      4       8.1669      0.00000
      5      10.9770      0.00000
      6      13.6672      0.00000
      7      16.1286      0.00000
      8      18.3810      0.00000
      9      19.2581      0.00000

 k-point  48 :      -0.4375   -0.4375    0.1875
  band No.  band energies     occupation 
      1       2.0744      1.00000
      2       3.0533      1.00000
      3       6.7375      0.00000
      4       9.6631      0.00000
      5      11.5427      0.00000
      6      13.8279      0.00000
      7      14.3905      0.00000
      8      19.1352      0.00000
      9      19.3435      0.00000

 k-point  49 :      -0.3125   -0.4375    0.1875
  band No.  band energies     occupation 
      1       2.3932      1.00000
      2       3.3265      1.00000
      3       6.0972      0.00000
      4       8.9283      0.00000
      5      11.8121      0.00000
      6      14.3782      0.00000
      7      15.0599      0.00000
      8      17.3903      0.00000
      9      19.2552      0.00000

 k-point  50 :      -0.3125   -0.3125    0.1875
  band No.  band energies     occupation 
      1       2.1355      1.00000
      2       3.2243      1.00000
      3       6.0827      0.00000
      4       9.0005      0.00000
      5      11.7106      0.00000
      6      12.7306      0.00000
      7      15.2346      0.00000
      8      19.2517      0.00000
      9      19.9128      0.00000

 k-point  51 :       0.3125    0.3125    0.3125
  band No.  band energies     occupation 
      1       0.4167      1.00000
      2       5.0693      1.00000
      3       6.3779      0.00000
      4       6.3779      0.00000
      5       9.8007      0.00000
      6       9.8007      0.00000
      7      17.2632      0.00000
      8      19.2524      0.00000
      9      21.0067      0.00000

 k-point  52 :       0.4375    0.3125    0.3125
  band No.  band energies     occupation 
      1       1.3039      1.00000
      2       4.9310      1.00000
      3       5.6854      0.62632
      4       6.6325      0.00000
      5       9.4025      0.00000
      6      11.6910      0.00000
      7      17.2704      0.00000
      8      19.2552      0.00000
      9      20.2502      0.00000

 k-point  53 :      -0.4375    0.3125    0.3125
  band No.  band energies     occupation 
      1       2.8154      1.00000
      2       4.2843      1.00000
      3       4.8560      1.00000
      4       7.5284      0.00000
      5       9.5313      0.00000
      6      12.8287      0.00000
      7      17.0627      0.00000
      8      19.2570      0.00000
      9      20.0674      0.00000

 k-point  54 :      -0.3125    0.3125    0.3125
  band No.  band energies     occupation 
      1       2.8829      1.00000
      2       3.6767      1.00000
      3       5.5429      1.00009
      4       8.3545      0.00000
      5      10.6432      0.00000
      6      12.6483      0.00000
      7      16.4987      0.00000
      8      18.8940      0.00000
      9      19.2666      0.00000

 k-point  55 :       0.4375    0.4375    0.3125
  band No.  band energies     occupation 
      1       1.4909      1.00000
      2       4.8967      1.00000
      3       5.6996      0.38804
      4       6.6292      0.00000
      5      10.9281      0.00000
      6      11.3773      0.00000
      7      16.3380      0.00000
      8      19.2531      0.00000
      9      19.5755      0.00000

 k-point  56 :      -0.4375    0.4375    0.3125
  band No.  band energies     occupation 
      1       2.5415      1.00000
      2       4.1707      1.00000
      3       5.2327      1.00000
      4       7.3772      0.00000
      5      10.6569      0.00000
      6      13.0798      0.00000
      7      15.3985      0.00000
      8      19.2553      0.00000
      9      20.8155      0.00000

 k-point  57 :      -0.3125    0.4375    0.3125
  band No.  band energies     occupation 
      1       3.1957      1.00000
      2       3.7603      1.00000
      3       5.0602      1.00000
      4       8.0628      0.00000
      5      11.0231      0.00000
      6      13.5037      0.00000
      7      16.1543      0.00000
      8      18.4145      0.00000
      9      19.2602      0.00000

 k-point  58 :      -0.4375   -0.4375    0.3125
  band No.  band energies     occupation 
      1       2.6512      1.00000
      2       3.8457      1.00000
      3       5.5304      1.00002
      4       7.7555      0.00000
      5      11.1794      0.00000
      6      13.1049      0.00000
      7      14.8512      0.00000
      8      19.2535      0.00000
      9      20.4334      0.00000

 k-point  59 :       0.4375    0.4375    0.4375
  band No.  band energies     occupation 
      1       1.0957      1.00000
      2       6.0015      0.00000
      3       6.0015      0.00000
      4       6.0856      0.00000
      5      11.1722      0.00000
      6      11.1722      0.00000
      7      15.8893      0.00000
      8      18.1405      0.00000
      9      19.2580      0.00000

 k-point  60 :      -0.4375    0.4375    0.4375
  band No.  band energies     occupation 
      1       1.6845      1.00000
      2       5.0514      1.00000
      3       6.0916      0.00000
      4       6.4095      0.00000
      5      11.0730      0.00000
      6      12.3140      0.00000
      7      15.2236      0.00000
      8      19.0408      0.00000
      9      19.2564      0.00000


--------------------------------------------------------------------------------------------------------


 soft charge-density along one line, spin component           1
         0         1         2         3         4         5         6         7         8         9
 total charge-density along one line
 
 soft charge-density along one line, spin component           2
         0         1         2         3         4         5         6         7         8         9
 total charge-density along one line
 
 pseudopotential strength for first ion, spin component:           1
 -6.635   0.000   0.000   0.000   0.000   0.083   0.000   0.000
  0.000  -6.635   0.000   0.000   0.000   0.000   0.083   0.000
  0.000   0.000  -6.647   0.000   0.000   0.000   0.000   0.083
  0.000   0.000   0.000  -6.635   0.000   0.000   0.000   0.000
  0.000   0.000   0.000   0.000  -6.647   0.000   0.000   0.000
  0.083   0.000   0.000   0.000   0.000   0.071   0.000   0.000
  0.000   0.083   0.000   0.000   0.000   0.000   0.071   0.000
  0.000   0.000   0.083   0.000   0.000   0.000   0.000   0.070
  0.000   0.000   0.000   0.083   0.000   0.000   0.000   0.000
  0.000   0.000   0.000   0.000   0.083   0.000   0.000   0.000
  0.000   0.000   0.000   0.000   0.000   0.000   0.000   0.000
  0.000   0.000   0.000   0.000   0.000   0.000   0.000   0.000
  0.000   0.000   0.000   0.000   0.000   0.000   0.000   0.000
  0.000   0.000   0.000   0.000   0.000   0.000   0.000   0.000
  0.000   0.000   0.000   0.000   0.000   0.000   0.000   0.000
  0.000   0.000   0.000   0.000   0.000   0.000   0.000   0.000
  0.000   0.000   0.000   0.000   0.000   0.000   0.000   0.000
  0.000   0.000   0.000   0.000   0.000   0.000   0.000   0.000
 pseudopotential strength for first ion, spin component:           2
 -6.634   0.000   0.000   0.000   0.000   0.083   0.000   0.000
  0.000  -6.634   0.000   0.000   0.000   0.000   0.083   0.000
  0.000   0.000  -6.647   0.000   0.000   0.000   0.000   0.083
  0.000   0.000   0.000  -6.634   0.000   0.000   0.000   0.000
  0.000   0.000   0.000   0.000  -6.647   0.000   0.000   0.000
  0.083   0.000   0.000   0.000   0.000   0.071   0.000   0.000
  0.000   0.083   0.000   0.000   0.000   0.000   0.071   0.000
  0.000   0.000   0.083   0.000   0.000   0.000   0.000   0.070
  0.000   0.000   0.000   0.083   0.000   0.000   0.000   0.000
  0.000   0.000   0.000   0.000   0.083   0.000   0.000   0.000
  0.000   0.000   0.000   0.000   0.000   0.000   0.000   0.000
  0.000   0.000   0.000   0.000   0.000   0.000   0.000   0.000
  0.000   0.000   0.000   0.000   0.000   0.000   0.000   0.000
  0.000   0.000   0.000   0.000   0.000   0.000   0.000   0.000
  0.000   0.000   0.000   0.000   0.000   0.000   0.000   0.000
  0.000   0.000   0.000   0.000   0.000   0.000   0.000   0.000
  0.000   0.000   0.000   0.000   0.000   0.000   0.000   0.000
  0.000   0.000   0.000   0.000   0.000   0.000   0.000   0.000
 total augmentation occupancy for first ion, spin component:           1
  0.755   0.000   0.000   0.000   0.000  -0.519   0.000   0.000   0.000   0.000   0.000   0.000   0.000   0.000   0.000   0.000
  0.000   0.755   0.000   0.000   0.000   0.000  -0.519   0.000   0.000   0.000   0.000   0.000   0.000   0.000   0.000   0.000
  0.000   0.000   0.529   0.000   0.000   0.000   0.000  -0.398   0.000   0.000   0.000   0.000   0.000   0.000   0.000   0.000
  0.000   0.000   0.000   0.755   0.000   0.000   0.000   0.000  -0.519   0.000   0.000   0.000   0.000   0.000   0.000   0.000
  0.000   0.000   0.000   0.000   0.529   0.000   0.000   0.000   0.000  -0.398   0.000   0.000   0.000   0.000   0.000   0.000
 -0.519   0.000   0.000   0.000   0.000   0.410   0.000   0.000   0.000   0.000   0.000   0.000   0.000   0.000   0.000   0.000
  0.000  -0.519   0.000   0.000   0.000   0.000   0.410   0.000   0.000   0.000   0.000   0.000   0.000   0.000   0.000   0.000
  0.000   0.000  -0.398   0.000   0.000   0.000   0.000   0.344   0.000   0.000   0.000   0.000   0.000   0.000   0.000   0.000
  0.000   0.000   0.000  -0.519   0.000   0.000   0.000   0.000   0.410   0.000   0.000   0.000   0.000   0.000   0.000   0.000
  0.000   0.000   0.000   0.000  -0.398   0.000   0.000   0.000   0.000   0.344   0.000   0.000   0.000   0.000   0.000   0.000
  0.000   0.000   0.000   0.000   0.000   0.000   0.000   0.000   0.000   0.000   1.417  -0.282   0.000   0.000   0.000   0.000
  0.000   0.000   0.000   0.000   0.000   0.000   0.000   0.000   0.000   0.000  -0.282   0.061   0.000   0.000   0.000   0.000
  0.000   0.000   0.000   0.000   0.000   0.000   0.000   0.000   0.000   0.000   0.000   0.000   0.309   0.000   0.000   0.012
  0.000   0.000   0.000   0.000   0.000   0.000   0.000   0.000   0.000   0.000   0.000   0.000   0.000   0.309   0.000   0.000
  0.000   0.000   0.000   0.000   0.000   0.000   0.000   0.000   0.000   0.000   0.000   0.000   0.000   0.000   0.309   0.000
  0.000   0.000   0.000   0.000   0.000   0.000   0.000   0.000   0.000   0.000   0.000   0.000   0.012   0.000   0.000   0.001
  0.000   0.000   0.000   0.000   0.000   0.000   0.000   0.000   0.000   0.000   0.000   0.000   0.000   0.012   0.000   0.000
  0.000   0.000   0.000   0.000   0.000   0.000   0.000   0.000   0.000   0.000   0.000   0.000   0.000   0.000   0.012   0.000
 total augmentation occupancy for first ion, spin component:           2
 -0.003   0.000   0.000   0.000   0.000   0.001   0.000   0.000   0.000   0.000   0.000   0.000   0.000   0.000   0.000   0.000
  0.000  -0.003   0.000   0.000   0.000   0.000   0.001   0.000   0.000   0.000   0.000   0.000   0.000   0.000   0.000   0.000
  0.000   0.000  -0.006   0.000   0.000   0.000   0.000   0.002   0.000   0.000   0.000   0.000   0.000   0.000   0.000   0.000
  0.000   0.000   0.000  -0.003   0.000   0.000   0.000   0.000   0.001   0.000   0.000   0.000   0.000   0.000   0.000   0.000
  0.000   0.000   0.000   0.000  -0.006   0.000   0.000   0.000   0.000   0.002   0.000   0.000   0.000   0.000   0.000   0.000
  0.001   0.000   0.000   0.000   0.000   0.000   0.000   0.000   0.000   0.000   0.000   0.000   0.000   0.000   0.000   0.000
  0.000   0.001   0.000   0.000   0.000   0.000   0.000   0.000   0.000   0.000   0.000   0.000   0.000   0.000   0.000   0.000
  0.000   0.000   0.002   0.000   0.000   0.000   0.000   0.000   0.000   0.000   0.000   0.000   0.000   0.000   0.000   0.000
  0.000   0.000   0.000   0.001   0.000   0.000   0.000   0.000   0.000   0.000   0.000   0.000   0.000   0.000   0.000   0.000
  0.000   0.000   0.000   0.000   0.002   0.000   0.000   0.000   0.000   0.000   0.000   0.000   0.000   0.000   0.000   0.000
  0.000   0.000   0.000   0.000   0.000   0.000   0.000   0.000   0.000   0.000  -0.004  -0.002   0.000   0.000   0.000   0.000
  0.000   0.000   0.000   0.000   0.000   0.000   0.000   0.000   0.000   0.000  -0.002   0.001   0.000   0.000   0.000   0.000
  0.000   0.000   0.000   0.000   0.000   0.000   0.000   0.000   0.000   0.000   0.000   0.000  -0.001   0.000   0.000   0.000
  0.000   0.000   0.000   0.000   0.000   0.000   0.000   0.000   0.000   0.000   0.000   0.000   0.000  -0.001   0.000   0.000
  0.000   0.000   0.000   0.000   0.000   0.000   0.000   0.000   0.000   0.000   0.000   0.000   0.000   0.000  -0.001   0.000
  0.000   0.000   0.000   0.000   0.000   0.000   0.000   0.000   0.000   0.000   0.000   0.000   0.000   0.000   0.000   0.000
  0.000   0.000   0.000   0.000   0.000   0.000   0.000   0.000   0.000   0.000   0.000   0.000   0.000   0.000   0.000   0.000
  0.000   0.000   0.000   0.000   0.000   0.000   0.000   0.000   0.000   0.000   0.000   0.000   0.000   0.000   0.000   0.000


------------------------ aborting loop because EDIFF is reached ----------------------------------------


 


 total charge     
 
# of ion     s       p       d       tot
----------------------------------------
  1        0.716   0.715   3.160   4.591
 


 magnetization (x)
 
# of ion     s       p       d       tot
----------------------------------------
  1        0.000   0.002   0.012   0.014
 
    CHARGE:  cpu time    0.20: real time    0.20
    FORLOC:  cpu time    0.00: real time    0.00
    FORNL :  cpu time    0.39: real time    0.39
    STRESS:  cpu time    0.73: real time    0.73
    FORCOR:  cpu time    0.20: real time    0.20
    FORHAR:  cpu time    0.02: real time    0.02
    MIXING:  cpu time    0.00: real time    0.01

  FORCE on cell =-STRESS in cart. coord.  units (eV):
  Direction    XX          YY          ZZ          XY          YZ          ZX
  --------------------------------------------------------------------------------------
  Alpha Z    29.30743    29.30743    29.30743
  Ewald     -65.03255   -65.03255   -65.03255     0.00000     0.00000     0.00000
  Hartree     0.23706     0.23706     0.23706     0.00000     0.00000     0.00000
  E(xc)     -22.06916   -22.06916   -22.06916     0.00000     0.00000     0.00000
  Local       3.71971     3.71971     3.71971     0.00000     0.00000     0.00000
  n-local    -6.44781    -3.52764    -7.82943     1.91469    -1.88389     0.00557
  augment     2.87932     2.87932     2.87932     0.00000     0.00000     0.00000
  Kinetic    58.73390    54.67333    56.14537    -2.13206     2.01479    -0.14161
  Fock        0.00000     0.00000     0.00000     0.00000     0.00000     0.00000
  -------------------------------------------------------------------------------------
  Total      -0.37562    -0.37562    -0.37562     0.00000     0.00000     0.00000
  in kB     -31.80519   -31.80519   -31.80519     0.00000     0.00000     0.00000
  external pressure =      -31.81 kB  Pullay stress =        0.00 kB


 VOLUME and BASIS-vectors are now :
 -----------------------------------------------------------------------------
  energy-cutoff  :      400.00
  volume of cell :       18.92
      direct lattice vectors                 reciprocal lattice vectors
     0.000000000  2.115000000  2.115000000    -0.236406619  0.236406619  0.236406619
     2.115000000  0.000000000  2.115000000     0.236406619 -0.236406619  0.236406619
     2.115000000  2.115000000  0.000000000     0.236406619  0.236406619 -0.236406619

  length of vectors
     2.991061684  2.991061684  2.991061684     0.409468276  0.409468276  0.409468276


 FORCES acting on ions
    electron-ion (+dipol)            ewald-force                    non-local-force                 convergence-correction
 -----------------------------------------------------------------------------------------------
   -.197E-14 0.393E-15 0.220E-15   0.298E-15 -.424E-15 0.592E-15   0.000E+00 0.000E+00 0.165E-23   0.185E-15 -.296E-15 -.416E-15
 -----------------------------------------------------------------------------------------------
   -.197E-14 0.393E-15 0.220E-15   0.298E-15 -.424E-15 0.592E-15   0.000E+00 0.000E+00 0.165E-23   0.185E-15 -.296E-15 -.416E-15
 
 
 POSITION                                       TOTAL-FORCE (eV/Angst)
 -----------------------------------------------------------------------------------
      0.00000      0.00000      0.00000         0.000000      0.000000      0.000000
 -----------------------------------------------------------------------------------
    total drift:                                0.000000      0.000000      0.000000


--------------------------------------------------------------------------------------------------------



  FREE ENERGIE OF THE ION-ELECTRON SYSTEM (eV)
  ---------------------------------------------------
  free  energy   TOTEN  =       -11.613636 eV

  energy  without entropy=      -11.612948  energy(sigma->0) =      -11.613407
 


--------------------------------------------------------------------------------------------------------


    POTLOK:  cpu time    0.25: real time    0.25


--------------------------------------------------------------------------------------------------------


 writing wavefunctions
     LOOP+:  cpu time   48.13: real time   48.47
    4ORBIT:  cpu time    0.00: real time    0.00
 


 total charge     
 
# of ion     s       p       d       tot
----------------------------------------
  1        0.716   0.715   3.160   4.591
 


 magnetization (x)
 
# of ion     s       p       d       tot
----------------------------------------
  1        0.000   0.002   0.012   0.014
 

 total amount of memory used by VASP on root node    47220. kBytes
========================================================================

   base      :      30000. kBytes
   nonl-proj :       3055. kBytes
   fftplans  :       2284. kBytes
   grid      :       5440. kBytes
   one-center:         31. kBytes
   wavefun   :       6410. kBytes
 
  
  
 General timing and accounting informations for this job:
 ========================================================
  
                  Total CPU time used (sec):       49.040
                            User time (sec):       48.854
                          System time (sec):        0.186
                         Elapsed time (sec):       49.433
  
                   Maximum memory used (kb):           0.
                   Average memory used (kb):           0.
  
                          Minor page faults:        13038
                          Major page faults:            0
                 Voluntary context switches:         3413
