PROCAR lm decomposed
# of k-points:   60         # of bands:   9         # of ions:   1

 k-point    1 :    0.06250000 0.06250000 0.06250000     weight = 0.00390625

band   1 # energy   -2.22045010 # occ.  1.00000000
 
ion      s     py     pz     px    dxy    dyz    dz2    dxz    dx2    tot
  1  0.811  0.004  0.004  0.004  0.000  0.000  0.000  0.000  0.000  0.822
 
band   2 # energy    6.02066326 # occ.  0.00000000
 
ion      s     py     pz     px    dxy    dyz    dz2    dxz    dx2    tot
  1  0.000  0.002  0.002  0.002  0.329  0.329  0.000  0.329  0.000  0.991
 
band   3 # energy    6.22959710 # occ.  0.00000000
 
ion      s     py     pz     px    dxy    dyz    dz2    dxz    dx2    tot
  1  0.000  0.001  0.000  0.001  0.035  0.530  0.000  0.429  0.001  0.997
 
band   4 # energy    6.22959710 # occ.  0.00000000
 
ion      s     py     pz     px    dxy    dyz    dz2    dxz    dx2    tot
  1  0.000  0.000  0.001  0.000  0.628  0.133  0.001  0.234  0.000  0.997
 
band   5 # energy    9.03221514 # occ.  0.00000000
 
ion      s     py     pz     px    dxy    dyz    dz2    dxz    dx2    tot
  1  0.000  0.000  0.000  0.000  0.000  0.000  0.387  0.000  0.599  0.987
 
band   6 # energy    9.03221514 # occ.  0.00000000
 
ion      s     py     pz     px    dxy    dyz    dz2    dxz    dx2    tot
  1  0.000  0.000  0.000  0.000  0.000  0.000  0.599  0.000  0.387  0.987
 
band   7 # energy   18.47904233 # occ.  0.00000000
 
ion      s     py     pz     px    dxy    dyz    dz2    dxz    dx2    tot
  1  0.000  0.000  0.000  0.000  0.005  0.005  0.000  0.005  0.000  0.015
 
band   8 # energy   19.27667723 # occ.  0.00000000
 
ion      s     py     pz     px    dxy    dyz    dz2    dxz    dx2    tot
  1 43.905  0.000  0.000  0.000  0.000  0.000  0.000  0.000  0.000 43.905
 
band   9 # energy   22.15564356 # occ.  0.00000000
 
ion      s     py     pz     px    dxy    dyz    dz2    dxz    dx2    tot
  1  0.042  0.036  0.036  0.036  0.003  0.003  0.000  0.003  0.000  0.159
 

 k-point    2 :    0.18750000 0.06250000 0.06250000     weight = 0.01171875

band   1 # energy   -1.45025508 # occ.  1.00000000
 
ion      s     py     pz     px    dxy    dyz    dz2    dxz    dx2    tot
  1  0.762  0.031  0.031  0.003  0.001  0.006  0.000  0.001  0.001  0.836
 
band   2 # energy    5.43708111 # occ.  1.00000000
 
ion      s     py     pz     px    dxy    dyz    dz2    dxz    dx2    tot
  1  0.000  0.003  0.003  0.024  0.448  0.039  0.000  0.448  0.000  0.967
 
band   3 # energy    6.52897481 # occ.  0.00000000
 
ion      s     py     pz     px    dxy    dyz    dz2    dxz    dx2    tot
  1  0.000  0.010  0.010  0.001  0.021  0.850  0.018  0.021  0.053  0.983
 
band   4 # energy    6.56187173 # occ.  0.00000000
 
ion      s     py     pz     px    dxy    dyz    dz2    dxz    dx2    tot
  1  0.000  0.000  0.000  0.000  0.484  0.000  0.013  0.484  0.004  0.987
 
band   5 # energy    8.46628384 # occ.  0.00000000
 
ion      s     py     pz     px    dxy    dyz    dz2    dxz    dx2    tot
  1  0.000  0.000  0.000  0.000  0.008  0.000  0.708  0.008  0.236  0.962
 
band   6 # energy    9.15676751 # occ.  0.00000000
 
ion      s     py     pz     px    dxy    dyz    dz2    dxz    dx2    tot
  1  0.001  0.001  0.001  0.000  0.001  0.066  0.225  0.001  0.675  0.973
 
band   7 # energy   19.27476536 # occ.  0.00000000
 
ion      s     py     pz     px    dxy    dyz    dz2    dxz    dx2    tot
  1 43.734  0.000  0.000  0.000  0.000  0.000  0.000  0.000  0.000 43.734
 
band   8 # energy   19.82944165 # occ.  0.00000000
 
ion      s     py     pz     px    dxy    dyz    dz2    dxz    dx2    tot
  1  0.088  0.005  0.005  0.003  0.021  0.000  0.001  0.021  0.002  0.146
 
band   9 # energy   20.61692274 # occ.  0.00000000
 
ion      s     py     pz     px    dxy    dyz    dz2    dxz    dx2    tot
  1  0.165  0.031  0.031  0.008  0.022  0.031  0.004  0.022  0.012  0.326
 

 k-point    3 :    0.31250000 0.06250000 0.06250000     weight = 0.01171875

band   1 # energy    0.06704433 # occ.  1.00000000
 
ion      s     py     pz     px    dxy    dyz    dz2    dxz    dx2    tot
  1  0.629  0.058  0.058  0.014  0.032  0.052  0.000  0.032  0.001  0.877
 
band   2 # energy    4.89839506 # occ.  1.00000000
 
ion      s     py     pz     px    dxy    dyz    dz2    dxz    dx2    tot
  1  0.013  0.044  0.044  0.079  0.331  0.086  0.001  0.331  0.002  0.930
 
band   3 # energy    6.39869677 # occ.  0.00000000
 
ion      s     py     pz     px    dxy    dyz    dz2    dxz    dx2    tot
  1  0.000  0.008  0.008  0.002  0.054  0.470  0.092  0.054  0.275  0.965
 
band   4 # energy    6.61869648 # occ.  0.00000000
 
ion      s     py     pz     px    dxy    dyz    dz2    dxz    dx2    tot
  1  0.000  0.000  0.000  0.000  0.287  0.000  0.297  0.287  0.099  0.971
 
band   5 # energy    8.81433636 # occ.  0.00000000
 
ion      s     py     pz     px    dxy    dyz    dz2    dxz    dx2    tot
  1  0.000  0.005  0.005  0.000  0.195  0.000  0.410  0.195  0.137  0.946
 
band   6 # energy    9.94140222 # occ.  0.00000000
 
ion      s     py     pz     px    dxy    dyz    dz2    dxz    dx2    tot
  1  0.004  0.010  0.010  0.001  0.022  0.310  0.145  0.022  0.436  0.959
 
band   7 # energy   18.10339740 # occ.  0.00000000
 
ion      s     py     pz     px    dxy    dyz    dz2    dxz    dx2    tot
  1  0.075  0.026  0.026  0.024  0.011  0.043  0.004  0.011  0.011  0.231
 
band   8 # energy   19.27787663 # occ.  0.00000000
 
ion      s     py     pz     px    dxy    dyz    dz2    dxz    dx2    tot
  1 43.890  0.000  0.000  0.000  0.000  0.000  0.000  0.000  0.000 43.890
 
band   9 # energy   21.81250418 # occ.  0.00000000
 
ion      s     py     pz     px    dxy    dyz    dz2    dxz    dx2    tot
  1  0.181  0.057  0.057  0.051  0.131  0.092  0.000  0.131  0.000  0.699
 

 k-point    4 :    0.43750000 0.06250000 0.06250000     weight = 0.01171875

band   1 # energy    1.11133544 # occ.  1.00000000
 
ion      s     py     pz     px    dxy    dyz    dz2    dxz    dx2    tot
  1  0.416  0.026  0.026  0.001  0.153  0.169  0.000  0.153  0.001  0.946
 
band   2 # energy    5.49768560 # occ.  1.00000025
 
ion      s     py     pz     px    dxy    dyz    dz2    dxz    dx2    tot
  1  0.030  0.168  0.168  0.161  0.064  0.078  0.030  0.064  0.091  0.853
 
band   3 # energy    5.98129652 # occ.  0.00000000
 
ion      s     py     pz     px    dxy    dyz    dz2    dxz    dx2    tot
  1  0.008  0.008  0.008  0.039  0.127  0.226  0.106  0.127  0.319  0.967
 
band   4 # energy    6.17569691 # occ.  0.00000000
 
ion      s     py     pz     px    dxy    dyz    dz2    dxz    dx2    tot
  1  0.000  0.000  0.000  0.000  0.193  0.000  0.436  0.193  0.145  0.969
 
band   5 # energy   10.38615036 # occ.  0.00000000
 
ion      s     py     pz     px    dxy    dyz    dz2    dxz    dx2    tot
  1  0.000  0.005  0.005  0.000  0.291  0.000  0.271  0.291  0.090  0.954
 
band   6 # energy   11.32122169 # occ.  0.00000000
 
ion      s     py     pz     px    dxy    dyz    dz2    dxz    dx2    tot
  1  0.006  0.017  0.017  0.001  0.050  0.421  0.103  0.050  0.308  0.973
 
band   7 # energy   16.34607980 # occ.  0.00000000
 
ion      s     py     pz     px    dxy    dyz    dz2    dxz    dx2    tot
  1  0.264  0.026  0.026  0.023  0.084  0.125  0.002  0.084  0.006  0.640
 
band   8 # energy   19.01103879 # occ.  0.00000000
 
ion      s     py     pz     px    dxy    dyz    dz2    dxz    dx2    tot
  1  1.204  0.046  0.046  0.028  0.055  0.019  0.001  0.055  0.003  1.457
 
band   9 # energy   19.29021551 # occ.  0.00000000
 
ion      s     py     pz     px    dxy    dyz    dz2    dxz    dx2    tot
  1 42.986  0.002  0.002  0.002  0.003  0.002  0.000  0.003  0.000 43.001
 

 k-point    5 :   -0.43750000 0.06250000 0.06250000     weight = 0.01171875

band   1 # energy    1.26849844 # occ.  1.00000000
 
ion      s     py     pz     px    dxy    dyz    dz2    dxz    dx2    tot
  1  0.346  0.000  0.000  0.011  0.197  0.215  0.000  0.197  0.000  0.968
 
band   2 # energy    5.61084300 # occ.  1.02115954
 
ion      s     py     pz     px    dxy    dyz    dz2    dxz    dx2    tot
  1  0.000  0.061  0.061  0.036  0.047  0.109  0.137  0.047  0.411  0.910
 
band   3 # energy    6.06254051 # occ.  0.00000000
 
ion      s     py     pz     px    dxy    dyz    dz2    dxz    dx2    tot
  1  0.000  0.002  0.002  0.000  0.190  0.000  0.440  0.190  0.147  0.970
 
band   4 # energy    6.31463253 # occ.  0.00000000
 
ion      s     py     pz     px    dxy    dyz    dz2    dxz    dx2    tot
  1  0.003  0.187  0.187  0.210  0.023  0.194  0.012  0.023  0.037  0.877
 
band   5 # energy   11.42357518 # occ.  0.00000000
 
ion      s     py     pz     px    dxy    dyz    dz2    dxz    dx2    tot
  1  0.000  0.000  0.000  0.000  0.306  0.000  0.279  0.306  0.093  0.983
 
band   6 # energy   11.52732218 # occ.  0.00000000
 
ion      s     py     pz     px    dxy    dyz    dz2    dxz    dx2    tot
  1  0.000  0.013  0.013  0.030  0.100  0.352  0.089  0.100  0.267  0.965
 
band   7 # energy   15.49589930 # occ.  0.00000000
 
ion      s     py     pz     px    dxy    dyz    dz2    dxz    dx2    tot
  1  0.452  0.001  0.001  0.002  0.167  0.141  0.000  0.167  0.000  0.933
 
band   8 # energy   18.09239450 # occ.  0.00000000
 
ion      s     py     pz     px    dxy    dyz    dz2    dxz    dx2    tot
  1  0.003  0.015  0.015  0.020  0.000  0.018  0.002  0.000  0.006  0.078
 
band   9 # energy   19.28035765 # occ.  0.00000000
 
ion      s     py     pz     px    dxy    dyz    dz2    dxz    dx2    tot
  1 44.127  0.000  0.000  0.000  0.000  0.000  0.000  0.000  0.000 44.128
 

 k-point    6 :   -0.31250000 0.06250000 0.06250000     weight = 0.01171875

band   1 # energy    0.88550113 # occ.  1.00000000
 
ion      s     py     pz     px    dxy    dyz    dz2    dxz    dx2    tot
  1  0.483  0.015  0.015  0.060  0.115  0.117  0.001  0.115  0.003  0.924
 
band   2 # energy    5.14310218 # occ.  1.00000000
 
ion      s     py     pz     px    dxy    dyz    dz2    dxz    dx2    tot
  1  0.035  0.139  0.139  0.115  0.090  0.233  0.010  0.090  0.029  0.881
 
band   3 # energy    6.04154139 # occ.  0.00000000
 
ion      s     py     pz     px    dxy    dyz    dz2    dxz    dx2    tot
  1  0.004  0.001  0.001  0.002  0.067  0.303  0.130  0.067  0.391  0.964
 
band   4 # energy    6.36198943 # occ.  0.00000000
 
ion      s     py     pz     px    dxy    dyz    dz2    dxz    dx2    tot
  1  0.000  0.005  0.005  0.000  0.235  0.000  0.368  0.235  0.123  0.971
 
band   5 # energy   10.04908585 # occ.  0.00000000
 
ion      s     py     pz     px    dxy    dyz    dz2    dxz    dx2    tot
  1  0.004  0.003  0.003  0.037  0.140  0.245  0.093  0.140  0.279  0.946
 
band   6 # energy   10.70878399 # occ.  0.00000000
 
ion      s     py     pz     px    dxy    dyz    dz2    dxz    dx2    tot
  1  0.000  0.005  0.005  0.000  0.245  0.000  0.350  0.245  0.117  0.966
 
band   7 # energy   16.89967308 # occ.  0.00000000
 
ion      s     py     pz     px    dxy    dyz    dz2    dxz    dx2    tot
  1  0.164  0.029  0.029  0.026  0.078  0.036  0.002  0.078  0.005  0.446
 
band   8 # energy   19.27300336 # occ.  0.00000000
 
ion      s     py     pz     px    dxy    dyz    dz2    dxz    dx2    tot
  1 43.305  0.000  0.000  0.001  0.000  0.000  0.000  0.000  0.000 43.307
 
band   9 # energy   19.96281902 # occ.  0.00000000
 
ion      s     py     pz     px    dxy    dyz    dz2    dxz    dx2    tot
  1  0.896  0.055  0.055  0.075  0.066  0.098  0.002  0.066  0.005  1.316
 

 k-point    7 :   -0.18750000 0.06250000 0.06250000     weight = 0.01171875

band   1 # energy   -0.46213703 # occ.  1.00000000
 
ion      s     py     pz     px    dxy    dyz    dz2    dxz    dx2    tot
  1  0.685  0.023  0.023  0.074  0.020  0.013  0.001  0.020  0.003  0.859
 
band   2 # energy    4.96094948 # occ.  1.00000000
 
ion      s     py     pz     px    dxy    dyz    dz2    dxz    dx2    tot
  1  0.005  0.038  0.038  0.020  0.144  0.558  0.000  0.144  0.001  0.946
 
band   3 # energy    6.55312151 # occ.  0.00000000
 
ion      s     py     pz     px    dxy    dyz    dz2    dxz    dx2    tot
  1  0.000  0.002  0.002  0.004  0.191  0.265  0.078  0.191  0.234  0.967
 
band   4 # energy    6.70295309 # occ.  0.00000000
 
ion      s     py     pz     px    dxy    dyz    dz2    dxz    dx2    tot
  1  0.000  0.009  0.009  0.000  0.370  0.000  0.166  0.370  0.055  0.977
 
band   5 # energy    8.56236967 # occ.  0.00000000
 
ion      s     py     pz     px    dxy    dyz    dz2    dxz    dx2    tot
  1  0.004  0.001  0.001  0.015  0.099  0.107  0.156  0.099  0.468  0.948
 
band   6 # energy    9.49695652 # occ.  0.00000000
 
ion      s     py     pz     px    dxy    dyz    dz2    dxz    dx2    tot
  1  0.000  0.003  0.003  0.000  0.107  0.000  0.557  0.107  0.186  0.962
 
band   7 # energy   18.77851196 # occ.  0.00000000
 
ion      s     py     pz     px    dxy    dyz    dz2    dxz    dx2    tot
  1  0.267  0.024  0.024  0.022  0.016  0.001  0.003  0.016  0.010  0.385
 
band   8 # energy   19.28091212 # occ.  0.00000000
 
ion      s     py     pz     px    dxy    dyz    dz2    dxz    dx2    tot
  1 43.698  0.000  0.000  0.000  0.000  0.000  0.000  0.000  0.000 43.699
 
band   9 # energy   21.76744607 # occ.  0.00000000
 
ion      s     py     pz     px    dxy    dyz    dz2    dxz    dx2    tot
  1  0.079  0.024  0.024  0.021  0.077  0.130  0.000  0.077  0.000  0.432
 

 k-point    8 :   -0.06250000 0.06250000 0.06250000     weight = 0.01171875

band   1 # energy   -1.82436810 # occ.  1.00000000
 
ion      s     py     pz     px    dxy    dyz    dz2    dxz    dx2    tot
  1  0.787  0.004  0.004  0.033  0.001  0.000  0.000  0.001  0.001  0.829
 
band   2 # energy    5.64629113 # occ.  1.01663451
 
ion      s     py     pz     px    dxy    dyz    dz2    dxz    dx2    tot
  1  0.000  0.004  0.004  0.001  0.064  0.841  0.000  0.064  0.000  0.978
 
band   3 # energy    6.44152401 # occ.  0.00000000
 
ion      s     py     pz     px    dxy    dyz    dz2    dxz    dx2    tot
  1  0.000  0.004  0.004  0.002  0.419  0.136  0.002  0.419  0.005  0.990
 
band   4 # energy    6.45382403 # occ.  0.00000000
 
ion      s     py     pz     px    dxy    dyz    dz2    dxz    dx2    tot
  1  0.000  0.006  0.006  0.000  0.485  0.000  0.007  0.485  0.002  0.991
 
band   5 # energy    8.54015154 # occ.  0.00000000
 
ion      s     py     pz     px    dxy    dyz    dz2    dxz    dx2    tot
  1  0.001  0.000  0.000  0.001  0.003  0.001  0.239  0.003  0.718  0.966
 
band   6 # energy    9.19991664 # occ.  0.00000000
 
ion      s     py     pz     px    dxy    dyz    dz2    dxz    dx2    tot
  1  0.000  0.000  0.000  0.000  0.005  0.000  0.732  0.005  0.244  0.985
 
band   7 # energy   19.27575200 # occ.  0.00000000
 
ion      s     py     pz     px    dxy    dyz    dz2    dxz    dx2    tot
  1 42.246  0.000  0.000  0.000  0.000  0.001  0.000  0.000  0.000 42.247
 
band   8 # energy   19.28602644 # occ.  0.00000000
 
ion      s     py     pz     px    dxy    dyz    dz2    dxz    dx2    tot
  1  1.625  0.000  0.000  0.000  0.004  0.040  0.000  0.004  0.000  1.673
 
band   9 # energy   21.38707068 # occ.  0.00000000
 
ion      s     py     pz     px    dxy    dyz    dz2    dxz    dx2    tot
  1  0.100  0.020  0.020  0.044  0.008  0.003  0.006  0.008  0.017  0.226
 

 k-point    9 :    0.18750000 0.18750000 0.06250000     weight = 0.01171875

band   1 # energy   -1.07670655 # occ.  1.00000000
 
ion      s     py     pz     px    dxy    dyz    dz2    dxz    dx2    tot
  1  0.735  0.003  0.087  0.003  0.000  0.002  0.009  0.002  0.000  0.842
 
band   2 # energy    5.00960198 # occ.  1.00000000
 
ion      s     py     pz     px    dxy    dyz    dz2    dxz    dx2    tot
  1  0.000  0.004  0.000  0.004  0.916  0.020  0.000  0.020  0.000  0.966
 
band   3 # energy    6.82434607 # occ.  0.00000000
 
ion      s     py     pz     px    dxy    dyz    dz2    dxz    dx2    tot
  1  0.000  0.012  0.001  0.012  0.043  0.396  0.111  0.396  0.000  0.971
 
band   4 # energy    6.89963439 # occ.  0.00000000
 
ion      s     py     pz     px    dxy    dyz    dz2    dxz    dx2    tot
  1  0.000  0.015  0.000  0.015  0.000  0.461  0.000  0.461  0.027  0.979
 
band   5 # energy    7.79760269 # occ.  0.00000000
 
ion      s     py     pz     px    dxy    dyz    dz2    dxz    dx2    tot
  1  0.008  0.001  0.008  0.001  0.005  0.053  0.812  0.053  0.000  0.942
 
band   6 # energy    9.51973894 # occ.  0.00000000
 
ion      s     py     pz     px    dxy    dyz    dz2    dxz    dx2    tot
  1  0.000  0.000  0.000  0.000  0.000  0.013  0.000  0.013  0.955  0.982
 
band   7 # energy   19.27513622 # occ.  0.00000000
 
ion      s     py     pz     px    dxy    dyz    dz2    dxz    dx2    tot
  1 43.822  0.000  0.000  0.000  0.000  0.000  0.000  0.000  0.000 43.822
 
band   8 # energy   20.67154864 # occ.  0.00000000
 
ion      s     py     pz     px    dxy    dyz    dz2    dxz    dx2    tot
  1  0.030  0.003  0.004  0.003  0.077  0.000  0.012  0.000  0.000  0.131
 
band   9 # energy   21.14152730 # occ.  0.00000000
 
ion      s     py     pz     px    dxy    dyz    dz2    dxz    dx2    tot
  1  0.125  0.017  0.025  0.017  0.029  0.018  0.063  0.018  0.000  0.311
 

 k-point   10 :    0.31250000 0.18750000 0.06250000     weight = 0.02343750

band   1 # energy    0.20551720 # occ.  1.00000000
 
ion      s     py     pz     px    dxy    dyz    dz2    dxz    dx2    tot
  1  0.626  0.023  0.144  0.002  0.003  0.026  0.036  0.004  0.000  0.864
 
band   2 # energy    4.37747603 # occ.  1.00000000
 
ion      s     py     pz     px    dxy    dyz    dz2    dxz    dx2    tot
  1  0.001  0.006  0.002  0.036  0.829  0.007  0.001  0.076  0.000  0.958
 
band   3 # energy    6.20813105 # occ.  0.00000000
 
ion      s     py     pz     px    dxy    dyz    dz2    dxz    dx2    tot
  1  0.011  0.020  0.002  0.000  0.018  0.293  0.542  0.013  0.029  0.928
 
band   4 # energy    7.45587267 # occ.  0.00000000
 
ion      s     py     pz     px    dxy    dyz    dz2    dxz    dx2    tot
  1  0.001  0.011  0.005  0.023  0.043  0.161  0.053  0.518  0.147  0.962
 
band   5 # energy    8.17436702 # occ.  0.00000000
 
ion      s     py     pz     px    dxy    dyz    dz2    dxz    dx2    tot
  1  0.010  0.014  0.031  0.013  0.053  0.195  0.255  0.280  0.098  0.949
 
band   6 # energy   10.23489450 # occ.  0.00000000
 
ion      s     py     pz     px    dxy    dyz    dz2    dxz    dx2    tot
  1  0.005  0.011  0.006  0.000  0.000  0.226  0.020  0.011  0.695  0.973
 
band   7 # energy   19.27013770 # occ.  0.00000000
 
ion      s     py     pz     px    dxy    dyz    dz2    dxz    dx2    tot
  1 43.215  0.001  0.001  0.000  0.000  0.001  0.000  0.000  0.000 43.218
 
band   8 # energy   19.94055568 # occ.  0.00000000
 
ion      s     py     pz     px    dxy    dyz    dz2    dxz    dx2    tot
  1  0.781  0.072  0.030  0.017  0.000  0.079  0.064  0.012  0.012  1.066
 
band   9 # energy   22.74010645 # occ.  0.00000000
 
ion      s     py     pz     px    dxy    dyz    dz2    dxz    dx2    tot
  1  0.034  0.029  0.017  0.027  0.187  0.028  0.004  0.061  0.000  0.386
 

 k-point   11 :    0.43750000 0.18750000 0.06250000     weight = 0.02343750

band   1 # energy    1.57749406 # occ.  1.00000000
 
ion      s     py     pz     px    dxy    dyz    dz2    dxz    dx2    tot
  1  0.424  0.022  0.128  0.000  0.117  0.108  0.052  0.063  0.000  0.915
 
band   2 # energy    4.41510375 # occ.  1.00000000
 
ion      s     py     pz     px    dxy    dyz    dz2    dxz    dx2    tot
  1  0.014  0.086  0.045  0.108  0.414  0.027  0.141  0.066  0.006  0.905
 
band   3 # energy    5.40408028 # occ.  1.00000000
 
ion      s     py     pz     px    dxy    dyz    dz2    dxz    dx2    tot
  1  0.028  0.002  0.024  0.006  0.229  0.192  0.414  0.006  0.038  0.939
 
band   4 # energy    7.11050956 # occ.  0.00000000
 
ion      s     py     pz     px    dxy    dyz    dz2    dxz    dx2    tot
  1  0.001  0.012  0.012  0.011  0.021  0.119  0.063  0.271  0.444  0.955
 
band   5 # energy    9.99696005 # occ.  0.00000000
 
ion      s     py     pz     px    dxy    dyz    dz2    dxz    dx2    tot
  1  0.006  0.009  0.062  0.028  0.116  0.014  0.174  0.427  0.101  0.938
 
band   6 # energy   11.62676801 # occ.  0.00000000
 
ion      s     py     pz     px    dxy    dyz    dz2    dxz    dx2    tot
  1  0.020  0.023  0.032  0.002  0.009  0.446  0.058  0.029  0.362  0.982
 
band   7 # energy   17.27462149 # occ.  0.00000000
 
ion      s     py     pz     px    dxy    dyz    dz2    dxz    dx2    tot
  1  0.213  0.086  0.064  0.055  0.037  0.119  0.010  0.094  0.015  0.693
 
band   8 # energy   19.28042805 # occ.  0.00000000
 
ion      s     py     pz     px    dxy    dyz    dz2    dxz    dx2    tot
  1 44.019  0.000  0.000  0.000  0.000  0.000  0.000  0.000  0.000 44.020
 
band   9 # energy   20.63756429 # occ.  0.00000000
 
ion      s     py     pz     px    dxy    dyz    dz2    dxz    dx2    tot
  1  0.126  0.024  0.070  0.013  0.051  0.000  0.088  0.012  0.001  0.386
 

 k-point   12 :   -0.43750000 0.18750000 0.06250000     weight = 0.02343750

band   1 # energy    2.02864197 # occ.  1.00000000
 
ion      s     py     pz     px    dxy    dyz    dz2    dxz    dx2    tot
  1  0.287  0.000  0.046  0.017  0.272  0.196  0.009  0.136  0.001  0.964
 
band   2 # energy    4.57296271 # occ.  1.00000000
 
ion      s     py     pz     px    dxy    dyz    dz2    dxz    dx2    tot
  1  0.000  0.110  0.024  0.058  0.009  0.044  0.547  0.008  0.060  0.861
 
band   3 # energy    5.82125023 # occ. -0.00085533
 
ion      s     py     pz     px    dxy    dyz    dz2    dxz    dx2    tot
  1  0.005  0.077  0.164  0.127  0.330  0.195  0.021  0.006  0.007  0.933
 
band   4 # energy    6.77050471 # occ.  0.00000000
 
ion      s     py     pz     px    dxy    dyz    dz2    dxz    dx2    tot
  1  0.000  0.004  0.011  0.011  0.015  0.061  0.067  0.238  0.546  0.953
 
band   5 # energy   11.16264466 # occ.  0.00000000
 
ion      s     py     pz     px    dxy    dyz    dz2    dxz    dx2    tot
  1  0.013  0.002  0.006  0.000  0.078  0.162  0.048  0.410  0.247  0.965
 
band   6 # energy   12.67131294 # occ.  0.00000000
 
ion      s     py     pz     px    dxy    dyz    dz2    dxz    dx2    tot
  1  0.000  0.049  0.123  0.085  0.179  0.206  0.226  0.002  0.064  0.934
 
band   7 # energy   14.89369155 # occ.  0.00000000
 
ion      s     py     pz     px    dxy    dyz    dz2    dxz    dx2    tot
  1  0.484  0.002  0.000  0.002  0.087  0.130  0.008  0.192  0.010  0.914
 
band   8 # energy   19.27906654 # occ.  0.00000000
 
ion      s     py     pz     px    dxy    dyz    dz2    dxz    dx2    tot
  1 44.076  0.000  0.000  0.000  0.000  0.000  0.000  0.000  0.000 44.076
 
band   9 # energy   19.78257312 # occ.  0.00000000
 
ion      s     py     pz     px    dxy    dyz    dz2    dxz    dx2    tot
  1  0.015  0.001  0.043  0.012  0.034  0.030  0.070  0.002  0.006  0.211
 

 k-point   13 :   -0.31250000 0.18750000 0.06250000     weight = 0.02343750

band   1 # energy    1.88864691 # occ.  1.00000000
 
ion      s     py     pz     px    dxy    dyz    dz2    dxz    dx2    tot
  1  0.365  0.033  0.004  0.084  0.203  0.144  0.004  0.096  0.007  0.940
 
band   2 # energy    4.74922642 # occ.  1.00000000
 
ion      s     py     pz     px    dxy    dyz    dz2    dxz    dx2    tot
  1  0.007  0.125  0.085  0.071  0.063  0.064  0.331  0.042  0.074  0.862
 
band   3 # energy    5.32692003 # occ.  1.00000000
 
ion      s     py     pz     px    dxy    dyz    dz2    dxz    dx2    tot
  1  0.024  0.008  0.093  0.032  0.186  0.354  0.173  0.064  0.019  0.953
 
band   4 # energy    6.86289480 # occ.  0.00000000
 
ion      s     py     pz     px    dxy    dyz    dz2    dxz    dx2    tot
  1  0.000  0.001  0.002  0.023  0.018  0.072  0.069  0.204  0.563  0.951
 
band   5 # energy    9.97847057 # occ.  0.00000000
 
ion      s     py     pz     px    dxy    dyz    dz2    dxz    dx2    tot
  1  0.000  0.000  0.009  0.024  0.001  0.221  0.005  0.432  0.251  0.943
 
band   6 # energy   12.41589421 # occ.  0.00000000
 
ion      s     py     pz     px    dxy    dyz    dz2    dxz    dx2    tot
  1  0.064  0.027  0.014  0.045  0.482  0.013  0.334  0.007  0.000  0.986
 
band   7 # energy   16.41448140 # occ.  0.00000000
 
ion      s     py     pz     px    dxy    dyz    dz2    dxz    dx2    tot
  1  0.294  0.073  0.042  0.068  0.076  0.069  0.063  0.100  0.000  0.786
 
band   8 # energy   19.27988453 # occ.  0.00000000
 
ion      s     py     pz     px    dxy    dyz    dz2    dxz    dx2    tot
  1 44.065  0.000  0.000  0.000  0.000  0.000  0.000  0.000  0.000 44.065
 
band   9 # energy   20.22691716 # occ.  0.00000000
 
ion      s     py     pz     px    dxy    dyz    dz2    dxz    dx2    tot
  1  0.057  0.017  0.015  0.045  0.013  0.042  0.037  0.019  0.015  0.262
 

 k-point   14 :   -0.18750000 0.18750000 0.06250000     weight = 0.02343750

band   1 # energy    0.75347399 # occ.  1.00000000
 
ion      s     py     pz     px    dxy    dyz    dz2    dxz    dx2    tot
  1  0.582  0.061  0.001  0.129  0.073  0.008  0.010  0.007  0.009  0.878
 
band   2 # energy    4.48559178 # occ.  1.00000000
 
ion      s     py     pz     px    dxy    dyz    dz2    dxz    dx2    tot
  1  0.003  0.009  0.087  0.007  0.005  0.625  0.002  0.212  0.001  0.950
 
band   3 # energy    5.84142244 # occ. -0.00011028
 
ion      s     py     pz     px    dxy    dyz    dz2    dxz    dx2    tot
  1  0.003  0.031  0.000  0.004  0.369  0.019  0.391  0.000  0.106  0.924
 
band   4 # energy    7.34112251 # occ.  0.00000000
 
ion      s     py     pz     px    dxy    dyz    dz2    dxz    dx2    tot
  1  0.002  0.002  0.005  0.014  0.051  0.092  0.035  0.267  0.485  0.952
 
band   5 # energy    8.19811070 # occ.  0.00000000
 
ion      s     py     pz     px    dxy    dyz    dz2    dxz    dx2    tot
  1  0.002  0.001  0.008  0.016  0.018  0.176  0.004  0.405  0.317  0.947
 
band   6 # energy   10.98568472 # occ.  0.00000000
 
ion      s     py     pz     px    dxy    dyz    dz2    dxz    dx2    tot
  1  0.020  0.023  0.000  0.023  0.402  0.001  0.496  0.003  0.008  0.976
 
band   7 # energy   19.01961776 # occ.  0.00000000
 
ion      s     py     pz     px    dxy    dyz    dz2    dxz    dx2    tot
  1  2.674  0.075  0.012  0.051  0.107  0.003  0.068  0.008  0.003  3.000
 
band   8 # energy   19.29884217 # occ.  0.00000000
 
ion      s     py     pz     px    dxy    dyz    dz2    dxz    dx2    tot
  1 41.396  0.006  0.001  0.003  0.010  0.000  0.006  0.001  0.000 41.423
 
band   9 # energy   22.30370657 # occ.  0.00000000
 
ion      s     py     pz     px    dxy    dyz    dz2    dxz    dx2    tot
  1  0.135  0.088  0.041  0.091  0.029  0.094  0.014  0.070  0.012  0.573
 

 k-point   15 :   -0.06250000 0.18750000 0.06250000     weight = 0.02343750

band   1 # energy   -0.74160470 # occ.  1.00000000
 
ion      s     py     pz     px    dxy    dyz    dz2    dxz    dx2    tot
  1  0.711  0.028  0.003  0.082  0.015  0.001  0.003  0.002  0.003  0.849
 
band   2 # energy    4.96706814 # occ.  1.00000000
 
ion      s     py     pz     px    dxy    dyz    dz2    dxz    dx2    tot
  1  0.001  0.005  0.034  0.002  0.017  0.720  0.000  0.180  0.000  0.959
 
band   3 # energy    6.58605131 # occ.  0.00000000
 
ion      s     py     pz     px    dxy    dyz    dz2    dxz    dx2    tot
  1  0.000  0.023  0.000  0.006  0.648  0.036  0.192  0.005  0.053  0.963
 
band   4 # energy    6.92511083 # occ.  0.00000000
 
ion      s     py     pz     px    dxy    dyz    dz2    dxz    dx2    tot
  1  0.000  0.002  0.011  0.000  0.035  0.169  0.007  0.693  0.060  0.976
 
band   5 # energy    8.03860609 # occ.  0.00000000
 
ion      s     py     pz     px    dxy    dyz    dz2    dxz    dx2    tot
  1  0.004  0.001  0.001  0.010  0.074  0.025  0.023  0.051  0.758  0.948
 
band   6 # energy    9.58063254 # occ.  0.00000000
 
ion      s     py     pz     px    dxy    dyz    dz2    dxz    dx2    tot
  1  0.003  0.005  0.000  0.003  0.147  0.000  0.734  0.007  0.071  0.970
 
band   7 # energy   19.27223525 # occ.  0.00000000
 
ion      s     py     pz     px    dxy    dyz    dz2    dxz    dx2    tot
  1 43.426  0.000  0.000  0.000  0.000  0.000  0.000  0.000  0.000 43.428
 
band   8 # energy   19.89981800 # occ.  0.00000000
 
ion      s     py     pz     px    dxy    dyz    dz2    dxz    dx2    tot
  1  0.546  0.035  0.010  0.026  0.035  0.001  0.032  0.001  0.010  0.697
 
band   9 # energy   21.34066978 # occ.  0.00000000
 
ion      s     py     pz     px    dxy    dyz    dz2    dxz    dx2    tot
  1  0.027  0.008  0.001  0.006  0.020  0.101  0.004  0.040  0.001  0.209
 

 k-point   16 :    0.31250000 0.31250000 0.06250000     weight = 0.01171875

band   1 # energy    0.89574024 # occ.  1.00000000
 
ion      s     py     pz     px    dxy    dyz    dz2    dxz    dx2    tot
  1  0.499  0.002  0.182  0.002  0.001  0.003  0.176  0.003  0.000  0.868
 
band   2 # energy    3.62975894 # occ.  1.00000000
 
ion      s     py     pz     px    dxy    dyz    dz2    dxz    dx2    tot
  1  0.000  0.004  0.000  0.004  0.952  0.004  0.001  0.004  0.000  0.968
 
band   3 # energy    6.06585365 # occ.  0.00000000
 
ion      s     py     pz     px    dxy    dyz    dz2    dxz    dx2    tot
  1  0.080  0.002  0.104  0.002  0.002  0.034  0.655  0.034  0.000  0.912
 
band   4 # energy    8.41298144 # occ.  0.00000000
 
ion      s     py     pz     px    dxy    dyz    dz2    dxz    dx2    tot
  1  0.000  0.036  0.000  0.036  0.000  0.388  0.000  0.388  0.101  0.950
 
band   5 # energy    8.78321538 # occ.  0.00000000
 
ion      s     py     pz     px    dxy    dyz    dz2    dxz    dx2    tot
  1  0.007  0.038  0.022  0.038  0.010  0.393  0.046  0.393  0.000  0.946
 
band   6 # energy   10.47465495 # occ.  0.00000000
 
ion      s     py     pz     px    dxy    dyz    dz2    dxz    dx2    tot
  1  0.000  0.002  0.000  0.002  0.000  0.049  0.000  0.049  0.877  0.979
 