<?xml version="1.0" encoding="ISO-8859-1"?>
<modeling>
 <generator>
  <i name="program" type="string">vasp </i>
  <i name="version" type="string">5.2.12  </i>
  <i name="subversion" type="string">11Nov11 complex                                                      parallel </i>
  <i name="platform" type="string">LinuxIFC </i>
  <i name="date" type="string">2012 10 17 </i>
  <i name="time" type="string">11:06:49 </i>
 </generator>
 <incar>
  <i type="int" name="ISTART">     0</i>
  <i type="string" name="PREC">accurate</i>
  <i type="int" name="ISPIN">     2</i>
  <i name="ENCUT">    400.00000000</i>
  <v name="MAGMOM">      6.00000000</v>
  <i type="logical" name="LREAL"> F  </i>
  <i type="int" name="ISMEAR">     1</i>
  <i name="SIGMA">      0.05000000</i>
  <i type="logical" name="LORBIT"> F  </i>
 </incar>
 <kpoints>
  <generation param="Monkhorst-Pack">
   <v type="int" name="divisions">       8        8        8 </v>
   <v name="usershift">      0.00000000       0.00000000       0.00000000 </v>
   <v name="genvec1">      0.12500000       0.00000000       0.00000000 </v>
   <v name="genvec2">      0.00000000       0.12500000       0.00000000 </v>
   <v name="genvec3">      0.00000000       0.00000000       0.12500000 </v>
   <v name="shift">      0.50000000       0.50000000       0.50000000 </v>
  </generation>
  <varray name="kpointlist" >
   <v>       0.06250000       0.06250000       0.06250000 </v>
   <v>       0.18750000       0.06250000       0.06250000 </v>
   <v>       0.31250000       0.06250000       0.06250000 </v>
   <v>       0.43750000       0.06250000       0.06250000 </v>
   <v>      -0.43750000       0.06250000       0.06250000 </v>
   <v>      -0.31250000       0.06250000       0.06250000 </v>
   <v>      -0.18750000       0.06250000       0.06250000 </v>
   <v>      -0.06250000       0.06250000       0.06250000 </v>
   <v>       0.18750000       0.18750000       0.06250000 </v>
   <v>       0.31250000       0.18750000       0.06250000 </v>
   <v>       0.43750000       0.18750000       0.06250000 </v>
   <v>      -0.43750000       0.18750000       0.06250000 </v>
   <v>      -0.31250000       0.18750000       0.06250000 </v>
   <v>      -0.18750000       0.18750000       0.06250000 </v>
   <v>      -0.06250000       0.18750000       0.06250000 </v>
   <v>       0.31250000       0.31250000       0.06250000 </v>
   <v>       0.43750000       0.31250000       0.06250000 </v>
   <v>      -0.43750000       0.31250000       0.06250000 </v>
   <v>      -0.31250000       0.31250000       0.06250000 </v>
   <v>      -0.18750000       0.31250000       0.06250000 </v>
   <v>      -0.06250000       0.31250000       0.06250000 </v>
   <v>       0.43750000       0.43750000       0.06250000 </v>
   <v>      -0.43750000       0.43750000       0.06250000 </v>
   <v>      -0.31250000       0.43750000       0.06250000 </v>
   <v>      -0.18750000       0.43750000       0.06250000 </v>
   <v>      -0.06250000       0.43750000       0.06250000 </v>
   <v>      -0.43750000      -0.43750000       0.06250000 </v>
   <v>      -0.31250000      -0.43750000       0.06250000 </v>
   <v>      -0.18750000      -0.43750000       0.06250000 </v>
   <v>      -0.31250000      -0.31250000       0.06250000 </v>
   <v>      -0.18750000      -0.31250000       0.06250000 </v>
   <v>      -0.18750000      -0.18750000       0.06250000 </v>
   <v>       0.18750000       0.18750000       0.18750000 </v>
   <v>       0.31250000       0.18750000       0.18750000 </v>
   <v>       0.43750000       0.18750000       0.18750000 </v>
   <v>      -0.43750000       0.18750000       0.18750000 </v>
   <v>      -0.31250000       0.18750000       0.18750000 </v>
   <v>      -0.18750000       0.18750000       0.18750000 </v>
   <v>       0.31250000       0.31250000       0.18750000 </v>
   <v>       0.43750000       0.31250000       0.18750000 </v>
   <v>      -0.43750000       0.31250000       0.18750000 </v>
   <v>      -0.31250000       0.31250000       0.18750000 </v>
   <v>      -0.18750000       0.31250000       0.18750000 </v>
   <v>       0.43750000       0.43750000       0.18750000 </v>
   <v>      -0.43750000       0.43750000       0.18750000 </v>
   <v>      -0.31250000       0.43750000       0.18750000 </v>
   <v>      -0.18750000       0.43750000       0.18750000 </v>
   <v>      -0.43750000      -0.43750000       0.18750000 </v>
   <v>      -0.31250000      -0.43750000       0.18750000 </v>
   <v>      -0.31250000      -0.31250000       0.18750000 </v>
   <v>       0.31250000       0.31250000       0.31250000 </v>
   <v>       0.43750000       0.31250000       0.31250000 </v>
   <v>      -0.43750000       0.31250000       0.31250000 </v>
   <v>      -0.31250000       0.31250000       0.31250000 </v>
   <v>       0.43750000       0.43750000       0.31250000 </v>
   <v>      -0.43750000       0.43750000       0.31250000 </v>
   <v>      -0.31250000       0.43750000       0.31250000 </v>
   <v>      -0.43750000      -0.43750000       0.31250000 </v>
   <v>       0.43750000       0.43750000       0.43750000 </v>
   <v>      -0.43750000       0.43750000       0.43750000 </v>
  </varray>
  <varray name="weights" >
   <v>       0.00390625 </v>
   <v>       0.01171875 </v>
   <v>       0.01171875 </v>
   <v>       0.01171875 </v>
   <v>       0.01171875 </v>
   <v>       0.01171875 </v>
   <v>       0.01171875 </v>
   <v>       0.01171875 </v>
   <v>       0.01171875 </v>
   <v>       0.02343750 </v>
   <v>       0.02343750 </v>
   <v>       0.02343750 </v>
   <v>       0.02343750 </v>
   <v>       0.02343750 </v>
   <v>       0.02343750 </v>
   <v>       0.01171875 </v>
   <v>       0.02343750 </v>
   <v>       0.02343750 </v>
   <v>       0.02343750 </v>
   <v>       0.02343750 </v>
   <v>       0.02343750 </v>
   <v>       0.01171875 </v>
   <v>       0.02343750 </v>
   <v>       0.02343750 </v>
   <v>       0.02343750 </v>
   <v>       0.02343750 </v>
   <v>       0.01171875 </v>
   <v>       0.02343750 </v>
   <v>       0.02343750 </v>
   <v>       0.01171875 </v>
   <v>       0.02343750 </v>
   <v>       0.01171875 </v>
   <v>       0.00390625 </v>
   <v>       0.01171875 </v>
   <v>       0.01171875 </v>
   <v>       0.01171875 </v>
   <v>       0.01171875 </v>
   <v>       0.01171875 </v>
   <v>       0.01171875 </v>
   <v>       0.02343750 </v>
   <v>       0.02343750 </v>
   <v>       0.02343750 </v>
   <v>       0.02343750 </v>
   <v>       0.01171875 </v>
   <v>       0.02343750 </v>
   <v>       0.02343750 </v>
   <v>       0.02343750 </v>
   <v>       0.01171875 </v>
   <v>       0.02343750 </v>
   <v>       0.01171875 </v>
   <v>       0.00390625 </v>
   <v>       0.01171875 </v>
   <v>       0.01171875 </v>
   <v>       0.01171875 </v>
   <v>       0.01171875 </v>
   <v>       0.02343750 </v>
   <v>       0.02343750 </v>
   <v>       0.01171875 </v>
   <v>       0.00390625 </v>
   <v>       0.01171875 </v>
  </varray>
 </kpoints>
 <parameters>
  <separator name="general" >
   <i type="string" name="SYSTEM">unknown system</i>
   <i type="logical" name="LCOMPAT"> F  </i>
  </separator>
  <separator name="electronic" >
   <i type="string" name="PREC">accura</i>
   <i name="ENMAX">    400.00000000</i>
   <i name="ENAUG">    332.07500000</i>
   <i name="EDIFF">      0.00010000</i>
   <i type="int" name="IALGO">    38</i>
   <i type="int" name="IWAVPR">    10</i>
   <i type="int" name="NBANDS">     9</i>
   <i name="NELECT">      5.00000000</i>
   <i type="int" name="TURBO">     0</i>
   <i type="int" name="IRESTART">     0</i>
   <i type="int" name="NREBOOT">     0</i>
   <i type="int" name="NMIN">     0</i>
   <i name="EREF">      0.00000000</i>
   <separator name="electronic smearing" >
    <i type="int" name="ISMEAR">     1</i>
    <i name="SIGMA">      0.05000000</i>
    <i name="KSPACING">      0.50000000</i>
    <i type="logical" name="KGAMMA"> T  </i>
   </separator>
   <separator name="electronic projectors" >
    <i type="logical" name="LREAL"> F  </i>
    <v name="ROPT">      0.00000000</v>
    <i type="int" name="LMAXPAW">  -100</i>
    <i type="int" name="LMAXMIX">     2</i>
    <i type="logical" name="NLSPLINE"> F  </i>
   </separator>
   <separator name="electronic startup" >
    <i type="int" name="ISTART">     0</i>
    <i type="int" name="ICHARG">     2</i>
    <i type="int" name="INIWAV">     1</i>
   </separator>
   <separator name="electronic spin" >
    <i type="int" name="ISPIN">     2</i>
    <i type="logical" name="LNONCOLLINEAR"> F  </i>
    <v name="MAGMOM">      6.00000000</v>
    <i name="NUPDOWN">     -1.00000000</i>
    <i type="logical" name="LSORBIT"> F  </i>
    <v name="SAXIS">      0.00000000      0.00000000      1.00000000</v>
    <i type="logical" name="LSPIRAL"> F  </i>
    <v name="QSPIRAL">      0.00000000      0.00000000      0.00000000</v>
    <i type="logical" name="LZEROZ"> F  </i>
   </separator>
   <separator name="electronic exchange-correlation" >
    <i type="logical" name="LASPH"> F  </i>
    <i type="logical" name="LMETAGGA"> F  </i>
   </separator>
   <separator name="electronic convergence" >
    <i type="int" name="NELM">    60</i>
    <i type="int" name="NELMDL">    -5</i>
    <i type="int" name="NELMIN">     2</i>
    <i name="ENINI">    400.00000000</i>
    <separator name="electronic convergence detail" >
     <i type="logical" name="LDIAG"> T  </i>
     <i type="logical" name="LSUBROT"> T  </i>
     <i name="WEIMIN">      0.00000000</i>
     <i name="EBREAK">      0.00000278</i>
     <i name="DEPER">      0.30000000</i>
     <i type="int" name="NRMM">     4</i>
     <i name="TIME">      0.40000000</i>
    </separator>
   </separator>
   <separator name="electronic mixer" >
    <i name="AMIX">      0.40000000</i>
    <i name="BMIX">      1.00000000</i>
    <i name="AMIN">      0.10000000</i>
    <i name="AMIX_MAG">      1.60000000</i>
    <i name="BMIX_MAG">      1.00000000</i>
    <separator name="electronic mixer details" >
     <i type="int" name="IMIX">     4</i>
     <i type="int" name="MAXMIX">   -45</i>
     <i name="WC">    100.00000000</i>
     <i type="int" name="INIMIX">     1</i>
     <i type="int" name="MIXPRE">     1</i>
     <i type="int" name="MREMOVE">     5</i>
    </separator>
   </separator>
   <separator name="electronic dipolcorrection" >
    <i type="logical" name="LDIPOL"> F  </i>
    <i type="logical" name="LMONO"> F  </i>
    <i type="int" name="IDIPOL">     0</i>
    <i name="EPSILON">      1.00000000</i>
    <v name="DIPOL">   -100.00000000   -100.00000000   -100.00000000</v>
    <i name="EFIELD">      0.00000000</i>
   </separator>
  </separator>
  <separator name="grids" >
   <i type="int" name="NGX">    20</i>
   <i type="int" name="NGY">    20</i>
   <i type="int" name="NGZ">    20</i>
   <i type="int" name="NGXF">    40</i>
   <i type="int" name="NGYF">    40</i>
   <i type="int" name="NGZF">    40</i>
   <i type="logical" name="ADDGRID"> F  </i>
  </separator>
  <separator name="ionic" >
   <i type="int" name="NSW">     0</i>
   <i type="int" name="IBRION">    -1</i>
   <i type="int" name="ISIF">     2</i>
   <i name="PSTRESS">      0.00000000</i>
   <i name="EDIFFG">      0.00100000</i>
   <i type="int" name="NFREE">     0</i>
   <i name="POTIM">      0.50000000</i>
   <i name="SMASS">     -3.00000000</i>
   <i name="SCALEE">      1.00000000</i>
  </separator>
  <separator name="ionic md" >
   <i name="TEBEG">      0.00010000</i>
   <i name="TEEND">      0.00010000</i>
   <i type="int" name="NBLOCK">     1</i>
   <i type="int" name="KBLOCK">     1</i>
   <i type="int" name="NPACO">   256</i>
   <i name="APACO">     16.00000000</i>
  </separator>
  <separator name="symmetry" >
   <i type="int" name="ISYM">     2</i>
   <i name="SYMPREC">      0.00001000</i>
  </separator>
  <separator name="dos" >
   <i type="logical" name="LORBIT"> F  </i>
   <v name="RWIGS">     -1.00000000</v>
   <i type="int" name="NEDOS">   301</i>
   <i name="EMIN">     10.00000000</i>
   <i name="EMAX">    -10.00000000</i>
   <i name="EFERMI">      0.00000000</i>
  </separator>
  <separator name="writing" >
   <i type="int" name="NWRITE">     2</i>
   <i type="logical" name="LWAVE"> T  </i>
   <i type="logical" name="LCHARG"> T  </i>
   <i type="logical" name="LPARD"> F  </i>
   <i type="logical" name="LVTOT"> F  </i>
   <i type="logical" name="LVHAR"> F  </i>
   <i type="logical" name="LELF"> F  </i>
   <i type="logical" name="LOPTICS"> F  </i>
   <v name="STM">      0.00000000      0.00000000      0.00000000      0.00000000      0.00000000      0.00000000      0.00000000</v>
  </separator>
  <separator name="performance" >
   <i type="int" name="NPAR">     1</i>
   <i type="int" name="NSIM">     4</i>
   <i type="int" name="NBLK">    -1</i>
   <i type="logical" name="LPLANE"> T  </i>
   <i type="logical" name="LSCALAPACK"> F  </i>
   <i type="logical" name="LSCAAWARE"> F  </i>
   <i type="logical" name="LSCALU"> F  </i>
   <i type="logical" name="LASYNC"> F  </i>
   <i type="logical" name="LORBITALREAL"> F  </i>
  </separator>
  <separator name="miscellaneous" >
   <i type="int" name="IDIOT">     3</i>
   <i type="logical" name="LMUSIC"> F  </i>
   <v name="POMASS">    180.94800000</v>
   <v name="DARWINR">      0.00000000</v>
   <v name="DARWINV">      1.00000000</v>
   <i type="logical" name="LCORR"> T  </i>
  </separator>
  <i type="logical" name="GGA_COMPAT"> T  </i>
  <i type="logical" name="LBERRY"> F  </i>
  <i type="int" name="ICORELEVEL">     0</i>
  <i type="logical" name="LDAU"> F  </i>
  <i type="int" name="I_CONSTRAINED_M">     0</i>
  <separator name="electronic exchange-correlation" >
   <i type="string" name="GGA">--</i>
   <i type="int" name="VOSKOWN">     0</i>
   <i type="logical" name="LHFCALC"> F  </i>
   <i type="string" name="PRECFOCK"></i>
   <i type="logical" name="LHFONE"> F  </i>
   <i type="logical" name="LRHFCALC"> F  </i>
   <i type="logical" name="LTHOMAS"> F  </i>
   <i type="logical" name="LMODELHF"> F  </i>
   <i name="ENCUT4O">     -1.00000000</i>
   <i type="int" name="EXXOEP">     0</i>
   <i type="int" name="FOURORBIT">     0</i>
   <i name="AEXX">      0.00000000</i>
   <i name="HFALPHA">      0.00000000</i>
   <i name="ALDAX">      1.00000000</i>
   <i name="AGGAX">      1.00000000</i>
   <i name="ALDAC">      1.00000000</i>
   <i name="AGGAC">      1.00000000</i>
   <i type="int" name="NKREDX">     1</i>
   <i type="int" name="NKREDY">     1</i>
   <i type="int" name="NKREDZ">     1</i>
   <i type="logical" name="SHIFTRED"> F  </i>
   <i type="logical" name="ODDONLY"> F  </i>
   <i type="logical" name="EVENONLY"> F  </i>
   <i type="int" name="LMAXFOCK">     0</i>
   <i type="int" name="NMAXFOCKAE">     0</i>
   <i type="logical" name="LFOCKAEDFT"> F  </i>
   <i name="HFSCREEN">      0.00000000</i>
   <i name="HFSCREENC">      0.00000000</i>
  </separator>
  <separator name="vdW DFT" >
   <i type="logical" name="LUSE_VDW"> F  </i>
   <i name="Zab_VDW">     -0.84910000</i>
   <i name="PARAM1">      0.12340000</i>
   <i name="PARAM2">      1.00000000</i>
   <i name="PARAM3">      0.00000000</i>
  </separator>
  <separator name="model GW" >
   <i type="int" name="MODEL_GW">     0</i>
   <i name="MODEL_EPS0">     11.35304505</i>
   <i name="MODEL_ALPHA">      1.00000000</i>
  </separator>
  <separator name="linear response parameters" >
   <i type="logical" name="LEPSILON"> F  </i>
   <i type="logical" name="LRPA"> F  </i>
   <i type="logical" name="LNABLA"> F  </i>
   <i type="logical" name="LVEL"> F  </i>
   <i type="int" name="KINTER">     0</i>
   <i name="CSHIFT">      0.10000000</i>
   <i name="OMEGAMAX">     -1.00000000</i>
  </separator>
  <separator name="orbital magnetization" >
   <i type="logical" name="NUCIND"> F  </i>
   <v name="MAGPOS">      0.00000000      0.00000000      0.00000000</v>
   <i type="logical" name="LNICSALL"> T  </i>
   <i type="logical" name="ORBITALMAG"> F  </i>
   <i type="logical" name="LMAGBLOCH"> F  </i>
   <i type="logical" name="LCHIMAG"> F  </i>
   <i type="logical" name="LGAUGE"> T  </i>
   <i type="int" name="MAGATOM">     0</i>
   <v name="MAGDIPOL">      0.00000000      0.00000000      0.00000000</v>
   <v name="AVECCONST">      0.00000000      0.00000000      0.00000000</v>
  </separator>
  <separator name="response functions" >
   <i type="logical" name="LADDER"> F  </i>
   <i type="logical" name="LHARTREE"> T  </i>
   <i type="int" name="IBSE">     0</i>
   <i type="logical" name="LTCTE"> F  </i>
   <i type="logical" name="LTETE"> F  </i>
   <i type="logical" name="LFXCEPS"> F  </i>
   <i type="logical" name="L2ORDER"> F  </i>
   <i type="logical" name="LUSEW"> F  </i>
   <i name="ENCUTGW">     -2.00000000</i>
   <i name="ENCUTGWSOFT">     -2.00000000</i>
   <i name="ENCUTLF">     -1.00000000</i>
   <i type="int" name="LMAXMP2">    -1</i>
   <i name="SCISSOR">      0.00000000</i>
   <i type="int" name="NOMEGA">     0</i>
   <i type="int" name="NOMEGAR">     0</i>
   <i type="int" name="NBANDSGW">    -1</i>
   <i type="int" name="NBANDSO">    -1</i>
   <i type="int" name="NBANDSV">    -1</i>
   <i name="OPTEMAX">      0.00000000</i>
   <i type="int" name="NELM">     1</i>
   <i type="int" name="DIM">     3</i>
   <i type="int" name="ANTIRES">     0</i>
   <i name="OMEGAMAX">    -30.00000000</i>
   <i name="OMEGATL">   -200.00000000</i>
   <i type="int" name="OMEGAGRID">     0</i>
   <i name="CSHIFT">     -0.10000000</i>
   <i type="logical" name="SELFENERGY"> F  </i>
   <i type="logical" name="LSPECTRAL"> F  </i>
   <i type="logical" name="ODDONLYGW"> F  </i>
   <i type="logical" name="EVENONLYGW"> F  </i>
   <i type="int" name="NKREDLFX">     1</i>
   <i type="int" name="NKREDLFY">     1</i>
   <i type="int" name="NKREDLFZ">     1</i>
   <i type="int" name="MAXMEM">  1800</i>
   <i type="int" name="TELESCOPE">     0</i>
  </separator>
 </parameters>
 <atominfo>
  <atoms>       1 </atoms>
  <types>       1 </types>
  <array name="atoms" >
   <dimension dim="1">ion</dimension>
   <field type="string">element</field>
   <field type="int">atomtype</field>
   <set>
    <rc><c>Ta</c><c>   1</c></rc>
   </set>
  </array>
  <array name="atomtypes" >
   <dimension dim="1">type</dimension>
   <field type="int">atomspertype</field>
   <field type="string">element</field>
   <field>mass</field>
   <field>valence</field>
   <field type="string">pseudopotential</field>
   <set>
    <rc><c>   1</c><c>Ta</c><c>    180.94800000</c><c>      5.00000000</c><c>  PAW_PBE Ta 17Jan2003                  </c></rc>
   </set>
  </array>
 </atominfo>
 <structure name="initialpos" >
  <crystal>
   <varray name="basis" >
    <v>       0.00000000       2.11500000       2.11500000 </v>
    <v>       2.11500000       0.00000000       2.11500000 </v>
    <v>       2.11500000       2.11500000       0.00000000 </v>
   </varray>
   <i name="volume">     18.92174175 </i>
   <varray name="rec_basis" >
    <v>      -0.23640662       0.23640662       0.23640662 </v>
    <v>       0.23640662      -0.23640662       0.23640662 </v>
    <v>       0.23640662       0.23640662      -0.23640662 </v>
   </varray>
  </crystal>
  <varray name="positions" >
   <v>       0.00000000       0.00000000       0.00000000 </v>
  </varray>
 </structure>
 <calculation>
  <scstep>
   <time name="dav">    3.00    3.00</time>
   <time name="total">    3.26    3.27</time>
   <energy>
    <i name="alphaZ">     29.30743413 </i>
    <i name="ewald">   -195.09763016 </i>
    <i name="hartreedc">     -2.79657379 </i>
    <i name="XCdc">    -60.71810453 </i>
    <i name="pawpsdc">    143.51874798 </i>
    <i name="pawaedc">    -69.33493833 </i>
    <i name="eentropy">     -0.00010497 </i>
    <i name="bandstr">     33.49046391 </i>
    <i name="atom">    130.64884137 </i>
    <i name="e_fr_energy">      9.01813561 </i>
    <i name="e_wo_entrp">      9.01824058 </i>
    <i name="e_0_energy">      9.01817060 </i>
   </energy>
  </scstep>
  <scstep>
   <time name="dav">    3.56    3.56</time>
   <time name="total">    3.56    3.57</time>
   <energy>
    <i name="e_fr_energy">     -1.60624414 </i>
    <i name="e_wo_entrp">     -1.60632779 </i>
    <i name="e_0_energy">     -1.60627202 </i>
   </energy>
  </scstep>
  <scstep>
   <time name="dav">    3.27    3.27</time>
   <time name="total">    3.28    3.30</time>
   <energy>
    <i name="e_fr_energy">     -1.80195507 </i>
    <i name="e_wo_entrp">     -1.80174199 </i>
    <i name="e_0_energy">     -1.80188405 </i>
   </energy>
  </scstep>
  <scstep>
   <time name="dav">    3.61    3.61</time>
   <time name="total">    3.62    3.63</time>
   <energy>
    <i name="e_fr_energy">     -1.80232678 </i>
    <i name="e_wo_entrp">     -1.80211342 </i>
    <i name="e_0_energy">     -1.80225566 </i>
   </energy>
  </scstep>
  <scstep>
   <time name="dav">    3.39    3.39</time>
   <time name="total">    3.60    3.61</time>
   <energy>
    <i name="e_fr_energy">     -1.80232709 </i>
    <i name="e_wo_entrp">     -1.80211373 </i>
    <i name="e_0_energy">     -1.80225597 </i>
   </energy>
  </scstep>
  <scstep>
   <time name="dav">    3.11    3.11</time>
   <time name="total">    3.57    3.60</time>
   <energy>
    <i name="e_fr_energy">    -11.16940621 </i>
    <i name="e_wo_entrp">    -11.16936312 </i>
    <i name="e_0_energy">    -11.16939185 </i>
   </energy>
  </scstep>
  <scstep>
   <time name="dav">    3.27    3.27</time>
   <time name="total">    3.73    3.75</time>
   <energy>
    <i name="e_fr_energy">    -11.00054829 </i>
    <i name="e_wo_entrp">    -11.00065908 </i>
    <i name="e_0_energy">    -11.00058522 </i>
   </energy>
  </scstep>
  <scstep>
   <time name="dav">    3.04    3.04</time>
   <time name="total">    3.50    3.52</time>
   <energy>
    <i name="e_fr_energy">    -11.53377331 </i>
    <i name="e_wo_entrp">    -11.53355035 </i>
    <i name="e_0_energy">    -11.53369899 </i>
   </energy>
  </scstep>
  <scstep>
   <time name="dav">    3.23    3.24</time>
   <time name="total">    3.70    3.71</time>
   <energy>
    <i name="e_fr_energy">    -11.60392381 </i>
    <i name="e_wo_entrp">    -11.60401128 </i>
    <i name="e_0_energy">    -11.60395297 </i>
   </energy>
  </scstep>
  <scstep>
   <time name="dav">    3.09    3.09</time>
   <time name="total">    3.55    3.58</time>
   <energy>
    <i name="e_fr_energy">    -11.61216617 </i>
    <i name="e_wo_entrp">    -11.61157045 </i>
    <i name="e_0_energy">    -11.61196760 </i>
   </energy>
  </scstep>
  <scstep>
   <time name="dav">    3.26    3.26</time>
   <time name="total">    3.73    3.75</time>
   <energy>
    <i name="e_fr_energy">    -11.61265138 </i>
    <i name="e_wo_entrp">    -11.61268352 </i>
    <i name="e_0_energy">    -11.61266209 </i>
   </energy>
  </scstep>
  <scstep>
   <time name="dav">    3.08    3.09</time>
   <time name="total">    3.55    3.57</time>
   <energy>
    <i name="e_fr_energy">    -11.61360315 </i>
    <i name="e_wo_entrp">    -11.61293864 </i>
    <i name="e_0_energy">    -11.61338165 </i>
   </energy>
  </scstep>
  <scstep>
   <time name="dav">    3.06    3.06</time>
   <time name="total">    3.32    3.33</time>
   <energy>
    <i name="alphaZ">     29.30743413 </i>
    <i name="ewald">   -195.09763016 </i>
    <i name="hartreedc">     -0.72237101 </i>
    <i name="XCdc">    -66.04348995 </i>
    <i name="pawpsdc">    185.24785132 </i>
    <i name="pawaedc">   -111.81780452 </i>
    <i name="eentropy">     -0.00068841 </i>
    <i name="bandstr">     16.86422106 </i>
    <i name="atom">    130.64884137 </i>
    <i name="e_fr_energy">    -11.61363616 </i>
    <i name="e_wo_entrp">    -11.61294775 </i>
    <i name="e_0_energy">    -11.61340669 </i>
   </energy>
  </scstep>
  <parameters_embedded>
   <separator name="dft+d2" >
    <i type="logical" name="LVDW"> F  </i>
   </separator>
  </parameters_embedded>
  <structure>
   <crystal>
    <varray name="basis" >
     <v>       0.00000000       2.11500000       2.11500000 </v>
     <v>       2.11500000       0.00000000       2.11500000 </v>
     <v>       2.11500000       2.11500000       0.00000000 </v>
    </varray>
    <i name="volume">     18.92174175 </i>
    <varray name="rec_basis" >
     <v>      -0.23640662       0.23640662       0.23640662 </v>
     <v>       0.23640662      -0.23640662       0.23640662 </v>
     <v>       0.23640662       0.23640662      -0.23640662 </v>
    </varray>
   </crystal>
   <varray name="positions" >
    <v>       0.00000000       0.00000000       0.00000000 </v>
   </varray>
  </structure>
  <varray name="forces" >
   <v>       0.00000000       0.00000000       0.00000000 </v>
  </varray>
  <varray name="stress" >
   <v>     -31.80518860       0.00000000       0.00000000 </v>
   <v>       0.00000000     -31.80518860       0.00000000 </v>
   <v>       0.00000000       0.00000000     -31.80518860 </v>
  </varray>
  <energy>
   <i name="e_fr_energy">    -11.61363616 </i>
   <i name="e_wo_entrp">    -11.61340669 </i>
   <i name="e_0_energy">     -0.00068841 </i>
  </energy>
  <time name="totalsc">   48.13   48.47</time>
  <eigenvalues>
   <array>
    <dimension dim="1">band</dimension>
    <dimension dim="2">kpoint</dimension>
    <dimension dim="3">spin</dimension>
    <field>eigene</field>
    <field>occ</field>
    <set>
     <set comment="spin 1">
      <set comment="kpoint 1">
       <r>   -2.2205    1.0000 </r>
       <r>    6.0207    0.0000 </r>
       <r>    6.2296    0.0000 </r>
       <r>    6.2296    0.0000 </r>
       <r>    9.0322    0.0000 </r>
       <r>    9.0322    0.0000 </r>
       <r>   18.4790    0.0000 </r>
       <r>   19.2767    0.0000 </r>
       <r>   22.1556    0.0000 </r>
      </set>
      <set comment="kpoint 2">
       <r>   -1.4503    1.0000 </r>
       <r>    5.4371    1.0000 </r>
       <r>    6.5290    0.0000 </r>
       <r>    6.5619    0.0000 </r>
       <r>    8.4663    0.0000 </r>
       <r>    9.1568    0.0000 </r>
       <r>   19.2748    0.0000 </r>
       <r>   19.8294    0.0000 </r>
       <r>   20.6169    0.0000 </r>
      </set>
      <set comment="kpoint 3">
       <r>    0.0670    1.0000 </r>
       <r>    4.8984    1.0000 </r>
       <r>    6.3987    0.0000 </r>
       <r>    6.6187    0.0000 </r>
       <r>    8.8143    0.0000 </r>
       <r>    9.9414    0.0000 </r>
       <r>   18.1034    0.0000 </r>
       <r>   19.2779    0.0000 </r>
       <r>   21.8125    0.0000 </r>
      </set>
      <set comment="kpoint 4">
       <r>    1.1113    1.0000 </r>
       <r>    5.4977    1.0000 </r>
       <r>    5.9813    0.0000 </r>
       <r>    6.1757    0.0000 </r>
       <r>   10.3862    0.0000 </r>
       <r>   11.3212    0.0000 </r>
       <r>   16.3461    0.0000 </r>
       <r>   19.0110    0.0000 </r>
       <r>   19.2902    0.0000 </r>
      </set>
      <set comment="kpoint 5">
       <r>    1.2685    1.0000 </r>
       <r>    5.6108    1.0212 </r>
       <r>    6.0625    0.0000 </r>
       <r>    6.3146    0.0000 </r>
       <r>   11.4236    0.0000 </r>
       <r>   11.5273    0.0000 </r>
       <r>   15.4959    0.0000 </r>
       <r>   18.0924    0.0000 </r>
       <r>   19.2804    0.0000 </r>
      </set>
      <set comment="kpoint 6">
       <r>    0.8855    1.0000 </r>
       <r>    5.1431    1.0000 </r>
       <r>    6.0415    0.0000 </r>
       <r>    6.3620    0.0000 </r>
       <r>   10.0491    0.0000 </r>
       <r>   10.7088    0.0000 </r>
       <r>   16.8997    0.0000 </r>
       <r>   19.2730    0.0000 </r>
       <r>   19.9628    0.0000 </r>
      </set>
      <set comment="kpoint 7">
       <r>   -0.4621    1.0000 </r>
       <r>    4.9609    1.0000 </r>
       <r>    6.5531    0.0000 </r>
       <r>    6.7030    0.0000 </r>
       <r>    8.5624    0.0000 </r>
       <r>    9.4970    0.0000 </r>
       <r>   18.7785    0.0000 </r>
       <r>   19.2809    0.0000 </r>
       <r>   21.7674    0.0000 </r>
      </set>
      <set comment="kpoint 8">
       <r>   -1.8244    1.0000 </r>
       <r>    5.6463    1.0166 </r>
       <r>    6.4415    0.0000 </r>
       <r>    6.4538    0.0000 </r>
       <r>    8.5402    0.0000 </r>
       <r>    9.1999    0.0000 </r>
       <r>   19.2758    0.0000 </r>
       <r>   19.2860    0.0000 </r>
       <r>   21.3871    0.0000 </r>
      </set>
      <set comment="kpoint 9">
       <r>   -1.0767    1.0000 </r>
       <r>    5.0096    1.0000 </r>
       <r>    6.8243    0.0000 </r>
       <r>    6.8996    0.0000 </r>
       <r>    7.7976    0.0000 </r>
       <r>    9.5197    0.0000 </r>
       <r>   19.2751    0.0000 </r>
       <r>   20.6715    0.0000 </r>
       <r>   21.1415    0.0000 </r>
      </set>
      <set comment="kpoint 10">
       <r>    0.2055    1.0000 </r>
       <r>    4.3775    1.0000 </r>
       <r>    6.2081    0.0000 </r>
       <r>    7.4559    0.0000 </r>
       <r>    8.1744    0.0000 </r>
       <r>   10.2349    0.0000 </r>
       <r>   19.2701    0.0000 </r>
       <r>   19.9406    0.0000 </r>
       <r>   22.7401    0.0000 </r>
      </set>
      <set comment="kpoint 11">
       <r>    1.5775    1.0000 </r>
       <r>    4.4151    1.0000 </r>
       <r>    5.4041    1.0000 </r>
       <r>    7.1105    0.0000 </r>
       <r>    9.9970    0.0000 </r>
       <r>   11.6268    0.0000 </r>
       <r>   17.2746    0.0000 </r>
       <r>   19.2804    0.0000 </r>
       <r>   20.6376    0.0000 </r>
      </set>
      <set comment="kpoint 12">
       <r>    2.0286    1.0000 </r>
       <r>    4.5730    1.0000 </r>
       <r>    5.8213   -0.0009 </r>
       <r>    6.7705    0.0000 </r>
       <r>   11.1626    0.0000 </r>
       <r>   12.6713    0.0000 </r>
       <r>   14.8937    0.0000 </r>
       <r>   19.2791    0.0000 </r>
       <r>   19.7826    0.0000 </r>
      </set>
      <set comment="kpoint 13">
       <r>    1.8886    1.0000 </r>
       <r>    4.7492    1.0000 </r>
       <r>    5.3269    1.0000 </r>
       <r>    6.8629    0.0000 </r>
       <r>    9.9785    0.0000 </r>
       <r>   12.4159    0.0000 </r>
       <r>   16.4145    0.0000 </r>
       <r>   19.2799    0.0000 </r>
       <r>   20.2269    0.0000 </r>
      </set>
      <set comment="kpoint 14">
       <r>    0.7535    1.0000 </r>
       <r>    4.4856    1.0000 </r>
       <r>    5.8414   -0.0001 </r>
       <r>    7.3411    0.0000 </r>
       <r>    8.1981    0.0000 </r>
       <r>   10.9857    0.0000 </r>
       <r>   19.0196    0.0000 </r>
       <r>   19.2988    0.0000 </r>
       <r>   22.3037    0.0000 </r>
      </set>
      <set comment="kpoint 15">
       <r>   -0.7416    1.0000 </r>
       <r>    4.9671    1.0000 </r>
       <r>    6.5861    0.0000 </r>
       <r>    6.9251    0.0000 </r>
       <r>    8.0386    0.0000 </r>
       <r>    9.5806    0.0000 </r>
       <r>   19.2722    0.0000 </r>
       <r>   19.8998    0.0000 </r>
       <r>   21.3407    0.0000 </r>
      </set>
      <set comment="kpoint 16">
       <r>    0.8957    1.0000 </r>
       <r>    3.6298    1.0000 </r>
       <r>    6.0659    0.0000 </r>
       <r>    8.4130    0.0000 </r>
       <r>    8.7832    0.0000 </r>
       <r>   10.4747    0.0000 </r>
       <r>   19.2726    0.0000 </r>
       <r>   21.0401    0.0000 </r>
       <r>   22.8012    0.0000 </r>
      </set>
      <set comment="kpoint 17">
       <r>    1.7990    1.0000 </r>
       <r>    3.3118    1.0000 </r>
       <r>    5.6975    0.4230 </r>
       <r>    8.9459    0.0000 </r>
       <r>   10.0985    0.0000 </r>
       <r>   11.6958    0.0000 </r>
       <r>   18.0973    0.0000 </r>
       <r>   19.2825    0.0000 </r>
       <r>   20.3015    0.0000 </r>
      </set>
      <set comment="kpoint 18">
       <r>    2.5546    1.0000 </r>
       <r>    3.5890    1.0000 </r>
       <r>    5.4890    1.0000 </r>
       <r>    8.3450    0.0000 </r>
       <r>   11.2629    0.0000 </r>
       <r>   13.6213    0.0000 </r>
       <r>   14.5921    0.0000 </r>
       <r>   19.2754    0.0000 </r>
       <r>   20.2397    0.0000 </r>
      </set>
      <set comment="kpoint 19">
       <r>    3.2127    1.0000 </r>
       <r>    3.7711    1.0000 </r>
       <r>    5.0177    1.0000 </r>
       <r>    7.8846    0.0000 </r>
       <r>   10.2038    0.0000 </r>
       <r>   12.7747    0.0000 </r>
       <r>   16.9192    0.0000 </r>
       <r>   19.0409    0.0000 </r>
       <r>   19.2863    0.0000 </r>
      </set>
      <set comment="kpoint 20">
       <r>    2.2772    1.0000 </r>
       <r>    4.4582    1.0000 </r>
       <r>    4.7950    1.0000 </r>
       <r>    7.4765    0.0000 </r>
       <r>    9.1055    0.0000 </r>
       <r>   12.6321    0.0000 </r>
       <r>   17.4052    0.0000 </r>
       <r>   19.2819    0.0000 </r>
       <r>   21.0983    0.0000 </r>
      </set>
      <set comment="kpoint 21">
       <r>    0.7835    1.0000 </r>
       <r>    4.7286    1.0000 </r>
       <r>    5.9615    0.0000 </r>
       <r>    6.7336    0.0000 </r>
       <r>    9.1667    0.0000 </r>
       <r>   10.7997    0.0000 </r>
       <r>   17.8698    0.0000 </r>
       <r>   19.2785    0.0000 </r>
       <r>   21.1085    0.0000 </r>
      </set>
      <set comment="kpoint 22">
       <r>    1.5498    1.0000 </r>
       <r>    2.7033    1.0000 </r>
       <r>    7.1920    0.0000 </r>
       <r>   10.4085    0.0000 </r>
       <r>   11.2245    0.0000 </r>
       <r>   11.5007    0.0000 </r>
       <r>   17.4940    0.0000 </r>
       <r>   18.4344    0.0000 </r>
       <r>   19.2615    0.0000 </r>
      </set>
      <set comment="kpoint 23">
       <r>    1.7976    1.0000 </r>
       <r>    2.7854    1.0000 </r>
       <r>    7.2310    0.0000 </r>
       <r>   10.1708    0.0000 </r>
       <r>   11.8520    0.0000 </r>
       <r>   13.2899    0.0000 </r>
       <r>   15.2964    0.0000 </r>
       <r>   17.4769    0.0000 </r>
       <r>   19.2574    0.0000 </r>
      </set>
      <set comment="kpoint 24">
       <r>    2.5519    1.0000 </r>
       <r>    3.4552    1.0000 </r>
       <r>    5.9077    0.0000 </r>
       <r>    8.7734    0.0000 </r>
       <r>   11.1983    0.0000 </r>
       <r>   13.4029    0.0000 </r>
       <r>   15.3961    0.0000 </r>
       <r>   18.8008    0.0000 </r>
       <r>   19.2916    0.0000 </r>
      </set>
      <set comment="kpoint 25">
       <r>    2.6636    1.0000 </r>
       <r>    4.0490    1.0000 </r>
       <r>    5.4494    1.0000 </r>
       <r>    7.3504    0.0000 </r>
       <r>   10.7347    0.0000 </r>
       <r>   13.0976    0.0000 </r>
       <r>   15.1936    0.0000 </r>
       <r>   19.2782    0.0000 </r>
       <r>   20.5023    0.0000 </r>
      </set>
      <set comment="kpoint 26">
       <r>    1.4932    1.0000 </r>
       <r>    5.1990    1.0000 </r>
       <r>    5.9522    0.0000 </r>
       <r>    6.3490    0.0000 </r>
       <r>   10.8934    0.0000 </r>
       <r>   11.9358    0.0000 </r>
       <r>   15.6957    0.0000 </r>
       <r>   18.9293    0.0000 </r>
       <r>   19.2815    0.0000 </r>
      </set>
      <set comment="kpoint 27">
       <r>    1.4687    1.0000 </r>
       <r>    2.5076    1.0000 </r>
       <r>    8.1025    0.0000 </r>
       <r>   11.0450    0.0000 </r>
       <r>   11.9356    0.0000 </r>
       <r>   12.2924    0.0000 </r>
       <r>   16.1341    0.0000 </r>
       <r>   17.2111    0.0000 </r>
       <r>   18.4595    0.0000 </r>
      </set>
      <set comment="kpoint 28">
       <r>    1.8848    1.0000 </r>
       <r>    2.9642    1.0000 </r>
       <r>    6.4396    0.0000 </r>
       <r>    9.7420    0.0000 </r>
       <r>   11.1847    0.0000 </r>
       <r>   12.4566    0.0000 </r>
       <r>   16.4276    0.0000 </r>
       <r>   18.6077    0.0000 </r>
       <r>   19.2766    0.0000 </r>
      </set>
      <set comment="kpoint 29">
       <r>    2.2516    1.0000 </r>
       <r>    3.9540    1.0000 </r>
       <r>    5.2076    1.0000 </r>
       <r>    7.6933    0.0000 </r>
       <r>   10.9534    0.0000 </r>
       <r>   12.4105    0.0000 </r>
       <r>   15.9149    0.0000 </r>
       <r>   19.2792    0.0000 </r>
       <r>   21.2543    0.0000 </r>
      </set>
      <set comment="kpoint 30">
       <r>    1.4765    1.0000 </r>
       <r>    3.0848    1.0000 </r>
       <r>    6.2635    0.0000 </r>
       <r>    9.4107    0.0000 </r>
       <r>    9.9431    0.0000 </r>
       <r>   11.0038    0.0000 </r>
       <r>   19.2440    0.0000 </r>
       <r>   19.4412    0.0000 </r>
       <r>   20.2360    0.0000 </r>
      </set>
      <set comment="kpoint 31">
       <r>    1.1817    1.0000 </r>
       <r>    3.7994    1.0000 </r>
       <r>    5.6711    0.8336 </r>
       <r>    8.1309    0.0000 </r>
       <r>    8.9931    0.0000 </r>
       <r>   10.9675    0.0000 </r>
       <r>   19.2560    0.0000 </r>
       <r>   19.6231    0.0000 </r>
       <r>   22.1471    0.0000 </r>
      </set>
      <set comment="kpoint 32">
       <r>   -0.0887    1.0000 </r>
       <r>    4.2960    1.0000 </r>
       <r>    6.5766    0.0000 </r>
       <r>    7.5592    0.0000 </r>
       <r>    7.8782    0.0000 </r>
       <r>    9.9603    0.0000 </r>
       <r>   19.2741    0.0000 </r>
       <r>   21.1555    0.0000 </r>
       <r>   22.6647    0.0000 </r>
      </set>
      <set comment="kpoint 33">
       <r>   -1.1091    1.0000 </r>
       <r>    5.2908    1.0000 </r>
       <r>    6.5765    0.0000 </r>
       <r>    6.5765    0.0000 </r>
       <r>    8.8532    0.0000 </r>
       <r>    8.8532    0.0000 </r>
       <r>   19.1860    0.0000 </r>
       <r>   19.2947    0.0000 </r>
       <r>   20.9576    0.0000 </r>
      </set>
      <set comment="kpoint 34">
       <r>   -0.1060    1.0000 </r>
       <r>    4.7983    1.0000 </r>
       <r>    6.3274    0.0000 </r>
       <r>    7.0872    0.0000 </r>
       <r>    7.9592    0.0000 </r>
       <r>   10.1271    0.0000 </r>
       <r>   19.2274    0.0000 </r>
       <r>   19.3499    0.0000 </r>
       <r>   22.1055    0.0000 </r>
      </set>
      <set comment="kpoint 35">
       <r>    1.4776    1.0000 </r>
       <r>    4.5368    1.0000 </r>
       <r>    5.4056    1.0000 </r>
       <r>    7.2279    0.0000 </r>
       <r>    8.4552    0.0000 </r>
       <r>   11.9115    0.0000 </r>
       <r>   18.2892    0.0000 </r>
       <r>   19.2852    0.0000 </r>
       <r>   21.4802    0.0000 </r>
      </set>
      <set comment="kpoint 36">
       <r>    2.2460    1.0000 </r>
       <r>    4.5362    1.0000 </r>
       <r>    5.4777    1.0000 </r>
       <r>    6.9348    0.0000 </r>
       <r>   10.2850    0.0000 </r>
       <r>   12.7826    0.0000 </r>
       <r>   15.7849    0.0000 </r>
       <r>   19.2794    0.0000 </r>
       <r>   20.3857    0.0000 </r>
      </set>
      <set comment="kpoint 37">
       <r>    2.1115    1.0000 </r>
       <r>    4.3022    1.0000 </r>
       <r>    5.5576    1.0004 </r>
       <r>    7.0960    0.0000 </r>
       <r>   11.5278    0.0000 </r>
       <r>   12.2388    0.0000 </r>
       <r>   15.1546    0.0000 </r>
       <r>   19.2788    0.0000 </r>
       <r>   20.2432    0.0000 </r>
      </set>
      <set comment="kpoint 38">
       <r>    1.3267    1.0000 </r>
       <r>    4.0197    1.0000 </r>
       <r>    5.5644    1.0008 </r>
       <r>    7.5168    0.0000 </r>
       <r>    9.8199    0.0000 </r>
       <r>   10.9926    0.0000 </r>
       <r>   18.3815    0.0000 </r>
       <r>   19.2843    0.0000 </r>
       <r>   21.5230    0.0000 </r>
      </set>
      <set comment="kpoint 39">
       <r>    0.4074    1.0000 </r>
       <r>    4.5077    1.0000 </r>
       <r>    6.1191    0.0000 </r>
       <r>    7.0102    0.0000 </r>
       <r>    8.8772    0.0000 </r>
       <r>   10.2575    0.0000 </r>
       <r>   18.7622    0.0000 </r>
       <r>   19.2837    0.0000 </r>
       <r>   22.0831    0.0000 </r>
      </set>
      <set comment="kpoint 40">
       <r>    1.6875    1.0000 </r>
       <r>    4.1058    1.0000 </r>
       <r>    5.1978    1.0000 </r>
       <r>    7.8031    0.0000 </r>
       <r>    8.9791    0.0000 </r>
       <r>   11.8623    0.0000 </r>
       <r>   18.3284    0.0000 </r>
       <r>   19.2860    0.0000 </r>
       <r>   21.7111    0.0000 </r>
      </set>
      <set comment="kpoint 41">
       <r>    3.0068    1.0000 </r>
       <r>    4.0412    1.0000 </r>
       <r>    4.5151    1.0000 </r>
       <r>    7.9584    0.0000 </r>
       <r>   10.0106    0.0000 </r>
       <r>   13.0192    0.0000 </r>
       <r>   16.7391    0.0000 </r>
       <r>   19.2787    0.0000 </r>
       <r>   19.6507    0.0000 </r>
      </set>
      <set comment="kpoint 42">
       <r>    3.0917    1.0000 </r>
       <r>    3.6894    1.0000 </r>
       <r>    5.1287    1.0000 </r>
       <r>    7.8452    0.0000 </r>
       <r>   10.8648    0.0000 </r>
       <r>   14.2459    0.0000 </r>
       <r>   14.4160    0.0000 </r>
       <r>   19.2761    0.0000 </r>
       <r>   20.2302    0.0000 </r>
      </set>
      <set comment="kpoint 43">
       <r>    2.3733    1.0000 </r>
       <r>    3.7337    1.0000 </r>
       <r>    4.9427    1.0000 </r>
       <r>    8.4445    0.0000 </r>
       <r>   10.0073    0.0000 </r>
       <r>   12.6182    0.0000 </r>
       <r>   17.0563    0.0000 </r>
       <r>   19.2804    0.0000 </r>
       <r>   20.1138    0.0000 </r>
      </set>
      <set comment="kpoint 44">
       <r>    1.9694    1.0000 </r>
       <r>    3.5586    1.0000 </r>
       <r>    5.4896    1.0000 </r>
       <r>    8.2011    0.0000 </r>
       <r>   11.1607    0.0000 </r>
       <r>   11.5305    0.0000 </r>
       <r>   16.9002    0.0000 </r>
       <r>   19.2796    0.0000 </r>
       <r>   21.0830    0.0000 </r>
      </set>
      <set comment="kpoint 45">
       <r>    2.4875    1.0000 </r>
       <r>    3.4542    1.0000 </r>
       <r>    5.4237    1.0000 </r>
       <r>    8.9210    0.0000 </r>
       <r>   11.0220    0.0000 </r>
       <r>   13.3918    0.0000 </r>
       <r>   15.9125    0.0000 </r>
       <r>   18.5443    0.0000 </r>
       <r>   19.2804    0.0000 </r>
      </set>
      <set comment="kpoint 46">
       <r>    2.9478    1.0000 </r>
       <r>    4.0346    1.0000 </r>
       <r>    4.9933    1.0000 </r>
       <r>    7.9247    0.0000 </r>
       <r>   11.7885    0.0000 </r>
       <r>   14.7012    0.0000 </r>
       <r>   15.5177    0.0000 </r>
       <r>   17.1268    0.0000 </r>
       <r>   19.2810    0.0000 </r>
      </set>
      <set comment="kpoint 47">
       <r>    3.1560    1.0000 </r>
       <r>    3.9607    1.0000 </r>
       <r>    4.6059    1.0000 </r>
       <r>    8.1510    0.0000 </r>
       <r>   10.9664    0.0000 </r>
       <r>   13.6545    0.0000 </r>
       <r>   16.1158    0.0000 </r>
       <r>   18.3693    0.0000 </r>
       <r>   19.2818    0.0000 </r>
      </set>
      <set comment="kpoint 48">
       <r>    2.0578    1.0000 </r>
       <r>    3.0420    1.0000 </r>
       <r>    6.7275    0.0000 </r>
       <r>    9.6474    0.0000 </r>
       <r>   11.5325    0.0000 </r>
       <r>   13.8137    0.0000 </r>
       <r>   14.3799    0.0000 </r>
       <r>   19.1337    0.0000 </r>
       <r>   19.3292    0.0000 </r>
      </set>
      <set comment="kpoint 49">
       <r>    2.3764    1.0000 </r>
       <r>    3.3156    1.0000 </r>
       <r>    6.0870    0.0000 </r>
       <r>    8.9123    0.0000 </r>
       <r>   11.8023    0.0000 </r>
       <r>   14.3676    0.0000 </r>
       <r>   15.0457    0.0000 </r>
       <r>   17.3768    0.0000 </r>
       <r>   19.2786    0.0000 </r>
      </set>
      <set comment="kpoint 50">
       <r>    2.1195    1.0000 </r>
       <r>    3.2128    1.0000 </r>
       <r>    6.0715    0.0000 </r>
       <r>    8.9857    0.0000 </r>
       <r>   11.6991    0.0000 </r>
       <r>   12.7195    0.0000 </r>
       <r>   15.2207    0.0000 </r>
       <r>   19.2749    0.0000 </r>
       <r>   19.8987    0.0000 </r>
      </set>
      <set comment="kpoint 51">
       <r>    0.4037    1.0000 </r>
       <r>    5.0578    1.0000 </r>
       <r>    6.3633    0.0000 </r>
       <r>    6.3633    0.0000 </r>
       <r>    9.7871    0.0000 </r>
       <r>    9.7871    0.0000 </r>
       <r>   17.2496    0.0000 </r>
       <r>   19.2758    0.0000 </r>
       <r>   20.9991    0.0000 </r>
      </set>
      <set comment="kpoint 52">
       <r>    1.2913    1.0000 </r>
       <r>    4.9191    1.0000 </r>
       <r>    5.6707    0.8381 </r>
       <r>    6.6172    0.0000 </r>
       <r>    9.3895    0.0000 </r>
       <r>   11.6785    0.0000 </r>
       <r>   17.2569    0.0000 </r>
       <r>   19.2785    0.0000 </r>
       <r>   20.2408    0.0000 </r>
      </set>
      <set comment="kpoint 53">
       <r>    2.8035    1.0000 </r>
       <r>    4.2680    1.0000 </r>
       <r>    4.8454    1.0000 </r>
       <r>    7.5120    0.0000 </r>
       <r>    9.5198    0.0000 </r>
       <r>   12.8164    0.0000 </r>
       <r>   17.0493    0.0000 </r>
       <r>   19.2804    0.0000 </r>
       <r>   20.0575    0.0000 </r>
      </set>
      <set comment="kpoint 54">
       <r>    2.8684    1.0000 </r>
       <r>    3.6633    1.0000 </r>
       <r>    5.5327    1.0000 </r>
       <r>    8.3384    0.0000 </r>
       <r>   10.6324    0.0000 </r>
       <r>   12.6341    0.0000 </r>
       <r>   16.4882    0.0000 </r>
       <r>   18.8831    0.0000 </r>
       <r>   19.2894    0.0000 </r>
      </set>
      <set comment="kpoint 55">
       <r>    1.4785    1.0000 </r>
       <r>    4.8827    1.0000 </r>
       <r>    5.6865    0.6075 </r>
       <r>    6.6143    0.0000 </r>
       <r>   10.9156    0.0000 </r>
       <r>   11.3649    0.0000 </r>
       <r>   16.3250    0.0000 </r>
       <r>   19.2761    0.0000 </r>
       <r>   19.5661    0.0000 </r>
      </set>
      <set comment="kpoint 56">
       <r>    2.5294    1.0000 </r>
       <r>    4.1548    1.0000 </r>
       <r>    5.2217    1.0000 </r>
       <r>    7.3618    0.0000 </r>
       <r>   10.6451    0.0000 </r>
       <r>   13.0679    0.0000 </r>
       <r>   15.3853    0.0000 </r>
       <r>   19.2788    0.0000 </r>
       <r>   20.8053    0.0000 </r>
      </set>
      <set comment="kpoint 57">
       <r>    3.1794    1.0000 </r>
       <r>    3.7487    1.0000 </r>
       <r>    5.0499    1.0000 </r>
       <r>    8.0466    0.0000 </r>
       <r>   11.0127    0.0000 </r>
       <r>   13.4899    0.0000 </r>
       <r>   16.1431    0.0000 </r>
       <r>   18.4028    0.0000 </r>
       <r>   19.2837    0.0000 </r>
      </set>
      <set comment="kpoint 58">
       <r>    2.6383    1.0000 </r>
       <r>    3.8308    1.0000 </r>
       <r>    5.5197    1.0000 </r>
       <r>    7.7401    0.0000 </r>
       <r>   11.1680    0.0000 </r>
       <r>   13.0915    0.0000 </r>
       <r>   14.8394    0.0000 </r>
       <r>   19.2769    0.0000 </r>
       <r>   20.4228    0.0000 </r>
      </set>
      <set comment="kpoint 59">
       <r>    1.0833    1.0000 </r>
       <r>    5.9862    0.0000 </r>
       <r>    5.9862    0.0000 </r>
       <r>    6.0737    0.0000 </r>
       <r>   11.1599    0.0000 </r>
       <r>   11.1599    0.0000 </r>
       <r>   15.8769    0.0000 </r>
       <r>   18.1307    0.0000 </r>
       <r>   19.2815    0.0000 </r>
      </set>
      <set comment="kpoint 60">
       <r>    1.6725    1.0000 </r>
       <r>    5.0355    1.0000 </r>
       <r>    6.0803    0.0000 </r>
       <r>    6.3941    0.0000 </r>
       <r>   11.0610    0.0000 </r>
       <r>   12.3017    0.0000 </r>
       <r>   15.2112    0.0000 </r>
       <r>   19.0306    0.0000 </r>
       <r>   19.2799    0.0000 </r>
      </set>
     </set>
     <set comment="spin 2">
      <set comment="kpoint 1">
       <r>   -2.2067    1.0000 </r>
       <r>    6.0330    0.0000 </r>
       <r>    6.2420    0.0000 </r>
       <r>    6.2420    0.0000 </r>
       <r>    9.0483    0.0000 </r>
       <r>    9.0483    0.0000 </r>
       <r>   18.4841    0.0000 </r>
       <r>   19.2533    0.0000 </r>
       <r>   22.1724    0.0000 </r>
      </set>
      <set comment="kpoint 2">
       <r>   -1.4367    1.0000 </r>
       <r>    5.4489    1.0000 </r>
       <r>    6.5417    0.0000 </r>
       <r>    6.5743    0.0000 </r>
       <r>    8.4826    0.0000 </r>
       <r>    9.1725    0.0000 </r>
       <r>   19.2515    0.0000 </r>
       <r>   19.8369    0.0000 </r>
       <r>   20.6295    0.0000 </r>
      </set>
      <set comment="kpoint 3">
       <r>    0.0802    1.0000 </r>
       <r>    4.9099    1.0000 </r>
       <r>    6.4129    0.0000 </r>
       <r>    6.6329    0.0000 </r>
       <r>    8.8287    0.0000 </r>
       <r>    9.9554    0.0000 </r>
       <r>   18.1172    0.0000 </r>
       <r>   19.2545    0.0000 </r>
       <r>   21.8193    0.0000 </r>
      </set>
      <set comment="kpoint 4">
       <r>    1.1238    1.0000 </r>
       <r>    5.5103    1.0000 </r>
       <r>    5.9955    0.0000 </r>
       <r>    6.1910    0.0000 </r>
       <r>   10.3989    0.0000 </r>
       <r>   11.3337    0.0000 </r>
       <r>   16.3592    0.0000 </r>
       <r>   19.0194    0.0000 </r>
       <r>   19.2677    0.0000 </r>
      </set>
      <set comment="kpoint 5">
       <r>    1.2807    1.0000 </r>
       <r>    5.6263    1.0339 </r>
       <r>    6.0779    0.0000 </r>
       <r>    6.3265    0.0000 </r>
       <r>   11.4357    0.0000 </r>
       <r>   11.5396    0.0000 </r>
       <r>   15.5080    0.0000 </r>
       <r>   18.1027    0.0000 </r>
       <r>   19.2568    0.0000 </r>
      </set>
      <set comment="kpoint 6">
       <r>    0.8982    1.0000 </r>
       <r>    5.1549    1.0000 </r>
       <r>    6.0564    0.0000 </r>
       <r>    6.3768    0.0000 </r>
       <r>   10.0621    0.0000 </r>
       <r>   10.7218    0.0000 </r>
       <r>   16.9132    0.0000 </r>
       <r>   19.2500    0.0000 </r>
       <r>   19.9710    0.0000 </r>
      </set>
      <set comment="kpoint 7">
       <r>   -0.4488    1.0000 </r>
       <r>    4.9725    1.0000 </r>
       <r>    6.5670    0.0000 </r>
       <r>    6.7163    0.0000 </r>
       <r>    8.5772    0.0000 </r>
       <r>    9.5119    0.0000 </r>
       <r>   18.7921    0.0000 </r>
       <r>   19.2578    0.0000 </r>
       <r>   21.7735    0.0000 </r>
      </set>
      <set comment="kpoint 8">
       <r>   -1.8107    1.0000 </r>
       <r>    5.6584    0.9567 </r>
       <r>    6.4539    0.0000 </r>
       <r>    6.4662    0.0000 </r>
       <r>    8.5564    0.0000 </r>
       <r>    9.2159    0.0000 </r>
       <r>   19.2527    0.0000 </r>
       <r>   19.2910    0.0000 </r>
       <r>   21.4021    0.0000 </r>
      </set>
      <set comment="kpoint 9">
       <r>   -1.0631    1.0000 </r>
       <r>    5.0213    1.0000 </r>
       <r>    6.8371    0.0000 </r>
       <r>    6.9120    0.0000 </r>
       <r>    7.8135    0.0000 </r>
       <r>    9.5355    0.0000 </r>
       <r>   19.2518    0.0000 </r>
       <r>   20.6787    0.0000 </r>
       <r>   21.1536    0.0000 </r>
      </set>
      <set comment="kpoint 10">
       <r>    0.2190    1.0000 </r>
       <r>    4.3888    1.0000 </r>
       <r>    6.2233    0.0000 </r>
       <r>    7.4689    0.0000 </r>
       <r>    8.1880    0.0000 </r>
       <r>   10.2493    0.0000 </r>
       <r>   19.2472    0.0000 </r>
       <r>   19.9538    0.0000 </r>
       <r>   22.7461    0.0000 </r>
      </set>
      <set comment="kpoint 11">
       <r>    1.5904    1.0000 </r>
       <r>    4.4274    1.0000 </r>
       <r>    5.4184    1.0000 </r>
       <r>    7.1252    0.0000 </r>
       <r>   10.0096    0.0000 </r>
       <r>   11.6392    0.0000 </r>
       <r>   17.2881    0.0000 </r>
       <r>   19.2570    0.0000 </r>
       <r>   20.6474    0.0000 </r>
      </set>
      <set comment="kpoint 12">
       <r>    2.0406    1.0000 </r>
       <r>    4.5890    1.0000 </r>
       <r>    5.8322   -0.0003 </r>
       <r>    6.7858    0.0000 </r>
       <r>   11.1746    0.0000 </r>
       <r>   12.6836    0.0000 </r>
       <r>   14.9064    0.0000 </r>
       <r>   19.2556    0.0000 </r>
       <r>   19.7929    0.0000 </r>
      </set>
      <set comment="kpoint 13">
       <r>    1.9009    1.0000 </r>
       <r>    4.7638    1.0000 </r>
       <r>    5.3392    1.0000 </r>
       <r>    6.8783    0.0000 </r>
       <r>    9.9909    0.0000 </r>
       <r>   12.4279    0.0000 </r>
       <r>   16.4279    0.0000 </r>
       <r>   19.2564    0.0000 </r>
       <r>   20.2369    0.0000 </r>
      </set>
      <set comment="kpoint 14">
       <r>    0.7666    1.0000 </r>
       <r>    4.4968    1.0000 </r>
       <r>    5.8564    0.0000 </r>
       <r>    7.3558    0.0000 </r>
       <r>    8.2115    0.0000 </r>
       <r>   10.9989    0.0000 </r>
       <r>   19.0306    0.0000 </r>
       <r>   19.2782    0.0000 </r>
       <r>   22.3126    0.0000 </r>
      </set>
      <set comment="kpoint 15">
       <r>   -0.7281    1.0000 </r>
       <r>    4.9787    1.0000 </r>
       <r>    6.5996    0.0000 </r>
       <r>    6.9376    0.0000 </r>
       <r>    8.0543    0.0000 </r>
       <r>    9.5958    0.0000 </r>
       <r>   19.2492    0.0000 </r>
       <r>   19.9131    0.0000 </r>
       <r>   21.3468    0.0000 </r>
      </set>
      <set comment="kpoint 16">
       <r>    0.9099    1.0000 </r>
       <r>    3.6410    1.0000 </r>
       <r>    6.0811    0.0000 </r>
       <r>    8.4253    0.0000 </r>
       <r>    8.7951    0.0000 </r>
       <r>   10.4897    0.0000 </r>
       <r>   19.2494    0.0000 </r>
       <r>   21.0538    0.0000 </r>
       <r>   22.1447    0.0000 </r>
      </set>
      <set comment="kpoint 17">
       <r>    1.8142    1.0000 </r>
       <r>    3.3229    1.0000 </r>
       <r>    5.7108    0.2175 </r>
       <r>    8.9598    0.0000 </r>
       <r>   10.1105    0.0000 </r>
       <r>   11.7083    0.0000 </r>
       <r>   18.1112    0.0000 </r>
       <r>   19.2592    0.0000 </r>
       <r>   20.3150    0.0000 </r>
      </set>
      <set comment="kpoint 18">
       <r>    2.5694    1.0000 </r>
       <r>    3.6017    1.0000 </r>
       <r>    5.5001    1.0000 </r>
       <r>    8.3602    0.0000 </r>
       <r>   11.2743    0.0000 </r>
       <r>   13.6330    0.0000 </r>
       <r>   14.6055    0.0000 </r>
       <r>   19.2522    0.0000 </r>
       <r>   20.2515    0.0000 </r>
      </set>
      <set comment="kpoint 19">
       <r>    3.2247    1.0000 </r>
       <r>    3.7872    1.0000 </r>
       <r>    5.0281    1.0000 </r>
       <r>    7.9008    0.0000 </r>
       <r>   10.2148    0.0000 </r>
       <r>   12.7880    0.0000 </r>
       <r>   16.9313    0.0000 </r>
       <r>   19.0506    0.0000 </r>
       <r>   19.2637    0.0000 </r>
      </set>
      <set comment="kpoint 20">
       <r>    2.2897    1.0000 </r>
       <r>    4.4699    1.0000 </r>
       <r>    4.8099    1.0000 </r>
       <r>    7.4926    0.0000 </r>
       <r>    9.1173    0.0000 </r>
       <r>   12.6440    0.0000 </r>
       <r>   17.4192    0.0000 </r>
       <r>   19.2584    0.0000 </r>
       <r>   21.1084    0.0000 </r>
      </set>
      <set comment="kpoint 21">
       <r>    0.7965    1.0000 </r>
       <r>    4.7401    1.0000 </r>
       <r>    5.9764    0.0000 </r>
       <r>    6.7482    0.0000 </r>
       <r>    9.1801    0.0000 </r>
       <r>   10.8129    0.0000 </r>
       <r>   17.8836    0.0000 </r>
       <r>   19.2552    0.0000 </r>
       <r>   21.1169    0.0000 </r>
      </set>
      <set comment="kpoint 22">
       <r>    1.5665    1.0000 </r>
       <r>    2.7143    1.0000 </r>
       <r>    7.2032    0.0000 </r>
       <r>   10.4218    0.0000 </r>
       <r>   11.2352    0.0000 </r>
       <r>   11.5134    0.0000 </r>
       <r>   17.5082    0.0000 </r>
       <r>   18.4485    0.0000 </r>
       <r>   19.2400    0.0000 </r>
      </set>
      <set comment="kpoint 23">
       <r>    1.8146    1.0000 </r>
       <r>    2.7963    1.0000 </r>
       <r>    7.2409    0.0000 </r>
       <r>   10.1864    0.0000 </r>
       <r>   11.8619    0.0000 </r>
       <r>   13.2996    0.0000 </r>
       <r>   15.3114    0.0000 </r>
       <r>   17.4913    0.0000 </r>
       <r>   19.2599    0.0000 </r>
      </set>
      <set comment="kpoint 24">
       <r>    2.5679    1.0000 </r>
       <r>    3.4669    1.0000 </r>
       <r>    5.9179    0.0000 </r>
       <r>    8.7894    0.0000 </r>
       <r>   11.2086    0.0000 </r>
       <r>   13.4175    0.0000 </r>
       <r>   15.4062    0.0000 </r>
       <r>   18.8126    0.0000 </r>
       <r>   19.2685    0.0000 </r>
      </set>
      <set comment="kpoint 25">
       <r>    2.6753    1.0000 </r>
       <r>    4.0653    1.0000 </r>
       <r>    5.4600    1.0000 </r>
       <r>    7.3660    0.0000 </r>
       <r>   10.7464    0.0000 </r>
       <r>   13.1104    0.0000 </r>
       <r>   15.2060    0.0000 </r>
       <r>   19.2547    0.0000 </r>
       <r>   20.5126    0.0000 </r>
      </set>
      <set comment="kpoint 26">
       <r>    1.5053    1.0000 </r>
       <r>    5.2143    1.0000 </r>
       <r>    5.9639    0.0000 </r>
       <r>    6.3643    0.0000 </r>
       <r>   10.9057    0.0000 </r>
       <r>   11.9480    0.0000 </r>
       <r>   15.7084    0.0000 </r>
       <r>   18.9393    0.0000 </r>
       <r>   19.2580    0.0000 </r>
      </set>
      <set comment="kpoint 27">
       <r>    1.4859    1.0000 </r>
       <r>    2.5186    1.0000 </r>
       <r>    8.1122    0.0000 </r>
       <r>   11.0600    0.0000 </r>
       <r>   11.9456    0.0000 </r>
       <r>   12.3020    0.0000 </r>
       <r>   16.1491    0.0000 </r>
       <r>   17.2259    0.0000 </r>
       <r>   18.4733    0.0000 </r>
      </set>
      <set comment="kpoint 28">
       <r>    1.9014    1.0000 </r>
       <r>    2.9752    1.0000 </r>
       <r>    6.4509    0.0000 </r>
       <r>    9.7566    0.0000 </r>
       <r>   11.1958    0.0000 </r>
       <r>   12.4676    0.0000 </r>
       <r>   16.4419    0.0000 </r>
       <r>   18.6215    0.0000 </r>
       <r>   19.2534    0.0000 </r>
      </set>
      <set comment="kpoint 29">
       <r>    2.2650    1.0000 </r>
       <r>    3.9674    1.0000 </r>
       <r>    5.2201    1.0000 </r>
       <r>    7.7081    0.0000 </r>
       <r>   10.9655    0.0000 </r>
       <r>   12.4223    0.0000 </r>
       <r>   15.9283    0.0000 </r>
       <r>   19.2557    0.0000 </r>
       <r>   21.0389    0.0000 </r>
      </set>
      <set comment="kpoint 30">
       <r>    1.4921    1.0000 </r>
       <r>    3.0959    1.0000 </r>
       <r>    6.2768    0.0000 </r>
       <r>    9.4231    0.0000 </r>
       <r>    9.9545    0.0000 </r>
       <r>   11.0182    0.0000 </r>
       <r>   19.2261    0.0000 </r>
       <r>   19.4497    0.0000 </r>
       <r>   20.2499    0.0000 </r>
      </set>
      <set comment="kpoint 31">
       <r>    1.1956    1.0000 </r>
       <r>    3.8106    1.0000 </r>
       <r>    5.6861    0.6134 </r>
       <r>    8.1444    0.0000 </r>
       <r>    9.0057    0.0000 </r>
       <r>   10.9810    0.0000 </r>
       <r>   19.2350    0.0000 </r>
       <r>   19.6346    0.0000 </r>
       <r>   22.1610    0.0000 </r>
      </set>
      <set comment="kpoint 32">
       <r>   -0.0751    1.0000 </r>
       <r>    4.3074    1.0000 </r>
       <r>    6.5924    0.0000 </r>
       <r>    7.5715    0.0000 </r>
       <r>    7.8909    0.0000 </r>
       <r>    9.9759    0.0000 </r>
       <r>   19.2508    0.0000 </r>
       <r>   21.1686    0.0000 </r>
       <r>   22.6701    0.0000 </r>
      </set>
      <set comment="kpoint 33">
       <r>   -1.0956    1.0000 </r>
       <r>    5.3026    1.0000 </r>
       <r>    6.5893    0.0000 </r>
       <r>    6.5893    0.0000 </r>
       <r>    8.8689    0.0000 </r>
       <r>    8.8689    0.0000 </r>
       <r>   19.1913    0.0000 </r>
       <r>   19.2791    0.0000 </r>
       <r>   20.9645    0.0000 </r>
      </set>
      <set comment="kpoint 34">
       <r>   -0.0927    1.0000 </r>
       <r>    4.8096    1.0000 </r>
       <r>    6.3415    0.0000 </r>
       <r>    7.1005    0.0000 </r>
       <r>    7.9746    0.0000 </r>
       <r>   10.1411    0.0000 </r>
       <r>   19.2171    0.0000 </r>
       <r>   19.3506    0.0000 </r>
       <r>   22.1115    0.0000 </r>
      </set>
      <set comment="kpoint 35">
       <r>    1.4904    1.0000 </r>
       <r>    4.5478    1.0000 </r>
       <r>    5.4209    1.0000 </r>
       <r>    7.2440    0.0000 </r>
       <r>    8.4676    0.0000 </r>
       <r>   11.9238    0.0000 </r>
       <r>   18.3030    0.0000 </r>
       <r>   19.2619    0.0000 </r>
       <r>   21.4908    0.0000 </r>
      </set>
      <set comment="kpoint 36">
       <r>    2.2579    1.0000 </r>
       <r>    4.5523    1.0000 </r>
       <r>    5.4886    1.0000 </r>
       <r>    6.9504    0.0000 </r>
       <r>   10.2971    0.0000 </r>
       <r>   12.7948    0.0000 </r>
       <r>   15.7979    0.0000 </r>
       <r>   19.2559    0.0000 </r>
       <r>   20.3954    0.0000 </r>
      </set>
      <set comment="kpoint 37">
       <r>    2.1239    1.0000 </r>
       <r>    4.3174    1.0000 </r>
       <r>    5.5691    1.0013 </r>
       <r>    7.1111    0.0000 </r>
       <r>   11.5397    0.0000 </r>
       <r>   12.2511    0.0000 </r>
       <r>   15.1676    0.0000 </r>
       <r>   19.2553    0.0000 </r>
       <r>   20.2491    0.0000 </r>
      </set>
      <set comment="kpoint 38">
       <r>    1.3402    1.0000 </r>
       <r>    4.0313    1.0000 </r>
       <r>    5.5793    1.0030 </r>
       <r>    7.5308    0.0000 </r>
       <r>    9.8323    0.0000 </r>
       <r>   11.0059    0.0000 </r>
       <r>   18.3951    0.0000 </r>
       <r>   19.2610    0.0000 </r>
       <r>   21.5325    0.0000 </r>
      </set>
      <set comment="kpoint 39">
       <r>    0.4207    1.0000 </r>
       <r>    4.5191    1.0000 </r>
       <r>    6.1343    0.0000 </r>
       <r>    7.0239    0.0000 </r>
       <r>    8.8904    0.0000 </r>
       <r>   10.2716    0.0000 </r>
       <r>   18.7757    0.0000 </r>
       <r>   19.2607    0.0000 </r>
       <r>   22.0904    0.0000 </r>
      </set>
      <set comment="kpoint 40">
       <r>    1.7008    1.0000 </r>
       <r>    4.1169    1.0000 </r>
       <r>    5.2129    1.0000 </r>
       <r>    7.8181    0.0000 </r>
       <r>    8.9915    0.0000 </r>
       <r>   11.8746    0.0000 </r>
       <r>   18.3421    0.0000 </r>
       <r>   19.2626    0.0000 </r>
       <r>   21.7076    0.0000 </r>
      </set>
      <set comment="kpoint 41">
       <r>    3.0198    1.0000 </r>
       <r>    4.0558    1.0000 </r>
       <r>    4.5265    1.0000 </r>
       <r>    7.9743    0.0000 </r>
       <r>   10.0219    0.0000 </r>
       <r>   13.0313    0.0000 </r>
       <r>   16.7527    0.0000 </r>
       <r>   19.2554    0.0000 </r>
       <r>   19.6616    0.0000 </r>
      </set>
      <set comment="kpoint 42">
       <r>    3.1046    1.0000 </r>
       <r>    3.7045    1.0000 </r>
       <r>    5.1393    1.0000 </r>
       <r>    7.8609    0.0000 </r>
       <r>   10.8760    0.0000 </r>
       <r>   14.2580    0.0000 </r>
       <r>   14.4291    0.0000 </r>
       <r>   19.2528    0.0000 </r>
       <r>   20.2412    0.0000 </r>
      </set>
      <set comment="kpoint 43">
       <r>    2.3879    1.0000 </r>
       <r>    3.7450    1.0000 </r>
       <r>    4.9563    1.0000 </r>
       <r>    8.4597    0.0000 </r>
       <r>   10.0189    0.0000 </r>
       <r>   12.6298    0.0000 </r>
       <r>   17.0703    0.0000 </r>
       <r>   19.2569    0.0000 </r>
       <r>   20.1261    0.0000 </r>
      </set>
      <set comment="kpoint 44">
       <r>    1.9839    1.0000 </r>
       <r>    3.5704    1.0000 </r>
       <r>    5.5028    1.0000 </r>
       <r>    8.2153    0.0000 </r>
       <r>   11.1725    0.0000 </r>
       <r>   11.5429    0.0000 </r>
       <r>   16.9137    0.0000 </r>
       <r>   19.2561    0.0000 </r>
       <r>   21.0977    0.0000 </r>
      </set>
      <set comment="kpoint 45">
       <r>    2.5037    1.0000 </r>
       <r>    3.4652    1.0000 </r>
       <r>    5.4353    1.0000 </r>
       <r>    8.9366    0.0000 </r>
       <r>   11.0327    0.0000 </r>
       <r>   13.4030    0.0000 </r>
       <r>   15.9265    0.0000 </r>
       <r>   18.5572    0.0000 </r>
       <r>   19.2570    0.0000 </r>
      </set>
      <set comment="kpoint 46">
       <r>    2.9646    1.0000 </r>
       <r>    4.0452    1.0000 </r>
       <r>    5.0037    1.0000 </r>
       <r>    7.9411    0.0000 </r>
       <r>   11.7984    0.0000 </r>
       <r>   14.7150    0.0000 </r>
       <r>   15.5294    0.0000 </r>
       <r>   17.1393    0.0000 </r>
       <r>   19.2574    0.0000 </r>
      </set>
      <set comment="kpoint 47">
       <r>    3.1722    1.0000 </r>
       <r>    3.9720    1.0000 </r>
       <r>    4.6170    1.0000 </r>
       <r>    8.1669    0.0000 </r>
       <r>   10.9770    0.0000 </r>
       <r>   13.6672    0.0000 </r>
       <r>   16.1286    0.0000 </r>
       <r>   18.3810    0.0000 </r>
       <r>   19.2581    0.0000 </r>
      </set>
      <set comment="kpoint 48">
       <r>    2.0744    1.0000 </r>
       <r>    3.0533    1.0000 </r>
       <r>    6.7375    0.0000 </r>
       <r>    9.6631    0.0000 </r>
       <r>   11.5427    0.0000 </r>
       <r>   13.8279    0.0000 </r>
       <r>   14.3905    0.0000 </r>
       <r>   19.1352    0.0000 </r>
       <r>   19.3435    0.0000 </r>
      </set>
      <set comment="kpoint 49">
       <r>    2.3932    1.0000 </r>
       <r>    3.3265    1.0000 </r>
       <r>    6.0972    0.0000 </r>
       <r>    8.9283    0.0000 </r>
       <r>   11.8121    0.0000 </r>
       <r>   14.3782    0.0000 </r>
       <r>   15.0599    0.0000 </r>
       <r>   17.3903    0.0000 </r>
       <r>   19.2552    0.0000 </r>
      </set>
      <set comment="kpoint 50">
       <r>    2.1355    1.0000 </r>
       <r>    3.2243    1.0000 </r>
       <r>    6.0827    0.0000 </r>
       <r>    9.0005    0.0000 </r>
       <r>   11.7106    0.0000 </r>
       <r>   12.7306    0.0000 </r>
       <r>   15.2346    0.0000 </r>
       <r>   19.2517    0.0000 </r>
       <r>   19.9128    0.0000 </r>
      </set>
      <set comment="kpoint 51">
       <r>    0.4167    1.0000 </r>
       <r>    5.0693    1.0000 </r>
       <r>    6.3779    0.0000 </r>
       <r>    6.3779    0.0000 </r>
       <r>    9.8007    0.0000 </r>
       <r>    9.8007    0.0000 </r>
       <r>   17.2632    0.0000 </r>
       <r>   19.2524    0.0000 </r>
       <r>   21.0067    0.0000 </r>
      </set>
      <set comment="kpoint 52">
       <r>    1.3039    1.0000 </r>
       <r>    4.9310    1.0000 </r>
       <r>    5.6854    0.6263 </r>
       <r>    6.6325    0.0000 </r>
       <r>    9.4025    0.0000 </r>
       <r>   11.6910    0.0000 </r>
       <r>   17.2704    0.0000 </r>
       <r>   19.2552    0.0000 </r>
       <r>   20.2502    0.0000 </r>
      </set>
      <set comment="kpoint 53">
       <r>    2.8154    1.0000 </r>
       <r>    4.2843    1.0000 </r>
       <r>    4.8560    1.0000 </r>
       <r>    7.5284    0.0000 </r>
       <r>    9.5313    0.0000 </r>
       <r>   12.8287    0.0000 </r>
       <r>   17.0627    0.0000 </r>
       <r>   19.2570    0.0000 </r>
       <r>   20.0674    0.0000 </r>
      </set>
      <set comment="kpoint 54">
       <r>    2.8829    1.0000 </r>
       <r>    3.6767    1.0000 </r>
       <r>    5.5429    1.0001 </r>
       <r>    8.3545    0.0000 </r>
       <r>   10.6432    0.0000 </r>
       <r>   12.6483    0.0000 </r>
       <r>   16.4987    0.0000 </r>
       <r>   18.8940    0.0000 </r>
       <r>   19.2666    0.0000 </r>
      </set>
      <set comment="kpoint 55">
       <r>    1.4909    1.0000 </r>
       <r>    4.8967    1.0000 </r>
       <r>    5.6996    0.3880 </r>
       <r>    6.6292    0.0000 </r>
       <r>   10.9281    0.0000 </r>
       <r>   11.3773    0.0000 </r>
       <r>   16.3380    0.0000 </r>
       <r>   19.2531    0.0000 </r>
       <r>   19.5755    0.0000 </r>
      </set>
      <set comment="kpoint 56">
       <r>    2.5415    1.0000 </r>
       <r>    4.1707    1.0000 </r>
       <r>    5.2327    1.0000 </r>
       <r>    7.3772    0.0000 </r>
       <r>   10.6569    0.0000 </r>
       <r>   13.0798    0.0000 </r>
       <r>   15.3985    0.0000 </r>
       <r>   19.2553    0.0000 </r>
       <r>   20.8155    0.0000 </r>
      </set>
      <set comment="kpoint 57">
       <r>    3.1957    1.0000 </r>
       <r>    3.7603    1.0000 </r>
       <r>    5.0602    1.0000 </r>
       <r>    8.0628    0.0000 </r>
       <r>   11.0231    0.0000 </r>
       <r>   13.5037    0.0000 </r>
       <r>   16.1543    0.0000 </r>
       <r>   18.4145    0.0000 </r>
       <r>   19.2602    0.0000 </r>
      </set>
      <set comment="kpoint 58">
       <r>    2.6512    1.0000 </r>
       <r>    3.8457    1.0000 </r>
       <r>    5.5304    1.0000 </r>
       <r>    7.7555    0.0000 </r>
       <r>   11.1794    0.0000 </r>
       <r>   13.1049    0.0000 </r>
       <r>   14.8512    0.0000 </r>
       <r>   19.2535    0.0000 </r>
       <r>   20.4334    0.0000 </r>
      </set>
      <set comment="kpoint 59">
       <r>    1.0957    1.0000 </r>
       <r>    6.0015    0.0000 </r>
       <r>    6.0015    0.0000 </r>
       <r>    6.0856    0.0000 </r>
       <r>   11.1722    0.0000 </r>
       <r>   11.1722    0.0000 </r>
       <r>   15.8893    0.0000 </r>
       <r>   18.1405    0.0000 </r>
       <r>   19.2580    0.0000 </r>
      </set>
      <set comment="kpoint 60">
       <r>    1.6845    1.0000 </r>
       <r>    5.0514    1.0000 </r>
       <r>    6.0916    0.0000 </r>
       <r>    6.4095    0.0000 </r>
       <r>   11.0730    0.0000 </r>
       <r>   12.3140    0.0000 </r>
       <r>   15.2236    0.0000 </r>
       <r>   19.0408    0.0000 </r>
       <r>   19.2564    0.0000 </r>
      </set>
     </set>
    </set>
   </array>
  </eigenvalues>
  <separator name="orbital magnetization" >
   <v name="MAGDIPOLOUT">      0.00000000      0.00000000      0.00000000</v>
  </separator>
  <dos>
   <i name="efermi">      5.69291768 </i>
   <total>
    <array>
     <dimension dim="1">gridpoints</dimension>
     <dimension dim="2">spin</dimension>
     <field>energy</field>
     <field>total</field>
     <field>integrated</field>
     <set>
      <set comment="spin 1">
       <r>    -3.4715     0.0000     0.0000 </r>
       <r>    -3.3798     0.0000     0.0000 </r>
       <r>    -3.2880     0.0000     0.0000 </r>
       <r>    -3.1963     0.0000     0.0000 </r>
       <r>    -3.1045     0.0000     0.0000 </r>
       <r>    -3.0128     0.0000     0.0000 </r>
       <r>    -2.9211     0.0000     0.0000 </r>
       <r>    -2.8293     0.0000     0.0000 </r>
       <r>    -2.7376     0.0000     0.0000 </r>
       <r>    -2.6458     0.0000     0.0000 </r>
       <r>    -2.5541     0.0000     0.0000 </r>
       <r>    -2.4623     0.0000     0.0000 </r>
       <r>    -2.3706     0.0000     0.0000 </r>
       <r>    -2.2788    -0.0015    -0.0001 </r>
       <r>    -2.1871     0.0418     0.0037 </r>
       <r>    -2.0953     0.0023     0.0039 </r>
       <r>    -2.0036     0.0000     0.0039 </r>
       <r>    -1.9118    -0.0021     0.0037 </r>
       <r>    -1.8201     0.0751     0.0106 </r>
       <r>    -1.7284     0.0560     0.0157 </r>
       <r>    -1.6366    -0.0013     0.0156 </r>
       <r>    -1.5449    -0.0014     0.0155 </r>
       <r>    -1.4531     0.0591     0.0209 </r>
       <r>    -1.3614     0.0720     0.0275 </r>
       <r>    -1.2696    -0.0020     0.0273 </r>
       <r>    -1.1779    -0.0023     0.0271 </r>
       <r>    -1.0861     0.0823     0.0347 </r>
       <r>    -0.9944     0.0932     0.0432 </r>
       <r>    -0.9026    -0.0028     0.0430 </r>
       <r>    -0.8109    -0.0082     0.0422 </r>
       <r>    -0.7191     0.2231     0.0627 </r>
       <r>    -0.6274     0.0414     0.0665 </r>
       <r>    -0.5357    -0.0044     0.0661 </r>
       <r>    -0.4439     0.1042     0.0756 </r>
       <r>    -0.3522     0.0277     0.0782 </r>
       <r>    -0.2604    -0.0005     0.0781 </r>
       <r>    -0.1687    -0.0075     0.0774 </r>
       <r>    -0.0769     0.2125     0.0969 </r>
       <r>     0.0148     0.0477     0.1013 </r>
       <r>     0.1066     0.1267     0.1129 </r>
       <r>     0.1983     0.1008     0.1222 </r>
       <r>     0.2901     0.1629     0.1371 </r>
       <r>     0.3818     0.0184     0.1388 </r>
       <r>     0.4736     0.1532     0.1529 </r>
       <r>     0.5653    -0.0057     0.1523 </r>
       <r>     0.6570    -0.0028     0.1521 </r>
       <r>     0.7488     0.1211     0.1632 </r>
       <r>     0.8405     0.4000     0.1999 </r>
       <r>     0.9323     0.2465     0.2225 </r>
       <r>     1.0240    -0.0019     0.2223 </r>
       <r>     1.1158     0.1082     0.2323 </r>
       <r>     1.2075     0.2841     0.2583 </r>
       <r>     1.2993     0.2502     0.2813 </r>
       <r>     1.3910     0.1641     0.2963 </r>
       <r>     1.4828     0.4008     0.3331 </r>
       <r>     1.5745     0.6050     0.3886 </r>
       <r>     1.6663     0.2487     0.4114 </r>
       <r>     1.7580     0.2985     0.4388 </r>
       <r>     1.8497     0.5247     0.4870 </r>
       <r>     1.9415     0.5074     0.5335 </r>
       <r>     2.0332     0.2670     0.5580 </r>
       <r>     2.1250     0.3931     0.5941 </r>
       <r>     2.2167     0.0960     0.6029 </r>
       <r>     2.3085     0.6026     0.6582 </r>
       <r>     2.4002     0.4634     0.7007 </r>
       <r>     2.4920     0.2374     0.7225 </r>
       <r>     2.5837     0.9464     0.8093 </r>
       <r>     2.6755     0.3495     0.8414 </r>
       <r>     2.7672     0.2603     0.8652 </r>
       <r>     2.8590     0.3694     0.8991 </r>
       <r>     2.9507     0.2820     0.9250 </r>
       <r>     3.0424     0.6199     0.9819 </r>
       <r>     3.1342     0.4885     1.0267 </r>
       <r>     3.2259     0.7537     1.0958 </r>
       <r>     3.3177     0.3969     1.1322 </r>
       <r>     3.4094     0.2181     1.1523 </r>
       <r>     3.5012     0.5115     1.1992 </r>
       <r>     3.5929     0.2639     1.2234 </r>
       <r>     3.6847     0.4474     1.2644 </r>
       <r>     3.7764     0.8591     1.3433 </r>
       <r>     3.8682     0.4741     1.3868 </r>
       <r>     3.9599     0.2559     1.4102 </r>
       <r>     4.0517     0.8785     1.4908 </r>
       <r>     4.1434     0.6051     1.5464 </r>
       <r>     4.2351     0.1801     1.5629 </r>
       <r>     4.3269     0.3463     1.5947 </r>
       <r>     4.4186     0.4200     1.6332 </r>
       <r>     4.5104     0.8066     1.7072 </r>
       <r>     4.6021     0.8259     1.7830 </r>
       <r>     4.6939     0.1558     1.7973 </r>
       <r>     4.7856     0.6266     1.8548 </r>
       <r>     4.8774     0.4508     1.8961 </r>
       <r>     4.9691     0.7970     1.9692 </r>
       <r>     5.0609     1.1192     2.0719 </r>
       <r>     5.1526     0.3924     2.1079 </r>
       <r>     5.2444     1.0788     2.2069 </r>
       <r>     5.3361     0.2364     2.2286 </r>
       <r>     5.4278     0.6433     2.2876 </r>
       <r>     5.5196     1.1863     2.3964 </r>
       <r>     5.6113     0.5081     2.4431 </r>
       <r>     5.7031     0.8092     2.5173 </r>
       <r>     5.7948     0.1798     2.5338 </r>
       <r>     5.8866     0.5218     2.5817 </r>
       <r>     5.9783     0.7223     2.6479 </r>
       <r>     6.0701     0.7126     2.7133 </r>
       <r>     6.1618     0.6554     2.7734 </r>
       <r>     6.2536     0.4511     2.8148 </r>
       <r>     6.3453     0.4721     2.8581 </r>
       <r>     6.4371     0.8169     2.9331 </r>
       <r>     6.5288     0.3820     2.9681 </r>
       <r>     6.6205     0.9862     3.0586 </r>
       <r>     6.7123     0.3256     3.0885 </r>
       <r>     6.8040     0.6231     3.1457 </r>
       <r>     6.8958     0.4401     3.1860 </r>
       <r>     6.9875     0.4750     3.2296 </r>
       <r>     7.0793     0.1926     3.2473 </r>
       <r>     7.1710     0.4371     3.2874 </r>
       <r>     7.2628     0.4562     3.3292 </r>
       <r>     7.3545     0.4541     3.3709 </r>
       <r>     7.4463     0.4498     3.4122 </r>
       <r>     7.5380     0.6586     3.4726 </r>
       <r>     7.6298     0.1236     3.4839 </r>
       <r>     7.7215     0.2530     3.5071 </r>
       <r>     7.8132     0.4088     3.5447 </r>
       <r>     7.9050     0.7354     3.6121 </r>
       <r>     7.9967     0.6454     3.6713 </r>
       <r>     8.0885     0.5427     3.7211 </r>
       <r>     8.1802     0.8314     3.7974 </r>
       <r>     8.2720     0.4222     3.8361 </r>
       <r>     8.3637     0.3010     3.8638 </r>
       <r>     8.4555     0.4855     3.9083 </r>
       <r>     8.5472     0.3511     3.9405 </r>
       <r>     8.6390     0.1418     3.9535 </r>
       <r>     8.7307    -0.0114     3.9525 </r>
       <r>     8.8225     0.4713     3.9957 </r>
       <r>     8.9142     0.4924     4.0409 </r>
       <r>     9.0059     1.0704     4.1391 </r>
       <r>     9.0977     0.2731     4.1642 </r>
       <r>     9.1894     0.5519     4.2148 </r>
       <r>     9.2812     0.1312     4.2268 </r>
       <r>     9.3729     0.0297     4.2296 </r>
       <r>     9.4647     0.2290     4.2506 </r>
       <r>     9.5564     0.4077     4.2880 </r>
       <r>     9.6482     0.2960     4.3151 </r>
       <r>     9.7399     0.1725     4.3310 </r>
       <r>     9.8317     0.3166     4.3600 </r>
       <r>     9.9234     0.0672     4.3662 </r>
       <r>    10.0152     1.1216     4.4691 </r>
       <r>    10.1069     0.5657     4.5210 </r>
       <r>    10.1986     0.5401     4.5705 </r>
       <r>    10.2904     0.6313     4.6284 </r>
       <r>    10.3821     0.1174     4.6392 </r>
       <r>    10.4739     0.2544     4.6626 </r>
       <r>    10.5656     0.0504     4.6672 </r>
       <r>    10.6574     0.2887     4.6937 </r>
       <r>    10.7491     0.4115     4.7314 </r>
       <r>    10.8409     0.3545     4.7639 </r>
       <r>    10.9326     0.6326     4.8220 </r>
       <r>    11.0244     1.5911     4.9680 </r>
       <r>    11.1161     0.4239     5.0068 </r>
       <r>    11.2079     1.0190     5.1003 </r>
       <r>    11.2996     0.4977     5.1460 </r>
       <r>    11.3914     0.2362     5.1677 </r>
       <r>    11.4831     0.1561     5.1820 </r>
       <r>    11.5748     0.6145     5.2384 </r>
       <r>    11.6666     0.3199     5.2677 </r>
       <r>    11.7583     0.4756     5.3114 </r>
       <r>    11.8501     0.6796     5.3737 </r>
       <r>    11.9418     0.6706     5.4352 </r>
       <r>    12.0336     0.1562     5.4496 </r>
       <r>    12.1253    -0.0041     5.4492 </r>
       <r>    12.2171     0.0159     5.4506 </r>
       <r>    12.3088     0.2895     5.4772 </r>
       <r>    12.4006     0.2215     5.4975 </r>
       <r>    12.4923     0.6257     5.5549 </r>
       <r>    12.5841    -0.0034     5.5546 </r>
       <r>    12.6758     0.7930     5.6274 </r>
       <r>    12.7675     0.3623     5.6606 </r>
       <r>    12.8593     0.3868     5.6961 </r>
       <r>    12.9510    -0.0177     5.6945 </r>
       <r>    13.0428     0.2490     5.7173 </r>
       <r>    13.1345     0.6570     5.7776 </r>
       <r>    13.2263    -0.0116     5.7765 </r>
       <r>    13.3180     0.2271     5.7974 </r>
       <r>    13.4098     0.3887     5.8330 </r>
       <r>    13.5015     0.3386     5.8641 </r>
       <r>    13.5933     0.0938     5.8727 </r>
       <r>    13.6850     0.4828     5.9170 </r>
       <r>    13.7768     0.0142     5.9183 </r>
       <r>    13.8685     0.1280     5.9301 </r>
       <r>    13.9602    -0.0041     5.9297 </r>
       <r>    14.0520     0.0000     5.9297 </r>
       <r>    14.1437    -0.0018     5.9295 </r>
       <r>    14.2355     0.0854     5.9374 </r>
       <r>    14.3272     0.1717     5.9531 </r>
       <r>    14.4190     0.5289     6.0016 </r>
       <r>    14.5107     0.1073     6.0115 </r>
       <r>    14.6025     0.1719     6.0273 </r>
       <r>    14.6942     0.1858     6.0443 </r>
       <r>    14.7860     0.1554     6.0586 </r>
       <r>    14.8777     0.1880     6.0758 </r>
       <r>    14.9695     0.1958     6.0938 </r>
       <r>    15.0612     0.1895     6.1112 </r>
       <r>    15.1529     0.1201     6.1222 </r>
[...]
       </set>
       <set comment="band 6">
        <r>  0.1336  0.0079  0.1754  0.0085  0.0020  0.5268  0.0726  0.0164  0.0349 </r>
       </set>
       <set comment="band 7">
        <r>  0.3050  0.1128  0.0973  0.0803  0.0261  0.0002  0.0017  0.0427  0.1514 </r>
       </set>
       <set comment="band 8">
        <r>  0.0640  0.0322  0.0322  0.5129  0.0714  0.0017  0.0053  0.1178  0.0516 </r>
       </set>
       <set comment="band 9">
        <r> 43.9796  0.0011  0.0000  0.0009  0.0001  0.0001  0.0000  0.0001  0.0007 </r>
       </set>
      </set>
      <set comment="kpoint 46">
       <set comment="band 1">
        <r>  0.0132  0.1110  0.0033  0.0002  0.0077  0.0000  0.6351  0.0000  0.0903 </r>
       </set>
       <set comment="band 2">
        <r>  0.0134  0.0056  0.0028  0.1692  0.7482  0.0095  0.0013  0.0039  0.0051 </r>
       </set>
       <set comment="band 3">
        <r>  0.0177  0.0002  0.2668  0.0037  0.0153  0.6285  0.0005  0.0047  0.0087 </r>
       </set>
       <set comment="band 4">
        <r>  0.1542  0.0091  0.0140  0.0050  0.0041  0.0077  0.0910  0.0020  0.6139 </r>
       </set>
       <set comment="band 5">
        <r>  0.0071  0.0000  0.0084  0.0112  0.0149  0.0296  0.0000  0.9056  0.0000 </r>
       </set>
       <set comment="band 6">
        <r>  0.4287  0.0018  0.0850  0.0414  0.0308  0.0987  0.0492  0.0498  0.1210 </r>
       </set>
       <set comment="band 7">
        <r>  0.0243  0.0154  0.3443  0.1876  0.0803  0.2046  0.0085  0.0012  0.0418 </r>
       </set>
       <set comment="band 8">
        <r>  0.1027  0.0003  0.1063  0.3795  0.1087  0.0410  0.0440  0.0311  0.0800 </r>
       </set>
       <set comment="band 9">
        <r> 44.1429  0.0001  0.0000  0.0002  0.0000  0.0000  0.0000  0.0000  0.0005 </r>
       </set>
      </set>
      <set comment="kpoint 47">
       <set comment="band 1">
        <r>  0.0466  0.1106  0.0003  0.0461  0.0102  0.0247  0.3652  0.0015  0.2583 </r>
       </set>
       <set comment="band 2">
        <r>  0.0509  0.0094  0.1179  0.0336  0.1507  0.4865  0.0671  0.0295  0.0048 </r>
       </set>
       <set comment="band 3">
        <r>  0.0624  0.0017  0.0563  0.1451  0.3993  0.2373  0.0457  0.0015  0.0000 </r>
       </set>
       <set comment="band 4">
        <r>  0.0484  0.0100  0.0039  0.0737  0.0145  0.0000  0.2322  0.0198  0.5111 </r>
       </set>
       <set comment="band 5">
        <r>  0.0165  0.0004  0.0380  0.0000  0.0282  0.0831  0.0030  0.7791  0.0051 </r>
       </set>
       <set comment="band 6">
        <r>  0.3202  0.0035  0.0060  0.1360  0.3397  0.0007  0.0156  0.0285  0.0774 </r>
       </set>
       <set comment="band 7">
        <r>  0.1665  0.0596  0.1587  0.1506  0.0310  0.0753  0.1685  0.0583  0.0214 </r>
       </set>
       <set comment="band 8">
        <r>  0.0681  0.0258  0.4150  0.0936  0.0210  0.1151  0.0689  0.1059  0.0313 </r>
       </set>
       <set comment="band 9">
        <r> 44.0789  0.0004  0.0007  0.0002  0.0000  0.0001  0.0008  0.0001  0.0001 </r>
       </set>
      </set>
      <set comment="kpoint 48">
       <set comment="band 1">
        <r>  0.0973  0.0091  0.0045  0.0091  0.0895  0.0004  0.6782  0.0004  0.0000 </r>
       </set>
       <set comment="band 2">
        <r>  0.0004  0.0470  0.0000  0.0470  0.8124  0.0008  0.0587  0.0008  0.0000 </r>
       </set>
       <set comment="band 3">
        <r>  0.0177  0.0001  0.5013  0.0001  0.0040  0.1966  0.0106  0.1966  0.0000 </r>
       </set>
       <set comment="band 4">
        <r>  0.0000  0.0335  0.0000  0.0335  0.0000  0.0302  0.0000  0.0302  0.8067 </r>
       </set>
       <set comment="band 5">
        <r>  0.0000  0.0001  0.0000  0.0001  0.0000  0.4537  0.0000  0.4537  0.0666 </r>
       </set>
       <set comment="band 6">
        <r>  0.3061  0.1281  0.1188  0.1281  0.0542  0.0341  0.0000  0.0341  0.0000 </r>
       </set>
       <set comment="band 7">
        <r>  0.1598  0.0060  0.2171  0.0060  0.0038  0.2806  0.0243  0.2806  0.0000 </r>
       </set>
       <set comment="band 8">
        <r> 14.2299  0.0848  0.0236  0.0848  0.0122  0.0071  0.2537  0.0071  0.0000 </r>
       </set>
       <set comment="band 9">
        <r>  0.0000  0.3102  0.0000  0.3101  0.0000  0.0031  0.0000  0.0031  0.1726 </r>
       </set>
      </set>
      <set comment="kpoint 49">
       <set comment="band 1">
        <r>  0.0678  0.0596  0.0044  0.0001  0.0215  0.0004  0.7055  0.0001  0.0143 </r>
       </set>
       <set comment="band 2">
        <r>  0.0009  0.0091  0.0000  0.0922  0.8527  0.0004  0.0131  0.0015  0.0010 </r>
       </set>
       <set comment="band 3">
        <r>  0.0212  0.0007  0.3983  0.0001  0.0017  0.4830  0.0065  0.0117  0.0096 </r>
       </set>
       <set comment="band 4">
        <r>  0.0827  0.0493  0.0200  0.0027  0.0008  0.0019  0.0163  0.0042  0.7308 </r>
       </set>
       <set comment="band 5">
        <r>  0.0061  0.0003  0.0048  0.0128  0.0065  0.0584  0.0001  0.8868  0.0015 </r>
       </set>
       <set comment="band 6">
        <r>  0.1004  0.0000  0.3344  0.0002  0.0000  0.4375  0.0294  0.0639  0.0029 </r>
       </set>
       <set comment="band 7">
        <r>  0.3485  0.0565  0.0700  0.1432  0.0416  0.0257  0.0116  0.0054  0.1441 </r>
       </set>
       <set comment="band 8">
        <r>  0.0807  0.0080  0.0224  0.5078  0.0713  0.0057  0.0440  0.0241  0.0628 </r>
       </set>
       <set comment="band 9">
        <r> 43.8797  0.0018  0.0000  0.0003  0.0000  0.0000  0.0004  0.0000  0.0010 </r>
       </set>
      </set>
      <set comment="kpoint 50">
       <set comment="band 1">
        <r>  0.1489  0.0072  0.0445  0.0072  0.1137  0.0055  0.5589  0.0055  0.0000 </r>
       </set>
       <set comment="band 2">
        <r>  0.0000  0.0494  0.0005  0.0494  0.7565  0.0067  0.0883  0.0067  0.0000 </r>
       </set>
       <set comment="band 3">
        <r>  0.0976  0.0002  0.3658  0.0002  0.0343  0.1641  0.1023  0.1641  0.0000 </r>
       </set>
       <set comment="band 4">
        <r>  0.0000  0.0313  0.0000  0.0313  0.0000  0.1365  0.0000  0.1365  0.5994 </r>
       </set>
       <set comment="band 5">
        <r>  0.0000  0.0002  0.0000  0.0002  0.0000  0.3363  0.0000  0.3363  0.3143 </r>
       </set>
       <set comment="band 6">
        <r>  0.0035  0.0632  0.2470  0.0632  0.0276  0.2276  0.0716  0.2276  0.0000 </r>
       </set>
       <set comment="band 7">
        <r>  0.3947  0.0907  0.0181  0.0907  0.0335  0.0911  0.0103  0.0911  0.0000 </r>
       </set>
       <set comment="band 8">
        <r> 43.7184  0.0006  0.0005  0.0006  0.0001  0.0004  0.0006  0.0004  0.0000 </r>
       </set>
       <set comment="band 9">
        <r>  0.0000  0.3051  0.0000  0.3051  0.0000  0.0259  0.0000  0.0259  0.1160 </r>
       </set>
      </set>
      <set comment="kpoint 51">
       <set comment="band 1">
        <r>  0.5677  0.0359  0.0359  0.0359  0.0751  0.0751  0.0000  0.0751  0.0000 </r>
       </set>
       <set comment="band 2">
        <r>  0.0289  0.0983  0.0983  0.0983  0.1933  0.1933  0.0000  0.1933  0.0000 </r>
       </set>
       <set comment="band 3">
        <r>  0.0000  0.0021  0.0009  0.0006  0.1247  0.0827  0.1638  0.3096  0.2890 </r>
       </set>
       <set comment="band 4">
        <r>  0.0000  0.0002  0.0015  0.0018  0.2200  0.2619  0.2890  0.0351  0.1638 </r>
       </set>
       <set comment="band 5">
        <r>  0.0000  0.0012  0.0075  0.0028  0.2889  0.1068  0.4865  0.0470  0.0104 </r>
       </set>
       <set comment="band 6">
        <r>  0.0000  0.0065  0.0002  0.0049  0.0062  0.1883  0.0104  0.2481  0.4865 </r>
       </set>
       <set comment="band 7">
        <r>  0.0956  0.0225  0.0225  0.0225  0.0317  0.0317  0.0000  0.0317  0.0000 </r>
       </set>
       <set comment="band 8">
        <r> 43.7992  0.0001  0.0001  0.0001  0.0000  0.0000  0.0000  0.0000  0.0000 </r>
       </set>
       <set comment="band 9">
        <r>  0.3684  0.0728  0.0728  0.0728  0.1160  0.1160  0.0000  0.1160  0.0000 </r>
       </set>
      </set>
      <set comment="kpoint 52">
       <set comment="band 1">
        <r>  0.4627  0.0646  0.0646  0.0001  0.0865  0.1529  0.0010  0.0865  0.0029 </r>
       </set>
       <set comment="band 2">
        <r>  0.0262  0.0967  0.0967  0.1458  0.2218  0.0224  0.0155  0.2218  0.0464 </r>
       </set>
       <set comment="band 3">
        <r>  0.0047  0.0043  0.0043  0.0130  0.0799  0.2961  0.1151  0.0799  0.3454 </r>
       </set>
       <set comment="band 4">
        <r>  0.0000  0.0021  0.0021  0.0000  0.1701  0.0000  0.4601  0.1701  0.1534 </r>
       </set>
       <set comment="band 5">
        <r>  0.0000  0.0056  0.0056  0.0000  0.3088  0.0000  0.2354  0.3088  0.0785 </r>
       </set>
       <set comment="band 6">
        <r>  0.0276  0.0286  0.0286  0.0027  0.0147  0.4512  0.1035  0.0147  0.3106 </r>
       </set>
       <set comment="band 7">
        <r>  0.1924  0.0579  0.0579  0.0352  0.0489  0.1173  0.0109  0.0489  0.0328 </r>
       </set>
       <set comment="band 8">
        <r> 43.8833  0.0000  0.0000  0.0000  0.0000  0.0003  0.0000  0.0000  0.0001 </r>
       </set>
       <set comment="band 9">
        <r>  0.2892  0.0649  0.0649  0.0218  0.0563  0.0057  0.0034  0.0563  0.0103 </r>
       </set>
      </set>
      <set comment="kpoint 53">
       <set comment="band 1">
        <r>  0.3033  0.0924  0.0924  0.0066  0.0299  0.3883  0.0000  0.0299  0.0000 </r>
       </set>
       <set comment="band 2">
        <r>  0.0001  0.0726  0.0726  0.0050  0.0010  0.0869  0.1544  0.0010  0.4633 </r>
       </set>
       <set comment="band 3">
        <r>  0.0059  0.0100  0.0100  0.2139  0.3287  0.0424  0.0021  0.3287  0.0063 </r>
       </set>
       <set comment="band 4">
        <r>  0.0000  0.0170  0.0170  0.0000  0.0330  0.0000  0.6249  0.0330  0.2083 </r>
       </set>
       <set comment="band 5">
        <r>  0.0000  0.0014  0.0014  0.0000  0.4401  0.0000  0.0456  0.4401  0.0152 </r>
       </set>
       <set comment="band 6">
        <r>  0.2611  0.0193  0.0193  0.0035  0.0000  0.4791  0.0409  0.0000  0.1226 </r>
       </set>
       <set comment="band 7">
        <r>  0.1825  0.1337  0.1337  0.0382  0.0354  0.0000  0.0632  0.0354  0.1895 </r>
       </set>
       <set comment="band 8">
        <r> 44.0784  0.0001  0.0001  0.0005  0.0003  0.0001  0.0000  0.0003  0.0001 </r>
       </set>
       <set comment="band 9">
        <r>  0.0471  0.0163  0.0163  0.4925  0.2188  0.0004  0.0096  0.2188  0.0289 </r>
       </set>
      </set>
      <set comment="kpoint 54">
       <set comment="band 1">
        <r>  0.1092  0.0000  0.0000  0.0069  0.0053  0.4104  0.0979  0.0053  0.2936 </r>
       </set>
       <set comment="band 2">
        <r>  0.0201  0.1346  0.1346  0.0005  0.0067  0.2804  0.0781  0.0067  0.2342 </r>
       </set>
       <set comment="band 3">
        <r>  0.0040  0.0035  0.0035  0.3344  0.2798  0.0319  0.0008  0.2798  0.0024 </r>
       </set>
       <set comment="band 4">
        <r>  0.0000  0.0288  0.0288  0.0000  0.0260  0.0000  0.6135  0.0260  0.2045 </r>
       </set>
       <set comment="band 5">
        <r>  0.0000  0.0008  0.0008  0.0000  0.4507  0.0000  0.0379  0.4507  0.0126 </r>
       </set>
       <set comment="band 6">
        <r>  0.4894  0.0497  0.0497  0.0120  0.0008  0.2201  0.0033  0.0008  0.0099 </r>
       </set>
       <set comment="band 7">
        <r>  0.0625  0.0313  0.0313  0.3342  0.2145  0.0061  0.0263  0.2145  0.0788 </r>
       </set>
       <set comment="band 8">
        <r>  0.9054  0.1043  0.1043  0.1428  0.0558  0.0217  0.0840  0.0558  0.2519 </r>
       </set>
       <set comment="band 9">
        <r> 43.2955  0.0031  0.0031  0.0035  0.0012  0.0004  0.0032  0.0012  0.0095 </r>
       </set>
      </set>
      <set comment="kpoint 55">
       <set comment="band 1">
        <r>  0.3855  0.0022  0.0780  0.0022  0.1885  0.1335  0.0189  0.1335  0.0000 </r>
       </set>
       <set comment="band 2">
        <r>  0.0129  0.1286  0.0706  0.1286  0.0939  0.0525  0.3258  0.0525  0.0000 </r>
       </set>
       <set comment="band 3">
        <r>  0.0287  0.0239  0.0639  0.0239  0.4327  0.0466  0.2896  0.0466  0.0000 </r>
       </set>
       <set comment="band 4">
        <r>  0.0000  0.0097  0.0000  0.0097  0.0000  0.2081  0.0000  0.2081  0.5272 </r>
       </set>
       <set comment="band 5">
        <r>  0.0089  0.0277  0.0952  0.0277  0.1732  0.1592  0.2851  0.1592  0.0000 </r>
       </set>
       <set comment="band 6">
        <r>  0.0000  0.0018  0.0000  0.0018  0.0000  0.2742  0.0000  0.2742  0.4305 </r>
       </set>
       <set comment="band 7">
        <r>  0.3075  0.0405  0.0380  0.0405  0.0633  0.1355  0.0035  0.1355  0.0000 </r>
       </set>
       <set comment="band 8">
        <r> 43.3880  0.0000  0.0005  0.0000  0.0002  0.0001  0.0006  0.0001  0.0000 </r>
       </set>
       <set comment="band 9">
        <r>  0.7585  0.0175  0.0525  0.0175  0.0555  0.0044  0.0483  0.0044  0.0000 </r>
       </set>
      </set>
      <set comment="kpoint 56">
       <set comment="band 1">
        <r>  0.2621  0.0130  0.0910  0.0192  0.2364  0.2067  0.0387  0.0822  0.0001 </r>
       </set>
       <set comment="band 2">
        <r>  0.0001  0.1122  0.0169  0.0470  0.0139  0.0664  0.4738  0.0128  0.1194 </r>
       </set>
       <set comment="band 3">
        <r>  0.0247  0.0270  0.0995  0.1178  0.4111  0.2124  0.0221  0.0096  0.0227 </r>
       </set>
       <set comment="band 4">
        <r>  0.0002  0.0046  0.0425  0.0099  0.0234  0.0112  0.1585  0.1994  0.4909 </r>
       </set>
       <set comment="band 5">
        <r>  0.0135  0.0027  0.0209  0.0141  0.1392  0.0546  0.0695  0.4984  0.1338 </r>
       </set>
       <set comment="band 6">
        <r>  0.1129  0.0262  0.1029  0.0480  0.0240  0.4199  0.1308  0.0062  0.0888 </r>
       </set>
       <set comment="band 7">
        <r>  0.3514  0.0506  0.0538  0.0592  0.0927  0.0203  0.0047  0.1444  0.0900 </r>
       </set>
       <set comment="band 8">
        <r> 44.0540  0.0000  0.0000  0.0002  0.0001  0.0002  0.0000  0.0002  0.0000 </r>
       </set>
       <set comment="band 9">
        <r>  0.0001  0.0178  0.0208  0.1031  0.0663  0.0286  0.1197  0.0197  0.0457 </r>
       </set>
      </set>
      <set comment="kpoint 57">
       <set comment="band 1">
        <r>  0.0300  0.0729  0.0000  0.0054  0.0019  0.1185  0.3421  0.0010  0.3045 </r>
       </set>
       <set comment="band 2">
        <r>  0.0737  0.0587  0.1543  0.0076  0.0339  0.5250  0.0690  0.0094  0.0087 </r>
       </set>
       <set comment="band 3">
        <r>  0.0022  0.0037  0.0139  0.2608  0.5622  0.0531  0.0020  0.0482  0.0000 </r>
       </set>
       <set comment="band 4">
        <r>  0.0712  0.0050  0.0356  0.0078  0.0001  0.0154  0.3315  0.0178  0.4289 </r>
       </set>
       <set comment="band 5">
        <r>  0.0212  0.0001  0.0016  0.0201  0.1573  0.0172  0.0026  0.7319  0.0030 </r>
       </set>
       <set comment="band 6">
        <r>  0.4169  0.0131  0.1195  0.0084  0.0006  0.1925  0.0792  0.0301  0.0154 </r>
       </set>
       <set comment="band 7">
        <r>  0.0687  0.0216  0.0746  0.3345  0.2095  0.0182  0.0144  0.1252  0.0904 </r>
       </set>
       <set comment="band 8">
        <r>  0.1408  0.0318  0.2238  0.1858  0.0703  0.0485  0.0060  0.0565  0.2231 </r>
       </set>
       <set comment="band 9">
        <r> 44.0830  0.0002  0.0011  0.0007  0.0002  0.0001  0.0001  0.0001  0.0021 </r>
       </set>
      </set>
      <set comment="kpoint 58">
       <set comment="band 1">
        <r>  0.1829  0.0025  0.0501  0.0025  0.4239  0.0558  0.1752  0.0558  0.0000 </r>
       </set>
       <set comment="band 2">
        <r>  0.0041  0.1134  0.0005  0.1134  0.0953  0.0271  0.4917  0.0271  0.0000 </r>
       </set>
       <set comment="band 3">
        <r>  0.0242  0.0242  0.2506  0.0242  0.2224  0.1839  0.0287  0.1839  0.0000 </r>
       </set>
       <set comment="band 4">
        <r>  0.0000  0.0219  0.0000  0.0219  0.0000  0.1155  0.0000  0.1155  0.6627 </r>
       </set>
       <set comment="band 5">
        <r>  0.0000  0.0014  0.0000  0.0014  0.0000  0.3659  0.0000  0.3659  0.2329 </r>
       </set>
       <set comment="band 6">
        <r>  0.2375  0.0860  0.1374  0.0860  0.2120  0.0030  0.0753  0.0030  0.0000 </r>
       </set>
       <set comment="band 7">
        <r>  0.2988  0.0102  0.0985  0.0102  0.0008  0.2215  0.1144  0.2215  0.0000 </r>
       </set>
       <set comment="band 8">
        <r> 43.9372  0.0001  0.0005  0.0001  0.0001  0.0003  0.0002  0.0003  0.0000 </r>
       </set>
       <set comment="band 9">
        <r>  0.1743  0.0389  0.1992  0.0389  0.0014  0.0639  0.2906  0.0639  0.0000 </r>
       </set>
      </set>
      <set comment="kpoint 59">
       <set comment="band 1">
        <r>  0.3787  0.0050  0.0050  0.0050  0.1894  0.1894  0.0000  0.1894  0.0000 </r>
       </set>
       <set comment="band 2">
        <r>  0.0000  0.0001  0.0001  0.0002  0.0622  0.2504  0.1358  0.0834  0.4409 </r>
       </set>
       <set comment="band 3">
        <r>  0.0000  0.0002  0.0002  0.0000  0.2018  0.0136  0.4409  0.1806  0.1358 </r>
       </set>
       <set comment="band 4">
        <r>  0.0218  0.2383  0.2383  0.2383  0.0295  0.0295  0.0000  0.0295  0.0000 </r>
       </set>
       <set comment="band 5">
        <r>  0.0000  0.0002  0.0024  0.0013  0.3586  0.1974  0.3491  0.0323  0.0327 </r>
       </set>
       <set comment="band 6">
        <r>  0.0000  0.0024  0.0002  0.0013  0.0336  0.1948  0.0327  0.3599  0.3491 </r>
       </set>
       <set comment="band 7">
        <r>  0.3594  0.0106  0.0106  0.0106  0.1327  0.1327  0.0000  0.1327  0.0000 </r>
       </set>
       <set comment="band 8">
        <r>  0.0380  0.0266  0.0266  0.0266  0.0257  0.0257  0.0000  0.0257  0.0000 </r>
       </set>
       <set comment="band 9">
        <r> 44.1380  0.0001  0.0001  0.0001  0.0004  0.0004  0.0000  0.0004  0.0000 </r>
       </set>
      </set>
      <set comment="kpoint 60">
       <set comment="band 1">
        <r>  0.3178  0.0112  0.0112  0.0182  0.1788  0.2494  0.0002  0.1788  0.0006 </r>
       </set>
       <set comment="band 2">
        <r>  0.0003  0.0832  0.0832  0.0279  0.0145  0.0724  0.1440  0.0145  0.4320 </r>
       </set>
       <set comment="band 3">
        <r>  0.0015  0.1255  0.1255  0.2002  0.1076  0.2171  0.0081  0.1076  0.0244 </r>
       </set>
       <set comment="band 4">
        <r>  0.0000  0.0053  0.0053  0.0000  0.1686  0.0000  0.4600  0.1686  0.1533 </r>
       </set>
       <set comment="band 5">
        <r>  0.0000  0.0021  0.0021  0.0000  0.3205  0.0000  0.2421  0.3205  0.0807 </r>
       </set>
       <set comment="band 6">
        <r>  0.0222  0.0433  0.0433  0.0622  0.0428  0.3699  0.0815  0.0428  0.2446 </r>
       </set>
       <set comment="band 7">
        <r>  0.4586  0.0069  0.0069  0.0061  0.1619  0.0972  0.0050  0.1619  0.0150 </r>
       </set>
       <set comment="band 8">
        <r>  0.0147  0.0128  0.0128  0.0238  0.0160  0.0223  0.0072  0.0160  0.0215 </r>
       </set>
       <set comment="band 9">
        <r> 44.0920  0.0000  0.0000  0.0001  0.0003  0.0001  0.0000  0.0003  0.0000 </r>
       </set>
      </set>
     </set>
    </set>
   </array>
  </projected>
 </calculation>
 <structure name="finalpos" >
  <crystal>
   <varray name="basis" >
    <v>       0.00000000       2.11500000       2.11500000 </v>
    <v>       2.11500000       0.00000000       2.11500000 </v>
    <v>       2.11500000       2.11500000       0.00000000 </v>
   </varray>
   <i name="volume">     18.92174175 </i>
   <varray name="rec_basis" >
    <v>      -0.23640662       0.23640662       0.23640662 </v>
    <v>       0.23640662      -0.23640662       0.23640662 </v>
    <v>       0.23640662       0.23640662      -0.23640662 </v>
   </varray>
  </crystal>
  <varray name="positions" >
   <v>       0.00000000       0.00000000       0.00000000 </v>
  </varray>
 </structure>
</modeling>
