   1   1   1   0
  0.1805030E+02  0.2862214E-09  0.2862214E-09  0.2862214E-09  0.5000000E-15
  1.000000000000000E-004
  CAR 
 unknown system                          
     26.40257149     -2.95093177  301      5.66602939      1.00000000
     -2.951  0.0000E+00  0.0000E+00  0.0000E+00  0.0000E+00
     -2.853  0.0000E+00  0.0000E+00  0.0000E+00  0.0000E+00
     -2.755  0.0000E+00  0.0000E+00  0.0000E+00  0.0000E+00
     -2.657  0.0000E+00  0.0000E+00  0.0000E+00  0.0000E+00
     -2.560  0.0000E+00  0.0000E+00  0.0000E+00  0.0000E+00
     -2.462  0.0000E+00  0.0000E+00  0.0000E+00  0.0000E+00
     -2.364  0.0000E+00  0.0000E+00  0.0000E+00  0.0000E+00
     -2.266  0.0000E+00  0.0000E+00  0.0000E+00  0.0000E+00
     -2.168  0.0000E+00  0.0000E+00  0.0000E+00  0.0000E+00
     -2.070 -0.1292E-35  0.0000E+00 -0.1264E-36  0.0000E+00
     -1.972 -0.5811E-22 -0.1785E-36 -0.5685E-23 -0.1747E-37
     -1.875 -0.1098E-11 -0.1234E-22 -0.1074E-12 -0.1208E-23
     -1.777 -0.8188E-05 -0.3600E-12 -0.8011E-06 -0.3522E-13
     -1.679 -0.1004E-01 -0.4187E-05 -0.9832E-03 -0.4097E-06
     -1.581  0.2837E+00 -0.9450E-02  0.2677E-01 -0.9250E-03
     -1.483  0.1041E-01  0.2710E+00  0.2779E-01  0.2559E-01
     -1.385 -0.1499E-03  0.2264E-01  0.2778E-01  0.2780E-01
     -1.288 -0.1807E-09 -0.2511E-03  0.2778E-01  0.2778E-01
     -1.190  0.0000E+00 -0.4771E-09  0.2778E-01  0.2778E-01
     -1.092  0.0000E+00  0.0000E+00  0.2778E-01  0.2778E-01
     -0.994 -0.2533E-33  0.0000E+00  0.2778E-01  0.2778E-01
     -0.896 -0.3758E-20 -0.4308E-34  0.2778E-01  0.2778E-01
     -0.798 -0.2315E-10 -0.9513E-21  0.2778E-01  0.2778E-01
     -0.700 -0.5459E-04 -0.8762E-11  0.2777E-01  0.2778E-01
     -0.603 -0.7894E-02 -0.3126E-04  0.2700E-01  0.2777E-01
     -0.505  0.3957E+00 -0.1156E-01  0.6572E-01  0.2664E-01
     -0.407 -0.9173E-02  0.3939E+00  0.6482E-01  0.6518E-01
     -0.309 -0.4672E-04 -0.3694E-02  0.6481E-01  0.6482E-01
     -0.211 -0.1762E-10 -0.8029E-04  0.6481E-01  0.6481E-01
     -0.113 -0.1661E-32 -0.4587E-10  0.6481E-01  0.6481E-01
     -0.016 -0.2064E-19 -0.3923E-33  0.6481E-01  0.6481E-01
      0.082 -0.1063E-09 -0.6756E-20  0.6481E-01  0.6481E-01
      0.180 -0.2084E-03 -0.4839E-10  0.6479E-01  0.6481E-01
      0.278 -0.1637E-01 -0.1333E-03  0.6319E-01  0.6480E-01
      0.376  0.1185E+01 -0.2863E-01  0.1791E+00  0.6200E-01
      0.474 -0.3237E-01  0.1187E+01  0.1759E+00  0.1781E+00
      0.571 -0.1094E-03 -0.2231E-01  0.1759E+00  0.1759E+00
      0.669 -0.3429E-10 -0.1721E-03  0.1759E+00  0.1759E+00
      0.767  0.0000E+00 -0.7582E-10  0.1759E+00  0.1759E+00
      0.865  0.0000E+00  0.0000E+00  0.1759E+00  0.1759E+00
      0.963  0.0000E+00  0.0000E+00  0.1759E+00  0.1759E+00
      1.061  0.0000E+00  0.0000E+00  0.1759E+00  0.1759E+00
      1.159 -0.2675E-29  0.0000E+00  0.1759E+00  0.1759E+00
      1.256 -0.6218E-17 -0.7771E-30  0.1759E+00  0.1759E+00
      1.354 -0.6128E-08 -0.2486E-17  0.1759E+00  0.1759E+00
      1.452 -0.2351E-02 -0.3380E-08  0.1757E+00  0.1759E+00
      1.550  0.2075E+00 -0.1778E-02  0.1960E+00  0.1758E+00
      1.648  0.2139E+01  0.1499E+00  0.4053E+00  0.1904E+00
      1.746 -0.7279E-01  0.2200E+01  0.3982E+00  0.4056E+00
      1.843 -0.2986E-02 -0.7649E-01  0.3979E+00  0.3982E+00
      1.941  0.2353E+00 -0.2747E-02  0.4209E+00  0.3979E+00
      2.039  0.6360E+00  0.2212E+00  0.4831E+00  0.4195E+00
      2.137 -0.3903E-01  0.6507E+00  0.4793E+00  0.4832E+00
      2.235  0.9132E+00 -0.3964E-01  0.5686E+00  0.4793E+00
      2.333  0.6111E+00  0.9422E+00  0.6284E+00  0.5715E+00
      2.431  0.2072E+00  0.6411E+00  0.6487E+00  0.6342E+00
      2.528 -0.5830E-02  0.1451E+00  0.6481E+00  0.6484E+00
      2.626 -0.3468E-05 -0.2868E-02  0.6481E+00  0.6481E+00
      2.724 -0.2523E-01 -0.3375E-05  0.6457E+00  0.6481E+00
      2.822  0.8817E+00 -0.2656E-01  0.7320E+00  0.6455E+00
      2.920  0.1444E+01  0.9463E+00  0.8732E+00  0.7381E+00
      3.018  0.3804E+00  0.1378E+01  0.9104E+00  0.8730E+00
      3.115  0.3147E+00  0.5453E+00  0.9412E+00  0.9264E+00
      3.213  0.1162E+01  0.1467E+00  0.1055E+01  0.9407E+00
      3.311  0.7019E-02  0.1139E+01  0.1056E+01  0.1052E+01
      3.409 -0.3559E-03  0.3525E-01  0.1056E+01  0.1056E+01
      3.507 -0.9983E-07 -0.5519E-03  0.1056E+01  0.1056E+01
      3.605 -0.6885E-02 -0.7209E-06  0.1055E+01  0.1056E+01
      3.703  0.4548E+00 -0.1553E-01  0.1099E+01  0.1054E+01
      3.800  0.7028E+00  0.7137E+00  0.1168E+01  0.1124E+01
      3.898 -0.1507E-01  0.4441E+00  0.1167E+01  0.1167E+01
      3.996 -0.3723E-02 -0.6623E-02  0.1166E+01  0.1167E+01
      4.094  0.2384E+00 -0.2637E-02  0.1190E+01  0.1166E+01
      4.192  0.3390E+00  0.1921E+00  0.1223E+01  0.1185E+01
      4.290  0.8352E-01  0.3862E+00  0.1231E+01  0.1223E+01
      4.387  0.1830E+01  0.8632E-01  0.1410E+01  0.1231E+01
      4.485  0.1326E+01  0.1968E+01  0.1540E+01  0.1424E+01
      4.583  0.6105E+00  0.1098E+01  0.1600E+01  0.1531E+01
      4.681  0.2070E+01  0.6343E+00  0.1802E+01  0.1593E+01
      4.779  0.1782E+00  0.2130E+01  0.1819E+01  0.1802E+01
      4.877  0.1105E+00  0.2588E+00  0.1830E+01  0.1827E+01
      4.975  0.1107E+01  0.2912E-01  0.1939E+01  0.1830E+01
      5.072  0.2031E+01  0.1228E+01  0.2137E+01  0.1950E+01
      5.170  0.3039E+00  0.1927E+01  0.2167E+01  0.2139E+01
      5.268 -0.4434E-02  0.2900E+00  0.2167E+01  0.2167E+01
      5.366 -0.2918E-01 -0.3993E-02  0.2164E+01  0.2167E+01
      5.464  0.9656E+00 -0.2475E-01  0.2258E+01  0.2164E+01
      5.562  0.1471E+01  0.8879E+00  0.2402E+01  0.2251E+01
      5.659  0.1811E+01  0.1545E+01  0.2579E+01  0.2402E+01
      5.757 -0.5488E-01  0.1811E+01  0.2574E+01  0.2580E+01
      5.855 -0.1316E-03 -0.5560E-01  0.2574E+01  0.2574E+01
      5.953 -0.3510E-01 -0.2244E-03  0.2571E+01  0.2574E+01
      6.051  0.1181E+01 -0.1755E-01  0.2686E+01  0.2572E+01
      6.149 -0.9901E-02  0.1185E+01  0.2685E+01  0.2688E+01
      6.246 -0.5021E-03 -0.3174E-01  0.2685E+01  0.2685E+01
      6.344  0.1438E-01 -0.2988E-03  0.2687E+01  0.2685E+01
      6.442  0.5887E+00  0.4480E-02  0.2744E+01  0.2686E+01
      6.540  0.3533E+00  0.5898E+00  0.2779E+01  0.2743E+01
      6.638  0.5749E+00  0.3640E+00  0.2835E+01  0.2779E+01
      6.736  0.6870E-01  0.5737E+00  0.2842E+01  0.2835E+01
      6.834  0.1677E+00  0.5687E-01  0.2858E+01  0.2841E+01
      6.931  0.1051E+01  0.1812E+00  0.2961E+01  0.2858E+01
      7.029  0.7043E+00  0.1021E+01  0.3030E+01  0.2958E+01
      7.127 -0.2113E-01  0.7310E+00  0.3028E+01  0.3030E+01
      7.225 -0.2595E-04 -0.2076E-01  0.3028E+01  0.3028E+01
      7.323 -0.4891E-11 -0.3239E-04  0.3028E+01  0.3028E+01
      7.421 -0.3586E-05 -0.7184E-11  0.3028E+01  0.3028E+01
      7.518 -0.2667E-01 -0.5368E-05  0.3025E+01  0.3028E+01
      7.616  0.9214E+00 -0.2982E-01  0.3115E+01  0.3025E+01
      7.714  0.2436E+00  0.9688E+00  0.3139E+01  0.3120E+01
      7.812 -0.2796E-02  0.1987E+00  0.3139E+01  0.3139E+01
      7.910 -0.1440E-07 -0.2182E-02  0.3139E+01  0.3139E+01
      8.008 -0.9799E-06 -0.8707E-08  0.3139E+01  0.3139E+01
      8.106 -0.1740E-01 -0.8763E-05  0.3137E+01  0.3139E+01
      8.203  0.7403E+00 -0.3356E-01  0.3210E+01  0.3136E+01
      8.301  0.1095E+01  0.9982E+00  0.3317E+01  0.3233E+01
      8.399  0.4604E+00  0.1027E+01  0.3362E+01  0.3334E+01
      8.497 -0.1451E-01  0.2832E+00  0.3360E+01  0.3361E+01
      8.595  0.2815E+00 -0.1100E-01  0.3388E+01  0.3360E+01
      8.693  0.9570E-01  0.2853E+00  0.3397E+01  0.3388E+01
      8.790  0.2507E+00  0.1127E+00  0.3422E+01  0.3399E+01
      8.888  0.9609E+00  0.2425E+00  0.3516E+01  0.3423E+01
      8.986  0.1647E+01  0.1095E+01  0.3677E+01  0.3530E+01
      9.084  0.1154E+01  0.1597E+01  0.3790E+01  0.3686E+01
      9.182 -0.2884E-01  0.1067E+01  0.3787E+01  0.3791E+01
      9.280 -0.1334E-03 -0.3907E-01  0.3787E+01  0.3787E+01
      9.378 -0.8521E-02 -0.3414E-04  0.3786E+01  0.3787E+01
      9.475  0.4305E+00 -0.2574E-01  0.3828E+01  0.3785E+01
      9.573  0.3145E+00  0.7315E+00  0.3859E+01  0.3856E+01
      9.671  0.9079E+00  0.1294E-01  0.3948E+01  0.3857E+01
      9.769  0.2428E+00  0.1166E+01  0.3972E+01  0.3971E+01
      9.867  0.3673E+00 -0.1139E-01  0.4008E+01  0.3970E+01
      9.965  0.2068E+00  0.5478E+00  0.4028E+01  0.4024E+01
     10.062  0.1213E+00  0.2985E-01  0.4040E+01  0.4027E+01
     10.160  0.5509E+00  0.2477E+00  0.4094E+01  0.4051E+01
     10.258  0.1238E+01  0.8665E+00  0.4215E+01  0.4136E+01
     10.356  0.7145E+00  0.1309E+01  0.4285E+01  0.4264E+01
     10.454  0.1408E+01  0.2117E+00  0.4422E+01  0.4285E+01
     10.552  0.1317E+01  0.1775E+01  0.4551E+01  0.4458E+01
     10.650  0.1032E+01  0.1003E+01  0.4652E+01  0.4557E+01
     10.747  0.1642E+01  0.1470E+01  0.4813E+01  0.4700E+01
     10.845  0.3032E+00  0.1275E+01  0.4843E+01  0.4825E+01
     10.943 -0.9122E-02  0.1817E+00  0.4842E+01  0.4843E+01
     11.041  0.1153E+01  0.2424E+00  0.4955E+01  0.4867E+01
     11.139  0.8837E+00  0.8767E+00  0.5041E+01  0.4952E+01
     11.237  0.2456E+00  0.1094E+01  0.5065E+01  0.5059E+01
     11.334 -0.2826E-02  0.5526E-01  0.5065E+01  0.5065E+01
     11.432 -0.1473E-07 -0.7048E-03  0.5065E+01  0.5065E+01
     11.530 -0.8455E-29 -0.9774E-09  0.5065E+01  0.5065E+01
     11.628 -0.1018E-16 -0.4504E-27  0.5065E+01  0.5065E+01
     11.726 -0.4922E-08 -0.2022E-15  0.5065E+01  0.5065E+01
     11.824 -0.8245E-03 -0.3587E-07  0.5065E+01  0.5065E+01
     11.922  0.2697E-01 -0.2051E-02  0.5067E+01  0.5065E+01
     12.019  0.1629E+01  0.7219E-01  0.5227E+01  0.5072E+01
     12.117  0.2905E+01  0.1876E+01  0.5511E+01  0.5255E+01
     12.215  0.2705E+00  0.2799E+01  0.5537E+01  0.5529E+01
     12.313 -0.3848E-02  0.8206E-01  0.5537E+01  0.5537E+01
     12.411 -0.1470E-02 -0.1404E-02  0.5537E+01  0.5537E+01
     12.509  0.1379E+00 -0.4209E-02  0.5550E+01  0.5537E+01
     12.606  0.1025E+01  0.3298E+00  0.5651E+01  0.5569E+01
     12.704  0.2592E+00  0.8213E+00  0.5676E+01  0.5649E+01
     12.802  0.6889E-01  0.2654E+00  0.5683E+01  0.5675E+01
     12.900  0.2495E-01  0.5754E-01  0.5685E+01  0.5681E+01
     12.998 -0.3072E-03  0.4514E-01  0.5685E+01  0.5685E+01
     13.096 -0.2131E-08 -0.7755E-03  0.5685E+01  0.5685E+01
     13.193  0.0000E+00 -0.1666E-07  0.5685E+01  0.5685E+01
     13.291  0.0000E+00 -0.1051E-15  0.5685E+01  0.5685E+01
     13.389  0.0000E+00  0.0000E+00  0.5685E+01  0.5685E+01
     13.487  0.0000E+00  0.0000E+00  0.5685E+01  0.5685E+01
     13.585  0.0000E+00  0.0000E+00  0.5685E+01  0.5685E+01
     13.683  0.0000E+00  0.0000E+00  0.5685E+01  0.5685E+01
     13.781  0.0000E+00  0.0000E+00  0.5685E+01  0.5685E+01
     13.878  0.0000E+00  0.0000E+00  0.5685E+01  0.5685E+01
     13.976  0.0000E+00  0.0000E+00  0.5685E+01  0.5685E+01
     14.074 -0.1928E-28 -0.9118E-41  0.5685E+01  0.5685E+01
     14.172 -0.2247E-16 -0.5774E-26  0.5685E+01  0.5685E+01
     14.270 -0.1052E-07 -0.1585E-14  0.5685E+01  0.5685E+01
     14.368 -0.1679E-02 -0.1772E-06  0.5685E+01  0.5685E+01
     14.465  0.1402E+00 -0.5893E-02  0.5699E+01  0.5685E+01
     14.563  0.4414E+00  0.3093E+00  0.5742E+01  0.5715E+01
     14.661 -0.1213E-01  0.2690E+00  0.5741E+01  0.5741E+01
     14.759 -0.1311E-05 -0.4576E-02  0.5741E+01  0.5741E+01
     14.857 -0.3793E-08 -0.9608E-07  0.5741E+01  0.5741E+01
     14.955 -0.1434E-02 -0.1451E-08  0.5741E+01  0.5741E+01
     15.053  0.1345E+00 -0.8695E-03  0.5754E+01  0.5741E+01
     15.150  0.1037E+01  0.7524E-01  0.5855E+01  0.5748E+01
     15.248 -0.3967E-01  0.1100E+01  0.5851E+01  0.5856E+01
     15.346  0.3734E+00 -0.5429E-01  0.5888E+01  0.5850E+01
     15.444  0.7861E+00  0.7136E+00  0.5965E+01  0.5920E+01
     15.542 -0.1906E-01  0.4441E+00  0.5963E+01  0.5964E+01
     15.640 -0.2072E-01 -0.6834E-02  0.5961E+01  0.5963E+01
     15.737  0.1277E+01 -0.2843E-01  0.6086E+01  0.5960E+01
     15.835  0.7273E+00  0.1494E+01  0.6157E+01  0.6106E+01
     15.933  0.6807E+00  0.5930E+00  0.6224E+01  0.6164E+01
     16.031 -0.1428E-01  0.6022E+00  0.6222E+01  0.6223E+01
     16.129 -0.5514E-02 -0.1124E-01  0.6222E+01  0.6222E+01
     16.227  0.2984E+00 -0.7122E-02  0.6251E+01  0.6222E+01
     16.325  0.2798E+00  0.3415E+00  0.6278E+01  0.6255E+01
     16.422 -0.4908E-02  0.2371E+00  0.6278E+01  0.6278E+01
     16.520 -0.1135E-06 -0.3689E-02  0.6278E+01  0.6278E+01
     16.618 -0.3061E-05 -0.5823E-07  0.6278E+01  0.6278E+01
     16.716 -0.1907E-01 -0.6106E-05  0.6276E+01  0.6278E+01
     16.814  0.6339E+00 -0.2259E-01  0.6338E+01  0.6276E+01
     16.912  0.1438E+00  0.6845E+00  0.6352E+01  0.6343E+01
     17.009 -0.2881E-02  0.9618E-01  0.6352E+01  0.6352E+01
     17.107  0.1133E+00 -0.2236E-02  0.6363E+01  0.6352E+01
     17.205  0.4697E+00  0.1085E+00  0.6409E+01  0.6362E+01
     17.303 -0.1392E-01  0.4748E+00  0.6407E+01  0.6409E+01
     17.401 -0.2082E-05 -0.1426E-01  0.6407E+01  0.6407E+01
     17.499 -0.7501E-13 -0.2272E-05  0.6407E+01  0.6407E+01
     17.597 -0.1554E-21 -0.8636E-13  0.6407E+01  0.6407E+01
     17.694 -0.3289E-11 -0.5951E-20  0.6407E+01  0.6407E+01
     17.792 -0.2755E-04 -0.4424E-10  0.6407E+01  0.6407E+01
     17.890 -0.3984E-01 -0.1266E-03  0.6404E+01  0.6407E+01
     17.988  0.1123E+01 -0.2969E-01  0.6513E+01  0.6404E+01
     18.086  0.5312E-01  0.1186E+01  0.6519E+01  0.6521E+01
     18.184 -0.2585E-02 -0.2086E-01  0.6518E+01  0.6519E+01
     18.281  0.1532E+00 -0.2693E-02  0.6533E+01  0.6518E+01
     18.379  0.3920E+00  0.1859E+00  0.6572E+01  0.6536E+01
     18.477  0.1041E+01  0.3543E+00  0.6674E+01  0.6571E+01
     18.575  0.3733E+00  0.1194E+01  0.6710E+01  0.6688E+01
     18.673  0.1143E+01  0.2370E+00  0.6822E+01  0.6711E+01
     18.771  0.2260E-01  0.1179E+01  0.6824E+01  0.6826E+01
     18.869 -0.4615E-03 -0.2457E-01  0.6824E+01  0.6824E+01
     18.966 -0.4461E-09 -0.1583E-03  0.6824E+01  0.6824E+01
     19.064 -0.1061E-12 -0.6546E-10  0.6824E+01  0.6824E+01
     19.162 -0.3353E-05 -0.5421E-12  0.6824E+01  0.6824E+01
     19.260 -0.2615E-01 -0.9227E-05  0.6822E+01  0.6824E+01
     19.358  0.9057E+00 -0.3394E-01  0.6910E+01  0.6821E+01
     19.456  0.7318E+00  0.1006E+01  0.6982E+01  0.6919E+01
     19.553  0.7397E+00  0.9701E+00  0.7054E+01  0.7014E+01
     19.651  0.1156E+01  0.5472E+00  0.7167E+01  0.7068E+01
     19.749  0.1075E+01  0.1153E+01  0.7272E+01  0.7181E+01
     19.847 -0.4066E-01  0.9284E+00  0.7268E+01  0.7271E+01
     19.945 -0.5334E-01 -0.4073E-01  0.7263E+01  0.7267E+01
     20.043  0.7525E+01  0.9396E+00  0.8000E+01  0.7359E+01
     20.140  0.3862E+01  0.1056E+02  0.8377E+01  0.8393E+01
     20.238 -0.7551E-01 -0.2270E+00  0.8370E+01  0.8370E+01
     20.336  0.1629E+00 -0.7787E-02  0.8386E+01  0.8370E+01
     20.434  0.1263E+00  0.2290E+00  0.8398E+01  0.8392E+01
     20.532 -0.2051E-02  0.6220E-01  0.8398E+01  0.8398E+01
     20.630 -0.2266E-03 -0.7180E-03  0.8398E+01  0.8398E+01
     20.728 -0.5914E-01 -0.3144E-03  0.8392E+01  0.8398E+01
     20.825  0.2323E+01 -0.4146E-01  0.8620E+01  0.8394E+01
     20.923  0.8505E-02  0.2277E+01  0.8620E+01  0.8617E+01
     21.021 -0.7016E-03  0.3693E-01  0.8620E+01  0.8620E+01
     21.119 -0.7257E-09 -0.9352E-03  0.8620E+01  0.8620E+01
     21.217  0.0000E+00 -0.1438E-08  0.8620E+01  0.8620E+01
     21.315 -0.1190E-29  0.0000E+00  0.8620E+01  0.8620E+01
     21.412 -0.2718E-17 -0.1833E-30  0.8620E+01  0.8620E+01
     21.510 -0.2519E-08 -0.6035E-18  0.8620E+01  0.8620E+01
     21.608 -0.8284E-03 -0.8416E-09  0.8620E+01  0.8620E+01
     21.706  0.7487E-01 -0.4495E-03  0.8628E+01  0.8620E+01
     21.804  0.6723E+00  0.3722E-01  0.8693E+01  0.8624E+01
     21.902  0.2044E+00  0.6434E+00  0.8713E+01  0.8687E+01
     22.000 -0.4483E-02  0.2742E+00  0.8713E+01  0.8714E+01
     22.097 -0.1645E-06 -0.8041E-02  0.8713E+01  0.8713E+01
     22.195 -0.2928E-05 -0.8534E-06  0.8713E+01  0.8713E+01
     22.293 -0.2511E-01 -0.2714E-04  0.8711E+01  0.8713E+01
     22.391  0.8967E+00 -0.3981E-01  0.8798E+01  0.8709E+01
     22.489  0.2672E+00  0.1122E+01  0.8824E+01  0.8819E+01
     22.587 -0.3151E-02  0.5416E-01  0.8824E+01  0.8824E+01
     22.684 -0.3071E-05 -0.6960E-03  0.8824E+01  0.8824E+01
     22.782 -0.2656E-01 -0.1086E-04  0.8821E+01  0.8824E+01
     22.880  0.9967E+00 -0.3667E-01  0.8919E+01  0.8820E+01
     22.978  0.5550E+00  0.1163E+01  0.8973E+01  0.8934E+01
     23.076 -0.1106E-01  0.3953E+00  0.8972E+01  0.8973E+01
     23.174 -0.8540E-06 -0.7926E-02  0.8972E+01  0.8972E+01
     23.272 -0.2227E-13 -0.4650E-06  0.8972E+01  0.8972E+01
     23.369  0.0000E+00 -0.8741E-14  0.8972E+01  0.8972E+01
     23.467  0.0000E+00  0.0000E+00  0.8972E+01  0.8972E+01
     23.565  0.0000E+00  0.0000E+00  0.8972E+01  0.8972E+01
     23.663  0.0000E+00  0.0000E+00  0.8972E+01  0.8972E+01
     23.761  0.0000E+00  0.0000E+00  0.8972E+01  0.8972E+01
     23.859  0.0000E+00  0.0000E+00  0.8972E+01  0.8972E+01
     23.956  0.0000E+00  0.0000E+00  0.8972E+01  0.8972E+01
     24.054  0.0000E+00  0.0000E+00  0.8972E+01  0.8972E+01
     24.152  0.0000E+00  0.0000E+00  0.8972E+01  0.8972E+01
     24.250  0.0000E+00  0.0000E+00  0.8972E+01  0.8972E+01
     24.348  0.0000E+00  0.0000E+00  0.8972E+01  0.8972E+01
     24.446  0.0000E+00  0.0000E+00  0.8972E+01  0.8972E+01
     24.544 -0.1609E-32  0.0000E+00  0.8972E+01  0.8972E+01
     24.641 -0.1468E-19 -0.1469E-31  0.8972E+01  0.8972E+01
     24.739 -0.5532E-10 -0.8043E-19  0.8972E+01  0.8972E+01
     24.837 -0.7847E-04 -0.1807E-09  0.8972E+01  0.8972E+01
     24.935  0.1336E-03 -0.1499E-03  0.8972E+01  0.8972E+01
     25.033  0.2933E+00  0.1041E-01  0.9001E+01  0.8973E+01
     25.131 -0.9451E-02  0.2837E+00  0.9000E+01  0.9001E+01
     25.228 -0.1755E-04 -0.1004E-01  0.9000E+01  0.9000E+01
     25.326 -0.3992E-11 -0.8188E-05  0.9000E+01  0.9000E+01
     25.424  0.0000E+00 -0.1098E-11  0.9000E+01  0.9000E+01
     25.522  0.0000E+00  0.0000E+00  0.9000E+01  0.9000E+01
     25.620  0.0000E+00  0.0000E+00  0.9000E+01  0.9000E+01
     25.718  0.0000E+00  0.0000E+00  0.9000E+01  0.9000E+01
     25.816  0.0000E+00  0.0000E+00  0.9000E+01  0.9000E+01
     25.913  0.0000E+00  0.0000E+00  0.9000E+01  0.9000E+01
     26.011  0.0000E+00  0.0000E+00  0.9000E+01  0.9000E+01
     26.109  0.0000E+00  0.0000E+00  0.9000E+01  0.9000E+01
     26.207  0.0000E+00  0.0000E+00  0.9000E+01  0.9000E+01
     26.305  0.0000E+00  0.0000E+00  0.9000E+01  0.9000E+01
     26.403  0.0000E+00  0.0000E+00  0.9000E+01  0.9000E+01
     26.40257149     -2.95093177  301      5.66602939      1.00000000
     -2.951  0.0000E+00  0.0000E+00  0.0000E+00  0.0000E+00  0.0000E+00  0.0000E+00  0.0000E+00  0.0000E+00  0.0000E+00  0.0000E+00  0.0000E+00  0.0000E+00  0.0000E+00  0.0000E+00  0.0000E+00  0.0000E+00  0.0000E+00  0.0000E+00
     -2.853  0.0000E+00  0.0000E+00  0.0000E+00  0.0000E+00  0.0000E+00  0.0000E+00  0.0000E+00  0.0000E+00  0.0000E+00  0.0000E+00  0.0000E+00  0.0000E+00  0.0000E+00  0.0000E+00  0.0000E+00  0.0000E+00  0.0000E+00  0.0000E+00
     -2.755  0.0000E+00  0.0000E+00  0.0000E+00  0.0000E+00  0.0000E+00  0.0000E+00  0.0000E+00  0.0000E+00  0.0000E+00  0.0000E+00  0.0000E+00  0.0000E+00  0.0000E+00  0.0000E+00  0.0000E+00  0.0000E+00  0.0000E+00  0.0000E+00
     -2.657  0.0000E+00  0.0000E+00  0.0000E+00  0.0000E+00  0.0000E+00  0.0000E+00  0.0000E+00  0.0000E+00  0.0000E+00  0.0000E+00  0.0000E+00  0.0000E+00  0.0000E+00  0.0000E+00  0.0000E+00  0.0000E+00  0.0000E+00  0.0000E+00
     -2.560  0.0000E+00  0.0000E+00  0.0000E+00  0.0000E+00  0.0000E+00  0.0000E+00  0.0000E+00  0.0000E+00  0.0000E+00  0.0000E+00  0.0000E+00  0.0000E+00  0.0000E+00  0.0000E+00  0.0000E+00  0.0000E+00  0.0000E+00  0.0000E+00
     -2.462  0.0000E+00  0.0000E+00  0.0000E+00  0.0000E+00  0.0000E+00  0.0000E+00  0.0000E+00  0.0000E+00  0.0000E+00  0.0000E+00  0.0000E+00  0.0000E+00  0.0000E+00  0.0000E+00  0.0000E+00  0.0000E+00  0.0000E+00  0.0000E+00
     -2.364  0.0000E+00  0.0000E+00  0.0000E+00  0.0000E+00  0.0000E+00  0.0000E+00  0.0000E+00  0.0000E+00  0.0000E+00  0.0000E+00  0.0000E+00  0.0000E+00  0.0000E+00  0.0000E+00  0.0000E+00  0.0000E+00  0.0000E+00  0.0000E+00
     -2.266  0.0000E+00  0.0000E+00  0.0000E+00  0.0000E+00  0.0000E+00  0.0000E+00  0.0000E+00  0.0000E+00  0.0000E+00  0.0000E+00  0.0000E+00  0.0000E+00  0.0000E+00  0.0000E+00  0.0000E+00  0.0000E+00  0.0000E+00  0.0000E+00
     -2.168  0.0000E+00  0.0000E+00  0.0000E+00  0.0000E+00  0.0000E+00  0.0000E+00  0.0000E+00  0.0000E+00  0.0000E+00  0.0000E+00  0.0000E+00  0.0000E+00  0.0000E+00  0.0000E+00  0.0000E+00  0.0000E+00  0.0000E+00  0.0000E+00
     -2.070 -0.1061E-35  0.0000E+00 -0.1567E-50  0.0000E+00 -0.1625E-50  0.0000E+00 -0.5966E-37  0.0000E+00 -0.4464E-49  0.0000E+00 -0.4030E-49  0.0000E+00 -0.5841E-39  0.0000E+00 -0.4462E-49  0.0000E+00 -0.1752E-38  0.0000E+00
     -1.972 -0.4771E-22 -0.1464E-36 -0.7049E-37 -0.9561E-53 -0.7311E-37 -0.9710E-53 -0.2683E-23 -0.8243E-38 -0.2007E-35 -0.2508E-49 -0.1812E-35 -0.2549E-49 -0.2627E-25 -0.8105E-40 -0.2007E-35 -0.2474E-49 -0.7881E-25 -0.2431E-39
     -1.875 -0.9012E-12 -0.1012E-22 -0.1332E-26 -0.6611E-39 -0.1381E-26 -0.6714E-39 -0.5069E-13 -0.5700E-24 -0.3792E-25 -0.1734E-35 -0.3424E-25 -0.1763E-35 -0.4962E-15 -0.5604E-26 -0.3791E-25 -0.1711E-35 -0.1489E-14 -0.1681E-25
     -1.777 -0.6722E-05 -0.2951E-12 -0.9933E-20 -0.1928E-28 -0.1030E-19 -0.1958E-28 -0.3781E-06 -0.1662E-13 -0.2829E-18 -0.5058E-25 -0.2554E-18 -0.5140E-25 -0.3701E-08 -0.1634E-15 -0.2828E-18 -0.4988E-25 -0.1110E-07 -0.4903E-15
     -1.679 -0.8243E-02 -0.3433E-05 -0.1218E-16 -0.2243E-21 -0.1263E-16 -0.2277E-21 -0.4636E-03 -0.1933E-06 -0.3469E-15 -0.5883E-18 -0.3132E-15 -0.5979E-18 -0.4539E-05 -0.1901E-08 -0.3468E-15 -0.5802E-18 -0.1362E-04 -0.5703E-08
     -1.581  0.2329E+00 -0.7748E-02  0.3442E-15 -0.5061E-18  0.3569E-15 -0.5140E-18  0.1310E-01 -0.4363E-03  0.9801E-14 -0.1328E-14  0.8849E-14 -0.1349E-14  0.1282E-03 -0.4290E-05  0.9798E-14 -0.1309E-14  0.3847E-03 -0.1287E-04
     -1.483  0.8547E-02  0.2222E+00  0.1263E-16  0.1451E-16  0.1310E-16  0.1474E-16  0.4807E-03  0.1251E-01  0.3597E-15  0.3807E-13  0.3247E-15  0.3869E-13  0.4706E-05  0.1230E-03  0.3596E-15  0.3755E-13  0.1412E-04  0.3691E-03
     -1.385 -0.1230E-03  0.1856E-01 -0.1818E-18  0.1212E-17 -0.1886E-18  0.1231E-17 -0.6920E-05  0.1045E-02 -0.5178E-17  0.3181E-14 -0.4675E-17  0.3232E-14 -0.6775E-07  0.1028E-04 -0.5176E-17  0.3137E-14 -0.2033E-06  0.3083E-04
     -1.288 -0.1484E-09 -0.2058E-03 -0.2192E-24 -0.1345E-19 -0.2273E-24 -0.1365E-19 -0.8344E-11 -0.1159E-04 -0.6243E-23 -0.3527E-16 -0.5636E-23 -0.3585E-16 -0.8169E-13 -0.1140E-06 -0.6241E-23 -0.3479E-16 -0.2451E-12 -0.3419E-06
     -1.190  0.0000E+00 -0.3912E-09  0.0000E+00 -0.2555E-25  0.0000E+00 -0.2595E-25  0.0000E+00 -0.2203E-10  0.0000E+00 -0.6704E-22  0.0000E+00 -0.6813E-22  0.0000E+00 -0.2166E-12  0.0000E+00 -0.6612E-22  0.0000E+00 -0.6498E-12
     -1.092  0.0000E+00  0.0000E+00  0.0000E+00  0.0000E+00  0.0000E+00  0.0000E+00  0.0000E+00  0.0000E+00  0.0000E+00  0.0000E+00  0.0000E+00  0.0000E+00  0.0000E+00  0.0000E+00  0.0000E+00  0.0000E+00  0.0000E+00  0.0000E+00
     -0.994 -0.1893E-33  0.0000E+00 -0.9826E-35  0.0000E+00 -0.9826E-35  0.0000E+00 -0.9826E-35  0.0000E+00 -0.2213E-35  0.0000E+00 -0.2213E-35  0.0000E+00 -0.2892E-50  0.0000E+00 -0.2213E-35  0.0000E+00 -0.2219E-50  0.0000E+00
     -0.896 -0.2809E-20 -0.3215E-34 -0.1458E-21 -0.1672E-35 -0.1458E-21 -0.1672E-35 -0.1458E-21 -0.1672E-35 -0.3283E-22 -0.3757E-36 -0.3283E-22 -0.3757E-36 -0.4290E-37 -0.3283E-56 -0.3283E-22 -0.3757E-36 -0.3292E-37 -0.2848E-56
     -0.798 -0.1730E-10 -0.7099E-21 -0.8981E-12 -0.3691E-22 -0.8981E-12 -0.3691E-22 -0.8981E-12 -0.3691E-22 -0.2022E-12 -0.8296E-23 -0.2022E-12 -0.8296E-23 -0.2643E-27 -0.7251E-43 -0.2022E-12 -0.8296E-23 -0.2028E-27 -0.6290E-43
     -0.700 -0.4080E-04 -0.6538E-11 -0.2118E-05 -0.3400E-12 -0.2118E-05 -0.3400E-12 -0.2118E-05 -0.3400E-12 -0.4769E-06 -0.7641E-13 -0.4769E-06 -0.7641E-13 -0.6232E-21 -0.6678E-33 -0.4769E-06 -0.7641E-13 -0.4782E-21 -0.5794E-33
     -0.603 -0.5900E-02 -0.2333E-04 -0.3062E-03 -0.1213E-05 -0.3062E-03 -0.1213E-05 -0.3062E-03 -0.1213E-05 -0.6896E-04 -0.2726E-06 -0.6896E-04 -0.2726E-06 -0.9011E-19 -0.2383E-26 -0.6896E-04 -0.2726E-06 -0.6914E-19 -0.2067E-26
     -0.505  0.2957E+00 -0.8627E-02  0.1535E-01 -0.4486E-03  0.1535E-01 -0.4486E-03  0.1535E-01 -0.4486E-03  0.3457E-02 -0.1008E-03  0.3457E-02 -0.1008E-03  0.4517E-17 -0.8811E-24  0.3457E-02 -0.1008E-03  0.3466E-17 -0.7644E-24
     -0.407 -0.6855E-02  0.2939E+00 -0.3558E-03  0.1528E-01 -0.3558E-03  0.1528E-01 -0.3558E-03  0.1528E-01 -0.8013E-04  0.3435E-02 -0.8013E-04  0.3435E-02 -0.1047E-18  0.3002E-22 -0.8013E-04  0.3435E-02 -0.8034E-19  0.2605E-22
     -0.309 -0.3492E-04 -0.2756E-02 -0.1812E-05 -0.1433E-03 -0.1812E-05 -0.1433E-03 -0.1812E-05 -0.1433E-03 -0.4081E-06 -0.3221E-04 -0.4081E-06 -0.3221E-04 -0.5334E-21 -0.2815E-24 -0.4081E-06 -0.3221E-04 -0.4092E-21 -0.2442E-24
     -0.211 -0.1317E-10 -0.5991E-04 -0.6835E-12 -0.3115E-05 -0.6835E-12 -0.3115E-05 -0.6835E-12 -0.3115E-05 -0.1539E-12 -0.7002E-06 -0.1539E-12 -0.7002E-06 -0.2011E-27 -0.6119E-26 -0.1539E-12 -0.7002E-06 -0.1543E-27 -0.5309E-26
     -0.113 -0.1085E-32 -0.3423E-10 -0.3993E-34 -0.1780E-11 -0.3797E-47 -0.1780E-11 -0.2277E-33 -0.1780E-11 -0.1023E-33 -0.4000E-12 -0.1093E-45 -0.4000E-12 -0.3643E-34 -0.3496E-32 -0.1323E-45 -0.4000E-12 -0.1743E-34 -0.3033E-32
     -0.016 -0.1349E-19 -0.2559E-33 -0.4962E-21 -0.9439E-35 -0.4718E-34 -0.2561E-49 -0.2829E-20 -0.5376E-34 -0.1271E-20 -0.2411E-34 -0.1358E-32 -0.9618E-46 -0.4527E-21 -0.8647E-35 -0.1644E-32 -0.9498E-46 -0.2165E-21 -0.4134E-35
      0.082 -0.6947E-10 -0.4406E-20 -0.2556E-11 -0.1625E-21 -0.2430E-24 -0.4410E-36 -0.1457E-10 -0.9257E-21 -0.6545E-11 -0.4151E-21 -0.6993E-23 -0.1656E-32 -0.2332E-11 -0.1489E-21 -0.8467E-23 -0.1635E-32 -0.1115E-11 -0.7118E-22
      0.180 -0.1361E-03 -0.3155E-10 -0.5009E-05 -0.1164E-11 -0.4763E-18 -0.3158E-26 -0.2856E-04 -0.6630E-11 -0.1283E-04 -0.2973E-11 -0.1371E-16 -0.1186E-22 -0.4570E-05 -0.1066E-11 -0.1659E-16 -0.1171E-22 -0.2186E-05 -0.5099E-12
      0.278 -0.1069E-01 -0.8690E-04 -0.3934E-03 -0.3206E-05 -0.3741E-16 -0.8698E-20 -0.2243E-02 -0.1826E-04 -0.1007E-02 -0.8188E-05 -0.1076E-14 -0.3267E-16 -0.3589E-03 -0.2937E-05 -0.1303E-14 -0.3226E-16 -0.1717E-03 -0.1404E-05
      0.376  0.7739E+00 -0.1867E-01  0.2847E-01 -0.6887E-03  0.2708E-14 -0.1869E-17  0.1623E+00 -0.3923E-02  0.7292E-01 -0.1759E-02  0.7791E-13 -0.7018E-14  0.2598E-01 -0.6309E-03  0.9432E-13 -0.6930E-14  0.1243E-01 -0.3017E-03
      0.474 -0.2115E-01  0.7740E+00 -0.7781E-03  0.2855E-01 -0.7399E-16  0.7747E-16 -0.4436E-02  0.1626E+00 -0.1993E-02  0.7293E-01 -0.2129E-14  0.2909E-12 -0.7099E-03  0.2616E-01 -0.2578E-14  0.2873E-12 -0.3395E-03  0.1251E-01
      0.571 -0.7144E-04 -0.1455E-01 -0.2628E-05 -0.5368E-03 -0.2499E-18 -0.1456E-17 -0.1498E-04 -0.3057E-02 -0.6732E-05 -0.1371E-02 -0.7192E-17 -0.5470E-14 -0.2398E-05 -0.4918E-03 -0.8707E-17 -0.5402E-14 -0.1147E-05 -0.2351E-03
      0.669 -0.2240E-10 -0.1123E-03 -0.8243E-12 -0.4141E-05 -0.7838E-25 -0.1124E-19 -0.4699E-11 -0.2359E-04 -0.2111E-11 -0.1058E-04 -0.2255E-23 -0.4220E-16 -0.7521E-12 -0.3794E-05 -0.2731E-23 -0.4167E-16 -0.3597E-12 -0.1814E-05
      0.767  0.0000E+00 -0.4945E-10  0.0000E+00 -0.1824E-11  0.0000E+00 -0.4949E-26  0.0000E+00 -0.1039E-10  0.0000E+00 -0.4659E-11  0.0000E+00 -0.1859E-22  0.0000E+00 -0.1671E-11  0.0000E+00 -0.1836E-22  0.0000E+00 -0.7989E-12
      0.865  0.0000E+00  0.0000E+00  0.0000E+00  0.0000E+00  0.0000E+00  0.0000E+00  0.0000E+00  0.0000E+00  0.0000E+00  0.0000E+00  0.0000E+00  0.0000E+00  0.0000E+00  0.0000E+00  0.0000E+00  0.0000E+00  0.0000E+00  0.0000E+00
      0.963  0.0000E+00  0.0000E+00  0.0000E+00  0.0000E+00  0.0000E+00  0.0000E+00  0.0000E+00  0.0000E+00  0.0000E+00  0.0000E+00  0.0000E+00  0.0000E+00  0.0000E+00  0.0000E+00  0.0000E+00  0.0000E+00  0.0000E+00  0.0000E+00
      1.061  0.0000E+00  0.0000E+00  0.0000E+00  0.0000E+00  0.0000E+00  0.0000E+00  0.0000E+00  0.0000E+00  0.0000E+00  0.0000E+00  0.0000E+00  0.0000E+00  0.0000E+00  0.0000E+00  0.0000E+00  0.0000E+00  0.0000E+00  0.0000E+00
      1.159 -0.1271E-29  0.0000E+00 -0.1535E-30  0.0000E+00 -0.1534E-30  0.0000E+00 -0.1118E-30  0.0000E+00 -0.4271E-31  0.0000E+00 -0.6083E-30  0.0000E+00 -0.5602E-31  0.0000E+00 -0.1234E-31  0.0000E+00 -0.1162E-30  0.0000E+00
      1.256 -0.2919E-17 -0.3643E-30 -0.3437E-18 -0.4306E-31 -0.3435E-18 -0.4305E-31 -0.2611E-18 -0.3263E-31 -0.1822E-18 -0.2200E-31 -0.1362E-17 -0.1705E-30 -0.1749E-18 -0.2158E-31 -0.2763E-19 -0.3458E-32 -0.2606E-18 -0.3285E-31
      1.354 -0.2804E-08 -0.1146E-17 -0.3122E-09 -0.1306E-18 -0.3119E-09 -0.1305E-18 -0.2601E-09 -0.1052E-18 -0.3477E-09 -0.1163E-18 -0.1237E-08 -0.5167E-18 -0.2629E-09 -0.9396E-19 -0.2509E-10 -0.1048E-19 -0.2377E-09 -0.9984E-19
      1.452 -0.1023E-02 -0.1513E-08 -0.1005E-03 -0.1613E-09 -0.1003E-03 -0.1610E-09 -0.1019E-03 -0.1446E-09 -0.2559E-03 -0.2610E-09 -0.3976E-03 -0.6378E-09 -0.1669E-03 -0.1835E-09 -0.8068E-05 -0.1294E-10 -0.7725E-04 -0.1239E-09
      1.550  0.9172E-01 -0.7598E-03  0.9392E-02 -0.7168E-04  0.9373E-02 -0.7146E-04  0.8933E-02 -0.7746E-04  0.1927E-01 -0.2207E-03  0.3716E-01 -0.2831E-03  0.1294E-01 -0.1418E-03  0.7541E-03 -0.5741E-05  0.7194E-02 -0.5559E-04
      1.648  0.8453E+00  0.6574E-01  0.6024E-01  0.6654E-02  0.5981E-01  0.6640E-02  0.9597E-01  0.6467E-02  0.4312E+00  0.1473E-01  0.2371E+00  0.2630E-01  0.2587E+00  0.9854E-02  0.4811E-02  0.5335E-03  0.4767E-01  0.5132E-02
      1.746 -0.2851E-01  0.8701E+00 -0.1955E-02  0.6316E-01 -0.1940E-02  0.6273E-01 -0.3276E-02  0.9850E-01 -0.1528E-01  0.4350E+00 -0.7690E-02  0.2485E+00 -0.9129E-02  0.2633E+00 -0.1560E-03  0.5040E-02 -0.1553E-02  0.5019E-01
      1.843 -0.9303E-03 -0.3016E-01 -0.4792E-06 -0.2160E-02 -0.4680E-06 -0.2145E-02 -0.3526E-03 -0.3429E-02 -0.1112E-04 -0.1536E-01 -0.1010E-02 -0.8496E-02 -0.1445E-03 -0.9280E-02 -0.3765E-07 -0.1723E-03 -0.4146E-03 -0.1719E-02
      1.941  0.7374E-01 -0.8732E-03 -0.2564E-13 -0.7798E-06 -0.2468E-13 -0.7665E-06  0.2867E-01 -0.3469E-03 -0.1382E-11 -0.1324E-04  0.7912E-01 -0.8771E-03  0.1101E-01 -0.1344E-03 -0.3224E-14 -0.6158E-07  0.3302E-01 -0.3805E-03