    1    1    1    2
  0.1805030E+02  0.2862214E-09  0.2862214E-09  0.2862214E-09  0.5000000E-15
  1.000000000000000E-004
  CAR 
 unknown system                          
    5   14    9
 
  0.8333333E-01  0.8333333E-01  0.8333333E-01  0.3703704E-01
   1       -0.554443     -0.451557
   2        5.501175      5.601433
   3        5.501175      5.601433
   4        8.580960      8.678134
   5        9.471985      9.541817
   6        9.471985      9.541817
   7       20.027064     20.068231
   8       21.808119     21.917532
   9       22.895836     22.989416
 
  0.2500000E+00  0.8333333E-01  0.8333333E-01  0.1111111E+00
   1        1.574201      1.675879
   2        4.475011      4.576962
   3        5.059914      5.156408
   4        9.653258      9.728255
   5       10.262994     10.330624
   6       11.992370     12.082045
   7       19.585931     19.671177
   8       19.973480     20.065868
   9       20.064605     20.110588
 
  0.4166667E+00  0.8333333E-01  0.8333333E-01  0.5555556E-01
   1        1.954477      2.054158
   2        4.099059      4.201806
   3        6.583628      6.680656
   4        9.858530      9.933297
   5       10.675247     10.740938
   6       14.481485     14.561295
   7       16.225755     16.319250
   8       18.295878     18.389997
   9       20.034369     20.075762
 
 -0.8333333E-01  0.8333333E-01  0.8333333E-01  0.2777778E-01
   1       -1.616682     -1.513383
   2        6.381616      6.482610
   3        6.381618      6.482611
   4        6.747828      6.848292
   5        8.756075      8.825805
   6       10.065406     10.129733
   7       20.027805     20.068979
   8       21.730265     21.832209
   9       21.730831     21.839135
 
  0.2500000E+00  0.2500000E+00  0.8333333E-01  0.1111111E+00
   1        3.172482      3.274721
   2        4.317920      4.414573
   3        4.950650      5.049634
   4       10.169532     10.242373
   5       10.627454     10.695771
   6       15.078732     15.182073
   7       15.720646     15.801133
   8       19.460500     19.540460
   9       20.033212     20.074589
 
 -0.2500000E+00  0.2500000E+00  0.8333333E-01  0.1111111E+00
   1        0.323918      0.425895
   2        5.443366      5.545372
   3        5.598873      5.691909
   4        8.194411      8.276200
   5        8.938745      9.035002
   6       10.512160     10.578055
   7       20.021515     20.062931
   8       20.774262     20.868099
   9       22.863053     22.951297
 
 -0.4166667E+00  0.4166667E+00  0.8333333E-01  0.1111111E+00
   1        1.584599      1.683893
   2        4.604295      4.707017
   3        6.006498      6.097105
   4        9.033897      9.115961
   5       10.987064     11.058899
   6       12.534478     12.619511
   7       17.953746     18.038463
   8       19.339926     19.430133
   9       20.039978     20.081852
 
 -0.2500000E+00  0.4166667E+00  0.8333333E-01  0.1111111E+00
   1        2.221791      2.321659
   2        4.376532      4.465917
   3        5.567391      5.667271
   4        8.295542      8.383356
   5       10.432849     10.510074
   6       12.101957     12.187341
   7       18.634576     18.722141
   8       20.036103     20.077779
   9       22.374114     22.454741
 
 -0.4166667E+00 -0.4166667E+00  0.8333333E-01  0.1111111E+00
   1        2.805209      2.902099
   2        4.648059      4.746196
   3        5.001525      5.089583
   4        8.867889      8.954103
   5       11.120583     11.202695
   6       15.356723     15.437081
   7       15.840638     15.934399
   8       19.684381     19.769628
   9       20.032891     20.074260
 
  0.2500000E+00  0.2500000E+00  0.2500000E+00  0.9259259E-02
   1        4.470221      4.570114
   2        4.470222      4.570115
   3        4.470222      4.570115
   4       10.804772     10.869667
   5       10.804772     10.869667
   6       12.787303     12.898189
   7       18.519679     18.599642
   8       18.519679     18.599642
   9       18.519683     18.599644
 
 -0.2500000E+00  0.2500000E+00  0.2500000E+00  0.2777778E-01
   1        1.957082      2.054542
   2        4.778915      4.859221
   3        6.970865      7.070612
   4        6.970866      7.070613
   5        8.918536      9.014341
   6       10.741231     10.816211
   7       20.006966     20.050178
   8       20.332479     20.416059
   9       24.976946     25.068321
 
 -0.4166667E+00  0.4166667E+00  0.2500000E+00  0.1111111E+00
   1        2.867077      2.956201
   2        3.708823      3.793521
   3        6.904340      7.004003
   4        7.598029      7.692865
   5       12.027527     12.113959
   6       12.074125     12.166169
   7       18.449668     18.534577
   8       20.034358     20.075907
   9       20.789538     20.891450
 
 -0.4166667E+00 -0.4166667E+00  0.2500000E+00  0.3703704E-01
   1        3.015201      3.099461
   2        3.015202      3.099461
   3        6.477235      6.578521
   4       10.708853     10.800921
   5       10.708853     10.800921
   6       15.679365     15.774029
   7       16.793621     16.886220
   8       16.793623     16.886220
   9       20.029853     20.071143
 
 -0.4166667E+00  0.4166667E+00  0.4166667E+00  0.2777778E-01
   1        2.247758      2.331426
   2        2.347782      2.432126
   3       10.379047     10.473654
   4       10.379047     10.473655
   5       11.937919     12.023292
   6       12.659501     12.764337
   7       17.126703     17.225201
   8       17.126706     17.225201
   9       20.018760     20.059857
