       N       E                     dE             d eps       ncg     rms          rms(c)
DAV:   1     0.107957198110E+02    0.10796E+02   -0.23811E+03   512   0.455E+02
DAV:   2    -0.105446404272E+01   -0.11850E+02   -0.10987E+02   703   0.691E+01
DAV:   3    -0.126045795917E+01   -0.20599E+00   -0.20373E+00   570   0.817E+00
DAV:   4    -0.126086286360E+01   -0.40490E-03   -0.40455E-03   647   0.313E-01
DAV:   5    -0.126086374634E+01   -0.88274E-06   -0.88162E-06   582   0.103E-02    0.798E+00
DAV:   6    -0.117735539452E+02   -0.10513E+02   -0.38256E+00   528   0.684E+00    0.378E+00
DAV:   7    -0.118630411399E+02   -0.89487E-01   -0.66209E-02   583   0.160E+00    0.303E+00
DAV:   8    -0.113817866150E+02    0.48125E+00   -0.22113E-01   532   0.281E+00    0.466E+00
DAV:   9    -0.118510729124E+02   -0.46929E+00   -0.31827E-01   520   0.352E+00    0.136E+00
DAV:  10    -0.118719608154E+02   -0.20888E-01   -0.34143E-03   647   0.367E-01    0.971E-01
DAV:  11    -0.118727610637E+02   -0.80025E-03   -0.59573E-04   552   0.125E-01    0.885E-01
DAV:  12    -0.118855793906E+02   -0.12818E-01   -0.11434E-02   554   0.544E-01    0.184E-01
DAV:  13    -0.118845451711E+02    0.10342E-02   -0.42462E-03   551   0.326E-01    0.786E-02
DAV:  14    -0.118846502416E+02   -0.10507E-03   -0.60987E-05   288   0.486E-02    0.438E-02
DAV:  15    -0.118846355648E+02    0.14677E-04   -0.22053E-05   252   0.247E-02
   1 F= -.11884636E+02 E0= -.11884515E+02  d E =-.360450E-03  mag=     0.1561
