 vasp.5.2.12 11Nov11 complex                                                    
  
 executed on             LinuxIFC date 2012.10.17  13:05:55
 running on    1 nodes
 distr:  one band on    1 nodes,    1 groups


--------------------------------------------------------------------------------------------------------


 INCAR:
 POTCAR:    PAW_PBE Ta 17Jan2003                  
 POTCAR:    PAW_PBE Ta 17Jan2003                  
   VRHFIN =Ta:  6s5d                                                            
   LEXCH  = PE                                                                  
   EATOM  =   130.6506 eV,    9.6025 Ry                                         
                                                                                
   TITEL  = PAW_PBE Ta 17Jan2003                                                
   LULTRA =        F    use ultrasoft PP ?                                      
   IUNSCR =        1    unscreen: 0-lin 1-nonlin 2-no                           
   RPACOR =    2.330    partial core radius                                     
   POMASS =  180.948; ZVAL   =    5.000    mass and valenz                      
   RCORE  =    2.900    outmost cutoff radius                                   
   RWIGS  =    2.840; RWIGS  =    1.503    wigner-seitz radius (au A)           
   ENMAX  =  223.667; ENMIN  =  167.750 eV                                      
   RCLOC  =    2.205    cutoff for local pot                                    
   LCOR   =        T    correct aug charges                                     
   LPAW   =        T    paw PP                                                  
   EAUG   =  332.075                                                            
   DEXC   =    -.049                                                            
   RMAX   =    3.083    core radius for proj-oper                               
   RAUG   =    1.300    factor for augmentation sphere                          
   RDEP   =    3.060    radius for radial grids                                 
   QCUT   =   -4.055; QGAM   =    8.109    optimization parameters              
                                                                                
   Description                                                                  
     l     E      TYP  RCUT    TYP  RCUT                                        
     2   .000     23  2.500                                                     
     2   .000     23  2.500                                                     
     0   .000     23  2.500                                                     
     0   .000     23  2.500                                                     
     1   .000     23  2.900                                                     
     1  2.000     23  2.900                                                     
     3   .000      7   .000                                                     
  local pseudopotential read in
  partial core-charges read in
  atomic valenz-charges read in
  non local Contribution for L=           2  read in
    real space projection operators read in
  non local Contribution for L=           2  read in
    real space projection operators read in
  non local Contribution for L=           0  read in
    real space projection operators read in
  non local Contribution for L=           0  read in
    real space projection operators read in
  non local Contribution for L=           1  read in
    real space projection operators read in
  non local Contribution for L=           1  read in
    real space projection operators read in
    PAW grid and wavefunctions read in
 
   number of l-projection  operators is LMAX  =           6
   number of lm-projection operators is LMMAX =          18
 
  PAW_PBE Ta 17Jan2003                  :
 energy of atom  1       EATOM= -130.6506
 kinetic energy error for atom=    0.0016 (will be added to EATOM!!)
 
 
 POSCAR: Ta                                      
  positions in cartesian coordinates
  No initial velocities read in
 exchange correlation table for  LEXCH =        8
   RHO(1)=    0.500       N(1)  =     2000
   RHO(2)=  100.500       N(2)  =     4000
 


--------------------------------------------------------------------------------------------------------


 ion  position               nearest neighbor table
   1  0.000  0.000  0.000-
 
  LATTYP: Found a body centered cubic cell.
 ALAT       =     3.3050000000
  
  Lattice vectors:
  
 A1 = (  -1.6525000000,   1.6525000000,   1.6525000000)
 A2 = (   1.6525000000,  -1.6525000000,   1.6525000000)
 A3 = (   1.6525000000,   1.6525000000,  -1.6525000000)
 Subroutine PRICEL returns:
 Original cell was already a primitive cell.
 

Analysis of symmetry for initial positions (statically):

 Routine SETGRP: Setting up the symmetry group for a 
 body centered cubic supercell.


 Subroutine GETGRP returns: Found 48 space group operations
 (whereof 48 operations were pure point group operations)
 out of a pool of 48 trial point group operations.


The static configuration has the point symmetry O_h .

Analysis of symmetry for dynamics (positions and initial velocities):

 Subroutine DYNSYM returns: Found 48 space group operations
 (whereof 48 operations were pure point group operations)
 out of a pool of 48 trial space group operations
 (whereof 48 operations were pure point group operations)
 and found also     1 'primitive' translations


The dynamic configuration has the point symmetry O_h .

Analysis of magnetic symmetry:

 Subroutine MAGSYM returns: Found 48 space group operations
 (whereof 48 operations were pure point group operations)
 out of a pool of 48 trial space group operations
 (whereof 48 operations were pure point group operations)
 and found also     1 'primitive' translations


The magnetic configuration has the point symmetry O_h .
 
 
 KPOINTS: KPOINTS created by Atomic Simulation Env

Automatic generation of k-mesh.
 
 Subroutine IBZKPT returns following result:
 ===========================================
 
 Found     14 irreducible k-points:
 
 Following reciprocal coordinates:
            Coordinates               Weight
  0.083333  0.083333  0.083333      8.000000
  0.250000  0.083333  0.083333     24.000000
  0.416667  0.083333  0.083333     12.000000
 -0.083333  0.083333  0.083333      6.000000
  0.250000  0.250000  0.083333     24.000000
 -0.250000  0.250000  0.083333     24.000000
 -0.416667  0.416667  0.083333     24.000000
 -0.250000  0.416667  0.083333     24.000000
 -0.416667 -0.416667  0.083333     24.000000
  0.250000  0.250000  0.250000      2.000000
 -0.250000  0.250000  0.250000      6.000000
 -0.416667  0.416667  0.250000     24.000000
 -0.416667 -0.416667  0.250000      8.000000
 -0.416667  0.416667  0.416667      6.000000
 
 Following cartesian coordinates:
            Coordinates               Weight
  0.050429  0.050429  0.050429      8.000000
  0.050429  0.100857  0.100857     24.000000
  0.050429  0.151286  0.151286     12.000000
  0.050429  0.000000  0.000000      6.000000
  0.100857  0.100857  0.151286     24.000000
  0.100857 -0.050429  0.000000     24.000000
  0.151286 -0.100857  0.000000     24.000000
  0.151286 -0.050429  0.050429     24.000000
 -0.100857 -0.100857 -0.252143     24.000000
  0.151286  0.151286  0.151286      2.000000
  0.151286  0.000000  0.000000      6.000000
  0.201715 -0.050429  0.000000     24.000000
 -0.050429 -0.050429 -0.252143      8.000000
  0.252143  0.000000  0.000000      6.000000
 


--------------------------------------------------------------------------------------------------------




 Dimension of arrays:
   k-points           NKPTS =     14   k-points in BZ     NKDIM =     14   number of bands    NBANDS=      9
   number of dos      NEDOS =    301   number of ions     NIONS =      1
   non local maximal  LDIM  =      6   non local SUM 2l+1 LMDIM =     18
   total plane-waves  NPLWV =   8000
   max r-space proj   IRMAX =      1   max aug-charges    IRDMAX=  30366
   dimension x,y,z NGX =    20 NGY =   20 NGZ =   20
   dimension x,y,z NGXF=    40 NGYF=   40 NGZF=   40
   support grid    NGXF=    40 NGYF=   40 NGZF=   40
   ions per type =               1
 NGX,Y,Z   is equivalent  to a cutoff of  11.62, 11.62, 11.62 a.u.
 NGXF,Y,Z  is equivalent  to a cutoff of  23.23, 23.23, 23.23 a.u.


 I would recommend the setting:
   dimension x,y,z NGX =    20 NGY =   20 NGZ =   20
 SYSTEM =  unknown system                          
 POSCAR =  Ta                                      

 Startparameter for this run:
   NWRITE =      2    write-flag & timer
   PREC   = accura    normal or accurate (medium, high low for compatibility)
   ISTART =      0    job   : 0-new  1-cont  2-samecut
   ICHARG =      2    charge: 1-file 2-atom 10-const
   ISPIN  =      2    spin polarized calculation?
   LNONCOLLINEAR =      F non collinear calculations
   LSORBIT =      F    spin-orbit coupling
   INIWAV =      1    electr: 0-lowe 1-rand  2-diag
   LASPH  =      F    aspherical Exc in radial PAW
   METAGGA=      F    non-selfconsistent MetaGGA calc.

 Electronic Relaxation 1
   ENCUT  =  450.0 eV  33.07 Ry    5.75 a.u.   4.95  4.95  4.95*2*pi/ulx,y,z
   ENINI  =  450.0     initial cutoff
   ENAUG  =  332.1 eV  augmentation charge cutoff
   NELM   =     60;   NELMIN=  2; NELMDL= -5     # of ELM steps 
   EDIFF  = 0.1E-03   stopping-criterion for ELM
   LREAL  =      F    real-space projection
   NLSPLINE    = F    spline interpolate recip. space projectors
   LCOMPAT=      F    compatible to vasp.4.4
   GGA_COMPAT  = T    GGA compatible to vasp.4.4-vasp.4.6
   LMAXPAW     = -100 max onsite density
   LMAXMIX     =    2 max onsite mixed and CHGCAR
   VOSKOWN=      0    Vosko Wilk Nusair interpolation
   ROPT   =    0.00000
 Ionic relaxation
   EDIFFG = 0.1E-02   stopping-criterion for IOM
   NSW    =      0    number of steps for IOM
   NBLOCK =      1;   KBLOCK =      1    inner block; outer block 
   IBRION =     -1    ionic relax: 0-MD 1-quasi-New 2-CG
   NFREE  =      0    steps in history (QN), initial steepest desc. (CG)
   ISIF   =      2    stress and relaxation
   IWAVPR =     10    prediction:  0-non 1-charg 2-wave 3-comb
   ISYM   =      2    0-nonsym 1-usesym 2-fastsym
   LCORR  =      T    Harris-Foulkes like correction to forces

   POTIM  = 0.5000    time-step for ionic-motion
   TEIN   =    0.0    initial temperature
   TEBEG  =    0.0;   TEEND  =   0.0 temperature during run
   SMASS  =  -3.00    Nose mass-parameter (am)
   estimated Nose-frequenzy (Omega)   =  0.10E-29 period in steps =****** mass=  -0.187E-27a.u.
   SCALEE = 1.0000    scale energy and forces
   NPACO  =    256;   APACO  = 16.0  distance and # of slots for P.C.
   PSTRESS=    0.0 pullay stress

  Mass of Ions in am
   POMASS = 180.95
  Ionic Valenz
   ZVAL   =   5.00
  Atomic Wigner-Seitz radii
   RWIGS  =  -1.00
  virtual crystal weights 
   VCA    =   1.00
   NELECT =       5.0000    total number of electrons
   NUPDOWN=      -1.0000    fix difference up-down

 DOS related values:
   EMIN   =  10.00;   EMAX   =-10.00  energy-range for DOS
   EFERMI =   0.00
   ISMEAR =     1;   SIGMA  =   0.05  broadening in eV -4-tet -1-fermi 0-gaus

 Electronic relaxation 2 (details)
   IALGO  =     38    algorithm
   LDIAG  =      T    sub-space diagonalisation (order eigenvalues)
   LSUBROT=      T    optimize rotation matrix (better conditioning)
   TURBO    =      0    0=normal 1=particle mesh
   IRESTART =      0    0=no restart 2=restart with 2 vectors
   NREBOOT  =      0    no. of reboots
   NMIN     =      0    reboot dimension
   EREF     =   0.00    reference energy to select bands
   IMIX   =      4    mixing-type and parameters
     AMIX     =   0.40;   BMIX     =  1.00
     AMIX_MAG =   1.60;   BMIX_MAG =  1.00
     AMIN     =   0.10
     WC   =   100.;   INIMIX=   1;  MIXPRE=   1

 Intra band minimization:
   WEIMIN = 0.0000     energy-eigenvalue tresh-hold
   EBREAK =  0.28E-05  absolut break condition
   DEPER  =   0.30     relativ break condition  

   TIME   =   0.40     timestep for ELM

  volume/ion in A,a.u.               =      18.05       121.81
  Fermi-wavevector in a.u.,A,eV,Ry     =   1.067178  2.016673 15.495240  1.138868
  Thomas-Fermi vector in A             =   2.202786
 
 Write flags
   LWAVE  =      T    write WAVECAR
   LCHARG =      T    write CHGCAR
   LVTOT  =      F    write LOCPOT, total local potential
   LVHAR  =      F    write LOCPOT, Hartree potential only
   LELF   =      F    write electronic localiz. function (ELF)
   LORBIT =     11    0 simple, 1 ext, 2 COOP (PROOUT)


 Dipole corrections
   LMONO  =      F    monopole corrections only (constant potential shift)
   LDIPOL =      F    correct potential (dipole corrections)
   IDIPOL =      0    1-x, 2-y, 3-z, 4-all directions 
   EPSILON=  1.0000000 bulk dielectric constant

 Exchange correlation treatment:
   GGA     =    --    GGA type
   LEXCH   =     8    internal setting for exchange type
   VOSKOWN=      0    Vosko Wilk Nusair interpolation
   LHFCALC =     F    Hartree Fock is set to
   LHFONE  =     F    Hartree Fock one center treatment
   AEXX    =    0.0000 exact exchange contribution

 Linear response parameters
   LEPSILON=     F    determine dielectric tensor
   LRPA    =     F    only Hartree local field effects (RPA)
   LNABLA  =     F    use nabla operator in PAW spheres
   LVEL    =     F    velocity operator in full k-point grid
   LINTERFAST=   F  fast interpolation
   KINTER  =     0    interpolate to denser k-point grid
   CSHIFT  =0.1000    complex shift for real part using Kramers Kronig
   OMEGAMAX=  -1.0    maximum frequency
   RTIME   =    0.100 relaxation time in fs

 Orbital magnetization related:
   ORBITALMAG=     F  switch on orbital magnetization
   LCHIMAG   =     F  perturbation theory with respect to B field
   DQ        =  0.001000  dq finite difference perturbation B field



--------------------------------------------------------------------------------------------------------


 Static calculation
 charge density and potential will be updated during run
 spin polarized calculation
 Variant of blocked Davidson
 Davidson routine will perform the subspace rotation
 perform sub-space diagonalisation
    after iterative eigenvector-optimisation
 modified Broyden-mixing scheme, WC =      100.0
 initial mixing is a Kerker type mixing with AMIX =  0.4000 and BMIX =      1.0000
 Hartree-type preconditioning will be used
 using additional bands            6
 reciprocal scheme for non local part
 use partial core corrections
 calculate Harris-corrections to forces 
   (improved forces if not selfconsistent)
 use gradient corrections 
 use of overlap-Matrix (Vanderbilt PP)
 Methfessel and Paxton  Order N= 1 SIGMA  =   0.05


--------------------------------------------------------------------------------------------------------


  energy-cutoff  :      450.00
  volume of cell :       18.05
      direct lattice vectors                 reciprocal lattice vectors
    -1.652500000  1.652500000  1.652500000     0.000000000  0.302571861  0.302571861
     1.652500000 -1.652500000  1.652500000     0.302571861  0.000000000  0.302571861
     1.652500000  1.652500000 -1.652500000     0.302571861  0.302571861  0.000000000

  length of vectors
     2.862213960  2.862213960  2.862213960     0.427901229  0.427901229  0.427901229


 
 k-points in units of 2pi/SCALE and weight: KPOINTS created by Atomic Simulation Env
   0.05042864  0.05042864  0.05042864       0.037
   0.05042864  0.10085729  0.10085729       0.111
   0.05042864  0.15128593  0.15128593       0.056
   0.05042864  0.00000000  0.00000000       0.028
   0.10085729  0.10085729  0.15128593       0.111
   0.10085729 -0.05042864  0.00000000       0.111
   0.15128593 -0.10085729  0.00000000       0.111
   0.15128593 -0.05042864  0.05042864       0.111
  -0.10085729 -0.10085729 -0.25214322       0.111
   0.15128593  0.15128593  0.15128593       0.009
   0.15128593  0.00000000  0.00000000       0.028
   0.20171457 -0.05042864  0.00000000       0.111
  -0.05042864 -0.05042864 -0.25214322       0.037
   0.25214322  0.00000000  0.00000000       0.028
 
 k-points in reciprocal lattice and weights: KPOINTS created by Atomic Simulation Env
   0.08333333  0.08333333  0.08333333       0.037
   0.25000000  0.08333333  0.08333333       0.111
   0.41666667  0.08333333  0.08333333       0.056
  -0.08333333  0.08333333  0.08333333       0.028
   0.25000000  0.25000000  0.08333333       0.111
  -0.25000000  0.25000000  0.08333333       0.111
  -0.41666667  0.41666667  0.08333333       0.111
  -0.25000000  0.41666667  0.08333333       0.111
  -0.41666667 -0.41666667  0.08333333       0.111
   0.25000000  0.25000000  0.25000000       0.009
  -0.25000000  0.25000000  0.25000000       0.028
  -0.41666667  0.41666667  0.25000000       0.111
  -0.41666667 -0.41666667  0.25000000       0.037
  -0.41666667  0.41666667  0.41666667       0.028
 
 position of ions in fractional coordinates (direct lattice) 
   0.00000000  0.00000000  0.00000000
 
 position of ions in cartesian coordinates  (Angst):
   0.00000000  0.00000000  0.00000000
 


--------------------------------------------------------------------------------------------------------


 k-point  1 :  0.08330.08330.0833  plane waves:     381
 k-point  2 :  0.25000.08330.0833  plane waves:     390
 k-point  3 :  0.41670.08330.0833  plane waves:     394
 k-point  4 :  -.08330.08330.0833  plane waves:     381
 k-point  5 :  0.25000.25000.0833  plane waves:     388
 k-point  6 :  -.25000.25000.0833  plane waves:     385
 k-point  7 :  -.41670.41670.0833  plane waves:     392
 k-point  8 :  -.25000.41670.0833  plane waves:     391
 k-point  9 :  -.4167-.41670.0833  plane waves:     396
 k-point 10 :  0.25000.25000.2500  plane waves:     360
 k-point 11 :  -.25000.25000.2500  plane waves:     402
 k-point 12 :  -.41670.41670.2500  plane waves:     397
 k-point 13 :  -.4167-.41670.2500  plane waves:     391
 k-point 14 :  -.41670.41670.4167  plane waves:     390

 maximum and minimum number of plane-waves per node :       402      360

 maximum number of plane-waves:       402
 maximum index in each direction: 
   IXMAX=    5   IYMAX=    5   IZMAX=    4
   IXMIN=   -5   IYMIN=   -5   IZMIN=   -5

 WARNING: aliasing errors must be expected set NGX to  22 to avoid them
 WARNING: aliasing errors must be expected set NGY to  22 to avoid them
 NGZ is ok and might be reduce to  20
 aliasing errors are usually negligible using standard VASP settings
 and one can safely disregard these warnings

 serial   3D FFT for wavefunctions
 parallel 3D FFT for charge:
    minimum data exchange during FFTs selected (reduces bandwidth)


 total amount of memory used by VASP on root node    40264. kBytes
========================================================================

   base      :      30000. kBytes
   nonl-proj :        816. kBytes
   fftplans  :       2284. kBytes
   grid      :       5440. kBytes
   one-center:         31. kBytes
   wavefun   :       1693. kBytes
 
 Broyden mixing: mesh for mixing (old mesh)
   NGX =  9   NGY =  9   NGZ =  9
  (NGX  = 40   NGY  = 40   NGZ  = 40)
  gives a total of    729 points

 initial charge density was supplied:
 charge density of overlapping atoms calculated
 number of electron       5.0000000 magnetization       6.0000000
 keeping initial charge density in first step


--------------------------------------------------------------------------------------------------------


 Maximum index for augmentation-charges        29363 (set IRDMAX)


--------------------------------------------------------------------------------------------------------


 First call to EWALD:  gamma=   0.676
 Maximum number of real-space cells 3x 3x 3
 Maximum number of reciprocal cells 3x 3x 3

    FEWALD:  cpu time    0.00: real time    0.00


----------------------------------------- Iteration    1(   1)  ---------------------------------------


    POTLOK:  cpu time    0.20: real time    0.20
    SETDIJ:  cpu time    0.04: real time    0.05
     EDDAV:  cpu time    0.70: real time    0.70
       DOS:  cpu time    0.00: real time    0.00
    --------------------------------------------
      LOOP:  cpu time    0.95: real time    0.95

 eigenvalue-minimisations  :   512
 total energy-change (2. order) : 0.1079572E+02  (-0.2381137E+03)
 number of electron       5.0000000 magnetization       6.0000000
 augmentation part        5.0000000 magnetization       6.0000000

 Free energy of the ion-electron system (eV)
  ---------------------------------------------------
  alpha Z        PSCENC =        30.72235567
  Ewald energy   TEWEN  =      -198.20040513
  -1/2 Hartree   DENC   =        -2.47843811
  -exchange  EXHF       =         0.00000000
  -V(xc)+E(xc)   XCENC  =       -60.66459854
  PAW double counting   =       143.51874798      -69.33493833
  entropy T*S    EENTRO =        -0.00036269
  eigenvalues    EBANDS =        36.58431620
  atomic energy  EATOM  =       130.64904277
  ---------------------------------------------------
  free energy    TOTEN  =        10.79571981 eV

  energy without entropy =       10.79608250  energy(sigma->0) =       10.79584071


--------------------------------------------------------------------------------------------------------




----------------------------------------- Iteration    1(   2)  ---------------------------------------


     EDDAV:  cpu time    0.88: real time    0.89
       DOS:  cpu time    0.00: real time    0.00
    --------------------------------------------
      LOOP:  cpu time    0.89: real time    0.89

 eigenvalue-minimisations  :   703
 total energy-change (2. order) :-0.1185018E+02  (-0.1098708E+02)
 number of electron       5.0000000 magnetization       6.0000000
 augmentation part        5.0000000 magnetization       6.0000000

 Free energy of the ion-electron system (eV)
  ---------------------------------------------------
  alpha Z        PSCENC =        30.72235567
  Ewald energy   TEWEN  =      -198.20040513
  -1/2 Hartree   DENC   =        -2.47843811
  -exchange  EXHF       =         0.00000000
  -V(xc)+E(xc)   XCENC  =       -60.66459854
  PAW double counting   =       143.51874798      -69.33493833
  entropy T*S    EENTRO =         0.00053541
  eigenvalues    EBANDS =        24.73323424
  atomic energy  EATOM  =       130.64904277
  ---------------------------------------------------
  free energy    TOTEN  =        -1.05446404 eV

  energy without entropy =       -1.05499945  energy(sigma->0) =       -1.05464251


--------------------------------------------------------------------------------------------------------




----------------------------------------- Iteration    1(   3)  ---------------------------------------


     EDDAV:  cpu time    0.74: real time    0.75
       DOS:  cpu time    0.00: real time    0.00
    --------------------------------------------
      LOOP:  cpu time    0.75: real time    0.76

 eigenvalue-minimisations  :   570
 total energy-change (2. order) :-0.2059939E+00  (-0.2037273E+00)
 number of electron       5.0000000 magnetization       6.0000000
 augmentation part        5.0000000 magnetization       6.0000000

 Free energy of the ion-electron system (eV)
  ---------------------------------------------------
  alpha Z        PSCENC =        30.72235567
  Ewald energy   TEWEN  =      -198.20040513
  -1/2 Hartree   DENC   =        -2.47843811
  -exchange  EXHF       =         0.00000000
  -V(xc)+E(xc)   XCENC  =       -60.66459854
  PAW double counting   =       143.51874798      -69.33493833
  entropy T*S    EENTRO =        -0.00141890
  eigenvalues    EBANDS =        24.52919464
  atomic energy  EATOM  =       130.64904277
  ---------------------------------------------------
  free energy    TOTEN  =        -1.26045796 eV

  energy without entropy =       -1.25903906  energy(sigma->0) =       -1.25998499


--------------------------------------------------------------------------------------------------------




----------------------------------------- Iteration    1(   4)  ---------------------------------------


     EDDAV:  cpu time    0.82: real time    0.82
       DOS:  cpu time    0.00: real time    0.00
    --------------------------------------------
      LOOP:  cpu time    0.83: real time    0.84

 eigenvalue-minimisations  :   647
 total energy-change (2. order) :-0.4049044E-03  (-0.4045520E-03)
 number of electron       5.0000000 magnetization       6.0000000
 augmentation part        5.0000000 magnetization       6.0000000

 Free energy of the ion-electron system (eV)
  ---------------------------------------------------
  alpha Z        PSCENC =        30.72235567
  Ewald energy   TEWEN  =      -198.20040513
  -1/2 Hartree   DENC   =        -2.47843811
  -exchange  EXHF       =         0.00000000
  -V(xc)+E(xc)   XCENC  =       -60.66459854
  PAW double counting   =       143.51874798      -69.33493833
  entropy T*S    EENTRO =        -0.00142663
  eigenvalues    EBANDS =        24.52879747
  atomic energy  EATOM  =       130.64904277
  ---------------------------------------------------
  free energy    TOTEN  =        -1.26086286 eV

  energy without entropy =       -1.25943623  energy(sigma->0) =       -1.26038732


--------------------------------------------------------------------------------------------------------




----------------------------------------- Iteration    1(   5)  ---------------------------------------


     EDDAV:  cpu time    0.76: real time    0.76
       DOS:  cpu time    0.00: real time    0.00
    CHARGE:  cpu time    0.08: real time    0.08
    MIXING:  cpu time    0.00: real time    0.00
    --------------------------------------------
      LOOP:  cpu time    0.85: real time    0.86

 eigenvalue-minimisations  :   582
 total energy-change (2. order) :-0.8827361E-06  (-0.8816239E-06)
 number of electron       5.0000000 magnetization       1.7972255
 augmentation part        0.4530406 magnetization      -0.9067591

 Broyden mixing:
  rms(total) = 0.79826E+00    rms(broyden)= 0.79825E+00
  rms(prec ) = 0.10078E+01
  weight for this iteration     100.00

 Free energy of the ion-electron system (eV)
  ---------------------------------------------------
  alpha Z        PSCENC =        30.72235567
  Ewald energy   TEWEN  =      -198.20040513
  -1/2 Hartree   DENC   =        -2.47843811
  -exchange  EXHF       =         0.00000000
  -V(xc)+E(xc)   XCENC  =       -60.66459854
  PAW double counting   =       143.51874798      -69.33493833
  entropy T*S    EENTRO =        -0.00142666
  eigenvalues    EBANDS =        24.52879661
  atomic energy  EATOM  =       130.64904277
  ---------------------------------------------------
  free energy    TOTEN  =        -1.26086375 eV

  energy without entropy =       -1.25943708  energy(sigma->0) =       -1.26038819


--------------------------------------------------------------------------------------------------------




----------------------------------------- Iteration    1(   6)  ---------------------------------------


    POTLOK:  cpu time    0.20: real time    0.20
    SETDIJ:  cpu time    0.04: real time    0.05
     EDDAV:  cpu time    0.71: real time    0.71
       DOS:  cpu time    0.00: real time    0.00
    CHARGE:  cpu time    0.08: real time    0.08
    MIXING:  cpu time    0.00: real time    0.00
    --------------------------------------------
      LOOP:  cpu time    1.03: real time    1.05

 eigenvalue-minimisations  :   528
 total energy-change (2. order) :-0.1051269E+02  (-0.3825586E+00)
 number of electron       5.0000000 magnetization       1.4553498
 augmentation part        0.3677316 magnetization       0.8418984

 Broyden mixing:
  rms(total) = 0.37790E+00    rms(broyden)= 0.37789E+00
  rms(prec ) = 0.11493E+01
  weight for this iteration     100.00

 eigenvalues of (default mixing * dielectric matrix)
  average eigenvalue GAMMA=   1.4108
  1.4108

 Free energy of the ion-electron system (eV)
  ---------------------------------------------------
  alpha Z        PSCENC =        30.72235567
  Ewald energy   TEWEN  =      -198.20040513
  -1/2 Hartree   DENC   =        -1.96753233
  -exchange  EXHF       =         0.00000000
  -V(xc)+E(xc)   XCENC  =       -66.21087882
  PAW double counting   =       164.15471645      -90.20879765
  entropy T*S    EENTRO =         0.00008061
  eigenvalues    EBANDS =        19.28786448
  atomic energy  EATOM  =       130.64904277
  ---------------------------------------------------
  free energy    TOTEN  =       -11.77355395 eV

  energy without entropy =      -11.77363456  energy(sigma->0) =      -11.77358082


--------------------------------------------------------------------------------------------------------




----------------------------------------- Iteration    1(   7)  ---------------------------------------


    POTLOK:  cpu time    0.20: real time    0.20
    SETDIJ:  cpu time    0.04: real time    0.04
     EDDAV:  cpu time    0.76: real time    0.76
       DOS:  cpu time    0.00: real time    0.00
    CHARGE:  cpu time    0.08: real time    0.08
    MIXING:  cpu time    0.00: real time    0.00
    --------------------------------------------
      LOOP:  cpu time    1.09: real time    1.10

 eigenvalue-minimisations  :   583
 total energy-change (2. order) :-0.8948719E-01  (-0.6620926E-02)
 number of electron       5.0000000 magnetization       2.4210408
 augmentation part        0.3682235 magnetization       1.8091669

 Broyden mixing:
  rms(total) = 0.30283E+00    rms(broyden)= 0.30283E+00
  rms(prec ) = 0.10387E+01
  weight for this iteration     100.00

 eigenvalues of (default mixing * dielectric matrix)
  average eigenvalue GAMMA=   0.9512
  0.9512  0.9512

 Free energy of the ion-electron system (eV)
  ---------------------------------------------------
  alpha Z        PSCENC =        30.72235567
  Ewald energy   TEWEN  =      -198.20040513
  -1/2 Hartree   DENC   =        -1.78578536
  -exchange  EXHF       =         0.00000000
  -V(xc)+E(xc)   XCENC  =       -66.27923538
  PAW double counting   =       167.15244538      -93.26358492
  entropy T*S    EENTRO =         0.00075610
  eigenvalues    EBANDS =        19.14136974
  atomic energy  EATOM  =       130.64904277
  ---------------------------------------------------
  free energy    TOTEN  =       -11.86304114 eV

  energy without entropy =      -11.86379723  energy(sigma->0) =      -11.86329317


--------------------------------------------------------------------------------------------------------




----------------------------------------- Iteration    1(   8)  ---------------------------------------


    POTLOK:  cpu time    0.20: real time    0.20
    SETDIJ:  cpu time    0.05: real time    0.05
     EDDAV:  cpu time    0.71: real time    0.71
       DOS:  cpu time    0.00: real time    0.00
    CHARGE:  cpu time    0.08: real time    0.08
    MIXING:  cpu time    0.00: real time    0.00
    --------------------------------------------
      LOOP:  cpu time    1.04: real time    1.05

 eigenvalue-minimisations  :   532
 total energy-change (2. order) : 0.4812545E+00  (-0.2211339E-01)
 number of electron       5.0000000 magnetization       0.6139063
 augmentation part        0.3882668 magnetization       0.0075822

 Broyden mixing:
  rms(total) = 0.46575E+00    rms(broyden)= 0.46575E+00
  rms(prec ) = 0.65314E+00
  weight for this iteration     100.00

 eigenvalues of (default mixing * dielectric matrix)
  average eigenvalue GAMMA=   1.2098
  1.9494  0.9718  0.7081

 Free energy of the ion-electron system (eV)
  ---------------------------------------------------
  alpha Z        PSCENC =        30.72235567
  Ewald energy   TEWEN  =      -198.20040513
  -1/2 Hartree   DENC   =        -1.01366749
  -exchange  EXHF       =         0.00000000
  -V(xc)+E(xc)   XCENC  =       -65.64024967
  PAW double counting   =       171.61227788      -98.00278102
  entropy T*S    EENTRO =         0.00018376
  eigenvalues    EBANDS =        18.49145662
  atomic energy  EATOM  =       130.64904277
  ---------------------------------------------------
  free energy    TOTEN  =       -11.38178662 eV

  energy without entropy =      -11.38197038  energy(sigma->0) =      -11.38184787


--------------------------------------------------------------------------------------------------------




----------------------------------------- Iteration    1(   9)  ---------------------------------------


    POTLOK:  cpu time    0.19: real time    0.20
    SETDIJ:  cpu time    0.05: real time    0.05
     EDDAV:  cpu time    0.70: real time    0.70
       DOS:  cpu time    0.00: real time    0.00
    CHARGE:  cpu time    0.08: real time    0.08
    MIXING:  cpu time    0.00: real time    0.00
    --------------------------------------------
      LOOP:  cpu time    1.03: real time    1.04

 eigenvalue-minimisations  :   520
 total energy-change (2. order) :-0.4692863E+00  (-0.3182720E-01)
 number of electron       5.0000000 magnetization       0.4628801
 augmentation part        0.4133443 magnetization       0.3359847

 Broyden mixing:
  rms(total) = 0.13574E+00    rms(broyden)= 0.13573E+00
  rms(prec ) = 0.25754E+00
  weight for this iteration     100.00

 eigenvalues of (default mixing * dielectric matrix)
  average eigenvalue GAMMA=   1.0445
  2.0311  0.9104  0.6182  0.6182

 Free energy of the ion-electron system (eV)
  ---------------------------------------------------
  alpha Z        PSCENC =        30.72235567
  Ewald energy   TEWEN  =      -198.20040513
  -1/2 Hartree   DENC   =        -0.43928564
  -exchange  EXHF       =         0.00000000
  -V(xc)+E(xc)   XCENC  =       -65.86665283
  PAW double counting   =       188.11188191     -114.73289982
  entropy T*S    EENTRO =        -0.00080776
  eigenvalues    EBANDS =        17.90569793
  atomic energy  EATOM  =       130.64904277
  ---------------------------------------------------
  free energy    TOTEN  =       -11.85107291 eV

  energy without entropy =      -11.85026515  energy(sigma->0) =      -11.85080366


--------------------------------------------------------------------------------------------------------




----------------------------------------- Iteration    1(  10)  ---------------------------------------


    POTLOK:  cpu time    0.19: real time    0.20
    SETDIJ:  cpu time    0.04: real time    0.04
     EDDAV:  cpu time    0.82: real time    0.82
       DOS:  cpu time    0.00: real time    0.00
    CHARGE:  cpu time    0.08: real time    0.08
    MIXING:  cpu time    0.00: real time    0.00
    --------------------------------------------
      LOOP:  cpu time    1.15: real time    1.16

 eigenvalue-minimisations  :   647
 total energy-change (2. order) :-0.2088790E-01  (-0.3414317E-03)
 number of electron       5.0000000 magnetization       0.4409126
 augmentation part        0.4125302 magnetization       0.3083485

 Broyden mixing:
  rms(total) = 0.97127E-01    rms(broyden)= 0.97127E-01
  rms(prec ) = 0.21656E+00
  weight for this iteration     100.00

 eigenvalues of (default mixing * dielectric matrix)
  average eigenvalue GAMMA=   1.0719
  1.4703  1.4703  0.8856  0.8856  0.6479

 Free energy of the ion-electron system (eV)
  ---------------------------------------------------
  alpha Z        PSCENC =        30.72235567
  Ewald energy   TEWEN  =      -198.20040513
  -1/2 Hartree   DENC   =        -0.46010054
  -exchange  EXHF       =         0.00000000
  -V(xc)+E(xc)   XCENC  =       -65.89632406
  PAW double counting   =       188.54974044     -115.16455160
  entropy T*S    EENTRO =        -0.00106480
  eigenvalues    EBANDS =        17.92934643
  atomic energy  EATOM  =       130.64904277
  ---------------------------------------------------
  free energy    TOTEN  =       -11.87196082 eV

  energy without entropy =      -11.87089601  energy(sigma->0) =      -11.87160588


--------------------------------------------------------------------------------------------------------




----------------------------------------- Iteration    1(  11)  ---------------------------------------


    POTLOK:  cpu time    0.19: real time    0.19
    SETDIJ:  cpu time    0.05: real time    0.05
     EDDAV:  cpu time    0.73: real time    0.73
       DOS:  cpu time    0.00: real time    0.00
    CHARGE:  cpu time    0.08: real time    0.08
    MIXING:  cpu time    0.00: real time    0.00
    --------------------------------------------
      LOOP:  cpu time    1.06: real time    1.07

 eigenvalue-minimisations  :   552
 total energy-change (2. order) :-0.8002483E-03  (-0.5957274E-04)
 number of electron       5.0000000 magnetization       0.1279095
 augmentation part        0.4116675 magnetization      -0.0048122

 Broyden mixing:
  rms(total) = 0.88454E-01    rms(broyden)= 0.88454E-01
  rms(prec ) = 0.19004E+00
  weight for this iteration     100.00

 eigenvalues of (default mixing * dielectric matrix)
  average eigenvalue GAMMA=   1.2280
  2.5069  1.2822  1.2822  0.8278  0.8278  0.6409

 Free energy of the ion-electron system (eV)
  ---------------------------------------------------
  alpha Z        PSCENC =        30.72235567
  Ewald energy   TEWEN  =      -198.20040513
  -1/2 Hartree   DENC   =        -0.48163525
  -exchange  EXHF       =         0.00000000
  -V(xc)+E(xc)   XCENC  =       -65.91217038
  PAW double counting   =       188.96512783     -115.57297884
  entropy T*S    EENTRO =        -0.00105281
  eigenvalues    EBANDS =        17.95895509
  atomic energy  EATOM  =       130.64904277
  ---------------------------------------------------
  free energy    TOTEN  =       -11.87276106 eV

  energy without entropy =      -11.87170825  energy(sigma->0) =      -11.87241013


--------------------------------------------------------------------------------------------------------




----------------------------------------- Iteration    1(  12)  ---------------------------------------


    POTLOK:  cpu time    0.19: real time    0.19
    SETDIJ:  cpu time    0.05: real time    0.05
     EDDAV:  cpu time    0.73: real time    0.74
       DOS:  cpu time    0.00: real time    0.00
    CHARGE:  cpu time    0.08: real time    0.08
    MIXING:  cpu time    0.00: real time    0.00
    --------------------------------------------
      LOOP:  cpu time    1.06: real time    1.08

 eigenvalue-minimisations  :   554
 total energy-change (2. order) :-0.1281833E-01  (-0.1143417E-02)
 number of electron       5.0000000 magnetization       0.1817489
 augmentation part        0.4088342 magnetization       0.0414821

 Broyden mixing:
  rms(total) = 0.18419E-01    rms(broyden)= 0.18419E-01
  rms(prec ) = 0.72616E-01
  weight for this iteration     100.00

 eigenvalues of (default mixing * dielectric matrix)
  average eigenvalue GAMMA=   1.2433
  2.4742  1.3297  1.3297  1.2892  0.8227  0.8227  0.6348

 Free energy of the ion-electron system (eV)
  ---------------------------------------------------
  alpha Z        PSCENC =        30.72235567
  Ewald energy   TEWEN  =      -198.20040513
  -1/2 Hartree   DENC   =        -0.57028339
  -exchange  EXHF       =         0.00000000
  -V(xc)+E(xc)   XCENC  =       -65.97228243
  PAW double counting   =       195.05346778     -121.64512362
  entropy T*S    EENTRO =        -0.00037348
  eigenvalues    EBANDS =        18.07802244
  atomic energy  EATOM  =       130.64904277
  ---------------------------------------------------
  free energy    TOTEN  =       -11.88557939 eV

  energy without entropy =      -11.88520591  energy(sigma->0) =      -11.88545490


--------------------------------------------------------------------------------------------------------




----------------------------------------- Iteration    1(  13)  ---------------------------------------


    POTLOK:  cpu time    0.19: real time    0.19
    SETDIJ:  cpu time    0.05: real time    0.05
     EDDAV:  cpu time    0.73: real time    0.73
       DOS:  cpu time    0.00: real time    0.00
    CHARGE:  cpu time    0.08: real time    0.08
    MIXING:  cpu time    0.00: real time    0.01
    --------------------------------------------
      LOOP:  cpu time    1.06: real time    1.07

 eigenvalue-minimisations  :   551
 total energy-change (2. order) : 0.1034219E-02  (-0.4246172E-03)
 number of electron       5.0000000 magnetization       0.1429970
 augmentation part        0.4063124 magnetization       0.0083970

 Broyden mixing:
  rms(total) = 0.78586E-02    rms(broyden)= 0.78582E-02
  rms(prec ) = 0.10149E-01
  weight for this iteration     100.00

 eigenvalues of (default mixing * dielectric matrix)
  average eigenvalue GAMMA=   1.1814
  2.6443  1.5780  1.1664  1.1664  0.8652  0.8652  0.6400  0.5257

 Free energy of the ion-electron system (eV)
  ---------------------------------------------------
  alpha Z        PSCENC =        30.72235567
  Ewald energy   TEWEN  =      -198.20040513
  -1/2 Hartree   DENC   =        -0.64312227
  -exchange  EXHF       =         0.00000000
  -V(xc)+E(xc)   XCENC  =       -66.01124583
  PAW double counting   =       195.19093700     -121.75404749
  entropy T*S    EENTRO =        -0.00069890
  eigenvalues    EBANDS =        18.16263900
  atomic energy  EATOM  =       130.64904277
  ---------------------------------------------------
  free energy    TOTEN  =       -11.88454517 eV

  energy without entropy =      -11.88384627  energy(sigma->0) =      -11.88431221


--------------------------------------------------------------------------------------------------------




----------------------------------------- Iteration    1(  14)  ---------------------------------------


    POTLOK:  cpu time    0.19: real time    0.19
    SETDIJ:  cpu time    0.04: real time    0.04
     EDDAV:  cpu time    0.48: real time    0.49
       DOS:  cpu time    0.00: real time    0.00
    CHARGE:  cpu time    0.08: real time    0.08
    MIXING:  cpu time    0.00: real time    0.01
    --------------------------------------------
      LOOP:  cpu time    0.81: real time    0.83

 eigenvalue-minimisations  :   288
 total energy-change (2. order) :-0.1050705E-03  (-0.6098719E-05)
 number of electron       5.0000000 magnetization       0.1435571
 augmentation part        0.4063629 magnetization       0.0033608

 Broyden mixing:
  rms(total) = 0.43799E-02    rms(broyden)= 0.43799E-02
  rms(prec ) = 0.73896E-02
  weight for this iteration     100.00

 eigenvalues of (default mixing * dielectric matrix)
  average eigenvalue GAMMA=   1.2259
  2.7339  1.9846  1.1991  1.1991  0.9194  0.9194  0.8717  0.6334  0.5724

 Free energy of the ion-electron system (eV)
  ---------------------------------------------------
  alpha Z        PSCENC =        30.72235567
  Ewald energy   TEWEN  =      -198.20040513
  -1/2 Hartree   DENC   =        -0.64333916
  -exchange  EXHF       =         0.00000000
  -V(xc)+E(xc)   XCENC  =       -66.01190216
  PAW double counting   =       195.21954608     -121.78138694
  entropy T*S    EENTRO =        -0.00035576
  eigenvalues    EBANDS =        18.16179439
  atomic energy  EATOM  =       130.64904277
  ---------------------------------------------------
  free energy    TOTEN  =       -11.88465024 eV

  energy without entropy =      -11.88429448  energy(sigma->0) =      -11.88453166


--------------------------------------------------------------------------------------------------------




----------------------------------------- Iteration    1(  15)  ---------------------------------------


    POTLOK:  cpu time    0.20: real time    0.20
    SETDIJ:  cpu time    0.04: real time    0.05
     EDDAV:  cpu time    0.45: real time    0.45
       DOS:  cpu time    0.00: real time    0.00
    --------------------------------------------
      LOOP:  cpu time    0.70: real time    0.71

 eigenvalue-minimisations  :   252
 total energy-change (2. order) : 0.1467680E-04  (-0.2205344E-05)
 number of electron       5.0000000 magnetization       0.1435571
 augmentation part        0.4063629 magnetization       0.0033608

 Free energy of the ion-electron system (eV)
  ---------------------------------------------------
  alpha Z        PSCENC =        30.72235567
  Ewald energy   TEWEN  =      -198.20040513
  -1/2 Hartree   DENC   =        -0.63999977
  -exchange  EXHF       =         0.00000000
  -V(xc)+E(xc)   XCENC  =       -66.01021095
  PAW double counting   =       194.70998006     -121.26956930
  entropy T*S    EENTRO =        -0.00036045
  eigenvalues    EBANDS =        18.15453154
  atomic energy  EATOM  =       130.64904277
  ---------------------------------------------------
  free energy    TOTEN  =       -11.88463556 eV

  energy without entropy =      -11.88427512  energy(sigma->0) =      -11.88451541


--------------------------------------------------------------------------------------------------------




 average (electrostatic) potential at core
  the test charge radii are     1.2538
  (the norm of the test charge is              1.0000)
       1 -34.9069
 
 
 
 E-fermi :   5.6660     XC(G=0): -12.3826     alpha+bet :-13.5649


 spin component 1

 k-point   1 :       0.0833    0.0833    0.0833
  band No.  band energies     occupation 
      1      -0.5544      1.00000
      2       5.5012      1.00002
      3       5.5012      1.00002
      4       8.5810      0.00000
      5       9.4720      0.00000
      6       9.4720      0.00000
      7      20.0271      0.00000
      8      21.8081      0.00000
      9      22.8958      0.00000

 k-point   2 :       0.2500    0.0833    0.0833
  band No.  band energies     occupation 
      1       1.5742      1.00000
      2       4.4750      1.00000
      3       5.0599      1.00000
      4       9.6533      0.00000
      5      10.2630      0.00000
      6      11.9924      0.00000
      7      19.5859      0.00000
      8      19.9735      0.00000
      9      20.0646      0.00000

 k-point   3 :       0.4167    0.0833    0.0833
  band No.  band energies     occupation 
      1       1.9545      1.00000
      2       4.0991      1.00000
      3       6.5836      0.00000
      4       9.8585      0.00000
      5      10.6752      0.00000
      6      14.4815      0.00000
      7      16.2258      0.00000
      8      18.2959      0.00000
      9      20.0344      0.00000

 k-point   4 :      -0.0833    0.0833    0.0833
  band No.  band energies     occupation 
      1      -1.6167      1.00000
      2       6.3816      0.00000
      3       6.3816      0.00000
      4       6.7478      0.00000
      5       8.7561      0.00000
      6      10.0654      0.00000
      7      20.0278      0.00000
      8      21.7303      0.00000
      9      21.7308      0.00000

 k-point   5 :       0.2500    0.2500    0.0833
  band No.  band energies     occupation 
      1       3.1725      1.00000
      2       4.3179      1.00000
      3       4.9507      1.00000
      4      10.1695      0.00000
      5      10.6275      0.00000
      6      15.0787      0.00000
      7      15.7206      0.00000
      8      19.4605      0.00000
      9      20.0332      0.00000

 k-point   6 :      -0.2500    0.2500    0.0833
  band No.  band energies     occupation 
      1       0.3239      1.00000
      2       5.4434      1.00000
      3       5.5989      1.03363
      4       8.1944      0.00000
      5       8.9387      0.00000
      6      10.5122      0.00000
      7      20.0215      0.00000
      8      20.7743      0.00000
      9      22.8631      0.00000

 k-point   7 :      -0.4167    0.4167    0.0833
  band No.  band energies     occupation 
      1       1.5846      1.00000
      2       4.6043      1.00000
      3       6.0065      0.00000
      4       9.0339      0.00000
      5      10.9871      0.00000
      6      12.5345      0.00000
      7      17.9537      0.00000
      8      19.3399      0.00000
      9      20.0400      0.00000

 k-point   8 :      -0.2500    0.4167    0.0833
  band No.  band energies     occupation 
      1       2.2218      1.00000
      2       4.3765      1.00000
      3       5.5674      1.00872
      4       8.2955      0.00000
      5      10.4328      0.00000
      6      12.1020      0.00000
      7      18.6346      0.00000
      8      20.0361      0.00000
      9      22.3741      0.00000

 k-point   9 :      -0.4167   -0.4167    0.0833
  band No.  band energies     occupation 
      1       2.8052      1.00000
      2       4.6481      1.00000
      3       5.0015      1.00000
      4       8.8679      0.00000
      5      11.1206      0.00000
      6      15.3567      0.00000
      7      15.8406      0.00000
      8      19.6844      0.00000
      9      20.0329      0.00000

 k-point  10 :       0.2500    0.2500    0.2500
  band No.  band energies     occupation 
      1       4.4702      1.00000
      2       4.4702      1.00000
      3       4.4702      1.00000
      4      10.8048      0.00000
      5      10.8048      0.00000
      6      12.7873      0.00000
      7      18.5197      0.00000
      8      18.5197      0.00000
      9      18.5197      0.00000

 k-point  11 :      -0.2500    0.2500    0.2500
  band No.  band energies     occupation 
      1       1.9571      1.00000
      2       4.7789      1.00000
      3       6.9709      0.00000
      4       6.9709      0.00000
      5       8.9185      0.00000
      6      10.7412      0.00000
      7      20.0070      0.00000
      8      20.3325      0.00000
      9      24.9769      0.00000

 k-point  12 :      -0.4167    0.4167    0.2500
  band No.  band energies     occupation 
      1       2.8671      1.00000
      2       3.7088      1.00000
      3       6.9043      0.00000
      4       7.5980      0.00000
      5      12.0275      0.00000
      6      12.0741      0.00000
      7      18.4497      0.00000
      8      20.0344      0.00000
      9      20.7895      0.00000

 k-point  13 :      -0.4167   -0.4167    0.2500
  band No.  band energies     occupation 
      1       3.0152      1.00000
      2       3.0152      1.00000
      3       6.4772      0.00000
      4      10.7089      0.00000
      5      10.7089      0.00000
      6      15.6794      0.00000
      7      16.7936      0.00000
      8      16.7936      0.00000
      9      20.0299      0.00000

 k-point  14 :      -0.4167    0.4167    0.4167
  band No.  band energies     occupation 
      1       2.2478      1.00000
      2       2.3478      1.00000
      3      10.3790      0.00000
      4      10.3790      0.00000
      5      11.9379      0.00000
      6      12.6595      0.00000
      7      17.1267      0.00000
      8      17.1267      0.00000
      9      20.0188      0.00000

 spin component 2

 k-point   1 :       0.0833    0.0833    0.0833
  band No.  band energies     occupation 
      1      -0.4516      1.00000
      2       5.6014      1.03482
      3       5.6014      1.03482
      4       8.6781      0.00000
      5       9.5418      0.00000
      6       9.5418      0.00000
      7      20.0682      0.00000
      8      21.9175      0.00000
      9      22.9894      0.00000

 k-point   2 :       0.2500    0.0833    0.0833
  band No.  band energies     occupation 
      1       1.6759      1.00000
      2       4.5770      1.00000
      3       5.1564      1.00000
      4       9.7283      0.00000
      5      10.3306      0.00000
      6      12.0820      0.00000
      7      19.6712      0.00000
      8      20.0659      0.00000
      9      20.1106      0.00000

 k-point   3 :       0.4167    0.0833    0.0833
  band No.  band energies     occupation 
      1       2.0542      1.00000
      2       4.2018      1.00000
      3       6.6807      0.00000
      4       9.9333      0.00000
      5      10.7409      0.00000
      6      14.5613      0.00000
      7      16.3192      0.00000
      8      18.3900      0.00000
      9      20.0758      0.00000

 k-point   4 :      -0.0833    0.0833    0.0833
  band No.  band energies     occupation 
      1      -1.5134      1.00000
      2       6.4826      0.00000
      3       6.4826      0.00000
      4       6.8483      0.00000
      5       8.8258      0.00000
      6      10.1297      0.00000
      7      20.0690      0.00000
      8      21.8322      0.00000
      9      21.8391      0.00000

 k-point   5 :       0.2500    0.2500    0.0833
  band No.  band energies     occupation 
      1       3.2747      1.00000
      2       4.4146      1.00000
      3       5.0496      1.00000
      4      10.2424      0.00000
      5      10.6958      0.00000
      6      15.1821      0.00000
      7      15.8011      0.00000
      8      19.5405      0.00000
      9      20.0746      0.00000

 k-point   6 :      -0.2500    0.2500    0.0833
  band No.  band energies     occupation 
      1       0.4259      1.00000
      2       5.5454      1.00169
      3       5.6919      0.12040
      4       8.2762      0.00000
      5       9.0350      0.00000
      6      10.5781      0.00000
      7      20.0629      0.00000
      8      20.8681      0.00000
      9      22.9513      0.00000

 k-point   7 :      -0.4167    0.4167    0.0833
  band No.  band energies     occupation 
      1       1.6839      1.00000
      2       4.7070      1.00000
      3       6.0971      0.00000
      4       9.1160      0.00000
      5      11.0589      0.00000
      6      12.6195      0.00000
      7      18.0385      0.00000
      8      19.4301      0.00000
      9      20.0819      0.00000

 k-point   8 :      -0.2500    0.4167    0.0833
  band No.  band energies     occupation 
      1       2.3217      1.00000
      2       4.4659      1.00000
      3       5.6673      0.47900
      4       8.3834      0.00000
      5      10.5101      0.00000
      6      12.1873      0.00000
      7      18.7221      0.00000
      8      20.0778      0.00000
      9      22.4547      0.00000

 k-point   9 :      -0.4167   -0.4167    0.0833
  band No.  band energies     occupation 
      1       2.9021      1.00000
      2       4.7462      1.00000
      3       5.0896      1.00000
      4       8.9541      0.00000
      5      11.2027      0.00000
      6      15.4371      0.00000
      7      15.9344      0.00000
      8      19.7696      0.00000
      9      20.0743      0.00000

 k-point  10 :       0.2500    0.2500    0.2500
  band No.  band energies     occupation 
      1       4.5701      1.00000
      2       4.5701      1.00000
      3       4.5701      1.00000
      4      10.8697      0.00000
      5      10.8697      0.00000
      6      12.8982      0.00000
      7      18.5996      0.00000
      8      18.5996      0.00000
      9      18.5996      0.00000

 k-point  11 :      -0.2500    0.2500    0.2500
  band No.  band energies     occupation 
      1       2.0545      1.00000
      2       4.8592      1.00000
      3       7.0706      0.00000
      4       7.0706      0.00000
      5       9.0143      0.00000
      6      10.8162      0.00000
      7      20.0502      0.00000
      8      20.4161      0.00000
      9      25.0683      0.00000

 k-point  12 :      -0.4167    0.4167    0.2500
  band No.  band energies     occupation 
      1       2.9562      1.00000
      2       3.7935      1.00000
      3       7.0040      0.00000
      4       7.6929      0.00000
      5      12.1140      0.00000
      6      12.1662      0.00000
      7      18.5346      0.00000
      8      20.0759      0.00000
      9      20.8915      0.00000

 k-point  13 :      -0.4167   -0.4167    0.2500
  band No.  band energies     occupation 
      1       3.0995      1.00000
      2       3.0995      1.00000
      3       6.5785      0.00000
      4      10.8009      0.00000
      5      10.8009      0.00000
      6      15.7740      0.00000
      7      16.8862      0.00000
      8      16.8862      0.00000
      9      20.0711      0.00000

 k-point  14 :      -0.4167    0.4167    0.4167
  band No.  band energies     occupation 
      1       2.3314      1.00000
      2       2.4321      1.00000
      3      10.4737      0.00000
      4      10.4737      0.00000
      5      12.0233      0.00000
      6      12.7643      0.00000
      7      17.2252      0.00000
      8      17.2252      0.00000
      9      20.0599      0.00000


--------------------------------------------------------------------------------------------------------


 soft charge-density along one line, spin component           1
         0         1         2         3         4         5         6         7         8         9
 total charge-density along one line
 
 soft charge-density along one line, spin component           2
         0         1         2         3         4         5         6         7         8         9
 total charge-density along one line
 
 pseudopotential strength for first ion, spin component:           1
 -6.559   0.000   0.000   0.000   0.000   0.091   0.000   0.000
  0.000  -6.559   0.000   0.000   0.000   0.000   0.091   0.000
  0.000   0.000  -6.568   0.000   0.000   0.000   0.000   0.091
  0.000   0.000   0.000  -6.559   0.000   0.000   0.000   0.000
  0.000   0.000   0.000   0.000  -6.568   0.000   0.000   0.000
  0.091   0.000   0.000   0.000   0.000   0.071   0.000   0.000
  0.000   0.091   0.000   0.000   0.000   0.000   0.071   0.000
  0.000   0.000   0.091   0.000   0.000   0.000   0.000   0.071
  0.000   0.000   0.000   0.091   0.000   0.000   0.000   0.000
  0.000   0.000   0.000   0.000   0.091   0.000   0.000   0.000
  0.000   0.000   0.000   0.000   0.000   0.000   0.000   0.000
  0.000   0.000   0.000   0.000   0.000   0.000   0.000   0.000
  0.000   0.000   0.000   0.000   0.000   0.000   0.000   0.000
  0.000   0.000   0.000   0.000   0.000   0.000   0.000   0.000
  0.000   0.000   0.000   0.000   0.000   0.000   0.000   0.000
  0.000   0.000   0.000   0.000   0.000   0.000   0.000   0.000
  0.000   0.000   0.000   0.000   0.000   0.000   0.000   0.000
  0.000   0.000   0.000   0.000   0.000   0.000   0.000   0.000
 pseudopotential strength for first ion, spin component:           2
 -6.557   0.000   0.000   0.000   0.000   0.091   0.000   0.000
  0.000  -6.557   0.000   0.000   0.000   0.000   0.091   0.000
  0.000   0.000  -6.567   0.000   0.000   0.000   0.000   0.091
  0.000   0.000   0.000  -6.557   0.000   0.000   0.000   0.000
  0.000   0.000   0.000   0.000  -6.567   0.000   0.000   0.000
  0.091   0.000   0.000   0.000   0.000   0.071   0.000   0.000
  0.000   0.091   0.000   0.000   0.000   0.000   0.071   0.000
  0.000   0.000   0.091   0.000   0.000   0.000   0.000   0.071
  0.000   0.000   0.000   0.091   0.000   0.000   0.000   0.000
  0.000   0.000   0.000   0.000   0.091   0.000   0.000   0.000
  0.000   0.000   0.000   0.000   0.000   0.000   0.000   0.000
  0.000   0.000   0.000   0.000   0.000   0.000   0.000   0.000
  0.000   0.000   0.000   0.000   0.000   0.000   0.000   0.000
  0.000   0.000   0.000   0.000   0.000   0.000   0.000   0.000
  0.000   0.000   0.000   0.000   0.000   0.000   0.000   0.000
  0.000   0.000   0.000   0.000   0.000   0.000   0.000   0.000
  0.000   0.000   0.000   0.000   0.000   0.000   0.000   0.000
  0.000   0.000   0.000   0.000   0.000   0.000   0.000   0.000
 total augmentation occupancy for first ion, spin component:           1
  0.800   0.000   0.000   0.000   0.000  -0.566   0.000   0.000   0.000   0.000   0.000   0.000   0.000   0.000   0.000   0.000
  0.000   0.800   0.000   0.000   0.000   0.000  -0.566   0.000   0.000   0.000   0.000   0.000   0.000   0.000   0.000   0.000
  0.000   0.000   0.555   0.000   0.000   0.000   0.000  -0.495   0.000   0.000   0.000   0.000   0.000   0.000   0.000   0.000
  0.000   0.000   0.000   0.800   0.000   0.000   0.000   0.000  -0.566   0.000   0.000   0.000   0.000   0.000   0.000   0.000
  0.000   0.000   0.000   0.000   0.555   0.000   0.000   0.000   0.000  -0.495   0.000   0.000   0.000   0.000   0.000   0.000
 -0.566   0.000   0.000   0.000   0.000   0.449   0.000   0.000   0.000   0.000   0.000   0.000   0.000   0.000   0.000   0.000
  0.000  -0.566   0.000   0.000   0.000   0.000   0.449   0.000   0.000   0.000   0.000   0.000   0.000   0.000   0.000   0.000
  0.000   0.000  -0.495   0.000   0.000   0.000   0.000   0.475   0.000   0.000   0.000   0.000   0.000   0.000   0.000   0.000
  0.000   0.000   0.000  -0.566   0.000   0.000   0.000   0.000   0.449   0.000   0.000   0.000   0.000   0.000   0.000   0.000
  0.000   0.000   0.000   0.000  -0.495   0.000   0.000   0.000   0.000   0.475   0.000   0.000   0.000   0.000   0.000   0.000
  0.000   0.000   0.000   0.000   0.000   0.000   0.000   0.000   0.000   0.000   1.392  -0.275   0.000   0.000   0.000   0.000
  0.000   0.000   0.000   0.000   0.000   0.000   0.000   0.000   0.000   0.000  -0.275   0.058   0.000   0.000   0.000   0.000
  0.000   0.000   0.000   0.000   0.000   0.000   0.000   0.000   0.000   0.000   0.000   0.000   0.291   0.000   0.000   0.011
  0.000   0.000   0.000   0.000   0.000   0.000   0.000   0.000   0.000   0.000   0.000   0.000   0.000   0.291   0.000   0.000
  0.000   0.000   0.000   0.000   0.000   0.000   0.000   0.000   0.000   0.000   0.000   0.000   0.000   0.000   0.291   0.000
  0.000   0.000   0.000   0.000   0.000   0.000   0.000   0.000   0.000   0.000   0.000   0.000   0.011   0.000   0.000   0.000
  0.000   0.000   0.000   0.000   0.000   0.000   0.000   0.000   0.000   0.000   0.000   0.000   0.000   0.011   0.000   0.000
  0.000   0.000   0.000   0.000   0.000   0.000   0.000   0.000   0.000   0.000   0.000   0.000   0.000   0.000   0.011   0.000
 total augmentation occupancy for first ion, spin component:           2
  0.036   0.000   0.000   0.000   0.000  -0.018   0.000   0.000   0.000   0.000   0.000   0.000   0.000   0.000   0.000   0.000
  0.000   0.036   0.000   0.000   0.000   0.000  -0.018   0.000   0.000   0.000   0.000   0.000   0.000   0.000   0.000   0.000
  0.000   0.000   0.016   0.000   0.000   0.000   0.000  -0.009   0.000   0.000   0.000   0.000   0.000   0.000   0.000   0.000
  0.000   0.000   0.000   0.036   0.000   0.000   0.000   0.000  -0.018   0.000   0.000   0.000   0.000   0.000   0.000   0.000
  0.000   0.000   0.000   0.000   0.016   0.000   0.000   0.000   0.000  -0.009   0.000   0.000   0.000   0.000   0.000   0.000
 -0.018   0.000   0.000   0.000   0.000   0.010   0.000   0.000   0.000   0.000   0.000   0.000   0.000   0.000   0.000   0.000
  0.000  -0.018   0.000   0.000   0.000   0.000   0.010   0.000   0.000   0.000   0.000   0.000   0.000   0.000   0.000   0.000
  0.000   0.000  -0.009   0.000   0.000   0.000   0.000   0.006   0.000   0.000   0.000   0.000   0.000   0.000   0.000   0.000
  0.000   0.000   0.000  -0.018   0.000   0.000   0.000   0.000   0.010   0.000   0.000   0.000   0.000   0.000   0.000   0.000
  0.000   0.000   0.000   0.000  -0.009   0.000   0.000   0.000   0.000   0.006   0.000   0.000   0.000   0.000   0.000   0.000
  0.000   0.000   0.000   0.000   0.000   0.000   0.000   0.000   0.000   0.000   0.004  -0.002   0.000   0.000   0.000   0.000
  0.000   0.000   0.000   0.000   0.000   0.000   0.000   0.000   0.000   0.000  -0.002   0.001   0.000   0.000   0.000   0.000
  0.000   0.000   0.000   0.000   0.000   0.000   0.000   0.000   0.000   0.000   0.000   0.000   0.010   0.000   0.000   0.000
  0.000   0.000   0.000   0.000   0.000   0.000   0.000   0.000   0.000   0.000   0.000   0.000   0.000   0.010   0.000   0.000
  0.000   0.000   0.000   0.000   0.000   0.000   0.000   0.000   0.000   0.000   0.000   0.000   0.000   0.000   0.010   0.000
  0.000   0.000   0.000   0.000   0.000   0.000   0.000   0.000   0.000   0.000   0.000   0.000   0.000   0.000   0.000   0.000
  0.000   0.000   0.000   0.000   0.000   0.000   0.000   0.000   0.000   0.000   0.000   0.000   0.000   0.000   0.000   0.000
  0.000   0.000   0.000   0.000   0.000   0.000   0.000   0.000   0.000   0.000   0.000   0.000   0.000   0.000   0.000   0.000


------------------------ aborting loop because EDIFF is reached ----------------------------------------


 


 total charge     
 
# of ion     s       p       d       tot
----------------------------------------
  1        0.703   0.675   3.397   4.775
 


 magnetization (x)
 
# of ion     s       p       d       tot
----------------------------------------
  1        0.003   0.022   0.126   0.151
 
    CHARGE:  cpu time    0.08: real time    0.08
    FORLOC:  cpu time    0.00: real time    0.00
    FORNL :  cpu time    0.24: real time    0.24
    STRESS:  cpu time    0.42: real time    0.42
    FORCOR:  cpu time    0.19: real time    0.19
    FORHAR:  cpu time    0.02: real time    0.02
    MIXING:  cpu time    0.01: real time    0.01

  FORCE on cell =-STRESS in cart. coord.  units (eV):
  Direction    XX          YY          ZZ          XY          YZ          ZX
  --------------------------------------------------------------------------------------
  Alpha Z    30.72236    30.72236    30.72236
  Ewald     -66.06680   -66.06680   -66.06680     0.00000     0.00000     0.00000
  Hartree     0.21242     0.21242     0.21242     0.00000     0.00000     0.00000
  E(xc)     -22.52985   -22.52985   -22.52985     0.00000     0.00000     0.00000
  Local       3.95392     3.95392     3.95392     0.00000     0.00000     0.00000
  n-local    -8.58107    -8.44206    -7.23072     1.62614    -1.50018    -2.22988
  augment     2.93470     2.93470     2.93470     0.00000     0.00000     0.00000
  Kinetic    58.13249    56.93428    61.15077    -1.42875     2.35690     1.97791
  Fock        0.00000     0.00000     0.00000     0.00000     0.00000     0.00000
  -------------------------------------------------------------------------------------
  Total      -0.11870    -0.11870    -0.11870     0.00000     0.00000     0.00000
  in kB     -10.53580   -10.53580   -10.53580     0.00000     0.00000     0.00000
  external pressure =      -10.54 kB  Pullay stress =        0.00 kB


 VOLUME and BASIS-vectors are now :
 -----------------------------------------------------------------------------
  energy-cutoff  :      450.00
  volume of cell :       18.05
      direct lattice vectors                 reciprocal lattice vectors
    -1.652500000  1.652500000  1.652500000     0.000000000  0.302571861  0.302571861
     1.652500000 -1.652500000  1.652500000     0.302571861  0.000000000  0.302571861
     1.652500000  1.652500000 -1.652500000     0.302571861  0.302571861  0.000000000

  length of vectors
     2.862213960  2.862213960  2.862213960     0.427901229  0.427901229  0.427901229


 FORCES acting on ions
    electron-ion (+dipol)            ewald-force                    non-local-force                 convergence-correction
 -----------------------------------------------------------------------------------------------
   -.874E-17 -.941E-15 0.494E-15   0.532E-16 -.385E-16 -.464E-15   0.248E-23 0.165E-23 0.165E-23   -.402E-16 -.601E-15 -.648E-15
 -----------------------------------------------------------------------------------------------
   -.874E-17 -.941E-15 0.494E-15   0.532E-16 -.385E-16 -.464E-15   0.248E-23 0.165E-23 0.165E-23   -.402E-16 -.601E-15 -.648E-15
 
 
 POSITION                                       TOTAL-FORCE (eV/Angst)
 -----------------------------------------------------------------------------------
      0.00000      0.00000      0.00000         0.000000      0.000000      0.000000
 -----------------------------------------------------------------------------------
    total drift:                                0.000000      0.000000      0.000000


--------------------------------------------------------------------------------------------------------



  FREE ENERGIE OF THE ION-ELECTRON SYSTEM (eV)
  ---------------------------------------------------
  free  energy   TOTEN  =       -11.884636 eV

  energy  without entropy=      -11.884275  energy(sigma->0) =      -11.884515
 


--------------------------------------------------------------------------------------------------------


    POTLOK:  cpu time    0.24: real time    0.24


--------------------------------------------------------------------------------------------------------


 writing wavefunctions
     LOOP+:  cpu time   15.79: real time   16.04
    4ORBIT:  cpu time    0.00: real time    0.00
 


 total charge     
 
# of ion     s       p       d       tot
----------------------------------------
  1        0.703   0.675   3.397   4.775
 


 magnetization (x)
 
# of ion     s       p       d       tot
----------------------------------------
  1        0.003   0.022   0.126   0.151
 

 total amount of memory used by VASP on root node    40264. kBytes
========================================================================

   base      :      30000. kBytes
   nonl-proj :        816. kBytes
   fftplans  :       2284. kBytes
   grid      :       5440. kBytes
   one-center:         31. kBytes
   wavefun   :       1693. kBytes
 
  
  
 General timing and accounting informations for this job:
 ========================================================
  
                  Total CPU time used (sec):       16.353
                            User time (sec):       16.252
                          System time (sec):        0.101
                         Elapsed time (sec):       16.658
  
                   Maximum memory used (kb):           0.
                   Average memory used (kb):           0.
  
                          Minor page faults:         9815
                          Major page faults:            0
                 Voluntary context switches:          412
