<?xml version="1.0" encoding="ISO-8859-1"?>
<modeling>
 <generator>
  <i name="program" type="string">vasp </i>
  <i name="version" type="string">5.2.12  </i>
  <i name="subversion" type="string">11Nov11 complex                                                      parallel </i>
  <i name="platform" type="string">LinuxIFC </i>
  <i name="date" type="string">2012 10 17 </i>
  <i name="time" type="string">13:05:55 </i>
 </generator>
 <incar>
  <i type="int" name="ISTART">     0</i>
  <i type="string" name="PREC">accurate</i>
  <i type="int" name="ISPIN">     2</i>
  <i name="ENCUT">    450.00000000</i>
  <v name="MAGMOM">      6.00000000</v>
  <i type="logical" name="LREAL"> F  </i>
  <i type="int" name="ISMEAR">     1</i>
  <i name="SIGMA">      0.05000000</i>
  <i type="logical" name="LORBIT"> F  </i>
 </incar>
 <kpoints>
  <generation param="Monkhorst-Pack">
   <v type="int" name="divisions">       6        6        6 </v>
   <v name="usershift">      0.00000000       0.00000000       0.00000000 </v>
   <v name="genvec1">      0.16666667       0.00000000       0.00000000 </v>
   <v name="genvec2">      0.00000000       0.16666667       0.00000000 </v>
   <v name="genvec3">      0.00000000       0.00000000       0.16666667 </v>
   <v name="shift">      0.50000000       0.50000000       0.50000000 </v>
  </generation>
  <varray name="kpointlist" >
   <v>       0.08333333       0.08333333       0.08333333 </v>
   <v>       0.25000000       0.08333333       0.08333333 </v>
   <v>       0.41666667       0.08333333       0.08333333 </v>
   <v>      -0.08333333       0.08333333       0.08333333 </v>
   <v>       0.25000000       0.25000000       0.08333333 </v>
   <v>      -0.25000000       0.25000000       0.08333333 </v>
   <v>      -0.41666667       0.41666667       0.08333333 </v>
   <v>      -0.25000000       0.41666667       0.08333333 </v>
   <v>      -0.41666667      -0.41666667       0.08333333 </v>
   <v>       0.25000000       0.25000000       0.25000000 </v>
   <v>      -0.25000000       0.25000000       0.25000000 </v>
   <v>      -0.41666667       0.41666667       0.25000000 </v>
   <v>      -0.41666667      -0.41666667       0.25000000 </v>
   <v>      -0.41666667       0.41666667       0.41666667 </v>
  </varray>
  <varray name="weights" >
   <v>       0.03703704 </v>
   <v>       0.11111111 </v>
   <v>       0.05555556 </v>
   <v>       0.02777778 </v>
   <v>       0.11111111 </v>
   <v>       0.11111111 </v>
   <v>       0.11111111 </v>
   <v>       0.11111111 </v>
   <v>       0.11111111 </v>
   <v>       0.00925926 </v>
   <v>       0.02777778 </v>
   <v>       0.11111111 </v>
   <v>       0.03703704 </v>
   <v>       0.02777778 </v>
  </varray>
 </kpoints>
 <parameters>
  <separator name="general" >
   <i type="string" name="SYSTEM">unknown system</i>
   <i type="logical" name="LCOMPAT"> F  </i>
  </separator>
  <separator name="electronic" >
   <i type="string" name="PREC">accura</i>
   <i name="ENMAX">    450.00000000</i>
   <i name="ENAUG">    332.07500000</i>
   <i name="EDIFF">      0.00010000</i>
   <i type="int" name="IALGO">    38</i>
   <i type="int" name="IWAVPR">    10</i>
   <i type="int" name="NBANDS">     9</i>
   <i name="NELECT">      5.00000000</i>
   <i type="int" name="TURBO">     0</i>
   <i type="int" name="IRESTART">     0</i>
   <i type="int" name="NREBOOT">     0</i>
   <i type="int" name="NMIN">     0</i>
   <i name="EREF">      0.00000000</i>
   <separator name="electronic smearing" >
    <i type="int" name="ISMEAR">     1</i>
    <i name="SIGMA">      0.05000000</i>
    <i name="KSPACING">      0.50000000</i>
    <i type="logical" name="KGAMMA"> T  </i>
   </separator>
   <separator name="electronic projectors" >
    <i type="logical" name="LREAL"> F  </i>
    <v name="ROPT">      0.00000000</v>
    <i type="int" name="LMAXPAW">  -100</i>
    <i type="int" name="LMAXMIX">     2</i>
    <i type="logical" name="NLSPLINE"> F  </i>
   </separator>
   <separator name="electronic startup" >
    <i type="int" name="ISTART">     0</i>
    <i type="int" name="ICHARG">     2</i>
    <i type="int" name="INIWAV">     1</i>
   </separator>
   <separator name="electronic spin" >
    <i type="int" name="ISPIN">     2</i>
    <i type="logical" name="LNONCOLLINEAR"> F  </i>
    <v name="MAGMOM">      6.00000000</v>
    <i name="NUPDOWN">     -1.00000000</i>
    <i type="logical" name="LSORBIT"> F  </i>
    <v name="SAXIS">      0.00000000      0.00000000      1.00000000</v>
    <i type="logical" name="LSPIRAL"> F  </i>
    <v name="QSPIRAL">      0.00000000      0.00000000      0.00000000</v>
    <i type="logical" name="LZEROZ"> F  </i>
   </separator>
   <separator name="electronic exchange-correlation" >
    <i type="logical" name="LASPH"> F  </i>
    <i type="logical" name="LMETAGGA"> F  </i>
   </separator>
   <separator name="electronic convergence" >
    <i type="int" name="NELM">    60</i>
    <i type="int" name="NELMDL">    -5</i>
    <i type="int" name="NELMIN">     2</i>
    <i name="ENINI">    450.00000000</i>
    <separator name="electronic convergence detail" >
     <i type="logical" name="LDIAG"> T  </i>
     <i type="logical" name="LSUBROT"> T  </i>
     <i name="WEIMIN">      0.00000000</i>
     <i name="EBREAK">      0.00000278</i>
     <i name="DEPER">      0.30000000</i>
     <i type="int" name="NRMM">     4</i>
     <i name="TIME">      0.40000000</i>
    </separator>
   </separator>
   <separator name="electronic mixer" >
    <i name="AMIX">      0.40000000</i>
    <i name="BMIX">      1.00000000</i>
    <i name="AMIN">      0.10000000</i>
    <i name="AMIX_MAG">      1.60000000</i>
    <i name="BMIX_MAG">      1.00000000</i>
    <separator name="electronic mixer details" >
     <i type="int" name="IMIX">     4</i>
     <i type="int" name="MAXMIX">   -45</i>
     <i name="WC">    100.00000000</i>
     <i type="int" name="INIMIX">     1</i>
     <i type="int" name="MIXPRE">     1</i>
     <i type="int" name="MREMOVE">     5</i>
    </separator>
   </separator>
   <separator name="electronic dipolcorrection" >
    <i type="logical" name="LDIPOL"> F  </i>
    <i type="logical" name="LMONO"> F  </i>
    <i type="int" name="IDIPOL">     0</i>
    <i name="EPSILON">      1.00000000</i>
    <v name="DIPOL">   -100.00000000   -100.00000000   -100.00000000</v>
    <i name="EFIELD">      0.00000000</i>
   </separator>
  </separator>
  <separator name="grids" >
   <i type="int" name="NGX">    20</i>
   <i type="int" name="NGY">    20</i>
   <i type="int" name="NGZ">    20</i>
   <i type="int" name="NGXF">    40</i>
   <i type="int" name="NGYF">    40</i>
   <i type="int" name="NGZF">    40</i>
   <i type="logical" name="ADDGRID"> F  </i>
  </separator>
  <separator name="ionic" >
   <i type="int" name="NSW">     0</i>
   <i type="int" name="IBRION">    -1</i>
   <i type="int" name="ISIF">     2</i>
   <i name="PSTRESS">      0.00000000</i>
   <i name="EDIFFG">      0.00100000</i>
   <i type="int" name="NFREE">     0</i>
   <i name="POTIM">      0.50000000</i>
   <i name="SMASS">     -3.00000000</i>
   <i name="SCALEE">      1.00000000</i>
  </separator>
  <separator name="ionic md" >
   <i name="TEBEG">      0.00010000</i>
   <i name="TEEND">      0.00010000</i>
   <i type="int" name="NBLOCK">     1</i>
   <i type="int" name="KBLOCK">     1</i>
   <i type="int" name="NPACO">   256</i>
   <i name="APACO">     16.00000000</i>
  </separator>
  <separator name="symmetry" >
   <i type="int" name="ISYM">     2</i>
   <i name="SYMPREC">      0.00001000</i>
  </separator>
  <separator name="dos" >
   <i type="logical" name="LORBIT"> F  </i>
   <v name="RWIGS">     -1.00000000</v>
   <i type="int" name="NEDOS">   301</i>
   <i name="EMIN">     10.00000000</i>
   <i name="EMAX">    -10.00000000</i>
   <i name="EFERMI">      0.00000000</i>
  </separator>
  <separator name="writing" >
   <i type="int" name="NWRITE">     2</i>
   <i type="logical" name="LWAVE"> T  </i>
   <i type="logical" name="LCHARG"> T  </i>
   <i type="logical" name="LPARD"> F  </i>
   <i type="logical" name="LVTOT"> F  </i>
   <i type="logical" name="LVHAR"> F  </i>
   <i type="logical" name="LELF"> F  </i>
   <i type="logical" name="LOPTICS"> F  </i>
   <v name="STM">      0.00000000      0.00000000      0.00000000      0.00000000      0.00000000      0.00000000      0.00000000</v>
  </separator>
  <separator name="performance" >
   <i type="int" name="NPAR">     1</i>
   <i type="int" name="NSIM">     4</i>
   <i type="int" name="NBLK">    -1</i>
   <i type="logical" name="LPLANE"> T  </i>
   <i type="logical" name="LSCALAPACK"> F  </i>
   <i type="logical" name="LSCAAWARE"> F  </i>
   <i type="logical" name="LSCALU"> F  </i>
   <i type="logical" name="LASYNC"> F  </i>
   <i type="logical" name="LORBITALREAL"> F  </i>
  </separator>
  <separator name="miscellaneous" >
   <i type="int" name="IDIOT">     3</i>
   <i type="logical" name="LMUSIC"> F  </i>
   <v name="POMASS">    180.94800000</v>
   <v name="DARWINR">      0.00000000</v>
   <v name="DARWINV">      1.00000000</v>
   <i type="logical" name="LCORR"> T  </i>
  </separator>
  <i type="logical" name="GGA_COMPAT"> T  </i>
  <i type="logical" name="LBERRY"> F  </i>
  <i type="int" name="ICORELEVEL">     0</i>
  <i type="logical" name="LDAU"> F  </i>
  <i type="int" name="I_CONSTRAINED_M">     0</i>
  <separator name="electronic exchange-correlation" >
   <i type="string" name="GGA">--</i>
   <i type="int" name="VOSKOWN">     0</i>
   <i type="logical" name="LHFCALC"> F  </i>
   <i type="string" name="PRECFOCK"></i>
   <i type="logical" name="LHFONE"> F  </i>
   <i type="logical" name="LRHFCALC"> F  </i>
   <i type="logical" name="LTHOMAS"> F  </i>
   <i type="logical" name="LMODELHF"> F  </i>
   <i name="ENCUT4O">     -1.00000000</i>
   <i type="int" name="EXXOEP">     0</i>
   <i type="int" name="FOURORBIT">     0</i>
   <i name="AEXX">      0.00000000</i>
   <i name="HFALPHA">      0.00000000</i>
   <i name="ALDAX">      1.00000000</i>
   <i name="AGGAX">      1.00000000</i>
   <i name="ALDAC">      1.00000000</i>
   <i name="AGGAC">      1.00000000</i>
   <i type="int" name="NKREDX">     1</i>
   <i type="int" name="NKREDY">     1</i>
   <i type="int" name="NKREDZ">     1</i>
   <i type="logical" name="SHIFTRED"> F  </i>
   <i type="logical" name="ODDONLY"> F  </i>
   <i type="logical" name="EVENONLY"> F  </i>
   <i type="int" name="LMAXFOCK">     0</i>
   <i type="int" name="NMAXFOCKAE">     0</i>
   <i type="logical" name="LFOCKAEDFT"> F  </i>
   <i name="HFSCREEN">      0.00000000</i>
   <i name="HFSCREENC">      0.00000000</i>
  </separator>
  <separator name="vdW DFT" >
   <i type="logical" name="LUSE_VDW"> F  </i>
   <i name="Zab_VDW">     -0.84910000</i>
   <i name="PARAM1">      0.12340000</i>
   <i name="PARAM2">      1.00000000</i>
   <i name="PARAM3">      0.00000000</i>
  </separator>
  <separator name="model GW" >
   <i type="int" name="MODEL_GW">     0</i>
   <i name="MODEL_EPS0">     10.83017929</i>
   <i name="MODEL_ALPHA">      1.00000000</i>
  </separator>
  <separator name="linear response parameters" >
   <i type="logical" name="LEPSILON"> F  </i>
   <i type="logical" name="LRPA"> F  </i>
   <i type="logical" name="LNABLA"> F  </i>
   <i type="logical" name="LVEL"> F  </i>
   <i type="int" name="KINTER">     0</i>
   <i name="CSHIFT">      0.10000000</i>
   <i name="OMEGAMAX">     -1.00000000</i>
  </separator>
  <separator name="orbital magnetization" >
   <i type="logical" name="NUCIND"> F  </i>
   <v name="MAGPOS">      0.00000000      0.00000000      0.00000000</v>
   <i type="logical" name="LNICSALL"> T  </i>
   <i type="logical" name="ORBITALMAG"> F  </i>
   <i type="logical" name="LMAGBLOCH"> F  </i>
   <i type="logical" name="LCHIMAG"> F  </i>
   <i type="logical" name="LGAUGE"> T  </i>
   <i type="int" name="MAGATOM">     0</i>
   <v name="MAGDIPOL">      0.00000000      0.00000000      0.00000000</v>
   <v name="AVECCONST">      0.00000000      0.00000000      0.00000000</v>
  </separator>
  <separator name="response functions" >
   <i type="logical" name="LADDER"> F  </i>
   <i type="logical" name="LHARTREE"> T  </i>
   <i type="int" name="IBSE">     0</i>
   <i type="logical" name="LTCTE"> F  </i>
   <i type="logical" name="LTETE"> F  </i>
   <i type="logical" name="LFXCEPS"> F  </i>
   <i type="logical" name="L2ORDER"> F  </i>
   <i type="logical" name="LUSEW"> F  </i>
   <i name="ENCUTGW">     -2.00000000</i>
   <i name="ENCUTGWSOFT">     -2.00000000</i>
   <i name="ENCUTLF">     -1.00000000</i>
   <i type="int" name="LMAXMP2">    -1</i>
   <i name="SCISSOR">      0.00000000</i>
   <i type="int" name="NOMEGA">     0</i>
   <i type="int" name="NOMEGAR">     0</i>
   <i type="int" name="NBANDSGW">    -1</i>
   <i type="int" name="NBANDSO">    -1</i>
   <i type="int" name="NBANDSV">    -1</i>
   <i name="OPTEMAX">      0.00000000</i>
   <i type="int" name="NELM">     1</i>
   <i type="int" name="DIM">     3</i>
   <i type="int" name="ANTIRES">     0</i>
   <i name="OMEGAMAX">    -30.00000000</i>
   <i name="OMEGATL">   -200.00000000</i>
   <i type="int" name="OMEGAGRID">     0</i>
   <i name="CSHIFT">     -0.10000000</i>
   <i type="logical" name="SELFENERGY"> F  </i>
   <i type="logical" name="LSPECTRAL"> F  </i>
   <i type="logical" name="ODDONLYGW"> F  </i>
   <i type="logical" name="EVENONLYGW"> F  </i>
   <i type="int" name="NKREDLFX">     1</i>
   <i type="int" name="NKREDLFY">     1</i>
   <i type="int" name="NKREDLFZ">     1</i>
   <i type="int" name="MAXMEM">  1800</i>
   <i type="int" name="TELESCOPE">     0</i>
  </separator>
 </parameters>
 <atominfo>
  <atoms>       1 </atoms>
  <types>       1 </types>
  <array name="atoms" >
   <dimension dim="1">ion</dimension>
   <field type="string">element</field>
   <field type="int">atomtype</field>
   <set>
    <rc><c>Ta</c><c>   1</c></rc>
   </set>
  </array>
  <array name="atomtypes" >
   <dimension dim="1">type</dimension>
   <field type="int">atomspertype</field>
   <field type="string">element</field>
   <field>mass</field>
   <field>valence</field>
   <field type="string">pseudopotential</field>
   <set>
    <rc><c>   1</c><c>Ta</c><c>    180.94800000</c><c>      5.00000000</c><c>  PAW_PBE Ta 17Jan2003                  </c></rc>
   </set>
  </array>
 </atominfo>
 <structure name="initialpos" >
  <crystal>
   <varray name="basis" >
    <v>      -1.65250000       1.65250000       1.65250000 </v>
    <v>       1.65250000      -1.65250000       1.65250000 </v>
    <v>       1.65250000       1.65250000      -1.65250000 </v>
   </varray>
   <i name="volume">     18.05029881 </i>
   <varray name="rec_basis" >
    <v>       0.00000000       0.30257186       0.30257186 </v>
    <v>       0.30257186       0.00000000       0.30257186 </v>
    <v>       0.30257186       0.30257186       0.00000000 </v>
   </varray>
  </crystal>
  <varray name="positions" >
   <v>       0.00000000       0.00000000       0.00000000 </v>
  </varray>
 </structure>
 <calculation>
  <scstep>
   <time name="dav">    0.70    0.70</time>
   <time name="total">    0.95    0.95</time>
   <energy>
    <i name="alphaZ">     30.72235567 </i>
    <i name="ewald">   -198.20040513 </i>
    <i name="hartreedc">     -2.47843811 </i>
    <i name="XCdc">    -60.66459854 </i>
    <i name="pawpsdc">    143.51874798 </i>
    <i name="pawaedc">    -69.33493833 </i>
    <i name="eentropy">     -0.00036269 </i>
    <i name="bandstr">     36.58431620 </i>
    <i name="atom">    130.64904277 </i>
    <i name="e_fr_energy">     10.79571981 </i>
    <i name="e_wo_entrp">     10.79608250 </i>
    <i name="e_0_energy">     10.79584071 </i>
   </energy>
  </scstep>
  <scstep>
   <time name="dav">    0.88    0.89</time>
   <time name="total">    0.89    0.89</time>
   <energy>
    <i name="e_fr_energy">     -1.05446404 </i>
    <i name="e_wo_entrp">     -1.05499945 </i>
    <i name="e_0_energy">     -1.05464251 </i>
   </energy>
  </scstep>
  <scstep>
   <time name="dav">    0.74    0.75</time>
   <time name="total">    0.75    0.76</time>
   <energy>
    <i name="e_fr_energy">     -1.26045796 </i>
    <i name="e_wo_entrp">     -1.25903906 </i>
    <i name="e_0_energy">     -1.25998499 </i>
   </energy>
  </scstep>
  <scstep>
   <time name="dav">    0.82    0.82</time>
   <time name="total">    0.83    0.84</time>
   <energy>
    <i name="e_fr_energy">     -1.26086286 </i>
    <i name="e_wo_entrp">     -1.25943623 </i>
    <i name="e_0_energy">     -1.26038732 </i>
   </energy>
  </scstep>
  <scstep>
   <time name="dav">    0.76    0.76</time>
   <time name="total">    0.85    0.86</time>
   <energy>
    <i name="e_fr_energy">     -1.26086375 </i>
    <i name="e_wo_entrp">     -1.25943708 </i>
    <i name="e_0_energy">     -1.26038819 </i>
   </energy>
  </scstep>
  <scstep>
   <time name="dav">    0.71    0.71</time>
   <time name="total">    1.03    1.05</time>
   <energy>
    <i name="e_fr_energy">    -11.77355395 </i>
    <i name="e_wo_entrp">    -11.77363456 </i>
    <i name="e_0_energy">    -11.77358082 </i>
   </energy>
  </scstep>
  <scstep>
   <time name="dav">    0.76    0.76</time>
   <time name="total">    1.09    1.10</time>
   <energy>
    <i name="e_fr_energy">    -11.86304114 </i>
    <i name="e_wo_entrp">    -11.86379723 </i>
    <i name="e_0_energy">    -11.86329317 </i>
   </energy>
  </scstep>
  <scstep>
   <time name="dav">    0.71    0.71</time>
   <time name="total">    1.04    1.05</time>
   <energy>
    <i name="e_fr_energy">    -11.38178662 </i>
    <i name="e_wo_entrp">    -11.38197038 </i>
    <i name="e_0_energy">    -11.38184787 </i>
   </energy>
  </scstep>
  <scstep>
   <time name="dav">    0.70    0.70</time>
   <time name="total">    1.03    1.04</time>
   <energy>
    <i name="e_fr_energy">    -11.85107291 </i>
    <i name="e_wo_entrp">    -11.85026515 </i>
    <i name="e_0_energy">    -11.85080366 </i>
   </energy>
  </scstep>
  <scstep>
   <time name="dav">    0.82    0.82</time>
   <time name="total">    1.15    1.16</time>
   <energy>
    <i name="e_fr_energy">    -11.87196082 </i>
    <i name="e_wo_entrp">    -11.87089601 </i>
    <i name="e_0_energy">    -11.87160588 </i>
   </energy>
  </scstep>
  <scstep>
   <time name="dav">    0.73    0.73</time>
   <time name="total">    1.06    1.07</time>
   <energy>
    <i name="e_fr_energy">    -11.87276106 </i>
    <i name="e_wo_entrp">    -11.87170825 </i>
    <i name="e_0_energy">    -11.87241013 </i>
   </energy>
  </scstep>
  <scstep>
   <time name="dav">    0.73    0.74</time>
   <time name="total">    1.06    1.08</time>
   <energy>
    <i name="e_fr_energy">    -11.88557939 </i>
    <i name="e_wo_entrp">    -11.88520591 </i>
    <i name="e_0_energy">    -11.88545490 </i>
   </energy>
  </scstep>
  <scstep>
   <time name="dav">    0.73    0.73</time>
   <time name="total">    1.06    1.07</time>
   <energy>
    <i name="e_fr_energy">    -11.88454517 </i>
    <i name="e_wo_entrp">    -11.88384627 </i>
    <i name="e_0_energy">    -11.88431221 </i>
   </energy>
  </scstep>
  <scstep>
   <time name="dav">    0.48    0.49</time>
   <time name="total">    0.81    0.83</time>
   <energy>
    <i name="e_fr_energy">    -11.88465024 </i>
    <i name="e_wo_entrp">    -11.88429448 </i>
    <i name="e_0_energy">    -11.88453166 </i>
   </energy>
  </scstep>
  <scstep>
   <time name="dav">    0.45    0.45</time>
   <time name="total">    0.70    0.71</time>
   <energy>
    <i name="alphaZ">     30.72235567 </i>
    <i name="ewald">   -198.20040513 </i>
    <i name="hartreedc">     -0.63999977 </i>
    <i name="XCdc">    -66.01021095 </i>
    <i name="pawpsdc">    194.70998006 </i>
    <i name="pawaedc">   -121.26956930 </i>
    <i name="eentropy">     -0.00036045 </i>
    <i name="bandstr">     18.15453154 </i>
    <i name="atom">    130.64904277 </i>
    <i name="e_fr_energy">    -11.88463556 </i>
    <i name="e_wo_entrp">    -11.88427512 </i>
    <i name="e_0_energy">    -11.88451541 </i>
   </energy>
  </scstep>
  <parameters_embedded>
   <separator name="dft+d2" >
    <i type="logical" name="LVDW"> F  </i>
   </separator>
  </parameters_embedded>
  <structure>
   <crystal>
    <varray name="basis" >
     <v>      -1.65250000       1.65250000       1.65250000 </v>
     <v>       1.65250000      -1.65250000       1.65250000 </v>
     <v>       1.65250000       1.65250000      -1.65250000 </v>
    </varray>
    <i name="volume">     18.05029881 </i>
    <varray name="rec_basis" >
     <v>       0.00000000       0.30257186       0.30257186 </v>
     <v>       0.30257186       0.00000000       0.30257186 </v>
     <v>       0.30257186       0.30257186       0.00000000 </v>
    </varray>
   </crystal>
   <varray name="positions" >
    <v>       0.00000000       0.00000000       0.00000000 </v>
   </varray>
  </structure>
  <varray name="forces" >
   <v>       0.00000000       0.00000000       0.00000000 </v>
  </varray>
  <varray name="stress" >
   <v>     -10.53579534       0.00000000       0.00000000 </v>
   <v>       0.00000000     -10.53579534       0.00000000 </v>
   <v>       0.00000000       0.00000000     -10.53579534 </v>
  </varray>
  <energy>
   <i name="e_fr_energy">    -11.88463556 </i>
   <i name="e_wo_entrp">    -11.88451541 </i>
   <i name="e_0_energy">     -0.00036045 </i>
  </energy>
  <time name="totalsc">   15.79   16.04</time>
  <eigenvalues>
   <array>
    <dimension dim="1">band</dimension>
    <dimension dim="2">kpoint</dimension>
    <dimension dim="3">spin</dimension>
    <field>eigene</field>
    <field>occ</field>
    <set>
     <set comment="spin 1">
      <set comment="kpoint 1">
       <r>   -0.5544    1.0000 </r>
       <r>    5.5012    1.0000 </r>
       <r>    5.5012    1.0000 </r>
       <r>    8.5810    0.0000 </r>
       <r>    9.4720    0.0000 </r>
       <r>    9.4720    0.0000 </r>
       <r>   20.0271    0.0000 </r>
       <r>   21.8081    0.0000 </r>
       <r>   22.8958    0.0000 </r>
      </set>
      <set comment="kpoint 2">
       <r>    1.5742    1.0000 </r>
       <r>    4.4750    1.0000 </r>
       <r>    5.0599    1.0000 </r>
       <r>    9.6533    0.0000 </r>
       <r>   10.2630    0.0000 </r>
       <r>   11.9924    0.0000 </r>
       <r>   19.5859    0.0000 </r>
       <r>   19.9735    0.0000 </r>
       <r>   20.0646    0.0000 </r>
      </set>
      <set comment="kpoint 3">
       <r>    1.9545    1.0000 </r>
       <r>    4.0991    1.0000 </r>
       <r>    6.5836    0.0000 </r>
       <r>    9.8585    0.0000 </r>
       <r>   10.6752    0.0000 </r>
       <r>   14.4815    0.0000 </r>
       <r>   16.2258    0.0000 </r>
       <r>   18.2959    0.0000 </r>
       <r>   20.0344    0.0000 </r>
      </set>
      <set comment="kpoint 4">
       <r>   -1.6167    1.0000 </r>
       <r>    6.3816    0.0000 </r>
       <r>    6.3816    0.0000 </r>
       <r>    6.7478    0.0000 </r>
       <r>    8.7561    0.0000 </r>
       <r>   10.0654    0.0000 </r>
       <r>   20.0278    0.0000 </r>
       <r>   21.7303    0.0000 </r>
       <r>   21.7308    0.0000 </r>
      </set>
      <set comment="kpoint 5">
       <r>    3.1725    1.0000 </r>
       <r>    4.3179    1.0000 </r>
       <r>    4.9507    1.0000 </r>
       <r>   10.1695    0.0000 </r>
       <r>   10.6275    0.0000 </r>
       <r>   15.0787    0.0000 </r>
       <r>   15.7206    0.0000 </r>
       <r>   19.4605    0.0000 </r>
       <r>   20.0332    0.0000 </r>
      </set>
      <set comment="kpoint 6">
       <r>    0.3239    1.0000 </r>
       <r>    5.4434    1.0000 </r>
       <r>    5.5989    1.0336 </r>
       <r>    8.1944    0.0000 </r>
       <r>    8.9387    0.0000 </r>
       <r>   10.5122    0.0000 </r>
       <r>   20.0215    0.0000 </r>
       <r>   20.7743    0.0000 </r>
       <r>   22.8631    0.0000 </r>
      </set>
      <set comment="kpoint 7">
       <r>    1.5846    1.0000 </r>
       <r>    4.6043    1.0000 </r>
       <r>    6.0065    0.0000 </r>
       <r>    9.0339    0.0000 </r>
       <r>   10.9871    0.0000 </r>
       <r>   12.5345    0.0000 </r>
       <r>   17.9537    0.0000 </r>
       <r>   19.3399    0.0000 </r>
       <r>   20.0400    0.0000 </r>
      </set>
      <set comment="kpoint 8">
       <r>    2.2218    1.0000 </r>
       <r>    4.3765    1.0000 </r>
       <r>    5.5674    1.0087 </r>
       <r>    8.2955    0.0000 </r>
       <r>   10.4328    0.0000 </r>
       <r>   12.1020    0.0000 </r>
       <r>   18.6346    0.0000 </r>
       <r>   20.0361    0.0000 </r>
       <r>   22.3741    0.0000 </r>
      </set>
      <set comment="kpoint 9">
       <r>    2.8052    1.0000 </r>
       <r>    4.6481    1.0000 </r>
       <r>    5.0015    1.0000 </r>
       <r>    8.8679    0.0000 </r>
       <r>   11.1206    0.0000 </r>
       <r>   15.3567    0.0000 </r>
       <r>   15.8406    0.0000 </r>
       <r>   19.6844    0.0000 </r>
       <r>   20.0329    0.0000 </r>
      </set>
      <set comment="kpoint 10">
       <r>    4.4702    1.0000 </r>
       <r>    4.4702    1.0000 </r>
       <r>    4.4702    1.0000 </r>
       <r>   10.8048    0.0000 </r>
       <r>   10.8048    0.0000 </r>
       <r>   12.7873    0.0000 </r>
       <r>   18.5197    0.0000 </r>
       <r>   18.5197    0.0000 </r>
       <r>   18.5197    0.0000 </r>
      </set>
      <set comment="kpoint 11">
       <r>    1.9571    1.0000 </r>
       <r>    4.7789    1.0000 </r>
       <r>    6.9709    0.0000 </r>
       <r>    6.9709    0.0000 </r>
       <r>    8.9185    0.0000 </r>
       <r>   10.7412    0.0000 </r>
       <r>   20.0070    0.0000 </r>
       <r>   20.3325    0.0000 </r>
       <r>   24.9769    0.0000 </r>
      </set>
      <set comment="kpoint 12">
       <r>    2.8671    1.0000 </r>
       <r>    3.7088    1.0000 </r>
       <r>    6.9043    0.0000 </r>
       <r>    7.5980    0.0000 </r>
       <r>   12.0275    0.0000 </r>
       <r>   12.0741    0.0000 </r>
       <r>   18.4497    0.0000 </r>
       <r>   20.0344    0.0000 </r>
       <r>   20.7895    0.0000 </r>
      </set>
      <set comment="kpoint 13">
       <r>    3.0152    1.0000 </r>
       <r>    3.0152    1.0000 </r>
       <r>    6.4772    0.0000 </r>
       <r>   10.7089    0.0000 </r>
       <r>   10.7089    0.0000 </r>
       <r>   15.6794    0.0000 </r>
       <r>   16.7936    0.0000 </r>
       <r>   16.7936    0.0000 </r>
       <r>   20.0299    0.0000 </r>
      </set>
      <set comment="kpoint 14">
       <r>    2.2478    1.0000 </r>
       <r>    2.3478    1.0000 </r>
       <r>   10.3790    0.0000 </r>
       <r>   10.3790    0.0000 </r>
       <r>   11.9379    0.0000 </r>
       <r>   12.6595    0.0000 </r>
       <r>   17.1267    0.0000 </r>
       <r>   17.1267    0.0000 </r>
       <r>   20.0188    0.0000 </r>
      </set>
     </set>
     <set comment="spin 2">
      <set comment="kpoint 1">
       <r>   -0.4516    1.0000 </r>
       <r>    5.6014    1.0348 </r>
       <r>    5.6014    1.0348 </r>
       <r>    8.6781    0.0000 </r>
       <r>    9.5418    0.0000 </r>
       <r>    9.5418    0.0000 </r>
       <r>   20.0682    0.0000 </r>
       <r>   21.9175    0.0000 </r>
       <r>   22.9894    0.0000 </r>
      </set>
      <set comment="kpoint 2">
       <r>    1.6759    1.0000 </r>
       <r>    4.5770    1.0000 </r>
       <r>    5.1564    1.0000 </r>
       <r>    9.7283    0.0000 </r>
       <r>   10.3306    0.0000 </r>
       <r>   12.0820    0.0000 </r>
       <r>   19.6712    0.0000 </r>
       <r>   20.0659    0.0000 </r>
       <r>   20.1106    0.0000 </r>
      </set>
      <set comment="kpoint 3">
       <r>    2.0542    1.0000 </r>
       <r>    4.2018    1.0000 </r>
       <r>    6.6807    0.0000 </r>
       <r>    9.9333    0.0000 </r>
       <r>   10.7409    0.0000 </r>
       <r>   14.5613    0.0000 </r>
       <r>   16.3192    0.0000 </r>
       <r>   18.3900    0.0000 </r>
       <r>   20.0758    0.0000 </r>
      </set>
      <set comment="kpoint 4">
       <r>   -1.5134    1.0000 </r>
       <r>    6.4826    0.0000 </r>
       <r>    6.4826    0.0000 </r>
       <r>    6.8483    0.0000 </r>
       <r>    8.8258    0.0000 </r>
       <r>   10.1297    0.0000 </r>
       <r>   20.0690    0.0000 </r>
       <r>   21.8322    0.0000 </r>
       <r>   21.8391    0.0000 </r>
      </set>
      <set comment="kpoint 5">
       <r>    3.2747    1.0000 </r>
       <r>    4.4146    1.0000 </r>
       <r>    5.0496    1.0000 </r>
       <r>   10.2424    0.0000 </r>
       <r>   10.6958    0.0000 </r>
       <r>   15.1821    0.0000 </r>
       <r>   15.8011    0.0000 </r>
       <r>   19.5405    0.0000 </r>
       <r>   20.0746    0.0000 </r>
      </set>
      <set comment="kpoint 6">
       <r>    0.4259    1.0000 </r>
       <r>    5.5454    1.0017 </r>
       <r>    5.6919    0.1204 </r>
       <r>    8.2762    0.0000 </r>
       <r>    9.0350    0.0000 </r>
       <r>   10.5781    0.0000 </r>
       <r>   20.0629    0.0000 </r>
       <r>   20.8681    0.0000 </r>
       <r>   22.9513    0.0000 </r>
      </set>
      <set comment="kpoint 7">
       <r>    1.6839    1.0000 </r>
       <r>    4.7070    1.0000 </r>
       <r>    6.0971    0.0000 </r>
       <r>    9.1160    0.0000 </r>
       <r>   11.0589    0.0000 </r>
       <r>   12.6195    0.0000 </r>
       <r>   18.0385    0.0000 </r>
       <r>   19.4301    0.0000 </r>
       <r>   20.0819    0.0000 </r>
      </set>
      <set comment="kpoint 8">
       <r>    2.3217    1.0000 </r>
       <r>    4.4659    1.0000 </r>
       <r>    5.6673    0.4790 </r>
       <r>    8.3834    0.0000 </r>
       <r>   10.5101    0.0000 </r>
       <r>   12.1873    0.0000 </r>
       <r>   18.7221    0.0000 </r>
       <r>   20.0778    0.0000 </r>
       <r>   22.4547    0.0000 </r>
      </set>
      <set comment="kpoint 9">
       <r>    2.9021    1.0000 </r>
       <r>    4.7462    1.0000 </r>
       <r>    5.0896    1.0000 </r>
       <r>    8.9541    0.0000 </r>
       <r>   11.2027    0.0000 </r>
       <r>   15.4371    0.0000 </r>
       <r>   15.9344    0.0000 </r>
       <r>   19.7696    0.0000 </r>
       <r>   20.0743    0.0000 </r>
      </set>
      <set comment="kpoint 10">
       <r>    4.5701    1.0000 </r>
       <r>    4.5701    1.0000 </r>
       <r>    4.5701    1.0000 </r>
       <r>   10.8697    0.0000 </r>
       <r>   10.8697    0.0000 </r>
       <r>   12.8982    0.0000 </r>
       <r>   18.5996    0.0000 </r>
       <r>   18.5996    0.0000 </r>
       <r>   18.5996    0.0000 </r>
      </set>
      <set comment="kpoint 11">
       <r>    2.0545    1.0000 </r>
       <r>    4.8592    1.0000 </r>
       <r>    7.0706    0.0000 </r>
       <r>    7.0706    0.0000 </r>
       <r>    9.0143    0.0000 </r>
       <r>   10.8162    0.0000 </r>
       <r>   20.0502    0.0000 </r>
       <r>   20.4161    0.0000 </r>
       <r>   25.0683    0.0000 </r>
      </set>
      <set comment="kpoint 12">
       <r>    2.9562    1.0000 </r>
       <r>    3.7935    1.0000 </r>
       <r>    7.0040    0.0000 </r>
       <r>    7.6929    0.0000 </r>
       <r>   12.1140    0.0000 </r>
       <r>   12.1662    0.0000 </r>
       <r>   18.5346    0.0000 </r>
       <r>   20.0759    0.0000 </r>
       <r>   20.8915    0.0000 </r>
      </set>
      <set comment="kpoint 13">
       <r>    3.0995    1.0000 </r>
       <r>    3.0995    1.0000 </r>
       <r>    6.5785    0.0000 </r>
       <r>   10.8009    0.0000 </r>
       <r>   10.8009    0.0000 </r>
       <r>   15.7740    0.0000 </r>
       <r>   16.8862    0.0000 </r>
       <r>   16.8862    0.0000 </r>
       <r>   20.0711    0.0000 </r>
      </set>
      <set comment="kpoint 14">
       <r>    2.3314    1.0000 </r>
       <r>    2.4321    1.0000 </r>
       <r>   10.4737    0.0000 </r>
       <r>   10.4737    0.0000 </r>
       <r>   12.0233    0.0000 </r>
       <r>   12.7643    0.0000 </r>
       <r>   17.2252    0.0000 </r>
       <r>   17.2252    0.0000 </r>
       <r>   20.0599    0.0000 </r>
      </set>
     </set>
    </set>
   </array>
  </eigenvalues>
  <separator name="orbital magnetization" >
   <v name="MAGDIPOLOUT">      0.00000000      0.00000000      0.00000000</v>
  </separator>
  <dos>
   <i name="efermi">      5.66602939 </i>
   <total>
    <array>
     <dimension dim="1">gridpoints</dimension>
     <dimension dim="2">spin</dimension>
     <field>energy</field>
     <field>total</field>
     <field>integrated</field>
     <set>
      <set comment="spin 1">
       <r>    -2.9509     0.0000     0.0000 </r>
       <r>    -2.8531     0.0000     0.0000 </r>
       <r>    -2.7552     0.0000     0.0000 </r>
       <r>    -2.6574     0.0000     0.0000 </r>
       <r>    -2.5596     0.0000     0.0000 </r>
       <r>    -2.4617     0.0000     0.0000 </r>
       <r>    -2.3639     0.0000     0.0000 </r>
       <r>    -2.2660     0.0000     0.0000 </r>
       <r>    -2.1682     0.0000     0.0000 </r>
       <r>    -2.0703     0.0000     0.0000 </r>
       <r>    -1.9725     0.0000     0.0000 </r>
       <r>    -1.8746     0.0000     0.0000 </r>
       <r>    -1.7768     0.0000     0.0000 </r>
       <r>    -1.6789    -0.0100    -0.0010 </r>
       <r>    -1.5811     0.2837     0.0268 </r>
       <r>    -1.4833     0.0104     0.0278 </r>
       <r>    -1.3854    -0.0001     0.0278 </r>
       <r>    -1.2876     0.0000     0.0278 </r>
       <r>    -1.1897     0.0000     0.0278 </r>
       <r>    -1.0919     0.0000     0.0278 </r>
       <r>    -0.9940     0.0000     0.0278 </r>
       <r>    -0.8962     0.0000     0.0278 </r>
       <r>    -0.7983     0.0000     0.0278 </r>
       <r>    -0.7005    -0.0001     0.0278 </r>
       <r>    -0.6027    -0.0079     0.0270 </r>
       <r>    -0.5048     0.3957     0.0657 </r>
       <r>    -0.4070    -0.0092     0.0648 </r>
       <r>    -0.3091     0.0000     0.0648 </r>
       <r>    -0.2113     0.0000     0.0648 </r>
       <r>    -0.1134     0.0000     0.0648 </r>
       <r>    -0.0156     0.0000     0.0648 </r>
       <r>     0.0823     0.0000     0.0648 </r>
       <r>     0.1801    -0.0002     0.0648 </r>
       <r>     0.2780    -0.0164     0.0632 </r>
       <r>     0.3758     1.1846     0.1791 </r>
       <r>     0.4736    -0.0324     0.1759 </r>
       <r>     0.5715    -0.0001     0.1759 </r>
       <r>     0.6693     0.0000     0.1759 </r>
       <r>     0.7672     0.0000     0.1759 </r>
       <r>     0.8650     0.0000     0.1759 </r>
       <r>     0.9629     0.0000     0.1759 </r>
       <r>     1.0607     0.0000     0.1759 </r>
       <r>     1.1586     0.0000     0.1759 </r>
       <r>     1.2564     0.0000     0.1759 </r>
       <r>     1.3542     0.0000     0.1759 </r>
       <r>     1.4521    -0.0024     0.1757 </r>
       <r>     1.5499     0.2075     0.1960 </r>
       <r>     1.6478     2.1389     0.4053 </r>
       <r>     1.7456    -0.0728     0.3982 </r>
       <r>     1.8435    -0.0030     0.3979 </r>
       <r>     1.9413     0.2353     0.4209 </r>
       <r>     2.0392     0.6360     0.4831 </r>
       <r>     2.1370    -0.0390     0.4793 </r>
       <r>     2.2349     0.9132     0.5686 </r>
       <r>     2.3327     0.6111     0.6284 </r>
       <r>     2.4305     0.2072     0.6487 </r>
       <r>     2.5284    -0.0058     0.6481 </r>
       <r>     2.6262     0.0000     0.6481 </r>
       <r>     2.7241    -0.0252     0.6457 </r>
       <r>     2.8219     0.8817     0.7320 </r>
       <r>     2.9198     1.4437     0.8732 </r>
       <r>     3.0176     0.3804     0.9104 </r>
       <r>     3.1155     0.3147     0.9412 </r>
       <r>     3.2133     1.1618     1.0549 </r>
       <r>     3.3111     0.0070     1.0556 </r>
       <r>     3.4090    -0.0004     1.0556 </r>
       <r>     3.5068     0.0000     1.0556 </r>
       <r>     3.6047    -0.0069     1.0549 </r>
       <r>     3.7025     0.4548     1.0994 </r>
       <r>     3.8004     0.7028     1.1681 </r>
       <r>     3.8982    -0.0151     1.1667 </r>
       <r>     3.9961    -0.0037     1.1663 </r>
       <r>     4.0939     0.2384     1.1896 </r>
       <r>     4.1918     0.3390     1.2228 </r>
       <r>     4.2896     0.0835     1.2310 </r>
       <r>     4.3874     1.8303     1.4101 </r>
       <r>     4.4853     1.3258     1.5398 </r>
       <r>     4.5831     0.6105     1.5995 </r>
       <r>     4.6810     2.0699     1.8020 </r>
       <r>     4.7788     0.1782     1.8195 </r>
       <r>     4.8767     0.1105     1.8303 </r>
       <r>     4.9745     1.1074     1.9386 </r>
       <r>     5.0724     2.0310     2.1374 </r>
       <r>     5.1702     0.3039     2.1671 </r>
       <r>     5.2680    -0.0044     2.1667 </r>
       <r>     5.3659    -0.0292     2.1638 </r>
       <r>     5.4637     0.9656     2.2583 </r>
       <r>     5.5616     1.4710     2.4022 </r>
       <r>     5.6594     1.8113     2.5794 </r>
       <r>     5.7573    -0.0549     2.5741 </r>
       <r>     5.8551    -0.0001     2.5741 </r>
       <r>     5.9530    -0.0351     2.5706 </r>
       <r>     6.0508     1.1809     2.6862 </r>
       <r>     6.1487    -0.0099     2.6852 </r>
       <r>     6.2465    -0.0005     2.6852 </r>
       <r>     6.3443     0.0144     2.6866 </r>
       <r>     6.4422     0.5887     2.7442 </r>
       <r>     6.5400     0.3533     2.7787 </r>
       <r>     6.6379     0.5749     2.8350 </r>
       <r>     6.7357     0.0687     2.8417 </r>
       <r>     6.8336     0.1677     2.8581 </r>
       <r>     6.9314     1.0508     2.9609 </r>
       <r>     7.0293     0.7043     3.0298 </r>
       <r>     7.1271    -0.0211     3.0278 </r>
       <r>     7.2249     0.0000     3.0278 </r>
       <r>     7.3228     0.0000     3.0278 </r>
       <r>     7.4206     0.0000     3.0278 </r>
       <r>     7.5185    -0.0267     3.0252 </r>
       <r>     7.6163     0.9214     3.1153 </r>
       <r>     7.7142     0.2436     3.1392 </r>
       <r>     7.8120    -0.0028     3.1389 </r>
       <r>     7.9099     0.0000     3.1389 </r>
       <r>     8.0077     0.0000     3.1389 </r>
       <r>     8.1056    -0.0174     3.1372 </r>
       <r>     8.2034     0.7403     3.2096 </r>
       <r>     8.3012     1.0950     3.3168 </r>
       <r>     8.3991     0.4604     3.3618 </r>
       <r>     8.4969    -0.0145     3.3604 </r>
       <r>     8.5948     0.2815     3.3879 </r>
       <r>     8.6926     0.0957     3.3973 </r>
       <r>     8.7905     0.2507     3.4218 </r>
       <r>     8.8883     0.9609     3.5158 </r>
       <r>     8.9862     1.6469     3.6770 </r>
       <r>     9.0840     1.1537     3.7899 </r>
       <r>     9.1818    -0.0288     3.7871 </r>
       <r>     9.2797    -0.0001     3.7870 </r>
       <r>     9.3775    -0.0085     3.7862 </r>
       <r>     9.4754     0.4305     3.8283 </r>
       <r>     9.5732     0.3145     3.8591 </r>
       <r>     9.6711     0.9079     3.9479 </r>
       <r>     9.7689     0.2428     3.9717 </r>
       <r>     9.8668     0.3673     4.0076 </r>
       <r>     9.9646     0.2068     4.0279 </r>
       <r>    10.0625     0.1213     4.0397 </r>
       <r>    10.1603     0.5509     4.0936 </r>
       <r>    10.2581     1.2382     4.2148 </r>
       <r>    10.3560     0.7145     4.2847 </r>
       <r>    10.4538     1.4078     4.4224 </r>
       <r>    10.5517     1.3173     4.5513 </r>
       <r>    10.6495     1.0322     4.6523 </r>
       <r>    10.7474     1.6417     4.8130 </r>
       <r>    10.8452     0.3032     4.8426 </r>
       <r>    10.9431    -0.0091     4.8417 </r>
       <r>    11.0409     1.1535     4.9546 </r>
       <r>    11.1387     0.8837     5.0411 </r>
       <r>    11.2366     0.2456     5.0651 </r>
       <r>    11.3344    -0.0028     5.0648 </r>
       <r>    11.4323     0.0000     5.0648 </r>
       <r>    11.5301     0.0000     5.0648 </r>
       <r>    11.6280     0.0000     5.0648 </r>
       <r>    11.7258     0.0000     5.0648 </r>
       <r>    11.8237    -0.0008     5.0647 </r>
       <r>    11.9215     0.0270     5.0674 </r>
       <r>    12.0194     1.6286     5.2267 </r>
       <r>    12.1172     2.9049     5.5109 </r>
       <r>    12.2150     0.2705     5.5374 </r>
       <r>    12.3129    -0.0038     5.5370 </r>
       <r>    12.4107    -0.0015     5.5369 </r>
       <r>    12.5086     0.1379     5.5504 </r>
       <r>    12.6064     1.0249     5.6507 </r>
       <r>    12.7043     0.2592     5.6760 </r>
       <r>    12.8021     0.0689     5.6828 </r>
       <r>    12.9000     0.0250     5.6852 </r>
       <r>    12.9978    -0.0003     5.6852 </r>
       <r>    13.0957     0.0000     5.6852 </r>
       <r>    13.1935     0.0000     5.6852 </r>
       <r>    13.2913     0.0000     5.6852 </r>
       <r>    13.3892     0.0000     5.6852 </r>
       <r>    13.4870     0.0000     5.6852 </r>
       <r>    13.5849     0.0000     5.6852 </r>
       <r>    13.6827     0.0000     5.6852 </r>
       <r>    13.7806     0.0000     5.6852 </r>
       <r>    13.8784     0.0000     5.6852 </r>
       <r>    13.9763     0.0000     5.6852 </r>
       <r>    14.0741     0.0000     5.6852 </r>
       <r>    14.1719     0.0000     5.6852 </r>
       <r>    14.2698     0.0000     5.6852 </r>
       <r>    14.3676    -0.0017     5.6850 </r>
       <r>    14.4655     0.1402     5.6987 </r>
       <r>    14.5633     0.4414     5.7419 </r>
       <r>    14.6612    -0.0121     5.7407 </r>
       <r>    14.7590     0.0000     5.7407 </r>
       <r>    14.8569     0.0000     5.7407 </r>
       <r>    14.9547    -0.0014     5.7406 </r>
       <r>    15.0526     0.1345     5.7538 </r>
       <r>    15.1504     1.0371     5.8552 </r>
       <r>    15.2482    -0.0397     5.8514 </r>
       <r>    15.3461     0.3734     5.8879 </r>
       <r>    15.4439     0.7861     5.9648 </r>
       <r>    15.5418    -0.0191     5.9629 </r>
       <r>    15.6396    -0.0207     5.9609 </r>
       <r>    15.7375     1.2769     6.0859 </r>
       <r>    15.8353     0.7273     6.1570 </r>
       <r>    15.9332     0.6807     6.2236 </r>
       <r>    16.0310    -0.0143     6.2222 </r>
       <r>    16.1288    -0.0055     6.2217 </r>
       <r>    16.2267     0.2984     6.2509 </r>
       <r>    16.3245     0.2798     6.2783 </r>
       <r>    16.4224    -0.0049     6.2778 </r>
       <r>    16.5202     0.0000     6.2778 </r>
       <r>    16.6181     0.0000     6.2778 </r>
       <r>    16.7159    -0.0191     6.2759 </r>
       <r>    16.8138     0.6339     6.3379 </r>
       <r>    16.9116     0.1438     6.3520 </r>
       <r>    17.0095    -0.0029     6.3517 </r>
       <r>    17.1073     0.1133     6.3628 </r>
       <r>    17.2051     0.4697     6.4088 </r>
       <r>    17.3030    -0.0139     6.4074 </r>
       <r>    17.4008     0.0000     6.4074 </r>
       <r>    17.4987     0.0000     6.4074 </r>
       <r>    17.5965     0.0000     6.4074 </r>
       <r>    17.6944     0.0000     6.4074 </r>
       <r>    17.7922     0.0000     6.4074 </r>
       <r>    17.8901    -0.0398     6.4035 </r>
       <r>    17.9879     1.1230     6.5134 </r>
       <r>    18.0857     0.0531     6.5186 </r>
       <r>    18.1836    -0.0026     6.5183 </r>
       <r>    18.2814     0.1532     6.5333 </r>
       <r>    18.3793     0.3920     6.5717 </r>
       <r>    18.4771     1.0412     6.6736 </r>
       <r>    18.5750     0.3733     6.7101 </r>
       <r>    18.6728     1.1429     6.8219 </r>
       <r>    18.7707     0.0226     6.8241 </r>
       <r>    18.8685    -0.0005     6.8241 </r>
       <r>    18.9664     0.0000     6.8241 </r>
       <r>    19.0642     0.0000     6.8241 </r>
       <r>    19.1620     0.0000     6.8241 </r>
       <r>    19.2599    -0.0261     6.8215 </r>
       <r>    19.3577     0.9057     6.9101 </r>
       <r>    19.4556     0.7318     6.9817 </r>
       <r>    19.5534     0.7397     7.0541 </r>
       <r>    19.6513     1.1562     7.1672 </r>
       <r>    19.7491     1.0746     7.2724 </r>
       <r>    19.8470    -0.0407     7.2684 </r>
       <r>    19.9448    -0.0533     7.2632 </r>
       <r>    20.0426     7.5255     7.9995 </r>
       <r>    20.1405     3.8624     8.3774 </r>
       <r>    20.2383    -0.0755     8.3701 </r>
       <r>    20.3362     0.1629     8.3860 </r>
       <r>    20.4340     0.1263     8.3983 </r>
       <r>    20.5319    -0.0021     8.3981 </r>
       <r>    20.6297    -0.0002     8.3981 </r>
       <r>    20.7276    -0.0591     8.3923 </r>
       <r>    20.8254     2.3227     8.6196 </r>
       <r>    20.9233     0.0085     8.6204 </r>
       <r>    21.0211    -0.0007     8.6204 </r>
       <r>    21.1189     0.0000     8.6204 </r>
       <r>    21.2168     0.0000     8.6204 </r>
       <r>    21.3146     0.0000     8.6204 </r>
       <r>    21.4125     0.0000     8.6204 </r>
       <r>    21.5103     0.0000     8.6204 </r>
       <r>    21.6082    -0.0008     8.6203 </r>
       <r>    21.7060     0.0749     8.6276 </r>
       <r>    21.8039     0.6723     8.6934 </r>
       <r>    21.9017     0.2044     8.7134 </r>
       <r>    21.9995    -0.0045     8.7130 </r>
       <r>    22.0974     0.0000     8.7130 </r>
       <r>    22.1952     0.0000     8.7130 </r>
       <r>    22.2931    -0.0251     8.7105 </r>
       <r>    22.3909     0.8967     8.7982 </r>
       <r>    22.4888     0.2672     8.8244 </r>
       <r>    22.5866    -0.0032     8.8241 </r>
       <r>    22.6845     0.0000     8.8241 </r>
       <r>    22.7823    -0.0266     8.8215 </r>
       <r>    22.8802     0.9967     8.9190 </r>
       <r>    22.9780     0.5550     8.9733 </r>
       <r>    23.0758    -0.0111     8.9722 </r>
       <r>    23.1737     0.0000     8.9722 </r>
       <r>    23.2715     0.0000     8.9722 </r>
       <r>    23.3694     0.0000     8.9722 </r>
       <r>    23.4672     0.0000     8.9722 </r>
       <r>    23.5651     0.0000     8.9722 </r>
       <r>    23.6629     0.0000     8.9722 </r>
       <r>    23.7608     0.0000     8.9722 </r>
       <r>    23.8586     0.0000     8.9722 </r>
       <r>    23.9564     0.0000     8.9722 </r>
       <r>    24.0543     0.0000     8.9722 </r>
       <r>    24.1521     0.0000     8.9722 </r>
       <r>    24.2500     0.0000     8.9722 </r>
       <r>    24.3478     0.0000     8.9722 </r>
       <r>    24.4457     0.0000     8.9722 </r>
       <r>    24.5435     0.0000     8.9722 </r>
       <r>    24.6414     0.0000     8.9722 </r>
       <r>    24.7392     0.0000     8.9722 </r>
       <r>    24.8371    -0.0001     8.9722 </r>
       <r>    24.9349     0.0001     8.9722 </r>
       <r>    25.0327     0.2933     9.0009 </r>
       <r>    25.1306    -0.0095     9.0000 </r>
       <r>    25.2284     0.0000     9.0000 </r>
       <r>    25.3263     0.0000     9.0000 </r>
       <r>    25.4241     0.0000     9.0000 </r>
       <r>    25.5220     0.0000     9.0000 </r>
       <r>    25.6198     0.0000     9.0000 </r>
       <r>    25.7177     0.0000     9.0000 </r>
       <r>    25.8155     0.0000     9.0000 </r>
       <r>    25.9133     0.0000     9.0000 </r>
       <r>    26.0112     0.0000     9.0000 </r>
       <r>    26.1090     0.0000     9.0000 </r>
       <r>    26.2069     0.0000     9.0000 </r>
       <r>    26.3047     0.0000     9.0000 </r>
       <r>    26.4026     0.0000     9.0000 </r>
      </set>
      <set comment="spin 2">
       <r>    -2.9509     0.0000     0.0000 </r>
       <r>    -2.8531     0.0000     0.0000 </r>
       <r>    -2.7552     0.0000     0.0000 </r>
       <r>    -2.6574     0.0000     0.0000 </r>
       <r>    -2.5596     0.0000     0.0000 </r>
       <r>    -2.4617     0.0000     0.0000 </r>
       <r>    -2.3639     0.0000     0.0000 </r>
       <r>    -2.2660     0.0000     0.0000 </r>
       <r>    -2.1682     0.0000     0.0000 </r>
       <r>    -2.0703     0.0000     0.0000 </r>
       <r>    -1.9725     0.0000     0.0000 </r>
       <r>    -1.8746     0.0000     0.0000 </r>
       <r>    -1.7768     0.0000     0.0000 </r>
       <r>    -1.6789     0.0000     0.0000 </r>
       <r>    -1.5811    -0.0094    -0.0009 </r>
       <r>    -1.4833     0.2710     0.0256 </r>
       <r>    -1.3854     0.0226     0.0278 </r>
       <r>    -1.2876    -0.0003     0.0278 </r>
       <r>    -1.1897     0.0000     0.0278 </r>
       <r>    -1.0919     0.0000     0.0278 </r>
       <r>    -0.9940     0.0000     0.0278 </r>
       <r>    -0.8962     0.0000     0.0278 </r>
       <r>    -0.7983     0.0000     0.0278 </r>
       <r>    -0.7005     0.0000     0.0278 </r>
       <r>    -0.6027     0.0000     0.0278 </r>
       <r>    -0.5048    -0.0116     0.0266 </r>
       <r>    -0.4070     0.3939     0.0652 </r>
       <r>    -0.3091    -0.0037     0.0648 </r>
       <r>    -0.2113    -0.0001     0.0648 </r>
       <r>    -0.1134     0.0000     0.0648 </r>
       <r>    -0.0156     0.0000     0.0648 </r>
       <r>     0.0823     0.0000     0.0648 </r>
       <r>     0.1801     0.0000     0.0648 </r>
       <r>     0.2780    -0.0001     0.0648 </r>
       <r>     0.3758    -0.0286     0.0620 </r>
       <r>     0.4736     1.1868     0.1781 </r>
       <r>     0.5715    -0.0223     0.1759 </r>
       <r>     0.6693    -0.0002     0.1759 </r>
       <r>     0.7672     0.0000     0.1759 </r>
       <r>     0.8650     0.0000     0.1759 </r>
       <r>     0.9629     0.0000     0.1759 </r>
       <r>     1.0607     0.0000     0.1759 </r>
       <r>     1.1586     0.0000     0.1759 </r>
       <r>     1.2564     0.0000     0.1759 </r>
       <r>     1.3542     0.0000     0.1759 </r>
       <r>     1.4521     0.0000     0.1759 </r>
       <r>     1.5499    -0.0018     0.1758 </r>
       <r>     1.6478     0.1499     0.1904 </r>
       <r>     1.7456     2.1996     0.4056 </r>
       <r>     1.8435    -0.0765     0.3982 </r>
       <r>     1.9413    -0.0027     0.3979 </r>
       <r>     2.0392     0.2212     0.4195 </r>
       <r>     2.1370     0.6507     0.4832 </r>
       <r>     2.2349    -0.0396     0.4793 </r>
       <r>     2.3327     0.9422     0.5715 </r>
       <r>     2.4305     0.6411     0.6342 </r>
       <r>     2.5284     0.1451     0.6484 </r>
       <r>     2.6262    -0.0029     0.6481 </r>
       <r>     2.7241     0.0000     0.6481 </r>
       <r>     2.8219    -0.0266     0.6455 </r>
       <r>     2.9198     0.9463     0.7381 </r>
       <r>     3.0176     1.3785     0.8730 </r>
       <r>     3.1155     0.5453     0.9264 </r>
       <r>     3.2133     0.1467     0.9407 </r>
       <r>     3.3111     1.1389     1.0522 </r>
       <r>     3.4090     0.0352     1.0556 </r>
       <r>     3.5068    -0.0006     1.0556 </r>
       <r>     3.6047     0.0000     1.0556 </r>
       <r>     3.7025    -0.0155     1.0540 </r>
       <r>     3.8004     0.7137     1.1239 </r>
       <r>     3.8982     0.4441     1.1673 </r>
       <r>     3.9961    -0.0066     1.1667 </r>
       <r>     4.0939    -0.0026     1.1664 </r>
       <r>     4.1918     0.1921     1.1852 </r>
       <r>     4.2896     0.3862     1.2230 </r>
       <r>     4.3874     0.0863     1.2314 </r>
       <r>     4.4853     1.9676     1.4240 </r>
       <r>     4.5831     1.0982     1.5314 </r>
       <r>     4.6810     0.6343     1.5935 </r>
       <r>     4.7788     2.1301     1.8019 </r>
       <r>     4.8767     0.2588     1.8272 </r>
       <r>     4.9745     0.0291     1.8300 </r>
       <r>     5.0724     1.2276     1.9502 </r>
       <r>     5.1702     1.9267     2.1387 </r>
       <r>     5.2680     0.2900     2.1671 </r>
       <r>     5.3659    -0.0040     2.1667 </r>
       <r>     5.4637    -0.0247     2.1642 </r>
       <r>     5.5616     0.8879     2.2511 </r>
       <r>     5.6594     1.5452     2.4023 </r>
       <r>     5.7573     1.8111     2.5795 </r>
       <r>     5.8551    -0.0556     2.5741 </r>
       <r>     5.9530    -0.0002     2.5741 </r>
       <r>     6.0508    -0.0176     2.5723 </r>
       <r>     6.1487     1.1852     2.6883 </r>
       <r>     6.2465    -0.0317     2.6852 </r>
       <r>     6.3443    -0.0003     2.6852 </r>
       <r>     6.4422     0.0045     2.6856 </r>
       <r>     6.5400     0.5898     2.7433 </r>
       <r>     6.6379     0.3640     2.7789 </r>
       <r>     6.7357     0.5737     2.8351 </r>
       <r>     6.8336     0.0569     2.8406 </r>
       <r>     6.9314     0.1812     2.8584 </r>
       <r>     7.0293     1.0213     2.9583 </r>
       <r>     7.1271     0.7310     3.0298 </r>
       <r>     7.2249    -0.0208     3.0278 </r>
       <r>     7.3228     0.0000     3.0278 </r>
       <r>     7.4206     0.0000     3.0278 </r>
       <r>     7.5185     0.0000     3.0278 </r>
       <r>     7.6163    -0.0298     3.0249 </r>
       <r>     7.7142     0.9688     3.1197 </r>
       <r>     7.8120     0.1987     3.1391 </r>
       <r>     7.9099    -0.0022     3.1389 </r>
       <r>     8.0077     0.0000     3.1389 </r>
       <r>     8.1056     0.0000     3.1389 </r>
       <r>     8.2034    -0.0336     3.1356 </r>
       <r>     8.3012     0.9982     3.2333 </r>
       <r>     8.3991     1.0268     3.3337 </r>
       <r>     8.4969     0.2832     3.3614 </r>
       <r>     8.5948    -0.0110     3.3604 </r>
       <r>     8.6926     0.2853     3.3883 </r>
       <r>     8.7905     0.1127     3.3993 </r>
       <r>     8.8883     0.2425     3.4230 </r>
       <r>     8.9862     1.0952     3.5302 </r>
       <r>     9.0840     1.5970     3.6865 </r>
       <r>     9.1818     1.0669     3.7909 </r>
       <r>     9.2797    -0.0391     3.7870 </r>
       <r>     9.3775     0.0000     3.7870 </r>
       <r>     9.4754    -0.0257     3.7845 </r>
       <r>     9.5732     0.7315     3.8561 </r>
       <r>     9.6711     0.0129     3.8574 </r>
       <r>     9.7689     1.1664     3.9715 </r>
       <r>     9.8668    -0.0114     3.9704 </r>
       <r>     9.9646     0.5478     4.0240 </r>
       <r>    10.0625     0.0298     4.0269 </r>
       <r>    10.1603     0.2477     4.0511 </r>
       <r>    10.2581     0.8665     4.1359 </r>
       <r>    10.3560     1.3091     4.2640 </r>
       <r>    10.4538     0.2117     4.2847 </r>
       <r>    10.5517     1.7747     4.4584 </r>
       <r>    10.6495     1.0032     4.5565 </r>
       <r>    10.7474     1.4698     4.7003 </r>
       <r>    10.8452     1.2753     4.8251 </r>
       <r>    10.9431     0.1817     4.8429 </r>
       <r>    11.0409     0.2424     4.8666 </r>
       <r>    11.1387     0.8767     4.9524 </r>
       <r>    11.2366     1.0945     5.0595 </r>
       <r>    11.3344     0.0553     5.0649 </r>
       <r>    11.4323    -0.0007     5.0648 </r>
       <r>    11.5301     0.0000     5.0648 </r>
       <r>    11.6280     0.0000     5.0648 </r>
       <r>    11.7258     0.0000     5.0648 </r>
       <r>    11.8237     0.0000     5.0648 </r>
       <r>    11.9215    -0.0021     5.0646 </r>
       <r>    12.0194     0.0722     5.0717 </r>
       <r>    12.1172     1.8763     5.2553 </r>
       <r>    12.2150     2.7991     5.5291 </r>
       <r>    12.3129     0.0821     5.5372 </r>
       <r>    12.4107    -0.0014     5.5370 </r>
       <r>    12.5086    -0.0042     5.5366 </r>
       <r>    12.6064     0.3298     5.5689 </r>
       <r>    12.7043     0.8213     5.6492 </r>
       <r>    12.8021     0.2654     5.6752 </r>
       <r>    12.9000     0.0575     5.6808 </r>
       <r>    12.9978     0.0451     5.6853 </r>
       <r>    13.0957    -0.0008     5.6852 </r>
       <r>    13.1935     0.0000     5.6852 </r>
       <r>    13.2913     0.0000     5.6852 </r>
       <r>    13.3892     0.0000     5.6852 </r>
       <r>    13.4870     0.0000     5.6852 </r>
       <r>    13.5849     0.0000     5.6852 </r>
       <r>    13.6827     0.0000     5.6852 </r>
       <r>    13.7806     0.0000     5.6852 </r>
       <r>    13.8784     0.0000     5.6852 </r>
       <r>    13.9763     0.0000     5.6852 </r>
       <r>    14.0741     0.0000     5.6852 </r>
       <r>    14.1719     0.0000     5.6852 </r>
       <r>    14.2698     0.0000     5.6852 </r>
       <r>    14.3676     0.0000     5.6852 </r>
       <r>    14.4655    -0.0059     5.6846 </r>
       <r>    14.5633     0.3093     5.7149 </r>
       <r>    14.6612     0.2690     5.7412 </r>
       <r>    14.7590    -0.0046     5.7407 </r>
       <r>    14.8569     0.0000     5.7407 </r>
       <r>    14.9547     0.0000     5.7407 </r>
       <r>    15.0526    -0.0009     5.7407 </r>
       <r>    15.1504     0.0752     5.7480 </r>
       <r>    15.2482     1.1000     5.8556 </r>
       <r>    15.3461    -0.0543     5.8503 </r>
       <r>    15.4439     0.7136     5.9202 </r>
       <r>    15.5418     0.4441     5.9636 </r>
       <r>    15.6396    -0.0068     5.9629 </r>
       <r>    15.7375    -0.0284     5.9602 </r>
       <r>    15.8353     1.4943     6.1064 </r>
       <r>    15.9332     0.5930     6.1644 </r>
       <r>    16.0310     0.6022     6.2233 </r>
       <r>    16.1288    -0.0112     6.2222 </r>
       <r>    16.2267    -0.0071     6.2215 </r>
       <r>    16.3245     0.3415     6.2549 </r>
       <r>    16.4224     0.2371     6.2781 </r>
       <r>    16.5202    -0.0037     6.2778 </r>
       <r>    16.6181     0.0000     6.2778 </r>
       <r>    16.7159     0.0000     6.2778 </r>
       <r>    16.8138    -0.0226     6.2756 </r>
       <r>    16.9116     0.6845     6.3425 </r>
       <r>    17.0095     0.0962     6.3520 </r>
       <r>    17.1073    -0.0022     6.3517 </r>
       <r>    17.2051     0.1085     6.3623 </r>
       <r>    17.3030     0.4748     6.4088 </r>
       <r>    17.4008    -0.0143     6.4074 </r>
       <r>    17.4987     0.0000     6.4074 </r>
       <r>    17.5965     0.0000     6.4074 </r>
       <r>    17.6944     0.0000     6.4074 </r>
       <r>    17.7922     0.0000     6.4074 </r>
       <r>    17.8901    -0.0001     6.4074 </r>
       <r>    17.9879    -0.0297     6.4045 </r>
       <r>    18.0857     1.1864     6.5206 </r>
       <r>    18.1836    -0.0209     6.5185 </r>
       <r>    18.2814    -0.0027     6.5183 </r>
       <r>    18.3793     0.1859     6.5365 </r>
       <r>    18.4771     0.3543     6.5711 </r>
       <r>    18.5750     1.1944     6.6880 </r>
       <r>    18.6728     0.2370     6.7112 </r>
       <r>    18.7707     1.1785     6.8265 </r>
       <r>    18.8685    -0.0246     6.8241 </r>
       <r>    18.9664    -0.0002     6.8241 </r>
       <r>    19.0642     0.0000     6.8241 </r>
       <r>    19.1620     0.0000     6.8241 </r>
       <r>    19.2599     0.0000     6.8241 </r>
       <r>    19.3577    -0.0339     6.8208 </r>
       <r>    19.4556     1.0063     6.9192 </r>
       <r>    19.5534     0.9701     7.0141 </r>
       <r>    19.6513     0.5472     7.0677 </r>
       <r>    19.7491     1.1532     7.1805 </r>
       <r>    19.8470     0.9284     7.2714 </r>
       <r>    19.9448    -0.0407     7.2674 </r>
       <r>    20.0426     0.9396     7.3593 </r>
       <r>    20.1405    10.5616     8.3927 </r>
       <r>    20.2383    -0.2270     8.3705 </r>
       <r>    20.3362    -0.0078     8.3697 </r>
       <r>    20.4340     0.2290     8.3921 </r>
       <r>    20.5319     0.0622     8.3982 </r>
       <r>    20.6297    -0.0007     8.3981 </r>
       <r>    20.7276    -0.0003     8.3981 </r>
       <r>    20.8254    -0.0415     8.3941 </r>
       <r>    20.9233     2.2769     8.6168 </r>
       <r>    21.0211     0.0369     8.6205 </r>
       <r>    21.1189    -0.0009     8.6204 </r>
       <r>    21.2168     0.0000     8.6204 </r>
       <r>    21.3146     0.0000     8.6204 </r>
       <r>    21.4125     0.0000     8.6204 </r>
       <r>    21.5103     0.0000     8.6204 </r>
       <r>    21.6082     0.0000     8.6204 </r>
       <r>    21.7060    -0.0004     8.6203 </r>
       <r>    21.8039     0.0372     8.6240 </r>
       <r>    21.9017     0.6434     8.6869 </r>
       <r>    21.9995     0.2742     8.7137 </r>
       <r>    22.0974    -0.0080     8.7130 </r>
       <r>    22.1952     0.0000     8.7130 </r>
       <r>    22.2931     0.0000     8.7130 </r>
       <r>    22.3909    -0.0398     8.7091 </r>
       <r>    22.4888     1.1220     8.8188 </r>
       <r>    22.5866     0.0542     8.8241 </r>
       <r>    22.6845    -0.0007     8.8241 </r>
       <r>    22.7823     0.0000     8.8241 </r>
       <r>    22.8802    -0.0367     8.8205 </r>
       <r>    22.9780     1.1635     8.9343 </r>
       <r>    23.0758     0.3953     8.9730 </r>
       <r>    23.1737    -0.0079     8.9722 </r>
       <r>    23.2715     0.0000     8.9722 </r>
       <r>    23.3694     0.0000     8.9722 </r>
       <r>    23.4672     0.0000     8.9722 </r>
       <r>    23.5651     0.0000     8.9722 </r>
       <r>    23.6629     0.0000     8.9722 </r>
       <r>    23.7608     0.0000     8.9722 </r>
       <r>    23.8586     0.0000     8.9722 </r>
       <r>    23.9564     0.0000     8.9722 </r>
       <r>    24.0543     0.0000     8.9722 </r>
       <r>    24.1521     0.0000     8.9722 </r>
       <r>    24.2500     0.0000     8.9722 </r>
       <r>    24.3478     0.0000     8.9722 </r>
       <r>    24.4457     0.0000     8.9722 </r>
       <r>    24.5435     0.0000     8.9722 </r>
       <r>    24.6414     0.0000     8.9722 </r>
       <r>    24.7392     0.0000     8.9722 </r>
       <r>    24.8371     0.0000     8.9722 </r>
       <r>    24.9349    -0.0001     8.9722 </r>
       <r>    25.0327     0.0104     8.9732 </r>
       <r>    25.1306     0.2837     9.0010 </r>
       <r>    25.2284    -0.0100     9.0000 </r>
       <r>    25.3263     0.0000     9.0000 </r>
       <r>    25.4241     0.0000     9.0000 </r>
       <r>    25.5220     0.0000     9.0000 </r>
       <r>    25.6198     0.0000     9.0000 </r>
       <r>    25.7177     0.0000     9.0000 </r>
       <r>    25.8155     0.0000     9.0000 </r>
       <r>    25.9133     0.0000     9.0000 </r>
       <r>    26.0112     0.0000     9.0000 </r>
       <r>    26.1090     0.0000     9.0000 </r>
       <r>    26.2069     0.0000     9.0000 </r>
       <r>    26.3047     0.0000     9.0000 </r>
       <r>    26.4026     0.0000     9.0000 </r>
      </set>
     </set>
    </array>
   </total>
   <partial>
    <array>
     <dimension dim="1">gridpoints</dimension>
     <dimension dim="2">spin</dimension>
     <dimension dim="3">ion</dimension>
     <field>energy</field>
     <field>  s</field>
     <field> py</field>
     <field> pz</field>
     <field> px</field>
     <field>dxy</field>
     <field>dyz</field>
     <field>dz2</field>
     <field>dxz</field>
     <field>dx2</field>
     <set>
      <set comment="ion 1">
       <set comment="spin 1">
        <r>    -2.9509     0.0000     0.0000     0.0000     0.0000     0.0000     0.0000     0.0000     0.0000     0.0000 </r>
        <r>    -2.8531     0.0000     0.0000     0.0000     0.0000     0.0000     0.0000     0.0000     0.0000     0.0000 </r>
        <r>    -2.7552     0.0000     0.0000     0.0000     0.0000     0.0000     0.0000     0.0000     0.0000     0.0000 </r>
        <r>    -2.6574     0.0000     0.0000     0.0000     0.0000     0.0000     0.0000     0.0000     0.0000     0.0000 </r>
        <r>    -2.5596     0.0000     0.0000     0.0000     0.0000     0.0000     0.0000     0.0000     0.0000     0.0000 </r>
        <r>    -2.4617     0.0000     0.0000     0.0000     0.0000     0.0000     0.0000     0.0000     0.0000     0.0000 </r>
        <r>    -2.3639     0.0000     0.0000     0.0000     0.0000     0.0000     0.0000     0.0000     0.0000     0.0000 </r>
        <r>    -2.2660     0.0000     0.0000     0.0000     0.0000     0.0000     0.0000     0.0000     0.0000     0.0000 </r>
        <r>    -2.1682     0.0000     0.0000     0.0000     0.0000     0.0000     0.0000     0.0000     0.0000     0.0000 </r>
        <r>    -2.0703     0.0000     0.0000     0.0000     0.0000     0.0000     0.0000     0.0000     0.0000     0.0000 </r>
        <r>    -1.9725     0.0000     0.0000     0.0000     0.0000     0.0000     0.0000     0.0000     0.0000     0.0000 </r>
        <r>    -1.8746     0.0000     0.0000     0.0000     0.0000     0.0000     0.0000     0.0000     0.0000     0.0000 </r>
        <r>    -1.7768     0.0000     0.0000     0.0000     0.0000     0.0000     0.0000     0.0000     0.0000     0.0000 </r>
        <r>    -1.6789    -0.0082     0.0000     0.0000    -0.0005     0.0000     0.0000     0.0000     0.0000     0.0000 </r>
        <r>    -1.5811     0.2329     0.0000     0.0000     0.0131     0.0000     0.0000     0.0001     0.0000     0.0004 </r>
        <r>    -1.4833     0.0085     0.0000     0.0000     0.0005     0.0000     0.0000     0.0000     0.0000     0.0000 </r>
        <r>    -1.3854    -0.0001     0.0000     0.0000     0.0000     0.0000     0.0000     0.0000     0.0000     0.0000 </r>
        <r>    -1.2876     0.0000     0.0000     0.0000     0.0000     0.0000     0.0000     0.0000     0.0000     0.0000 </r>
        <r>    -1.1897     0.0000     0.0000     0.0000     0.0000     0.0000     0.0000     0.0000     0.0000     0.0000 </r>
        <r>    -1.0919     0.0000     0.0000     0.0000     0.0000     0.0000     0.0000     0.0000     0.0000     0.0000 </r>
        <r>    -0.9940     0.0000     0.0000     0.0000     0.0000     0.0000     0.0000     0.0000     0.0000     0.0000 </r>
        <r>    -0.8962     0.0000     0.0000     0.0000     0.0000     0.0000     0.0000     0.0000     0.0000     0.0000 </r>
        <r>    -0.7983     0.0000     0.0000     0.0000     0.0000     0.0000     0.0000     0.0000     0.0000     0.0000 </r>
        <r>    -0.7005     0.0000     0.0000     0.0000     0.0000     0.0000     0.0000     0.0000     0.0000     0.0000 </r>
        <r>    -0.6027    -0.0059    -0.0003    -0.0003    -0.0003    -0.0001    -0.0001     0.0000    -0.0001     0.0000 </r>
        <r>    -0.5048     0.2957     0.0153     0.0153     0.0153     0.0035     0.0035     0.0000     0.0035     0.0000 </r>
        <r>    -0.4070    -0.0069    -0.0004    -0.0004    -0.0004    -0.0001    -0.0001     0.0000    -0.0001     0.0000 </r>
        <r>    -0.3091     0.0000     0.0000     0.0000     0.0000     0.0000     0.0000     0.0000     0.0000     0.0000 </r>
        <r>    -0.2113     0.0000     0.0000     0.0000     0.0000     0.0000     0.0000     0.0000     0.0000     0.0000 </r>
        <r>    -0.1134     0.0000     0.0000     0.0000     0.0000     0.0000     0.0000     0.0000     0.0000     0.0000 </r>
        <r>    -0.0156     0.0000     0.0000     0.0000     0.0000     0.0000     0.0000     0.0000     0.0000     0.0000 </r>
        <r>     0.0823     0.0000     0.0000     0.0000     0.0000     0.0000     0.0000     0.0000     0.0000     0.0000 </r>
        <r>     0.1801    -0.0001     0.0000     0.0000     0.0000     0.0000     0.0000     0.0000     0.0000     0.0000 </r>
        <r>     0.2780    -0.0107    -0.0004     0.0000    -0.0022    -0.0010     0.0000    -0.0004     0.0000    -0.0002 </r>
        <r>     0.3758     0.7739     0.0285     0.0000     0.1623     0.0729     0.0000     0.0260     0.0000     0.0124 </r>
        <r>     0.4736    -0.0211    -0.0008     0.0000    -0.0044    -0.0020     0.0000    -0.0007     0.0000    -0.0003 </r>
        <r>     0.5715    -0.0001     0.0000     0.0000     0.0000     0.0000     0.0000     0.0000     0.0000     0.0000 </r>
        <r>     0.6693     0.0000     0.0000     0.0000     0.0000     0.0000     0.0000     0.0000     0.0000     0.0000 </r>
        <r>     0.7672     0.0000     0.0000     0.0000     0.0000     0.0000     0.0000     0.0000     0.0000     0.0000 </r>
        <r>     0.8650     0.0000     0.0000     0.0000     0.0000     0.0000     0.0000     0.0000     0.0000     0.0000 </r>
        <r>     0.9629     0.0000     0.0000     0.0000     0.0000     0.0000     0.0000     0.0000     0.0000     0.0000 </r>
        <r>     1.0607     0.0000     0.0000     0.0000     0.0000     0.0000     0.0000     0.0000     0.0000     0.0000 </r>
        <r>     1.1586     0.0000     0.0000     0.0000     0.0000     0.0000     0.0000     0.0000     0.0000     0.0000 </r>
        <r>     1.2564     0.0000     0.0000     0.0000     0.0000     0.0000     0.0000     0.0000     0.0000     0.0000 </r>
        <r>     1.3542     0.0000     0.0000     0.0000     0.0000     0.0000     0.0000     0.0000     0.0000     0.0000 </r>
        <r>     1.4521    -0.0010    -0.0001    -0.0001    -0.0001    -0.0003    -0.0004    -0.0002     0.0000    -0.0001 </r>
        <r>     1.5499     0.0917     0.0094     0.0094     0.0089     0.0193     0.0372     0.0129     0.0008     0.0072 </r>
        <r>     1.6478     0.8453     0.0602     0.0598     0.0960     0.4312     0.2371     0.2587     0.0048     0.0477 </r>
        <r>     1.7456    -0.0285    -0.0020    -0.0019    -0.0033    -0.0153    -0.0077    -0.0091    -0.0002    -0.0016 </r>
        <r>     1.8435    -0.0009     0.0000     0.0000    -0.0004     0.0000    -0.0010    -0.0001     0.0000    -0.0004 </r>
        <r>     1.9413     0.0737     0.0000     0.0000     0.0287     0.0000     0.0791     0.0110     0.0000     0.0330 </r>
        <r>     2.0392     0.2047     0.0000     0.0000     0.0842     0.0000     0.2005     0.0296     0.0000     0.0889 </r>
        <r>     2.1370    -0.0139    -0.0002    -0.0002    -0.0059    -0.0024    -0.0054    -0.0021    -0.0024    -0.0045 </r>
        <r>     2.2349     0.3297     0.0095     0.0095     0.1426     0.0921     0.0088     0.0814     0.0921     0.0927 </r>
        <r>     2.3327     0.1314     0.0038     0.0038     0.0612     0.0366     0.0035     0.1669     0.0366     0.1238 </r>
        <r>     2.4305    -0.0005     0.0000     0.0000     0.0124    -0.0005     0.0000     0.0423    -0.0005     0.1366 </r>
        <r>     2.5284     0.0000     0.0000     0.0000    -0.0004     0.0000     0.0000    -0.0012     0.0000    -0.0037 </r>
        <r>     2.6262     0.0000     0.0000     0.0000     0.0000     0.0000     0.0000     0.0000     0.0000     0.0000 </r>
        <r>     2.7241    -0.0045    -0.0006    -0.0008    -0.0006    -0.0092    -0.0007    -0.0071    -0.0007     0.0000 </r>
        <r>     2.8219     0.1600     0.0209     0.0273     0.0194     0.3271     0.0257     0.2411     0.0257    -0.0005 </r>
        <r>     2.9198     0.1758     0.0125     0.0079     0.1516     0.2201     0.0077     0.7134     0.0077     0.0387 </r>
        <r>     3.0176    -0.0042     0.0126     0.0127     0.0086    -0.0023     0.0023     0.1465     0.0023     0.1645 </r>
        <r>     3.1155    -0.0072     0.0088     0.0107     0.0088    -0.0022    -0.0088     0.1390    -0.0088     0.1403 </r>
        <r>     3.2133     0.2171     0.0615     0.0047     0.0615     0.1258     0.3266     0.0357     0.3266    -0.0024 </r>
        <r>     3.3111     0.0013     0.0004     0.0000     0.0004     0.0008     0.0020     0.0002     0.0020     0.0000 </r>
        <r>     3.4090    -0.0001     0.0000     0.0000     0.0000     0.0000    -0.0001     0.0000    -0.0001     0.0000 </r>
        <r>     3.5068     0.0000     0.0000     0.0000     0.0000     0.0000     0.0000     0.0000     0.0000     0.0000 </r>
        <r>     3.6047    -0.0001    -0.0004     0.0000    -0.0007     0.0000     0.0000    -0.0009     0.0000    -0.0040 </r>
        <r>     3.7025     0.0097     0.0260     0.0000     0.0456     0.0009     0.0000     0.0575     0.0000     0.2647 </r>
        <r>     3.8004     0.0149     0.0402     0.0000     0.0705     0.0014     0.0000     0.0889     0.0000     0.4091 </r>
        <r>     3.8982    -0.0003    -0.0009     0.0000    -0.0015     0.0000     0.0000    -0.0019     0.0000    -0.0088 </r>
        <r>     3.9961     0.0000    -0.0001    -0.0001     0.0000    -0.0018     0.0000     0.0000    -0.0018     0.0000 </r>
        <r>     4.0939     0.0000     0.0049     0.0049     0.0000     0.1184     0.0000     0.0000     0.1184     0.0000 </r>
        <r>     4.1918     0.0000     0.0069     0.0070    -0.0001     0.1689    -0.0003     0.0000     0.1685    -0.0002 </r>
        <r>     4.2896     0.0000     0.0116    -0.0012     0.0127    -0.0066     0.0317    -0.0070     0.0251     0.0150 </r>
        <r>     4.3874     0.0000     0.1649     0.0414     0.1229     0.1172     0.3058     0.2885     0.4243     0.2642 </r>
        <r>     4.4853     0.0000     0.0507     0.0549     0.0171     0.4848     0.0382     0.1485     0.4731     0.0437 </r>
        <r>     4.5831    -0.0009     0.0132     0.0141     0.0067     0.1990     0.1004    -0.0010     0.2929     0.0017 </r>
        <r>     4.6810     0.0244     0.0154     0.0752     0.0155     0.0059     0.8635     0.1694     0.9099    -0.0006 </r>
        <r>     4.7788     0.0014     0.0009     0.0033     0.0009     0.0005     0.0083     0.1012     0.0068     0.0305 </r>
        <r>     4.8767    -0.0015    -0.0013    -0.0098    -0.0013    -0.0172    -0.0004     0.0912    -0.0004     0.0301 </r>
        <r>     4.9745     0.0458     0.0518     0.3011     0.0541     0.5320    -0.0007     0.0183     0.0039     0.0528 </r>
        <r>     5.0724     0.0456     0.3001     0.1506     0.2076     0.1609     0.2995     0.0338     0.1167     0.5586 </r>
        <r>     5.1702     0.0157     0.0355     0.0416    -0.0030     0.0299     0.1054     0.0126     0.0294     0.0222 </r>
        <r>     5.2680    -0.0002    -0.0005    -0.0005     0.0000    -0.0004    -0.0014    -0.0002    -0.0004    -0.0005 </r>
        <r>     5.3659     0.0000     0.0000    -0.0004     0.0000    -0.0001    -0.0117     0.0000    -0.0177     0.0000 </r>
        <r>     5.4637    -0.0001    -0.0001     0.0128    -0.0008     0.0044     0.3862     0.0004     0.5867     0.0004 </r>
        <r>     5.5616     0.0045     0.0192     0.0199     0.0637     0.3281     0.5305     0.0328     0.4426     0.0340 </r>
        <r>     5.6594     0.0207     0.0987     0.0166     0.1324     0.6958     0.3010     0.2861     0.1032     0.0663 </r>
        <r>     5.7573    -0.0006    -0.0032    -0.0004    -0.0035    -0.0231    -0.0066    -0.0100    -0.0024    -0.0021 </r>
        <r>     5.8551     0.0000     0.0000     0.0000     0.0000     0.0000     0.0000     0.0000     0.0000     0.0000 </r>
        <r>     5.9530    -0.0017    -0.0088     0.0000    -0.0089    -0.0012     0.0000    -0.0039     0.0000    -0.0065 </r>
        <r>     6.0508     0.0568     0.2954     0.0000     0.2999     0.0410     0.0000     0.1319     0.0000     0.2199 </r>
        <r>     6.1487    -0.0005    -0.0025     0.0000    -0.0025    -0.0003     0.0000    -0.0011     0.0000    -0.0018 </r>
        <r>     6.2465     0.0000    -0.0001     0.0000    -0.0001    -0.0001     0.0000     0.0000    -0.0001     0.0000 </r>
        <r>     6.3443     0.0000     0.0001     0.0001     0.0000     0.0074     0.0000     0.0000     0.0074     0.0000 </r>
        <r>     6.4422     0.0022     0.0048     0.0048     0.0005     0.2966     0.0036     0.0000     0.2966     0.0000 </r>
        <r>     6.5400     0.0533     0.0116     0.0116     0.0129     0.0780     0.0886     0.0000     0.0780     0.0000 </r>
        <r>     6.6379    -0.0019     0.2098     0.2098    -0.0005     0.0539    -0.0043     0.0000     0.0539     0.0000 </r>
        <r>     6.7357     0.0000    -0.0064    -0.0064     0.0000    -0.0017     0.0902     0.0000    -0.0018     0.0000 </r>
        <r>     6.8336     0.0000     0.0000    -0.0037     0.0000    -0.0001     0.1997     0.0000    -0.0190     0.0000 </r>
        <r>     6.9314     0.0000     0.0004     0.1103     0.0000     0.0032     0.3425     0.0000     0.5621     0.0000 </r>
        <r>     7.0293     0.0000     0.0340     0.0469     0.0000     0.2486     0.0411     0.0000     0.3146     0.0000 </r>
        <r>     7.1271     0.0000    -0.0012    -0.0013     0.0000    -0.0085    -0.0004     0.0000    -0.0092     0.0000 </r>
        <r>     7.2249     0.0000     0.0000     0.0000     0.0000     0.0000     0.0000     0.0000     0.0000     0.0000 </r>
        <r>     7.3228     0.0000     0.0000     0.0000     0.0000     0.0000     0.0000     0.0000     0.0000     0.0000 </r>
        <r>     7.4206     0.0000     0.0000     0.0000     0.0000     0.0000     0.0000     0.0000     0.0000     0.0000 </r>
        <r>     7.5185    -0.0032    -0.0023     0.0000     0.0000    -0.0137     0.0000    -0.0047     0.0000    -0.0007 </r>
        <r>     7.6163     0.1102     0.0781     0.0000     0.0013     0.4737     0.0000     0.1633     0.0000     0.0227 </r>
        <r>     7.7142     0.0291     0.0207     0.0000     0.0003     0.1252     0.0000     0.0432     0.0000     0.0060 </r>
        <r>     7.8120    -0.0003    -0.0002     0.0000     0.0000    -0.0014     0.0000    -0.0005     0.0000    -0.0001 </r>
        <r>     7.9099     0.0000     0.0000     0.0000     0.0000     0.0000     0.0000     0.0000     0.0000     0.0000 </r>
        <r>     8.0077     0.0000     0.0000     0.0000     0.0000     0.0000     0.0000     0.0000     0.0000     0.0000 </r>
        <r>     8.1056     0.0000    -0.0002     0.0000    -0.0002    -0.0059     0.0000    -0.0071     0.0000    -0.0025 </r>
        <r>     8.2034     0.0001     0.0087    -0.0003     0.0090     0.2528     0.0000     0.3021    -0.0039     0.1082 </r>
        <r>     8.3012     0.0000     0.0209     0.0161     0.0048     0.3210     0.0000     0.3478     0.1837     0.1200 </r>
        <r>     8.3991     0.0000     0.0108     0.0109    -0.0001     0.1220     0.0000     0.1219     0.1239     0.0406 </r>
        <r>     8.4969     0.0000    -0.0003    -0.0003    -0.0002    -0.0042    -0.0023    -0.0019    -0.0042    -0.0006 </r>
        <r>     8.5948     0.0007     0.0066     0.0066     0.0066     0.0871     0.0871     0.0000     0.0871     0.0000 </r>
        <r>     8.6926     0.0002     0.0025     0.0025     0.0025     0.0327     0.0327    -0.0065     0.0327    -0.0022 </r>
        <r>     8.7905    -0.0020    -0.0003    -0.0005    -0.0003    -0.0080    -0.0029     0.1714    -0.0026     0.0612 </r>
        <r>     8.8883     0.0646     0.0072     0.0150     0.0072     0.2518     0.0763     0.4070     0.0620     0.0028 </r>
        <r>     8.9862     0.0136     0.0009     0.0584     0.0007     0.0490     0.9807     0.0764     0.4247     0.0000 </r>
        <r>     9.0840     0.0399     0.0369    -0.0010     0.0501     0.3601    -0.0219     0.6290    -0.0075     0.0000 </r>
        <r>     9.1818    -0.0010    -0.0009     0.0000    -0.0012    -0.0087    -0.0001    -0.0152    -0.0001     0.0000 </r>
        <r>     9.2797     0.0000     0.0000     0.0000     0.0000     0.0000     0.0000    -0.0001     0.0000     0.0000 </r>
        <r>     9.3775     0.0000     0.0000     0.0000     0.0000    -0.0002    -0.0002    -0.0035    -0.0002    -0.0035 </r>
        <r>     9.4754     0.0000     0.0000     0.0000     0.0000     0.0123     0.0123     0.1789     0.0123     0.1789 </r>
        <r>     9.5732    -0.0002     0.0000     0.0000     0.0000     0.0091     0.0041     0.1371     0.0091     0.1281 </r>
        <r>     9.6711     0.0058     0.0025     0.0025     0.0014     0.0211     0.1963     0.1547     0.0211     0.4689 </r>
        <r>     9.7689     0.0010     0.0007     0.0007     0.0004     0.0058     0.0525     0.0416     0.0058     0.1249 </r>
        <r>     9.8668     0.0244     0.0000     0.0000     0.0001    -0.0001     0.0666     0.0677    -0.0001     0.2032 </r>
        <r>     9.9646     0.0138     0.0000     0.0000     0.0001     0.0000     0.0379     0.0380     0.0000     0.1140 </r>
        <r>    10.0625     0.0000     0.0000     0.0000     0.0002     0.0000    -0.0011     0.0297    -0.0006     0.0848 </r>
        <r>    10.1603     0.0002     0.0019     0.0000     0.0021    -0.0001     0.0417     0.0318     0.0416     0.4078 </r>
        <r>    10.2581     0.0000     0.0038     0.0002     0.0036     0.0090     0.0794     0.3279     0.0884     0.6752 </r>
        <r>    10.3560    -0.0026     0.0104     0.0105    -0.0002     0.0425    -0.0068     0.4544     0.0407     0.1258 </r>
        <r>    10.4538     0.0833     0.0593     0.0593     0.0035     0.2115     0.1608     0.1353     0.2121     0.4263 </r>
[...]
       </set>
       <set comment="band 6">
        <r>  0.4014  0.0522  0.0522  0.0522  0.1012  0.1012  0.0000  0.1012  0.0000 </r>
       </set>
       <set comment="band 7">
        <r>  0.0000  0.0985  0.3940  0.0985  0.2208  0.0552  0.0730  0.0552  0.0000 </r>
       </set>
       <set comment="band 8">
        <r>  0.0000  0.2955  0.0000  0.2955  0.0000  0.1656  0.0000  0.1656  0.0730 </r>
       </set>
       <set comment="band 9">
        <r> 43.9792  0.0002  0.0002  0.0002  0.0001  0.0001  0.0000  0.0001  0.0000 </r>
       </set>
      </set>
      <set comment="kpoint 14">
       <set comment="band 1">
        <r>  0.0000  0.0000  0.0000  0.0000  0.0000  0.0000  0.6829  0.0000  0.2276 </r>
       </set>
       <set comment="band 2">
        <r>  0.0056  0.0000  0.0000  0.0605  0.0000  0.0000  0.2126  0.0000  0.6377 </r>
       </set>
       <set comment="band 3">
        <r>  0.0000  0.1153  0.1153  0.0000  0.3510  0.0000  0.0000  0.3510  0.0000 </r>
       </set>
       <set comment="band 4">
        <r>  0.0000  0.1153  0.1153  0.0000  0.3510  0.0000  0.0000  0.3510  0.0000 </r>
       </set>
       <set comment="band 5">
        <r>  0.0000  0.0000  0.0000  0.0000  0.0000  0.9526  0.0000  0.0000  0.0000 </r>
       </set>
       <set comment="band 6">
        <r>  0.2520  0.0000  0.0000  0.5792  0.0000  0.0000  0.0156  0.0000  0.0467 </r>
       </set>
       <set comment="band 7">
        <r>  0.0000  0.3149  0.3149  0.0000  0.1576  0.0000  0.0000  0.1576  0.0000 </r>
       </set>
       <set comment="band 8">
        <r>  0.0000  0.3149  0.3149  0.0000  0.1576  0.0000  0.0000  0.1576  0.0000 </r>
       </set>
       <set comment="band 9">
        <r> 43.3107  0.0000  0.0000  0.0016  0.0000  0.0000  0.0000  0.0000  0.0001 </r>
       </set>
      </set>
     </set>
     <set comment="spin2">
      <set comment="kpoint 1">
       <set comment="band 1">
        <r>  0.7462  0.0388  0.0388  0.0388  0.0087  0.0087  0.0000  0.0087  0.0000 </r>
       </set>
       <set comment="band 2">
        <r>  0.0000  0.0141  0.0074  0.0012  0.3029  0.0483  0.0287  0.5784  0.0300 </r>
       </set>
       <set comment="band 3">
        <r>  0.0000  0.0010  0.0077  0.0139  0.3169  0.5714  0.0300  0.0413  0.0287 </r>
       </set>
       <set comment="band 4">
        <r>  0.0023  0.0233  0.0233  0.0233  0.3096  0.3096  0.0000  0.3096  0.0000 </r>
       </set>
       <set comment="band 5">
        <r>  0.0000  0.0002  0.0001  0.0000  0.0282  0.0045  0.4061  0.0538  0.4248 </r>
       </set>
       <set comment="band 6">
        <r>  0.0000  0.0000  0.0001  0.0002  0.0295  0.0531  0.4248  0.0038  0.4061 </r>
       </set>
       <set comment="band 7">
        <r> 43.8801  0.0001  0.0001  0.0001  0.0000  0.0000  0.0000  0.0000  0.0000 </r>
       </set>
       <set comment="band 8">
        <r>  0.0000  0.0000  0.0000  0.0000  0.0000  0.0000  0.0000  0.0000  0.0000 </r>
       </set>
       <set comment="band 9">
        <r>  0.0000  0.0593  0.0311  0.0050  0.0295  0.0047  0.0973  0.0563  0.1017 </r>
       </set>
      </set>
      <set comment="kpoint 2">
       <set comment="band 1">
        <r>  0.4789  0.0591  0.0591  0.0416  0.0048  0.2342  0.0150  0.0048  0.0450 </r>
       </set>
       <set comment="band 2">
        <r>  0.0000  0.0178  0.0178  0.0000  0.4817  0.0000  0.0181  0.4817  0.0060 </r>
       </set>
       <set comment="band 3">
        <r>  0.0464  0.1233  0.1233  0.0105  0.0902  0.3121  0.0374  0.0902  0.1123 </r>
       </set>
       <set comment="band 4">
        <r>  0.0063  0.0028  0.0028  0.0015  0.0233  0.2164  0.1717  0.0233  0.5150 </r>
       </set>
       <set comment="band 5">
        <r>  0.0000  0.0007  0.0007  0.0000  0.0195  0.0000  0.6809  0.0195  0.2270 </r>
       </set>
       <set comment="band 6">
        <r>  0.0019  0.0551  0.0551  0.0607  0.3404  0.1099  0.0002  0.3404  0.0005 </r>
       </set>
       <set comment="band 7">
        <r>  2.7158  0.1196  0.1196  0.0126  0.0066  0.2025  0.0112  0.0066  0.0336 </r>
       </set>
       <set comment="band 8">
        <r>  0.0000  0.1076  0.1076  0.0000  0.0294  0.0000  0.0649  0.0294  0.0216 </r>
       </set>
       <set comment="band 9">
        <r> 41.6659  0.0118  0.0118  0.0007  0.0006  0.0225  0.0015  0.0006  0.0045 </r>
       </set>
      </set>
      <set comment="kpoint 3">
       <set comment="band 1">
        <r>  0.2537  0.0000  0.0000  0.0488  0.0000  0.4810  0.0483  0.0000  0.1449 </r>
       </set>
       <set comment="band 2">
        <r>  0.0000  0.0207  0.0207  0.0000  0.4963  0.0000  0.0000  0.4963  0.0000 </r>
       </set>
       <set comment="band 3">
        <r>  0.0000  0.3565  0.3565  0.0000  0.0969  0.0000  0.0000  0.0969  0.0000 </r>
       </set>
       <set comment="band 4">
        <r>  0.0659  0.0000  0.0000  0.0003  0.0000  0.1824  0.1841  0.0000  0.5523 </r>
       </set>
       <set comment="band 5">
        <r>  0.0000  0.0000  0.0000  0.0000  0.0000  0.0000  0.7386  0.0000  0.2462 </r>
       </set>
       <set comment="band 6">
        <r>  0.0000  0.0656  0.0656  0.0000  0.4130  0.0000  0.0000  0.4130  0.0000 </r>
       </set>
       <set comment="band 7">
        <r>  0.4940  0.0000  0.0000  0.0545  0.0000  0.3465  0.0018  0.0000  0.0053 </r>
       </set>
       <set comment="band 8">
        <r>  0.0000  0.1160  0.1160  0.0000  0.0331  0.0000  0.0000  0.0331  0.0000 </r>
       </set>
       <set comment="band 9">
        <r> 44.2011  0.0000  0.0000  0.0000  0.0000  0.0006  0.0000  0.0000  0.0001 </r>
       </set>
      </set>
      <set comment="kpoint 4">
       <set comment="band 1">
        <r>  0.8199  0.0000  0.0000  0.0462  0.0000  0.0000  0.0005  0.0000  0.0014 </r>
       </set>
       <set comment="band 2">
        <r>  0.0000  0.0074  0.0074  0.0000  0.5110  0.0000  0.0000  0.5105  0.0000 </r>
       </set>
       <set comment="band 3">
        <r>  0.0000  0.0074  0.0074  0.0000  0.5105  0.0000  0.0000  0.5110  0.0000 </r>
       </set>
       <set comment="band 4">
        <r>  0.0000  0.0000  0.0000  0.0000  0.0000  1.0396  0.0000  0.0000  0.0000 </r>
       </set>
       <set comment="band 5">
        <r>  0.0000  0.0000  0.0000  0.0000  0.0000  0.0000  0.6527  0.0000  0.2176 </r>
       </set>
       <set comment="band 6">
        <r>  0.0013  0.0000  0.0000  0.0016  0.0000  0.0000  0.2326  0.0000  0.6977 </r>
       </set>
       <set comment="band 7">
        <r> 43.9347  0.0000  0.0000  0.0000  0.0000  0.0000  0.0000  0.0000  0.0000 </r>
       </set>
       <set comment="band 8">
        <r>  0.0000  0.0000  0.0000  0.0000  0.0000  0.0000  0.1072  0.0000  0.0357 </r>
       </set>
       <set comment="band 9">
        <r>  0.0000  0.0000  0.0000  0.0000  0.0304  0.0000  0.0000  0.0073  0.0000 </r>
       </set>
      </set>
      <set comment="kpoint 5">
       <set comment="band 1">
        <r>  0.1854  0.0529  0.0042  0.0529  0.1074  0.2796  0.0329  0.2796  0.0000 </r>
       </set>
       <set comment="band 2">
        <r>  0.0000  0.1159  0.0000  0.1159  0.0000  0.2883  0.0000  0.2883  0.1591 </r>
       </set>
       <set comment="band 3">
        <r>  0.0462  0.0310  0.3015  0.0310  0.5310  0.0008  0.0208  0.0008  0.0000 </r>
       </set>
       <set comment="band 4">
        <r>  0.0000  0.0048  0.0000  0.0048  0.0000  0.1050  0.0000  0.1050  0.7470 </r>
       </set>
       <set comment="band 5">
        <r>  0.0278  0.0001  0.0029  0.0001  0.0131  0.0200  0.9029  0.0200  0.0000 </r>
       </set>
       <set comment="band 6">
        <r>  0.6009  0.0557  0.0331  0.0557  0.0003  0.0723  0.0030  0.0723  0.0000 </r>
       </set>
       <set comment="band 7">
        <r>  0.0040  0.0575  0.1547  0.0575  0.3642  0.1353  0.0272  0.1353  0.0000 </r>
       </set>
       <set comment="band 8">
        <r>  0.0000  0.1725  0.0000  0.1725  0.0000  0.1635  0.0000  0.1635  0.1354 </r>
       </set>
       <set comment="band 9">
        <r> 44.1333  0.0000  0.0001  0.0000  0.0000  0.0002  0.0000  0.0002  0.0000 </r>
       </set>
      </set>
      <set comment="kpoint 6">
       <set comment="band 1">
        <r>  0.6521  0.0241  0.0000  0.1370  0.0614  0.0000  0.0220  0.0000  0.0105 </r>
       </set>
       <set comment="band 2">
        <r>  0.0000  0.0000  0.0135  0.0000  0.0000  0.4017  0.0000  0.6097  0.0000 </r>
       </set>
       <set comment="band 3">
        <r>  0.0126  0.0711  0.0000  0.0415  0.5116  0.0000  0.2485  0.0000  0.0454 </r>
       </set>
       <set comment="band 4">
        <r>  0.0001  0.0122  0.0000  0.0121  0.3437  0.0000  0.4026  0.0000  0.1448 </r>
       </set>
       <set comment="band 5">
        <r>  0.0000  0.0000  0.0460  0.0000  0.0000  0.5929  0.0000  0.3446  0.0000 </r>
       </set>
       <set comment="band 6">
        <r>  0.0181  0.0001  0.0000  0.0047  0.0137  0.0000  0.2010  0.0000  0.7247 </r>
       </set>
       <set comment="band 7">
        <r> 43.3418  0.0001  0.0000  0.0019  0.0006  0.0000  0.0000  0.0000  0.0001 </r>
       </set>
       <set comment="band 8">
        <r>  0.6316  0.0013  0.0000  0.1862  0.0612  0.0000  0.0004  0.0000  0.0423 </r>
       </set>
       <set comment="band 9">
        <r>  0.1473  0.1212  0.0000  0.0289  0.0654  0.0000  0.2126  0.0000  0.0834 </r>
       </set>
      </set>
      <set comment="kpoint 7">
       <set comment="band 1">
        <r>  0.3179  0.0004  0.0000  0.0477  0.3776  0.0000  0.2173  0.0000  0.0022 </r>
       </set>
       <set comment="band 2">
        <r>  0.0000  0.0000  0.0125  0.0000  0.0000  0.4846  0.0000  0.5353  0.0000 </r>
       </set>
       <set comment="band 3">
        <r>  0.0482  0.2492  0.0000  0.2531  0.0341  0.0000  0.1123  0.0000  0.1876 </r>
       </set>
       <set comment="band 4">
        <r>  0.0338  0.0313  0.0000  0.0422  0.3053  0.0000  0.5298  0.0000  0.0001 </r>
       </set>
       <set comment="band 5">
        <r>  0.0406  0.0490  0.0000  0.0801  0.0107  0.0000  0.0318  0.0000  0.7705 </r>
       </set>
       <set comment="band 6">
        <r>  0.0000  0.0000  0.0381  0.0000  0.0000  0.5127  0.0000  0.4199  0.0000 </r>
       </set>
       <set comment="band 7">
        <r>  0.2398  0.0096  0.0000  0.0876  0.3631  0.0000  0.0031  0.0000  0.0028 </r>
       </set>
       <set comment="band 8">
        <r>  0.1787  0.2108  0.0000  0.0322  0.0448  0.0000  0.1047  0.0000  0.0289 </r>
       </set>
       <set comment="band 9">
        <r> 44.0795  0.0020  0.0000  0.0000  0.0032  0.0000  0.0014  0.0000  0.0003 </r>
       </set>
      </set>
      <set comment="kpoint 8">
       <set comment="band 1">
        <r>  0.3958  0.0114  0.0114  0.1718  0.1105  0.0105  0.0300  0.1105  0.0900 </r>
       </set>
       <set comment="band 2">
        <r>  0.0000  0.0532  0.0532  0.0000  0.1600  0.0000  0.3669  0.1600  0.1223 </r>
       </set>
       <set comment="band 3">
        <r>  0.0088  0.0243  0.0243  0.1218  0.1632  0.4475  0.0076  0.1632  0.0228 </r>
       </set>
       <set comment="band 4">
        <r>  0.0000  0.0234  0.0234  0.0000  0.2671  0.0000  0.2649  0.2671  0.0883 </r>
       </set>
       <set comment="band 5">
        <r>  0.0875  0.0019  0.0019  0.0041  0.0387  0.1650  0.1591  0.0387  0.4774 </r>
       </set>
       <set comment="band 6">
        <r>  0.0349  0.0451  0.0451  0.0817  0.1090  0.3581  0.0460  0.1090  0.1381 </r>
       </set>
       <set comment="band 7">
        <r>  0.1936  0.0269  0.0269  0.1540  0.1097  0.0000  0.0047  0.1097  0.0142 </r>
       </set>
       <set comment="band 8">
        <r> 44.0747  0.0000  0.0000  0.0007  0.0007  0.0000  0.0000  0.0007  0.0000 </r>
       </set>
       <set comment="band 9">
        <r>  0.0000  0.1891  0.1888  0.0000  0.0934  0.0000  0.2412  0.0934  0.0804 </r>
       </set>
      </set>
      <set comment="kpoint 9">
       <set comment="band 1">
        <r>  0.1792  0.0235  0.0307  0.0235  0.3658  0.0282  0.2799  0.0282  0.0000 </r>
       </set>
       <set comment="band 2">
        <r>  0.0224  0.0139  0.0564  0.0139  0.0082  0.3555  0.1534  0.3555  0.0000 </r>
       </set>
       <set comment="band 3">
        <r>  0.0000  0.1844  0.0000  0.1844  0.0000  0.0405  0.0000  0.0405  0.4478 </r>
       </set>
       <set comment="band 4">
        <r>  0.0675  0.0076  0.0173  0.0076  0.2647  0.0758  0.4160  0.0758  0.0000 </r>
       </set>
       <set comment="band 5">
        <r>  0.0000  0.0859  0.0000  0.0859  0.0000  0.2069  0.0000  0.2069  0.3910 </r>
       </set>
       <set comment="band 6">
        <r>  0.0000  0.1676  0.0000  0.1676  0.0000  0.2581  0.0000  0.2581  0.1474 </r>
       </set>
       <set comment="band 7">
        <r>  0.4752  0.0056  0.0518  0.0056  0.3072  0.0150  0.0006  0.0150  0.0000 </r>
       </set>
       <set comment="band 8">
        <r>  0.0233  0.0760  0.3454  0.0760  0.1221  0.0512  0.1932  0.0512  0.0000 </r>
       </set>
       <set comment="band 9">
        <r> 44.1196  0.0002  0.0001  0.0002  0.0008  0.0000  0.0003  0.0000  0.0000 </r>
       </set>
      </set>
      <set comment="kpoint 10">
       <set comment="band 1">
        <r>  0.0000  0.0983  0.0983  0.0983  0.2298  0.2298  0.0000  0.2298  0.0000 </r>
       </set>
       <set comment="band 2">
        <r>  0.0000  0.1757  0.0635  0.0557  0.1485  0.1302  0.0000  0.4108  0.0000 </r>
       </set>
       <set comment="band 3">
        <r>  0.0000  0.0209  0.1331  0.1409  0.3112  0.3295  0.0000  0.0488  0.0000 </r>
       </set>
       <set comment="band 4">
        <r>  0.0000  0.0000  0.0000  0.0000  0.0000  0.0000  0.0001  0.0000  0.9928 </r>
       </set>
       <set comment="band 5">
        <r>  0.0000  0.0000  0.0000  0.0000  0.0000  0.0000  0.9928  0.0000  0.0001 </r>
       </set>
       <set comment="band 6">
        <r>  0.9491  0.0000  0.0000  0.0000  0.0000  0.0000  0.0000  0.0000  0.0000 </r>
       </set>
       <set comment="band 7">
        <r>  0.0000  0.0227  0.1448  0.1533  0.2175  0.2304  0.0000  0.0342  0.0000 </r>
       </set>
       <set comment="band 8">
        <r>  0.0000  0.1901  0.0695  0.0611  0.1045  0.0919  0.0000  0.2857  0.0000 </r>
       </set>
       <set comment="band 9">
        <r>  0.0000  0.1079  0.1065  0.1063  0.1600  0.1598  0.0000  0.1622  0.0000 </r>
       </set>
      </set>
      <set comment="kpoint 11">
       <set comment="band 1">
        <r>  0.4477  0.0000  0.0000  0.2902  0.0000  0.0000  0.0440  0.0000  0.1320 </r>
       </set>
       <set comment="band 2">
        <r>  0.0000  0.0000  0.0000  0.0000  0.0000  0.0000  0.6345  0.0000  0.2115 </r>
       </set>
       <set comment="band 3">
        <r>  0.0000  0.0587  0.0579  0.0000  0.4314  0.0000  0.0000  0.4256  0.0000 </r>
       </set>
       <set comment="band 4">
        <r>  0.0000  0.0579  0.0587  0.0000  0.4256  0.0000  0.0000  0.4314  0.0000 </r>
       </set>
       <set comment="band 5">
        <r>  0.0000  0.0000  0.0000  0.0000  0.0000  0.9639  0.0000  0.0000  0.0000 </r>
       </set>
       <set comment="band 6">
        <r>  0.1761  0.0000  0.0000  0.0287  0.0000  0.0000  0.1944  0.0000  0.5832 </r>
       </set>
       <set comment="band 7">
        <r> 40.8609  0.0000  0.0000  0.0135  0.0000  0.0000  0.0012  0.0000  0.0035 </r>
       </set>
       <set comment="band 8">
        <r>  3.2662  0.0000  0.0000  0.2163  0.0000  0.0000  0.0186  0.0000  0.0557 </r>
       </set>
       <set comment="band 9">
        <r>  0.0000  0.4155  0.0661  0.0000  0.4270  0.0000  0.0000  0.0679  0.0000 </r>
       </set>
      </set>
      <set comment="kpoint 12">
       <set comment="band 1">
        <r>  0.1066  0.0055  0.0000  0.1220  0.1021  0.0000  0.5454  0.0000  0.0349 </r>
       </set>
       <set comment="band 2">
        <r>  0.0214  0.0569  0.0000  0.1005  0.0019  0.0000  0.1251  0.0000  0.5837 </r>
       </set>
       <set comment="band 3">
        <r>  0.0000  0.0000  0.1045  0.0000  0.0000  0.3319  0.0000  0.5332  0.0000 </r>
       </set>
       <set comment="band 4">
        <r>  0.1197  0.0845  0.0000  0.0015  0.5153  0.0000  0.1763  0.0000  0.0246 </r>
       </set>
       <set comment="band 5">
        <r>  0.0000  0.0000  0.0337  0.0000  0.0000  0.6291  0.0000  0.2921  0.0000 </r>
       </set>
       <set comment="band 6">
        <r>  0.1933  0.1222  0.0000  0.2636  0.1000  0.0000  0.0274  0.0000  0.2588 </r>
       </set>
       <set comment="band 7">
        <r>  0.1686  0.2509  0.0000  0.0660  0.3432  0.0000  0.0004  0.0000  0.0616 </r>
       </set>
       <set comment="band 8">
        <r> 44.0762  0.0015  0.0000  0.0000  0.0020  0.0000  0.0001  0.0000  0.0001 </r>
       </set>
       <set comment="band 9">
        <r>  0.0000  0.0000  0.6759  0.0000  0.0000  0.0029  0.0000  0.2708  0.0000 </r>
       </set>
      </set>
      <set comment="kpoint 13">
       <set comment="band 1">
        <r>  0.0000  0.0460  0.0000  0.0460  0.0000  0.0086  0.0000  0.0086  0.7943 </r>
       </set>
       <set comment="band 2">
        <r>  0.0000  0.0153  0.0613  0.0153  0.0114  0.0029  0.7943  0.0029  0.0000 </r>
       </set>
       <set comment="band 3">
        <r>  0.1409  0.0342  0.0342  0.0342  0.2354  0.2354  0.0000  0.2354  0.0000 </r>
       </set>
       <set comment="band 4">
        <r>  0.0000  0.1059  0.0000  0.1059  0.0000  0.3333  0.0000  0.3333  0.0644 </r>
       </set>
       <set comment="band 5">
        <r>  0.0000  0.0353  0.1412  0.0353  0.4444  0.1111  0.0644  0.1111  0.0000 </r>
       </set>
       <set comment="band 6">
        <r>  0.3990  0.0521  0.0521  0.0521  0.1011  0.1011  0.0000  0.1011  0.0000 </r>
       </set>
       <set comment="band 7">
        <r>  0.0000  0.2962  0.0000  0.2962  0.0000  0.1649  0.0000  0.1649  0.0736 </r>
       </set>
       <set comment="band 8">
        <r>  0.0000  0.0987  0.3950  0.0987  0.2198  0.0550  0.0736  0.0550  0.0000 </r>
       </set>
       <set comment="band 9">
        <r> 43.9831  0.0002  0.0002  0.0002  0.0001  0.0001  0.0000  0.0001  0.0000 </r>
       </set>
      </set>
      <set comment="kpoint 14">
       <set comment="band 1">
        <r>  0.0000  0.0000  0.0000  0.0000  0.0000  0.0000  0.6830  0.0000  0.2277 </r>
       </set>
       <set comment="band 2">
        <r>  0.0056  0.0000  0.0000  0.0603  0.0000  0.0000  0.2126  0.0000  0.6379 </r>
       </set>
       <set comment="band 3">
        <r>  0.0000  0.1146  0.1146  0.0000  0.3520  0.0000  0.0000  0.3520  0.0000 </r>
       </set>
       <set comment="band 4">
        <r>  0.0000  0.1146  0.1146  0.0000  0.3520  0.0000  0.0000  0.3520  0.0000 </r>
       </set>
       <set comment="band 5">
        <r>  0.0000  0.0000  0.0000  0.0000  0.0000  0.9530  0.0000  0.0000  0.0000 </r>
       </set>
       <set comment="band 6">
        <r>  0.2514  0.0000  0.0000  0.5791  0.0000  0.0000  0.0156  0.0000  0.0467 </r>
       </set>
       <set comment="band 7">
        <r>  0.0000  0.3158  0.3158  0.0000  0.1567  0.0000  0.0000  0.1567  0.0000 </r>
       </set>
       <set comment="band 8">
        <r>  0.0000  0.3158  0.3158  0.0000  0.1567  0.0000  0.0000  0.1567  0.0000 </r>
       </set>
       <set comment="band 9">
        <r> 43.3135  0.0000  0.0000  0.0016  0.0000  0.0000  0.0000  0.0000  0.0001 </r>
       </set>
      </set>
     </set>
    </set>
   </array>
  </projected>
 </calculation>
 <structure name="finalpos" >
  <crystal>
   <varray name="basis" >
    <v>      -1.65250000       1.65250000       1.65250000 </v>
    <v>       1.65250000      -1.65250000       1.65250000 </v>
    <v>       1.65250000       1.65250000      -1.65250000 </v>
   </varray>
   <i name="volume">     18.05029881 </i>
   <varray name="rec_basis" >
    <v>       0.00000000       0.30257186       0.30257186 </v>
    <v>       0.30257186       0.00000000       0.30257186 </v>
    <v>       0.30257186       0.30257186       0.00000000 </v>
   </varray>
  </crystal>
  <varray name="positions" >
   <v>       0.00000000       0.00000000       0.00000000 </v>
  </varray>
 </structure>
</modeling>
