unknown system                          
           1
    -1.652500    1.652500    1.652500
     1.652500   -1.652500    1.652500
     1.652500    1.652500   -1.652500
   Ta
   1
Direct configuration=     1
   0.00000000  0.00000000  0.00000000
