   4   4   1   0
  0.8797333E+01  0.2461200E-09  0.2461200E-09  0.6707900E-09  0.5000000E-15
  1.000000000000000E-004
  CAR 
 unknown system                          
     20.40583519    -16.66980731  301      4.53836469      1.00000000
    -16.670  0.0000E+00  0.0000E+00  0.0000E+00  0.0000E+00
    -16.546  0.0000E+00  0.0000E+00  0.0000E+00  0.0000E+00
    -16.423  0.0000E+00  0.0000E+00  0.0000E+00  0.0000E+00
    -16.299  0.0000E+00  0.0000E+00  0.0000E+00  0.0000E+00
    -16.175  0.0000E+00  0.0000E+00  0.0000E+00  0.0000E+00
    -16.052  0.0000E+00  0.0000E+00  0.0000E+00  0.0000E+00
    -15.928  0.0000E+00  0.0000E+00  0.0000E+00  0.0000E+00
    -15.805  0.0000E+00  0.0000E+00  0.0000E+00  0.0000E+00
    -15.681  0.0000E+00  0.0000E+00  0.0000E+00  0.0000E+00
    -15.558  0.0000E+00  0.0000E+00  0.0000E+00  0.0000E+00
    -15.434 -0.7662E-37 -0.6726E-37 -0.9469E-38 -0.8313E-38
    -15.310 -0.2860E-20 -0.2603E-20 -0.3535E-21 -0.3217E-21
    -15.187 -0.4597E-09 -0.4339E-09 -0.5681E-10 -0.5362E-10
    -15.063 -0.2303E-03 -0.2262E-03 -0.2846E-04 -0.2796E-04
    -14.940  0.1325E-01  0.1314E-01  0.1608E-02  0.1596E-02
    -14.816  0.1526E+00  0.1523E+00  0.2047E-01  0.2042E-01
    -14.692  0.1695E+00  0.1689E+00  0.4141E-01  0.4130E-01
    -14.569  0.3814E+00  0.3813E+00  0.8854E-01  0.8842E-01
    -14.445  0.2379E+00  0.2381E+00  0.1179E+00  0.1178E+00
    -14.322  0.3026E+00  0.3019E+00  0.1554E+00  0.1552E+00
    -14.198  0.3116E+00  0.3126E+00  0.1939E+00  0.1938E+00
    -14.075  0.3811E+00  0.3802E+00  0.2410E+00  0.2408E+00
    -13.951  0.2488E+00  0.2500E+00  0.2717E+00  0.2717E+00
    -13.827  0.2286E+00  0.2283E+00  0.3000E+00  0.2999E+00
    -13.704  0.3928E+00  0.3924E+00  0.3485E+00  0.3484E+00
    -13.580  0.3693E+00  0.3693E+00  0.3942E+00  0.3940E+00
    -13.457  0.3894E+00  0.3898E+00  0.4423E+00  0.4422E+00
    -13.333  0.1176E+00  0.1179E+00  0.4568E+00  0.4568E+00
    -13.209  0.2564E+00  0.2553E+00  0.4885E+00  0.4883E+00
    -13.086  0.2937E+00  0.2944E+00  0.5248E+00  0.5247E+00
    -12.962  0.5898E+00  0.5888E+00  0.5977E+00  0.5975E+00
    -12.839  0.3020E+00  0.3029E+00  0.6350E+00  0.6349E+00
    -12.715  0.2384E+00  0.2391E+00  0.6645E+00  0.6645E+00
    -12.591  0.1487E+00  0.1485E+00  0.6828E+00  0.6828E+00
    -12.468  0.1970E+00  0.1964E+00  0.7072E+00  0.7071E+00
    -12.344  0.5040E+00  0.5039E+00  0.7695E+00  0.7693E+00
    -12.221  0.4018E+00  0.4019E+00  0.8191E+00  0.8190E+00
    -12.097  0.4577E+00  0.4577E+00  0.8757E+00  0.8756E+00
    -11.974  0.2649E+00  0.2652E+00  0.9084E+00  0.9084E+00
    -11.850  0.3020E+00  0.3025E+00  0.9458E+00  0.9457E+00
    -11.726 -0.5436E-02 -0.5367E-02  0.9451E+00  0.9451E+00
    -11.603  0.2170E+00  0.2160E+00  0.9719E+00  0.9718E+00
    -11.479  0.4719E+00  0.4720E+00  0.1030E+01  0.1030E+01
    -11.356  0.6985E+00  0.6982E+00  0.1117E+01  0.1116E+01
    -11.232  0.3140E+00  0.3144E+00  0.1155E+01  0.1155E+01
    -11.108  0.1979E+00  0.1986E+00  0.1180E+01  0.1180E+01
    -10.985  0.3329E+00  0.3325E+00  0.1221E+01  0.1221E+01
    -10.861  0.3198E+00  0.3195E+00  0.1260E+01  0.1260E+01
    -10.738  0.1047E+00  0.1056E+00  0.1273E+01  0.1273E+01
    -10.614  0.7060E-01  0.7018E-01  0.1282E+01  0.1282E+01
    -10.491  0.6093E+00  0.6086E+00  0.1357E+01  0.1357E+01
    -10.367  0.6209E+00  0.6208E+00  0.1434E+01  0.1434E+01
    -10.243  0.5082E+00  0.5088E+00  0.1497E+01  0.1497E+01
    -10.120  0.3357E+00  0.3354E+00  0.1538E+01  0.1538E+01
     -9.996  0.1267E+00  0.1274E+00  0.1554E+01  0.1554E+01
     -9.873  0.2819E+00  0.2815E+00  0.1589E+01  0.1589E+01
     -9.749  0.3985E+00  0.3985E+00  0.1638E+01  0.1638E+01
     -9.625  0.9989E-01  0.1004E+00  0.1651E+01  0.1651E+01
     -9.502  0.4405E+00  0.4400E+00  0.1705E+01  0.1705E+01
     -9.378  0.7503E+00  0.7498E+00  0.1798E+01  0.1798E+01
     -9.255  0.8297E+00  0.8304E+00  0.1900E+01  0.1900E+01
     -9.131  0.4860E-01  0.4895E-01  0.1906E+01  0.1906E+01
     -9.008 -0.7686E-04 -0.7768E-04  0.1906E+01  0.1906E+01
     -8.884 -0.8882E-09 -0.8867E-09  0.1906E+01  0.1906E+01
     -8.760 -0.1291E-02 -0.1290E-02  0.1906E+01  0.1906E+01
     -8.637  0.1303E+00  0.1303E+00  0.1922E+01  0.1922E+01
     -8.513  0.4174E+00  0.4165E+00  0.1974E+01  0.1974E+01
     -8.390  0.2889E+00  0.2898E+00  0.2009E+01  0.2009E+01
     -8.266  0.4188E+00  0.4177E+00  0.2061E+01  0.2061E+01
     -8.142  0.3452E+00  0.3449E+00  0.2104E+01  0.2104E+01
     -8.019  0.4601E+00  0.4608E+00  0.2161E+01  0.2161E+01
     -7.895  0.2653E-01  0.2740E-01  0.2164E+01  0.2164E+01
     -7.772  0.6507E-01  0.6351E-01  0.2172E+01  0.2172E+01
     -7.648  0.8662E+00  0.8665E+00  0.2279E+01  0.2279E+01
     -7.524  0.3650E+00  0.3658E+00  0.2324E+01  0.2324E+01
     -7.401  0.5254E+00  0.5251E+00  0.2389E+01  0.2389E+01
     -7.277  0.5280E+00  0.5279E+00  0.2454E+01  0.2454E+01
     -7.154  0.3116E+00  0.3126E+00  0.2493E+01  0.2493E+01
     -7.030 -0.6735E-02 -0.6782E-02  0.2492E+01  0.2492E+01
     -6.907  0.1349E+00  0.1344E+00  0.2509E+01  0.2509E+01
     -6.783  0.7241E+00  0.7232E+00  0.2598E+01  0.2598E+01
     -6.659  0.5014E+00  0.5017E+00  0.2660E+01  0.2660E+01
     -6.536  0.1548E+00  0.1559E+00  0.2679E+01  0.2679E+01
     -6.412  0.2685E+00  0.2677E+00  0.2713E+01  0.2712E+01
     -6.289  0.4875E+00  0.4880E+00  0.2773E+01  0.2773E+01
     -6.165  0.4654E-02  0.4880E-02  0.2773E+01  0.2773E+01
     -6.041  0.7811E-01  0.7760E-01  0.2783E+01  0.2783E+01
     -5.918  0.2609E+00  0.2606E+00  0.2815E+01  0.2815E+01
     -5.794  0.7830E+00  0.7830E+00  0.2912E+01  0.2912E+01
     -5.671  0.6223E+00  0.6194E+00  0.2989E+01  0.2989E+01
     -5.547  0.1531E+00  0.1568E+00  0.3008E+01  0.3008E+01
     -5.424 -0.6241E-03 -0.6585E-03  0.3008E+01  0.3008E+01
     -5.300 -0.2593E-02 -0.2565E-02  0.3007E+01  0.3007E+01
     -5.176  0.2490E+00  0.2481E+00  0.3038E+01  0.3038E+01
     -5.053  0.6926E+00  0.6913E+00  0.3124E+01  0.3124E+01
     -4.929  0.9464E+00  0.9480E+00  0.3241E+01  0.3241E+01
     -4.806  0.6573E+00  0.6552E+00  0.3322E+01  0.3322E+01
     -4.682  0.1126E+00  0.1153E+00  0.3336E+01  0.3336E+01
     -4.558 -0.3083E-03 -0.3214E-03  0.3336E+01  0.3336E+01
     -4.435  0.1149E-01  0.1130E-01  0.3337E+01  0.3337E+01
     -4.311  0.5011E+00  0.5002E+00  0.3399E+01  0.3399E+01
     -4.188  0.9966E+00  0.9966E+00  0.3522E+01  0.3522E+01
     -4.064  0.8066E-02  0.9022E-02  0.3523E+01  0.3523E+01
     -3.941 -0.2082E-02 -0.2466E-02  0.3523E+01  0.3523E+01
     -3.817  0.6697E+00  0.6683E+00  0.3606E+01  0.3606E+01
     -3.693  0.5456E+00  0.5461E+00  0.3673E+01  0.3673E+01
     -3.570  0.8189E+00  0.8187E+00  0.3775E+01  0.3774E+01
     -3.446  0.7341E+00  0.7351E+00  0.3865E+01  0.3865E+01
     -3.323  0.1510E+00  0.1513E+00  0.3884E+01  0.3884E+01
     -3.199  0.1404E+00  0.1390E+00  0.3901E+01  0.3901E+01
     -3.075  0.7847E+00  0.7861E+00  0.3998E+01  0.3998E+01
     -2.952  0.1649E+00  0.1650E+00  0.4019E+01  0.4019E+01
     -2.828  0.2521E+00  0.2512E+00  0.4050E+01  0.4050E+01
     -2.705  0.1635E+01  0.1634E+01  0.4252E+01  0.4252E+01
     -2.581  0.7973E+00  0.7996E+00  0.4350E+01  0.4350E+01
     -2.457  0.1610E+00  0.1600E+00  0.4370E+01  0.4370E+01
     -2.334  0.1154E+01  0.1153E+01  0.4513E+01  0.4513E+01
     -2.210  0.3827E+00  0.3848E+00  0.4560E+01  0.4560E+01
     -2.087  0.1934E+00  0.1934E+00  0.4584E+01  0.4584E+01
     -1.963  0.6877E+00  0.6846E+00  0.4669E+01  0.4669E+01
     -1.840  0.1990E+01  0.1992E+01  0.4915E+01  0.4915E+01
     -1.716  0.1014E+01  0.1014E+01  0.5040E+01  0.5040E+01
     -1.592  0.6373E+00  0.6370E+00  0.5119E+01  0.5119E+01
     -1.469  0.7808E+00  0.7810E+00  0.5216E+01  0.5216E+01
     -1.345  0.1227E+01  0.1227E+01  0.5367E+01  0.5367E+01
     -1.222  0.1225E+01  0.1224E+01  0.5519E+01  0.5519E+01
     -1.098  0.4886E+00  0.4899E+00  0.5579E+01  0.5579E+01
     -0.974  0.4872E+00  0.4873E+00  0.5639E+01  0.5639E+01
     -0.851  0.1241E+01  0.1240E+01  0.5793E+01  0.5793E+01
     -0.727  0.3648E+00  0.3658E+00  0.5838E+01  0.5838E+01
     -0.604  0.3820E+00  0.3820E+00  0.5885E+01  0.5885E+01
     -0.480  0.4041E+00  0.4042E+00  0.5935E+01  0.5935E+01
     -0.357  0.1333E+01  0.1332E+01  0.6100E+01  0.6100E+01
     -0.233  0.1139E+01  0.1139E+01  0.6240E+01  0.6240E+01
     -0.109  0.4840E+00  0.4851E+00  0.6300E+01  0.6300E+01
      0.014  0.2020E+00  0.2019E+00  0.6325E+01  0.6325E+01
      0.138  0.3188E+00  0.3189E+00  0.6365E+01  0.6365E+01
      0.261  0.3277E+00  0.3276E+00  0.6405E+01  0.6405E+01
      0.385  0.1004E+01  0.1004E+01  0.6529E+01  0.6529E+01
      0.509  0.1110E+01  0.1110E+01  0.6666E+01  0.6666E+01
      0.632  0.2553E+00  0.2556E+00  0.6698E+01  0.6698E+01
      0.756  0.6950E+00  0.6951E+00  0.6784E+01  0.6784E+01
      0.879  0.3682E+00  0.3680E+00  0.6829E+01  0.6829E+01
      1.003  0.4721E+00  0.4721E+00  0.6888E+01  0.6888E+01
      1.127  0.6474E+00  0.6473E+00  0.6968E+01  0.6968E+01
      1.250  0.4391E+00  0.4393E+00  0.7022E+01  0.7022E+01
      1.374  0.6322E+00  0.6325E+00  0.7100E+01  0.7100E+01
      1.497  0.4368E+00  0.4367E+00  0.7154E+01  0.7154E+01
      1.621  0.7632E+00  0.7631E+00  0.7248E+01  0.7248E+01
      1.744  0.4881E+00  0.4881E+00  0.7309E+01  0.7309E+01
      1.868  0.4967E+00  0.4968E+00  0.7370E+01  0.7370E+01
      1.992  0.3908E+00  0.3908E+00  0.7418E+01  0.7418E+01
      2.115  0.3249E+00  0.3248E+00  0.7459E+01  0.7459E+01
      2.239  0.2970E+00  0.2969E+00  0.7495E+01  0.7495E+01
      2.362  0.3110E+00  0.3111E+00  0.7534E+01  0.7534E+01
      2.486  0.4595E+00  0.4599E+00  0.7590E+01  0.7591E+01
      2.610  0.5782E+00  0.5779E+00  0.7662E+01  0.7662E+01
      2.733  0.6822E+00  0.6821E+00  0.7746E+01  0.7746E+01
      2.857  0.2873E+00  0.2871E+00  0.7782E+01  0.7782E+01
      2.980  0.2291E+00  0.2291E+00  0.7810E+01  0.7810E+01
      3.104  0.1249E+00  0.1249E+00  0.7825E+01  0.7825E+01
      3.227  0.1307E+00  0.1307E+00  0.7842E+01  0.7842E+01
      3.351  0.2834E+00  0.2836E+00  0.7877E+01  0.7877E+01
      3.475  0.1628E+00  0.1626E+00  0.7897E+01  0.7897E+01
      3.598  0.1372E+00  0.1373E+00  0.7914E+01  0.7914E+01
      3.722  0.2174E+00  0.2174E+00  0.7941E+01  0.7941E+01
      3.845  0.9042E-01  0.9041E-01  0.7952E+01  0.7952E+01
      3.969  0.1624E+00  0.1623E+00  0.7972E+01  0.7972E+01
      4.093  0.3305E-01  0.3305E-01  0.7976E+01  0.7976E+01
      4.216  0.3462E-01  0.3461E-01  0.7980E+01  0.7980E+01
      4.340  0.3798E-01  0.3797E-01  0.7985E+01  0.7985E+01
      4.463  0.6203E-01  0.6203E-01  0.7993E+01  0.7993E+01
      4.587  0.6108E-01  0.6105E-01  0.8000E+01  0.8000E+01
      4.710 -0.8202E-03 -0.8192E-03  0.8000E+01  0.8000E+01
      4.834 -0.1370E-08 -0.1366E-08  0.8000E+01  0.8000E+01
      4.958 -0.1465E-03 -0.1475E-03  0.8000E+01  0.8000E+01
      5.081  0.3540E-01  0.3550E-01  0.8004E+01  0.8004E+01
      5.205  0.9319E-01  0.9314E-01  0.8016E+01  0.8016E+01
      5.328  0.5361E-01  0.5361E-01  0.8022E+01  0.8023E+01
      5.452  0.4411E-01  0.4410E-01  0.8028E+01  0.8028E+01
      5.576  0.4131E-01  0.4132E-01  0.8033E+01  0.8033E+01
      5.699  0.1786E+00  0.1790E+00  0.8055E+01  0.8055E+01
      5.823  0.2326E+00  0.2323E+00  0.8084E+01  0.8084E+01
      5.946  0.8180E-01  0.8170E-01  0.8094E+01  0.8094E+01
      6.070  0.1278E-02  0.1391E-02  0.8094E+01  0.8094E+01
      6.194  0.4937E+00  0.4938E+00  0.8155E+01  0.8155E+01
      6.317  0.5400E+00  0.5397E+00  0.8222E+01  0.8222E+01
      6.441  0.5501E+00  0.5501E+00  0.8290E+01  0.8290E+01
      6.564  0.3507E+00  0.3508E+00  0.8333E+01  0.8333E+01
      6.688  0.5622E+00  0.5623E+00  0.8403E+01  0.8403E+01
      6.811  0.4512E+00  0.4509E+00  0.8458E+01  0.8458E+01
      6.935  0.2331E+00  0.2331E+00  0.8487E+01  0.8487E+01
      7.059  0.2328E+00  0.2329E+00  0.8516E+01  0.8516E+01
      7.182  0.3690E+00  0.3691E+00  0.8562E+01  0.8562E+01
      7.306  0.2693E+00  0.2695E+00  0.8595E+01  0.8595E+01
      7.429  0.4944E+00  0.4943E+00  0.8656E+01  0.8656E+01
      7.553  0.3246E+00  0.3245E+00  0.8696E+01  0.8696E+01
      7.677  0.2787E+00  0.2787E+00  0.8731E+01  0.8731E+01
      7.800  0.2897E+00  0.2897E+00  0.8766E+01  0.8766E+01
      7.924  0.1503E+00  0.1502E+00  0.8785E+01  0.8785E+01
      8.047  0.1980E+00  0.1981E+00  0.8809E+01  0.8809E+01
      8.171  0.2663E+00  0.2662E+00  0.8842E+01  0.8842E+01
      8.294  0.2589E+00  0.2589E+00  0.8874E+01  0.8874E+01
      8.418  0.1257E+00  0.1257E+00  0.8890E+01  0.8890E+01
      8.542  0.2341E+00  0.2345E+00  0.8919E+01  0.8919E+01
      8.665  0.2471E+00  0.2469E+00  0.8949E+01  0.8949E+01
      8.789  0.2423E+00  0.2423E+00  0.8979E+01  0.8979E+01
      8.912  0.2288E+00  0.2287E+00  0.9008E+01  0.9008E+01
      9.036  0.3421E+00  0.3422E+00  0.9050E+01  0.9050E+01
      9.160  0.3589E+00  0.3588E+00  0.9094E+01  0.9094E+01
      9.283  0.8695E-01  0.8691E-01  0.9105E+01  0.9105E+01
      9.407  0.1121E+00  0.1120E+00  0.9119E+01  0.9119E+01
      9.530  0.1410E+00  0.1412E+00  0.9136E+01  0.9136E+01
      9.654  0.1425E+00  0.1425E+00  0.9154E+01  0.9154E+01
      9.777  0.3219E+00  0.3220E+00  0.9194E+01  0.9194E+01
      9.901  0.3612E+00  0.3608E+00  0.9238E+01  0.9238E+01
     10.025  0.3077E+00  0.3080E+00  0.9276E+01  0.9276E+01
     10.148  0.2572E+00  0.2571E+00  0.9308E+01  0.9308E+01
     10.272  0.3230E+00  0.3228E+00  0.9348E+01  0.9348E+01
     10.395  0.2614E+00  0.2615E+00  0.9380E+01  0.9380E+01
     10.519  0.2959E+00  0.2964E+00  0.9417E+01  0.9417E+01
     10.643  0.1381E+00  0.1376E+00  0.9434E+01  0.9434E+01
     10.766  0.2532E+00  0.2535E+00  0.9465E+01  0.9465E+01
     10.890  0.3002E+00  0.3003E+00  0.9502E+01  0.9502E+01
     11.013  0.1650E+00  0.1644E+00  0.9523E+01  0.9523E+01
     11.137  0.1598E+00  0.1602E+00  0.9542E+01  0.9543E+01
     11.261  0.2271E+00  0.2266E+00  0.9570E+01  0.9571E+01
     11.384  0.4119E+00  0.4131E+00  0.9621E+01  0.9622E+01
     11.508  0.4411E+00  0.4408E+00  0.9676E+01  0.9676E+01
     11.631  0.2752E+00  0.2745E+00  0.9710E+01  0.9710E+01
     11.755  0.1992E+00  0.1998E+00  0.9735E+01  0.9735E+01
     11.878  0.4678E+00  0.4675E+00  0.9792E+01  0.9792E+01
     12.002  0.2095E+00  0.2080E+00  0.9818E+01  0.9818E+01
     12.126  0.3569E+00  0.3570E+00  0.9862E+01  0.9862E+01
     12.249  0.4305E+00  0.4296E+00  0.9916E+01  0.9915E+01
     12.373  0.5780E+00  0.5769E+00  0.9987E+01  0.9987E+01
     12.496  0.8236E+00  0.8209E+00  0.1009E+02  0.1009E+02
     12.620  0.1046E+01  0.1049E+01  0.1022E+02  0.1022E+02
     12.744  0.6895E+00  0.6850E+00  0.1030E+02  0.1030E+02
     12.867  0.1372E+01  0.1375E+01  0.1047E+02  0.1047E+02
     12.991  0.7285E+00  0.7275E+00  0.1056E+02  0.1056E+02
     13.114  0.9693E+00  0.9730E+00  0.1068E+02  0.1068E+02
     13.238  0.1245E+01  0.1239E+01  0.1084E+02  0.1084E+02
     13.361  0.1333E+01  0.1335E+01  0.1100E+02  0.1100E+02
     13.485  0.8598E+00  0.8577E+00  0.1111E+02  0.1111E+02
     13.609  0.1779E+01  0.1783E+01  0.1133E+02  0.1133E+02
     13.732  0.4863E+00  0.4862E+00  0.1139E+02  0.1139E+02
     13.856  0.8300E+00  0.8307E+00  0.1149E+02  0.1149E+02
     13.979  0.1192E+01  0.1187E+01  0.1164E+02  0.1164E+02
     14.103  0.6433E+00  0.6493E+00  0.1172E+02  0.1172E+02
     14.227  0.1317E+01  0.1317E+01  0.1188E+02  0.1188E+02
     14.350  0.7233E+00  0.7215E+00  0.1197E+02  0.1197E+02
     14.474  0.1065E+01  0.1069E+01  0.1210E+02  0.1210E+02
     14.597  0.2738E+00  0.2737E+00  0.1213E+02  0.1213E+02
     14.721  0.6583E+00  0.6563E+00  0.1222E+02  0.1222E+02
     14.844  0.3335E+00  0.3416E+00  0.1226E+02  0.1226E+02
     14.968  0.4564E+00  0.4492E+00  0.1231E+02  0.1231E+02
     15.092  0.5771E+00  0.5760E+00  0.1238E+02  0.1238E+02
     15.215  0.1155E+01  0.1152E+01  0.1253E+02  0.1253E+02
     15.339  0.9909E+00  0.9764E+00  0.1265E+02  0.1265E+02
     15.462  0.8208E+00  0.8347E+00  0.1275E+02  0.1275E+02
     15.586  0.6160E+00  0.5977E+00  0.1283E+02  0.1282E+02
     15.710  0.5859E+00  0.5981E+00  0.1290E+02  0.1290E+02
     15.833  0.9909E+00  0.1000E+01  0.1302E+02  0.1302E+02
     15.957  0.6519E+00  0.6521E+00  0.1310E+02  0.1310E+02
     16.080  0.4679E+00  0.4700E+00  0.1316E+02  0.1316E+02
     16.204  0.4794E+00  0.4784E+00  0.1322E+02  0.1322E+02
     16.328  0.5352E+00  0.5388E+00  0.1329E+02  0.1329E+02
     16.451  0.5271E+00  0.5175E+00  0.1335E+02  0.1335E+02
     16.575  0.5425E+00  0.5464E+00  0.1342E+02  0.1342E+02
     16.698  0.6750E+00  0.6774E+00  0.1350E+02  0.1350E+02
     16.822  0.4897E+00  0.4884E+00  0.1356E+02  0.1356E+02
     16.945  0.6001E+00  0.6088E+00  0.1364E+02  0.1364E+02
     17.069  0.6352E+00  0.6272E+00  0.1372E+02  0.1371E+02
     17.193  0.4363E+00  0.4657E+00  0.1377E+02  0.1377E+02
     17.316  0.5253E+00  0.5134E+00  0.1383E+02  0.1384E+02
     17.440  0.3855E+00  0.4000E+00  0.1388E+02  0.1389E+02
     17.563  0.3344E+00  0.3101E+00  0.1392E+02  0.1392E+02
     17.687  0.1159E+00  0.1101E+00  0.1394E+02  0.1394E+02
     17.811  0.1498E+00  0.1493E+00  0.1396E+02  0.1396E+02
     17.934  0.1249E+00  0.1251E+00  0.1397E+02  0.1397E+02
     18.058  0.3346E-01  0.3338E-01  0.1398E+02  0.1398E+02
     18.181  0.1040E+00  0.1040E+00  0.1399E+02  0.1399E+02
     18.305  0.1024E-02  0.1227E-02  0.1399E+02  0.1399E+02
     18.428  0.4295E-01  0.4242E-01  0.1399E+02  0.1399E+02
     18.552  0.4942E-02  0.5489E-02  0.1399E+02  0.1399E+02
     18.676  0.2371E-01  0.3490E-01  0.1400E+02  0.1400E+02
     18.799  0.2407E-01  0.1231E-01  0.1400E+02  0.1400E+02
     18.923 -0.5765E-03 -0.3773E-04  0.1400E+02  0.1400E+02
     19.046 -0.2000E-08 -0.1185E-11  0.1400E+02  0.1400E+02
     19.170  0.0000E+00  0.0000E+00  0.1400E+02  0.1400E+02
     19.294  0.0000E+00  0.0000E+00  0.1400E+02  0.1400E+02
     19.417  0.0000E+00  0.0000E+00  0.1400E+02  0.1400E+02
     19.541  0.0000E+00  0.0000E+00  0.1400E+02  0.1400E+02
     19.664  0.0000E+00  0.0000E+00  0.1400E+02  0.1400E+02
     19.788  0.0000E+00  0.0000E+00  0.1400E+02  0.1400E+02
     19.911  0.0000E+00  0.0000E+00  0.1400E+02  0.1400E+02
     20.035  0.0000E+00  0.0000E+00  0.1400E+02  0.1400E+02
     20.159  0.0000E+00  0.0000E+00  0.1400E+02  0.1400E+02
     20.282  0.0000E+00  0.0000E+00  0.1400E+02  0.1400E+02
     20.406  0.0000E+00  0.0000E+00  0.1400E+02  0.1400E+02
     20.40583519    -16.66980731  301      4.53836469      1.00000000
    -16.670  0.0000E+00  0.0000E+00  0.0000E+00  0.0000E+00  0.0000E+00  0.0000E+00  0.0000E+00  0.0000E+00  0.0000E+00  0.0000E+00  0.0000E+00  0.0000E+00  0.0000E+00  0.0000E+00  0.0000E+00  0.0000E+00  0.0000E+00  0.0000E+00
    -16.546  0.0000E+00  0.0000E+00  0.0000E+00  0.0000E+00  0.0000E+00  0.0000E+00  0.0000E+00  0.0000E+00  0.0000E+00  0.0000E+00  0.0000E+00  0.0000E+00  0.0000E+00  0.0000E+00  0.0000E+00  0.0000E+00  0.0000E+00  0.0000E+00
    -16.423  0.0000E+00  0.0000E+00  0.0000E+00  0.0000E+00  0.0000E+00  0.0000E+00  0.0000E+00  0.0000E+00  0.0000E+00  0.0000E+00  0.0000E+00  0.0000E+00  0.0000E+00  0.0000E+00  0.0000E+00  0.0000E+00  0.0000E+00  0.0000E+00
    -16.299  0.0000E+00  0.0000E+00  0.0000E+00  0.0000E+00  0.0000E+00  0.0000E+00  0.0000E+00  0.0000E+00  0.0000E+00  0.0000E+00  0.0000E+00  0.0000E+00  0.0000E+00  0.0000E+00  0.0000E+00  0.0000E+00  0.0000E+00  0.0000E+00
    -16.175  0.0000E+00  0.0000E+00  0.0000E+00  0.0000E+00  0.0000E+00  0.0000E+00  0.0000E+00  0.0000E+00  0.0000E+00  0.0000E+00  0.0000E+00  0.0000E+00  0.0000E+00  0.0000E+00  0.0000E+00  0.0000E+00  0.0000E+00  0.0000E+00
    -16.052  0.0000E+00  0.0000E+00  0.0000E+00  0.0000E+00  0.0000E+00  0.0000E+00  0.0000E+00  0.0000E+00  0.0000E+00  0.0000E+00  0.0000E+00  0.0000E+00  0.0000E+00  0.0000E+00  0.0000E+00  0.0000E+00  0.0000E+00  0.0000E+00
    -15.928  0.0000E+00  0.0000E+00  0.0000E+00  0.0000E+00  0.0000E+00  0.0000E+00  0.0000E+00  0.0000E+00  0.0000E+00  0.0000E+00  0.0000E+00  0.0000E+00  0.0000E+00  0.0000E+00  0.0000E+00  0.0000E+00  0.0000E+00  0.0000E+00
    -15.805  0.0000E+00  0.0000E+00  0.0000E+00  0.0000E+00  0.0000E+00  0.0000E+00  0.0000E+00  0.0000E+00  0.0000E+00  0.0000E+00  0.0000E+00  0.0000E+00  0.0000E+00  0.0000E+00  0.0000E+00  0.0000E+00  0.0000E+00  0.0000E+00
    -15.681  0.0000E+00  0.0000E+00  0.0000E+00  0.0000E+00  0.0000E+00  0.0000E+00  0.0000E+00  0.0000E+00  0.0000E+00  0.0000E+00  0.0000E+00  0.0000E+00  0.0000E+00  0.0000E+00  0.0000E+00  0.0000E+00  0.0000E+00  0.0000E+00
    -15.558  0.0000E+00  0.0000E+00  0.0000E+00  0.0000E+00  0.0000E+00  0.0000E+00  0.0000E+00  0.0000E+00  0.0000E+00  0.0000E+00  0.0000E+00  0.0000E+00  0.0000E+00  0.0000E+00  0.0000E+00  0.0000E+00  0.0000E+00  0.0000E+00
    -15.434 -0.1217E-37 -0.1069E-37 -0.4752E-51 -0.7018E-53 -0.3810E-43 -0.3342E-43 -0.1382E-50 -0.1473E-52  0.0000E+00  0.0000E+00  0.0000E+00  0.0000E+00  0.0000E+00  0.0000E+00  0.0000E+00  0.0000E+00  0.0000E+00  0.0000E+00
    -15.310 -0.4545E-21 -0.4136E-21 -0.2161E-34 -0.3760E-35 -0.1930E-26 -0.1754E-26 -0.6296E-34 -0.1102E-34  0.0000E+00  0.0000E+00  0.0000E+00  0.0000E+00  0.0000E+00  0.0000E+00  0.0000E+00  0.0000E+00  0.0000E+00  0.0000E+00
    -15.187 -0.7306E-10 -0.6896E-10 -0.7100E-20 -0.6506E-20 -0.4888E-15 -0.4605E-15 -0.2130E-19 -0.1952E-19  0.0000E+00  0.0000E+00  0.0000E+00  0.0000E+00  0.0000E+00  0.0000E+00  0.0000E+00  0.0000E+00  0.0000E+00  0.0000E+00
    -15.063 -0.3663E-04 -0.3599E-04 -0.5557E-10 -0.5295E-10 -0.6183E-09 -0.6044E-09 -0.1667E-09 -0.1588E-09  0.0000E+00  0.0000E+00  0.0000E+00  0.0000E+00  0.0000E+00  0.0000E+00  0.0000E+00  0.0000E+00  0.0000E+00  0.0000E+00
    -14.940  0.2111E-02  0.2095E-02 -0.7018E-06 -0.7046E-06  0.6712E-07  0.6634E-07 -0.2105E-05 -0.2114E-05  0.0000E+00  0.0000E+00  0.0000E+00  0.0000E+00  0.0000E+00  0.0000E+00  0.0000E+00  0.0000E+00  0.0000E+00  0.0000E+00
    -14.816  0.2426E-01  0.2421E-01  0.3222E-04  0.3214E-04  0.1447E-05  0.1439E-05  0.9758E-04  0.9732E-04  0.0000E+00  0.0000E+00  0.0000E+00  0.0000E+00  0.0000E+00  0.0000E+00  0.0000E+00  0.0000E+00  0.0000E+00  0.0000E+00
    -14.692  0.2712E-01  0.2703E-01  0.1215E-03  0.1203E-03  0.3095E-05  0.3094E-05  0.1055E-03  0.1052E-03  0.0000E+00  0.0000E+00  0.0000E+00  0.0000E+00  0.0000E+00  0.0000E+00  0.0000E+00  0.0000E+00  0.0000E+00  0.0000E+00
    -14.569  0.6082E-01  0.6081E-01  0.4334E-03  0.4335E-03  0.4103E-05  0.4104E-05  0.4821E-03  0.4808E-03  0.0000E+00  0.0000E+00  0.0000E+00  0.0000E+00  0.0000E+00  0.0000E+00  0.0000E+00  0.0000E+00  0.0000E+00  0.0000E+00
    -14.445  0.3786E-01  0.3789E-01  0.3793E-03  0.3790E-03  0.4827E-05  0.4832E-05  0.4335E-03  0.4341E-03  0.0000E+00  0.0000E+00  0.0000E+00  0.0000E+00  0.0000E+00  0.0000E+00  0.0000E+00  0.0000E+00  0.0000E+00  0.0000E+00
    -14.322  0.4810E-01  0.4798E-01  0.6424E-03  0.6392E-03  0.2539E-05  0.2548E-05  0.7243E-03  0.7209E-03  0.0000E+00  0.0000E+00  0.0000E+00  0.0000E+00  0.0000E+00  0.0000E+00  0.0000E+00  0.0000E+00  0.0000E+00  0.0000E+00
    -14.198  0.4841E-01  0.4856E-01  0.1131E-02  0.1133E-02  0.4138E-05  0.4133E-05  0.9013E-03  0.9042E-03  0.0000E+00  0.0000E+00  0.0000E+00  0.0000E+00  0.0000E+00  0.0000E+00  0.0000E+00  0.0000E+00  0.0000E+00  0.0000E+00
    -14.075  0.5937E-01  0.5923E-01  0.1269E-02  0.1266E-02  0.5505E-05  0.5512E-05  0.1603E-02  0.1599E-02  0.0000E+00  0.0000E+00  0.0000E+00  0.0000E+00  0.0000E+00  0.0000E+00  0.0000E+00  0.0000E+00  0.0000E+00  0.0000E+00
    -13.951  0.3906E-01  0.3925E-01  0.7943E-03  0.7990E-03  0.3016E-05  0.3028E-05  0.1136E-02  0.1139E-02  0.0000E+00  0.0000E+00  0.0000E+00  0.0000E+00  0.0000E+00  0.0000E+00  0.0000E+00  0.0000E+00  0.0000E+00  0.0000E+00
    -13.827  0.3528E-01  0.3523E-01  0.1089E-02  0.1085E-02  0.1627E-05  0.1632E-05  0.1177E-02  0.1177E-02  0.0000E+00  0.0000E+00  0.0000E+00  0.0000E+00  0.0000E+00  0.0000E+00  0.0000E+00  0.0000E+00  0.0000E+00  0.0000E+00
    -13.704  0.5908E-01  0.5902E-01  0.2683E-02  0.2681E-02  0.4060E-05  0.4051E-05  0.2105E-02  0.2102E-02  0.0000E+00  0.0000E+00  0.0000E+00  0.0000E+00  0.0000E+00  0.0000E+00  0.0000E+00  0.0000E+00  0.0000E+00  0.0000E+00
    -13.580  0.5642E-01  0.5642E-01  0.2662E-02  0.2662E-02  0.6418E-05  0.6432E-05  0.1879E-02  0.1879E-02  0.0000E+00  0.0000E+00  0.0000E+00  0.0000E+00  0.0000E+00  0.0000E+00  0.0000E+00  0.0000E+00  0.0000E+00  0.0000E+00
    -13.457  0.5932E-01  0.5939E-01  0.2209E-02  0.2214E-02  0.2584E-05  0.2598E-05  0.3004E-02  0.3003E-02  0.0000E+00  0.0000E+00  0.0000E+00  0.0000E+00  0.0000E+00  0.0000E+00  0.0000E+00  0.0000E+00  0.0000E+00  0.0000E+00
    -13.333  0.1750E-01  0.1754E-01  0.4375E-03  0.4389E-03  0.2181E-05  0.2182E-05  0.1381E-02  0.1384E-02  0.0000E+00  0.0000E+00  0.0000E+00  0.0000E+00  0.0000E+00  0.0000E+00  0.0000E+00  0.0000E+00  0.0000E+00  0.0000E+00
    -13.209  0.3818E-01  0.3802E-01  0.1807E-02  0.1795E-02  0.1740E-05  0.1744E-05  0.2449E-02  0.2442E-02  0.0000E+00  0.0000E+00  0.0000E+00  0.0000E+00  0.0000E+00  0.0000E+00  0.0000E+00  0.0000E+00  0.0000E+00  0.0000E+00
    -13.086  0.4305E-01  0.4315E-01  0.3383E-02  0.3389E-02  0.3816E-05  0.3816E-05  0.1907E-02  0.1913E-02  0.0000E+00  0.0000E+00  0.0000E+00  0.0000E+00  0.0000E+00  0.0000E+00  0.0000E+00  0.0000E+00  0.0000E+00  0.0000E+00
    -12.962  0.8659E-01  0.8644E-01  0.6016E-02  0.6006E-02  0.5543E-05  0.5550E-05  0.5266E-02  0.5257E-02  0.0000E+00  0.0000E+00  0.0000E+00  0.0000E+00  0.0000E+00  0.0000E+00  0.0000E+00  0.0000E+00  0.0000E+00  0.0000E+00
    -12.839  0.4449E-01  0.4462E-01  0.2824E-02  0.2834E-02  0.4464E-05  0.4477E-05  0.3146E-02  0.3151E-02  0.0000E+00  0.0000E+00  0.0000E+00  0.0000E+00  0.0000E+00  0.0000E+00  0.0000E+00  0.0000E+00  0.0000E+00  0.0000E+00
    -12.715  0.3537E-01  0.3548E-01  0.2085E-02  0.2092E-02  0.1333E-05  0.1346E-05  0.2763E-02  0.2771E-02  0.0000E+00  0.0000E+00  0.0000E+00  0.0000E+00  0.0000E+00  0.0000E+00  0.0000E+00  0.0000E+00  0.0000E+00  0.0000E+00
    -12.591  0.2108E-01  0.2104E-01  0.8452E-03  0.8436E-03  0.1024E-05  0.1021E-05  0.2641E-02  0.2636E-02  0.0000E+00  0.0000E+00  0.0000E+00  0.0000E+00  0.0000E+00  0.0000E+00  0.0000E+00  0.0000E+00  0.0000E+00  0.0000E+00
    -12.468  0.2813E-01  0.2804E-01  0.2129E-02  0.2119E-02  0.2270E-05  0.2273E-05  0.2645E-02  0.2640E-02  0.0000E+00  0.0000E+00  0.0000E+00  0.0000E+00  0.0000E+00  0.0000E+00  0.0000E+00  0.0000E+00  0.0000E+00  0.0000E+00
    -12.344  0.7130E-01  0.7129E-01  0.7155E-02  0.7151E-02  0.3668E-05  0.3668E-05  0.5672E-02  0.5673E-02  0.0000E+00  0.0000E+00  0.0000E+00  0.0000E+00  0.0000E+00  0.0000E+00  0.0000E+00  0.0000E+00  0.0000E+00  0.0000E+00
    -12.221  0.5726E-01  0.5728E-01  0.6751E-02  0.6754E-02  0.5300E-05  0.5315E-05  0.3767E-02  0.3768E-02  0.0000E+00  0.0000E+00  0.0000E+00  0.0000E+00  0.0000E+00  0.0000E+00  0.0000E+00  0.0000E+00  0.0000E+00  0.0000E+00
    -12.097  0.6466E-01  0.6465E-01  0.6245E-02  0.6249E-02  0.2081E-05  0.2088E-05  0.6324E-02  0.6317E-02  0.0000E+00  0.0000E+00  0.0000E+00  0.0000E+00  0.0000E+00  0.0000E+00  0.0000E+00  0.0000E+00  0.0000E+00  0.0000E+00
    -11.974  0.3693E-01  0.3697E-01  0.2987E-02  0.2991E-02  0.3740E-05  0.3746E-05  0.4632E-02  0.4638E-02  0.0000E+00  0.0000E+00  0.0000E+00  0.0000E+00  0.0000E+00  0.0000E+00  0.0000E+00  0.0000E+00  0.0000E+00  0.0000E+00
    -11.850  0.4280E-01  0.4286E-01  0.3484E-02  0.3490E-02  0.1980E-05  0.1994E-05  0.5318E-02  0.5326E-02  0.0000E+00  0.0000E+00  0.0000E+00  0.0000E+00  0.0000E+00  0.0000E+00  0.0000E+00  0.0000E+00  0.0000E+00  0.0000E+00
    -11.726 -0.7585E-03 -0.7483E-03 -0.5786E-04 -0.5681E-04 -0.4570E-07 -0.4586E-07 -0.1069E-03 -0.1061E-03  0.0000E+00  0.0000E+00  0.0000E+00  0.0000E+00  0.0000E+00  0.0000E+00  0.0000E+00  0.0000E+00  0.0000E+00  0.0000E+00
    -11.603  0.2936E-01  0.2922E-01  0.2581E-02  0.2562E-02  0.9963E-06  0.9931E-06  0.4537E-02  0.4523E-02  0.0000E+00  0.0000E+00  0.0000E+00  0.0000E+00  0.0000E+00  0.0000E+00  0.0000E+00  0.0000E+00  0.0000E+00  0.0000E+00
    -11.479  0.6408E-01  0.6408E-01  0.8745E-02  0.8749E-02  0.4574E-05  0.4580E-05  0.7116E-02  0.7115E-02  0.0000E+00  0.0000E+00  0.0000E+00  0.0000E+00  0.0000E+00  0.0000E+00  0.0000E+00  0.0000E+00  0.0000E+00  0.0000E+00
    -11.356  0.9507E-01  0.9503E-01  0.1362E-01  0.1361E-01  0.4279E-05  0.4290E-05  0.1055E-01  0.1055E-01  0.0000E+00  0.0000E+00  0.0000E+00  0.0000E+00  0.0000E+00  0.0000E+00  0.0000E+00  0.0000E+00  0.0000E+00  0.0000E+00
    -11.232  0.4272E-01  0.4278E-01  0.5988E-02  0.5999E-02  0.3439E-05  0.3450E-05  0.5145E-02  0.5148E-02  0.0000E+00  0.0000E+00  0.0000E+00  0.0000E+00  0.0000E+00  0.0000E+00  0.0000E+00  0.0000E+00  0.0000E+00  0.0000E+00
    -11.108  0.2723E-01  0.2732E-01  0.3702E-02  0.3716E-02  0.6450E-06  0.6522E-06  0.3387E-02  0.3399E-02  0.0000E+00  0.0000E+00  0.0000E+00  0.0000E+00  0.0000E+00  0.0000E+00  0.0000E+00  0.0000E+00  0.0000E+00  0.0000E+00
    -10.985  0.4416E-01  0.4411E-01  0.4671E-02  0.4665E-02  0.1786E-05  0.1784E-05  0.7860E-02  0.7851E-02  0.0000E+00  0.0000E+00  0.0000E+00  0.0000E+00  0.0000E+00  0.0000E+00  0.0000E+00  0.0000E+00  0.0000E+00  0.0000E+00
    -10.861  0.4328E-01  0.4323E-01  0.4539E-02  0.4534E-02  0.2907E-05  0.2918E-05  0.7581E-02  0.7573E-02  0.0000E+00  0.0000E+00  0.0000E+00  0.0000E+00  0.0000E+00  0.0000E+00  0.0000E+00  0.0000E+00  0.0000E+00  0.0000E+00
    -10.738  0.1433E-01  0.1444E-01  0.1482E-02  0.1495E-02  0.1867E-06  0.1901E-06  0.2496E-02  0.2517E-02  0.0000E+00  0.0000E+00  0.0000E+00  0.0000E+00  0.0000E+00  0.0000E+00  0.0000E+00  0.0000E+00  0.0000E+00  0.0000E+00
    -10.614  0.9019E-02  0.8963E-02  0.2349E-02  0.2335E-02  0.1516E-06  0.1503E-06  0.6721E-03  0.6675E-03  0.0000E+00  0.0000E+00  0.0000E+00  0.0000E+00  0.0000E+00  0.0000E+00  0.0000E+00  0.0000E+00  0.0000E+00  0.0000E+00
    -10.491  0.7893E-01  0.7883E-01  0.1444E-01  0.1443E-01  0.3146E-05  0.3146E-05  0.1135E-01  0.1134E-01  0.0000E+00  0.0000E+00  0.0000E+00  0.0000E+00  0.0000E+00  0.0000E+00  0.0000E+00  0.0000E+00  0.0000E+00  0.0000E+00