    4    4    1    2
  0.8797333E+01  0.2461200E-09  0.2461200E-09  0.6707900E-09  0.5000000E-15
  1.000000000000000E-004
  CAR 
 unknown system                          
   16  270   14
 
  0.0000000E+00  0.0000000E+00  0.0000000E+00  0.2441406E-03
   1      -14.984551    -14.984188
   2      -14.685510    -14.685131
   3       -3.821230     -3.821129
   4       -1.864141     -1.863942
   5        1.726192      1.726127
   6        1.726216      1.726151
   7        1.730922      1.730860
   8        1.730947      1.730884
   9        8.987383      8.986933
  10       13.145658     13.146501
  11       13.145671     13.146514
  12       13.208748     13.209600
  13       13.208760     13.209611
  14       15.325912     15.325238
 
  0.6250000E-01 -0.3469447E-17  0.0000000E+00  0.1464844E-02
   1      -14.891284    -14.890922
   2      -14.593651    -14.593274
   3       -3.707357     -3.707259
   4       -1.759821     -1.759629
   5        1.332136      1.332077
   6        1.356095      1.356037
   7        1.521793      1.521758
   8        1.535592      1.535559
   9        9.099823      9.099372
  10       13.175061     13.175935
  11       13.236950     13.237835
  12       13.545484     13.546318
  13       13.587779     13.588620
  14       15.410735     15.415273
 
  0.1250000E+00 -0.6938894E-17  0.0000000E+00  0.1464844E-02
   1      -14.611272    -14.610917
   2      -14.318523    -14.318153
   3       -3.367421     -3.367331
   4       -1.443000     -1.442820
   5        0.307293      0.307278
   6        0.352538      0.352523
   7        0.991823      0.991829
   8        1.030190      1.030197
   9        9.439967      9.439516
  10       13.177183     13.178134
  11       13.285809     13.286783
  12       14.663322     14.664128
  13       14.701588     14.702401
  14       14.910480     14.910573
 
  0.1875000E+00 -0.2775558E-16  0.0000000E+00  0.1464844E-02
   1      -14.146367    -14.146023
   2      -13.861993    -13.861635
   3       -2.805833     -2.805759
   4       -1.120246     -1.120204
   5       -1.048556     -1.048515
   6       -0.921543     -0.921383
   7        0.332350      0.332396
   8        0.378615      0.378662
   9       10.007321     10.006871
  10       13.001404     13.002414
  11       13.201949     13.203000
  12       13.480392     13.480136
  13       13.942902     13.942692
  14       16.101295     16.100803
 
  0.2500000E+00 -0.1387779E-16  0.0000000E+00  0.1464844E-02
   1      -13.499965    -13.499638
   2      -13.226809    -13.226469
   3       -2.739157     -2.739056
   4       -2.636058     -2.635956
   5       -2.035110     -2.035060
   6       -0.327564     -0.327485
   7       -0.277136     -0.277056
   8       -0.208356     -0.208223
   9       10.795967     10.795519
  10       11.751745     11.751556
  11       12.402491     12.402332
  12       12.735701     12.736748
  13       13.023080     13.024180
  14       16.638676     16.638393
 
  0.3125000E+00 -0.5551115E-16  0.0000000E+00  0.1464844E-02
   1      -12.676981    -12.676678
   2      -12.419430    -12.419117
   3       -4.418648     -4.418487
   4       -4.293287     -4.293125
   5       -1.066660     -1.066641
   6       -0.904886     -0.904785
   7       -0.849605     -0.849503
   8        0.661644      0.661734
   9        9.882526      9.882417
  10       10.738095     10.738002
  11       11.778697     11.778294
  12       12.447170     12.448206
  13       12.809161     12.810273
  14       17.288988     17.288874
 
  0.3750000E+00 -0.5551115E-16  0.0000000E+00  0.1464844E-02
   1      -11.689268    -11.689000
   2      -11.448967    -11.448691
   3       -6.060622     -6.060398
   4       -5.909202     -5.908978
   5       -1.344830     -1.344715
   6       -1.286018     -1.285901
   7        0.057891      0.057863
   8        1.627326      1.627358
   9        8.112073      8.112053
  10        9.107948      9.107936
  11       12.173320     12.174329
  12       12.495917     12.496787
  13       13.154000     13.153893
  14       17.987174     17.987311
 
  0.4375000E+00 -0.2775558E-16  0.0000000E+00  0.1464844E-02
   1      -10.563250    -10.563047
   2      -10.349395    -10.349190
   3       -7.589669     -7.589361
   4       -7.422647     -7.422344
   5       -1.618126     -1.618004
   6       -1.563460     -1.563336
   7        1.227288      1.227187
   8        2.433361      2.433318
   9        6.721527      6.721600
  10        7.662572      7.662654
  11       12.025011     12.026067
  12       12.407804     12.408877
  13       14.517382     14.517048
  14       17.724568     17.724339
 
  0.5000000E+00 -0.2775558E-16  0.0000000E+00  0.7324219E-03
   1       -9.628214     -9.628204
   2       -9.518155     -9.518114
   3       -8.566295     -8.565814
   4       -8.483574     -8.483074
   5       -1.709830     -1.709705
   6       -1.652560     -1.652431
   7        1.945419      1.945222
   8        2.635644      2.635601
   9        6.251964      6.252060
  10        6.916529      6.916699
  11       11.971982     11.973043
  12       12.370563     12.371651
  13       16.028962     16.028339
  14       16.152756     16.152760
 
  0.6250000E-01  0.6250000E-01  0.0000000E+00  0.1464844E-02
   1      -14.704447    -14.704090
   2      -14.410162    -14.409790
   3       -3.481146     -3.481054
   4       -1.547813     -1.547628
   5        0.677757      0.677709
   6        0.700708      0.700663
   7        1.116444      1.116459
   8        1.134775      1.134792
   9        9.326907      9.326456
  10       13.308441     13.309381
  11       13.393368     13.394327
  12       14.160177     14.160973
  13       14.223626     14.224431
  14       15.220439     15.220068
 
  0.1250000E+00  0.6250000E-01  0.0000000E+00  0.2929688E-02
   1      -14.332045    -14.331696
   2      -14.044183    -14.043820
   3       -3.028953     -3.028871
   4       -1.128743     -1.128574
   5       -0.473080     -0.473085
   6       -0.425751     -0.425755
   7        0.453130      0.453194
   8        0.482435      0.482499
   9        9.781958      9.781508
  10       13.411453     13.412468
  11       13.546827     13.547876
  12       14.065475     14.065195
  13       14.442535     14.442303
  14       15.250552     15.246528
 
  0.1875000E+00  0.6250000E-01  0.0000000E+00  0.2929688E-02
   1      -13.776403    -13.776068
   2      -13.498464    -13.498117
   3       -2.362529     -2.362468
   4       -1.943892     -1.943836
   5       -1.863248     -1.863193
   6       -0.509804     -0.509659
   7       -0.264544     -0.264442
   8       -0.219802     -0.219701
   9       10.463180     10.462730
  10       12.525175     12.524944
  11       13.041628     13.041434
  12       13.251864     13.252903
  13       13.505359     13.506454
  14       16.399303     16.380829
 
  0.2500000E+00  0.6250000E-01  0.0000000E+00  0.2929688E-02
   1      -13.041487    -13.041172
   2      -12.777398    -12.777073
   3       -3.566630     -3.566510
   4       -3.458551     -3.458432
   5       -1.491868     -1.491835
   6       -0.917396     -0.917270
   7       -0.863031     -0.862905
   8        0.285605      0.285714
   9       10.750534     10.750370
  10       11.362790     11.362344
  11       11.467914     11.467772
  12       12.986913     12.987959
  13       13.315231     13.316348
  14       16.928553     16.928401
 
  0.3125000E+00  0.6250000E-01  0.0000000E+00  0.2929688E-02
   1      -12.135626    -12.135341
   2      -11.887689    -11.887395
   3       -5.213106     -5.212923
   4       -5.077920     -5.077737
   5       -1.440676     -1.440534
   6       -1.384958     -1.384816
   7       -0.439066     -0.439070
   8        1.217255      1.217317
   9        8.938636      8.938553
  10        9.829202      9.829128
  11       12.416320     12.416049
  12       12.747382     12.748311
  13       13.135745     13.136817
  14       17.542205     17.542296
 
  0.3750000E+00  0.6250000E-01  0.0000000E+00  0.2929688E-02
   1      -11.074743    -11.074504
   2      -10.846664    -10.846419
   3       -6.795199     -6.794945
   4       -6.637557     -6.637305
   5       -1.803544     -1.803393
   6       -1.745608     -1.745457
   7        0.732475      0.732415
   8        2.153651      2.153644
   9        7.325331      7.325342
  10        8.291826      8.291836
  11       12.501915     12.502931
  12       12.870502     12.871487
  13       13.882301     13.882043
  14       18.148408     18.148828
 
  0.4375000E+00  0.6250000E-01  0.0000000E+00  0.2929688E-02
   1       -9.928383     -9.928254
   2       -9.744094     -9.743970
   3       -8.187911     -8.187525
   4       -8.033628     -8.033257
   5       -1.990055     -1.989900
   6       -1.932107     -1.931951
   7        1.802963      1.802808
   8        2.698367      2.698310
   9        6.350079      6.350160
  10        7.085858      7.085970
  11       12.397169     12.398201
  12       12.800040     12.801102
  13       15.352604     15.352263
  14       16.949475     16.949235
 
  0.1250000E+00  0.1250000E+00  0.0000000E+00  0.1464844E-02
   1      -13.868763    -13.868426
   2      -13.589500    -13.589150
   3       -2.474290     -2.474227
   4       -1.502435     -1.502439
   5       -1.456394     -1.456392
   6       -0.610482     -0.610332
   7       -0.416681     -0.416525
   8       -0.385931     -0.385775
   9       10.353117     10.352668
  10       12.836489     12.836233
  11       13.251749     13.251531
  12       13.964832     13.965950
  13       14.141103     14.142278
  14       15.658182     15.658976
 
  0.1875000E+00  0.1250000E+00  0.0000000E+00  0.2929688E-02
   1      -13.224769    -13.224449
   2      -12.957467    -12.957136
   3       -2.822821     -2.822781
   4       -2.747996     -2.747956
   5       -1.703883     -1.703841
   6       -1.278050     -1.277839
   7       -1.228074     -1.227866
   8        0.094667      0.094787
   9       11.148995     11.148548
  10       11.334555     11.334333
  11       11.848458     11.848272
  12       14.133505     14.134593
  13       14.417561     14.418740
  14       16.560089     16.563234
 
  0.2500000E+00  0.1250000E+00  0.0000000E+00  0.2929688E-02
   1      -12.406530    -12.406235
   2      -12.153418    -12.153113
   3       -4.339434     -4.339321
   4       -4.229224     -4.229114
   5       -1.959422     -1.959195
   6       -1.894645     -1.894422
   7       -0.742560     -0.742552
   8        0.964396      0.964476
   9        9.656264      9.656099
  10       10.339577     10.339432
  11       12.157925     12.157479
  12       13.944763     13.945792
  13       14.321530     14.322656
  14       17.097055     17.097447
 
  0.3125000E+00  0.1250000E+00  0.0000000E+00  0.2929688E-02
   1      -11.424740    -11.424482
   2      -11.190173    -11.189907
   3       -5.895137     -5.894949
   4       -5.754518     -5.754333
   5       -2.443091     -2.442859
   6       -2.368903     -2.368675
   7        0.378584      0.378548
   8        1.920375      1.920398
   9        7.999052      7.998966
  10        8.827221      8.827138
  11       13.337836     13.337457
  12       13.738166     13.739112
  13       14.167917     14.169010
  14       17.467760     17.468270
 
  0.3750000E+00  0.1250000E+00  0.0000000E+00  0.2929688E-02
   1      -10.308929    -10.308736
   2      -10.099446    -10.099250
   3       -7.377538     -7.377260
   4       -7.218500     -7.218228
   5       -2.735834     -2.735601
   6       -2.657429     -2.657199
   7        1.552377      1.552272
   8        2.753531      2.753487
   9        6.661849      6.661852
  10        7.460069      7.460066
  11       13.546443     13.547394
  12       13.979590     13.980529
  13       14.824672     14.824429
  14       17.746699     17.765043
 
  0.4375000E+00  0.1250000E+00  0.0000000E+00  0.1464844E-02
   1       -9.389295     -9.389285
   2       -9.280691     -9.280650
   3       -8.334689     -8.334247
   4       -8.255596     -8.255137
   5       -2.834430     -2.834198
   6       -2.750791     -2.750560
   7        2.286324      2.286124
   8        2.967746      2.967706
   9        6.230672      6.230694
  10        6.695471      6.695551
  11       13.492319     13.493278
  12       13.949200     13.950204
  13       16.237087     16.236511
  14       16.386966     16.387009
 
  0.1875000E+00  0.1875000E+00  0.0000000E+00  0.1464844E-02
   1      -12.497257    -12.496959
   2      -12.242558    -12.242249
   3       -3.807129     -3.807115
   4       -3.745552     -3.745529
   5       -2.362404     -2.362078
   6       -2.317180     -2.316854
   7       -0.842227     -0.842212
   8        0.879184      0.879272
   9        9.968518      9.968305
  10       10.498457     10.498285
  11       12.052886     12.052443
  12       15.188144     15.189347
  13       15.462783     15.464090
  14       16.618007     16.616669
 
  0.2500000E+00  0.1875000E+00  0.0000000E+00  0.2929688E-02
   1      -11.601569    -11.601303
   2      -11.363897    -11.363622
   3       -5.052764     -5.052691
   4       -4.955676     -4.955607
   5       -3.187638     -3.187274
   6       -3.117164     -3.116807
   7        0.198868      0.198847
   8        1.796093      1.796136
   9        8.499892      8.499713
  10        9.112088      9.111940
  11       13.161189     13.160754
  12       15.333753     15.334754
  13       15.830087     15.831274
  14       17.009631     17.014494
 
  0.3125000E+00  0.1875000E+00  0.0000000E+00  0.2929688E-02
   1      -10.556989    -10.556770
   2      -10.340249    -10.340024
   3       -6.453808     -6.453640
   4       -6.315725     -6.315563
   5       -3.679235     -3.678882
   6       -3.588337     -3.587992
   7        1.360793      1.360716
   8        2.750310      2.750294
   9        7.067103      7.066990
  10        7.769408      7.769298
  11       14.438116     14.437692
  12       15.151053     15.151960
  13       15.739107     15.740176
  14       16.981844     16.982827
 
  0.3750000E+00  0.1875000E+00  0.0000000E+00  0.2929688E-02
   1       -9.437659     -9.437545
   2       -9.261821     -9.261708
   3       -7.758165     -7.757858
   4       -7.616229     -7.615938
   5       -3.908305     -3.907962
   6       -3.808182     -3.807846
   7        2.459560      2.459395
   8        3.355875      3.355819
   9        6.161752      6.161705
  10        6.618940      6.618894
  11       15.019178     15.020004
  12       15.598112     15.598769
  13       15.906914     15.906925
  14       17.000469     17.003479
 
  0.2500000E+00  0.2500000E+00  0.0000000E+00  0.1464844E-02
   1      -10.640965    -10.640738
   2      -10.422170    -10.421937
   3       -5.843317     -5.843296
   4       -5.766401     -5.766372
   5       -4.261677     -4.261182
   6       -4.202662     -4.202166
   7        1.296461      1.296397
   8        2.739004      2.739001
   9        7.273634      7.273458
  10        7.879892      7.879747
  11       14.340899     14.340486
  12       16.661293     16.662290
  13       16.678003     16.678944
  14       16.893422     16.894139
 
  0.3125000E+00  0.2500000E+00  0.0000000E+00  0.2929688E-02
   1       -9.561222     -9.561061
   2       -9.367001     -9.366837
   3       -6.917566     -6.917462
   4       -6.799558     -6.799464
   5       -4.889460     -4.888936
   6       -4.800732     -4.800225
   7        2.471295      2.471166
   8        3.647643      3.647596
   9        6.094660      6.094526
  10        6.715921      6.715782
  11       15.624809     15.624432
  12       16.353838     16.355176
  13       16.589138     16.589822
  14       16.605509     16.606974
 
  0.3750000E+00  0.2500000E+00  0.0000000E+00  0.1464844E-02
   1       -8.672257     -8.672247
   2       -8.568422     -8.568377
   3       -7.755906     -7.755651
   4       -7.710356     -7.710096
   5       -5.072101     -5.071591
   6       -4.970216     -4.969726
   7        3.287389      3.287157
   8        3.937197      3.937177
   9        5.711416      5.711356
  10        5.893074      5.892913
  11       16.261670     16.263214
  12       16.284991     16.286417
  13       16.471147     16.471548
  14       16.799900     16.807730
 
  0.3125000E+00  0.3125000E+00  0.0000000E+00  0.1464844E-02
   1       -8.511788     -8.511720
   2       -8.356929     -8.356853
   3       -7.481563     -7.481536
   4       -7.388918     -7.388893
   5       -5.695395     -5.694694
   6       -5.651253     -5.650558
   7        3.609636      3.609410
   8        4.506905      4.506885
   9        5.066841      5.066756
  10        5.769294      5.769086
  11       15.945572     15.947081
  12       15.981662     15.983240
  13       16.714970     16.714661
  14       17.235784     17.240286
 
  0.0000000E+00  0.0000000E+00  0.6250000E-01  0.4882812E-03
   1      -14.982037    -14.981673
   2      -14.688605    -14.688225
   3       -3.806495     -3.806395
   4       -1.890087     -1.889894
   5        1.711624      1.711560
   6        1.711649      1.711584
   7        1.725530      1.725468
   8        1.725555      1.725492
   9        9.035534      9.035084
  10       13.136741     13.137584
  11       13.136754     13.137597
  12       13.184456     13.185307
  13       13.184469     13.185319
  14       15.222946     15.220664
 
  0.6250000E-01 -0.3469447E-17  0.6250000E-01  0.2929688E-02
   1      -14.888603    -14.888241
   2      -14.596713    -14.596336
   3       -3.692028     -3.691930
   4       -1.783503     -1.783314
   5        1.332055      1.331996
   6        1.355120      1.355062
   7        1.512152      1.512118
   8        1.535427      1.535394
   9        9.148344      9.147894
  10       13.174424     13.175298
  11       13.236166     13.237052
  12       13.544551     13.545385
  13       13.586886     13.587727
  14       15.319851     15.358649
 
  0.1250000E+00 -0.6938894E-17  0.6250000E-01  0.2929688E-02
   1      -14.608630    -14.608275
   2      -14.321524    -14.321154
   3       -3.351480     -3.351390
   4       -1.465947     -1.465768
   5        0.307831      0.307816
   6        0.352189      0.352174
   7        0.999111      0.999116
   8        1.029918      1.029925
   9        9.487826      9.487377
  10       13.178153     13.179104
  11       13.284708     13.285681
  12       14.664429     14.665232
  13       14.701332     14.702141
  14       14.915474     14.915553
 
  0.1875000E+00 -0.2775558E-16  0.6250000E-01  0.2929688E-02
   1      -14.143795    -14.143451
   2      -13.864949    -13.864591
   3       -2.792899     -2.792826
   4       -1.119658     -1.119616
   5       -1.049179     -1.049138
   6       -0.943864     -0.943705
   7        0.332666      0.332713
   8        0.378206      0.378253
   9       10.053902     10.053453
  10       13.001791     13.002798
  11       13.203775     13.204824
  12       13.486159     13.485907
  13       13.938977     13.938769
  14       16.001755     16.001333
 
  0.2500000E+00 -0.1387779E-16  0.6250000E-01  0.2929688E-02
   1      -13.497498    -13.497171
   2      -13.229518    -13.229178
   3       -2.738209     -2.738107
   4       -2.640225     -2.640124
   5       -2.018068     -2.018015
   6       -0.327978     -0.327899
   7       -0.277818     -0.277738
   8       -0.230488     -0.230357
   9       10.838426     10.837980
  10       11.757420     11.757230
  11       12.386007     12.385851
  12       12.738533     12.739578
  13       13.023151     13.024248
  14       16.563085     16.562794
 
  0.3125000E+00 -0.5551115E-16  0.6250000E-01  0.2929688E-02
   1      -12.674563    -12.674259
   2      -12.422048    -12.421735
   3       -4.417335     -4.417173
   4       -4.294322     -4.294160
   5       -1.051887     -1.051867
   6       -0.904347     -0.904246
   7       -0.850035     -0.849933
   8        0.646828      0.646919
   9        9.887655      9.887545
  10       10.734074     10.733981
  11       11.822808     11.822410
  12       12.450949     12.451982
  13       12.811510     12.812619
  14       17.215529     17.215405
 
  0.3750000E+00 -0.5551115E-16  0.6250000E-01  0.2929688E-02
   1      -11.686889    -11.686622
   2      -11.451137    -11.450861
   3       -6.059144     -6.058920
   4       -5.911486     -5.911263
   5       -1.343228     -1.343113
   6       -1.289146     -1.289029
   7        0.072418      0.072392
   8        1.610358      1.610391
   9        8.116307      8.116287
  10        9.096867      9.096852
  11       12.178044     12.179057
  12       12.495935     12.496823
  13       13.193375     13.193247
  14       17.925210     17.925325
 
  0.4375000E+00 -0.2775558E-16  0.6250000E-01  0.2929688E-02
   1      -10.561323    -10.561120
   2      -10.351550    -10.351344
   3       -7.586525     -7.586217
   4       -7.424314     -7.424011
   5       -1.617343     -1.617221
   6       -1.563279     -1.563155
   7        1.238869      1.238769
   8        2.422200      2.422157
   9        6.724564      6.724636
  10        7.646204      7.646285
  11       12.028712     12.029768
  12       12.404005     12.405077
  13       14.555927     14.555596
  14       17.744307     17.744085
 
  0.5000000E+00 -0.2775558E-16  0.6250000E-01  0.1464844E-02
   1       -9.626962     -9.626952
   2       -9.518997     -9.518956
   3       -8.565859     -8.565377
   4       -8.484706     -8.484206
   5       -1.709266     -1.709141
   6       -1.653059     -1.652930
   7        1.953958      1.953762
   8        2.632196      2.632152
   9        6.250348      6.250445
  10        6.902975      6.903145
  11       11.975626     11.976687
  12       12.366672     12.367760
  13       16.066526     16.065904
  14       16.179741     16.179749
 
  0.6250000E-01  0.6250000E-01  0.6250000E-01  0.2929688E-02
   1      -14.701791    -14.701434
   2      -14.413179    -14.412807
   3       -3.465052     -3.464959
   4       -1.570816     -1.570633
   5        0.678092      0.678044
   6        0.700513      0.700467
   7        1.118753      1.118767
   8        1.135298      1.135314
   9        9.375014      9.374565
  10       13.309052     13.309991
  11       13.392854     13.393812
  12       14.161409     14.162205
  13       14.223331     14.224136
  14       15.222382     15.222227
 
  0.1250000E+00  0.6250000E-01  0.6250000E-01  0.5859375E-02
   1      -14.329445    -14.329097
   2      -14.047253    -14.046890
   3       -3.014997     -3.014916
   4       -1.151515     -1.151348
   5       -0.472791     -0.472795
   6       -0.426295     -0.426299
   7        0.452631      0.452696
   8        0.483343      0.483407
   9        9.829130      9.828681
  10       13.407263     13.408274
  11       13.544721     13.545768
  12       14.068607     14.068328
  13       14.439589     14.439356
  14       15.252288     15.253150
 
  0.1875000E+00  0.6250000E-01  0.6250000E-01  0.5859375E-02
   1      -13.773891    -13.773557
   2      -13.501290    -13.500943
   3       -2.347575     -2.347513
   4       -1.944311     -1.944255
   5       -1.864358     -1.864302
   6       -0.531984     -0.531840
   7       -0.264355     -0.264254
   8       -0.221462     -0.221361
   9       10.508435     10.507986
  10       12.529038     12.528809
  11       13.031041     13.030852
  12       13.254206     13.255242
  13       13.501432     13.502521
  14       16.303608     16.288225
 
  0.2500000E+00  0.6250000E-01  0.6250000E-01  0.5859375E-02
   1      -13.039030    -13.038715
   2      -12.780046    -12.779721
   3       -3.565365     -3.565245
   4       -3.457050     -3.456930
   5       -1.476057     -1.476023
   6       -0.916164     -0.916038
   7       -0.863247     -0.863121
   8        0.267509      0.267620
   9       10.757524     10.757359
  10       11.410729     11.410286
  11       11.452926     11.452783
  12       12.991169     12.992215
  13       13.315356     13.316473
  14       16.856182     16.856020
 
  0.3125000E+00  0.6250000E-01  0.6250000E-01  0.5859375E-02
   1      -12.133285    -12.133000
   2      -11.890168    -11.889874
   3       -5.211543     -5.211361
   4       -5.078688     -5.078505
   5       -1.439780     -1.439639
   6       -1.384256     -1.384114
   7       -0.424582     -0.424586
   8        1.201384      1.201446
   9        8.945973      8.945890
  10        9.826966      9.826892
  11       12.451936     12.451700
  12       12.754664     12.755571
  13       13.139739     13.140797
  14       17.478652     17.478725
 
  0.3750000E+00  0.6250000E-01  0.6250000E-01  0.5859375E-02
   1      -11.072652    -11.072413
   2      -10.848972    -10.848727
   3       -6.794591     -6.794338
   4       -6.639114     -6.638862
   5       -1.803003     -1.802852
   6       -1.746478     -1.746327
   7        0.745530      0.745470
   8        2.139015      2.139007
   9        7.331006      7.331017
  10        8.284089      8.284099
  11       12.505697     12.506714
  12       12.867169     12.868157
  13       13.921212     13.920952
  14       18.071762     18.072097
 
  0.4375000E+00  0.6250000E-01  0.6250000E-01  0.5859375E-02
   1       -9.926426     -9.926297
   2       -9.745961     -9.745837
   3       -8.185629     -8.185243
   4       -8.035185     -8.034814
   5       -1.989807     -1.989653
   6       -1.932220     -1.932063
   7        1.812294      1.812140
   8        2.692137      2.692079
   9        6.350667      6.350748
  10        7.076888      7.076999
  11       12.400527     12.401559
  12       12.796797     12.797858
  13       15.386965     15.386630
  14       16.974170     16.973933
 
  0.1250000E+00  0.1250000E+00  0.6250000E-01  0.2929688E-02
   1      -13.866236    -13.865900
   2      -13.592309    -13.591960
   3       -2.457474     -2.457409
   4       -1.501964     -1.501968
   5       -1.456749     -1.456747
   6       -0.632627     -0.632478
   7       -0.414741     -0.414586
   8       -0.386293     -0.386138
   9       10.399069     10.398621
  10       12.841680     12.841426
  11       13.253448     13.253234
  12       13.968028     13.969141
  13       14.134967     14.136137
  14       15.663384     15.686630
 
  0.1875000E+00  0.1250000E+00  0.6250000E-01  0.5859375E-02
   1      -13.222348    -13.222028
   2      -12.960212    -12.959881
   3       -2.822503     -2.822463
   4       -2.749998     -2.749958
   5       -1.689773     -1.689730
   6       -1.278507     -1.278297
   7       -1.229396     -1.229187
   8        0.075181      0.075301
   9       11.189706     11.189266
  10       11.334614     11.334385
  11       11.832606     11.832420
  12       14.133483     14.134569
  13       14.417710     14.418889
  14       16.545717     16.546181
 
  0.2500000E+00  0.1250000E+00  0.6250000E-01  0.5859375E-02
   1      -12.404217    -12.403922
   2      -12.155952    -12.155647
   3       -4.338358     -4.338245
   4       -4.228624     -4.228514
   5       -1.957681     -1.957454
   6       -1.894834     -1.894610
   7       -0.727406     -0.727396
   8        0.944789      0.944869
   9        9.663388      9.663223
  10       10.325921     10.325777
  11       12.199722     12.199277
  12       13.948641     13.949668
  13       14.319893     14.321018
  14       17.035736     17.034883
 
  0.3125000E+00  0.1250000E+00  0.6250000E-01  0.5859375E-02
   1      -11.422299    -11.422040
   2      -11.192561    -11.192295
   3       -5.894069     -5.893881
   4       -5.756858     -5.756673
   5       -2.443237     -2.443005
   6       -2.370380     -2.370151
   7        0.391593      0.391557
   8        1.906072      1.906096
   9        8.000840      8.000754
  10        8.820196      8.820111
  11       13.372775     13.372409
  12       13.741551     13.742485
  13       14.168010     14.169101
  14       17.412528     17.413013
 
  0.3750000E+00  0.1250000E+00  0.6250000E-01  0.5859375E-02
   1      -10.307049    -10.306856
   2      -10.101563    -10.101367
   3       -7.376088     -7.375809
   4       -7.220092     -7.219820
   5       -2.735236     -2.735004
   6       -2.658208     -2.657978
   7        1.563313      1.563209
   8        2.742112      2.742067
   9        6.661356      6.661359
  10        7.445214      7.445210
  11       13.549624     13.550574
  12       13.974864     13.975804
  13       14.855308     14.855069
  14       17.596398     17.596812
 
  0.4375000E+00  0.1250000E+00  0.6250000E-01  0.2929688E-02
   1       -9.388224     -9.388214
   2       -9.281458     -9.281417
   3       -8.333948     -8.333505
   4       -8.255637     -8.255177
   5       -2.833461     -2.833228
   6       -2.754101     -2.753870
   7        2.295138      2.294939
   8        2.964510      2.964468
   9        6.223866      6.223889
  10        6.680782      6.680861
  11       13.496863     13.497821
  12       13.944420     13.945424
  13       16.266087     16.265520
  14       16.385333     16.385402
 
  0.1875000E+00  0.1875000E+00  0.6250000E-01  0.2929688E-02
   1      -12.494932    -12.494635
   2      -12.245142    -12.244833
   3       -3.806559     -3.806544
   4       -3.746102     -3.746080
   5       -2.361227     -2.360901
   6       -2.317368     -2.317043
   7       -0.828401     -0.828385
   8        0.858984      0.859071
   9        9.972328      9.972115
  10       10.488856     10.488685
  11       12.094226     12.093784
  12       15.190942     15.192138
  13       15.464579     15.465886
  14       16.615010     16.616465
 
  0.2500000E+00  0.1875000E+00  0.6250000E-01  0.5859375E-02
   1      -11.599439    -11.599172
   2      -11.366354    -11.366079
   3       -5.051916     -5.051844
   4       -4.957462     -4.957394
   5       -3.187340     -3.186975
   6       -3.117975     -3.117618
   7        0.210619      0.210597
   8        1.777267      1.777308
   9        8.501413      8.501235
  10        9.110120      9.109972
  11       13.196922     13.196491
  12       15.334521     15.335516