       N       E                     dE             d eps       ncg     rms          rms(c)
DAV:   1     0.219157542031E+02    0.21916E+02   -0.65095E+03 15214   0.752E+02
DAV:   2    -0.353894098208E+02   -0.57305E+02   -0.52725E+02 20600   0.174E+02
DAV:   3    -0.375803075718E+02   -0.21909E+01   -0.21800E+01 19992   0.329E+01
DAV:   4    -0.376007688157E+02   -0.20461E-01   -0.20456E-01 18472   0.360E+00
DAV:   5    -0.376011692599E+02   -0.40044E-03   -0.40029E-03 20186   0.483E-01    0.122E+01
DAV:   6    -0.369139954431E+02    0.68717E+00   -0.20803E+00 16734   0.923E+00    0.476E+00
DAV:   7    -0.369536204955E+02   -0.39625E-01   -0.12965E+00 17142   0.736E+00    0.185E+00
DAV:   8    -0.369012323798E+02    0.52388E-01   -0.24317E-01 18286   0.354E+00    0.666E-01
DAV:   9    -0.369131157246E+02   -0.11883E-01   -0.18461E-02 17196   0.118E+00    0.324E-01
DAV:  10    -0.369139464606E+02   -0.83074E-03   -0.16426E-03 19056   0.412E-01    0.121E-01
DAV:  11    -0.369141991706E+02   -0.25271E-03   -0.47089E-04 17508   0.194E-01    0.497E-02
DAV:  12    -0.369142355006E+02   -0.36330E-04   -0.97203E-05 13882   0.854E-02
   1 F= -.36914236E+02 E0= -.36914246E+02  d E =0.300483E-04  mag=    -0.0003
