 vasp.5.2.12 11Nov11 complex                                                    
  
 executed on             LinuxIFC date 2012.10.17  09:39:31
 running on    1 nodes
 distr:  one band on    1 nodes,    1 groups


--------------------------------------------------------------------------------------------------------


 INCAR:
 POTCAR:   PAW_PBE C 08Apr2002                    
 POTCAR:   PAW_PBE C 08Apr2002                    
   VRHFIN =C: s2p2                                                              
   LEXCH  = PE                                                                  
   EATOM  =   147.1560 eV,   10.8157 Ry                                         
                                                                                
   TITEL  = PAW_PBE C 08Apr2002                                                 
   LULTRA =        F    use ultrasoft PP ?                                      
   IUNSCR =        0    unscreen: 0-lin 1-nonlin 2-no                           
   RPACOR =     .000    partial core radius                                     
   POMASS =   12.011; ZVAL   =    4.000    mass and valenz                      
   RCORE  =    1.500    outmost cutoff radius                                   
   RWIGS  =    1.630; RWIGS  =     .863    wigner-seitz radius (au A)           
   ENMAX  =  400.000; ENMIN  =  300.000 eV                                      
   ICORE  =        2    local potential                                         
   LCOR   =        T    correct aug charges                                     
   LPAW   =        T    paw PP                                                  
   EAUG   =  644.873                                                            
   DEXC   =     .000                                                            
   RMAX   =    2.266    core radius for proj-oper                               
   RAUG   =    1.300    factor for augmentation sphere                          
   RDEP   =    1.501    radius for radial grids                                 
   RDEPT  =    1.300    core radius for aug-charge                              
   QCUT   =   -5.516; QGAM   =   11.032    optimization parameters              
                                                                                
   Description                                                                  
     l     E      TYP  RCUT    TYP  RCUT                                        
     0   .000     23  1.200                                                     
     0   .000     23  1.200                                                     
     1   .000     23  1.500                                                     
     1  2.500     23  1.500                                                     
     2   .000      7  1.500                                                     
  local pseudopotential read in
  atomic valenz-charges read in
  non local Contribution for L=           0  read in
    real space projection operators read in
  non local Contribution for L=           0  read in
    real space projection operators read in
  non local Contribution for L=           1  read in
    real space projection operators read in
  non local Contribution for L=           1  read in
    real space projection operators read in
    PAW grid and wavefunctions read in
 
   number of l-projection  operators is LMAX  =           4
   number of lm-projection operators is LMMAX =           8
 
 PAW_PBE C 08Apr2002                    :
 energy of atom  1       EATOM= -147.1560
 kinetic energy error for atom=    0.0854 (will be added to EATOM!!)
 
 
 POSCAR:  C                                      
  positions in cartesian coordinates
  No initial velocities read in
 exchange correlation table for  LEXCH =        8
   RHO(1)=    0.500       N(1)  =     2000
   RHO(2)=  100.500       N(2)  =     4000
 


--------------------------------------------------------------------------------------------------------


 ion  position               nearest neighbor table
   1  0.000  0.000  0.000-   2 1.42   2 1.42   2 1.42
   2  0.333  0.667  0.000-   1 1.42   1 1.42   1 1.42
   3  0.333  0.667  0.500-   4 1.42   4 1.42   4 1.42
   4  0.667  0.333  0.500-   3 1.42   3 1.42   3 1.42
 
  LATTYP: Found a hexagonal cell.
 ALAT       =     2.4612000000
 C/A-ratio  =     2.7254591256
  
  Lattice vectors:
  
 A1 = (   2.4612000000,   0.0000000000,   0.0000000000)
 A2 = (  -1.2306000000,   2.1314617238,   0.0000000000)
 A3 = (   0.0000000000,   0.0000000000,   6.7079000000)
 Subroutine PRICEL returns:
 Original cell was already a primitive cell.
 

Analysis of symmetry for initial positions (statically):

 Routine SETGRP: Setting up the symmetry group for a 
 hexagonal supercell.


 Subroutine GETGRP returns: Found 24 space group operations
 (whereof 12 operations were pure point group operations)
 out of a pool of 24 trial point group operations.


The static configuration has the point symmetry D_3h.
 The point group associated with its full space group is D_6h.

Analysis of symmetry for dynamics (positions and initial velocities):

 Subroutine DYNSYM returns: Found 24 space group operations
 (whereof 12 operations were pure point group operations)
 out of a pool of 24 trial space group operations
 (whereof 12 operations were pure point group operations)
 and found also     1 'primitive' translations


The dynamic configuration has the point symmetry D_3h.
 The point group associated with its full space group is D_6h.

Analysis of magnetic symmetry:

 Subroutine MAGSYM returns: Found 24 space group operations
 (whereof 12 operations were pure point group operations)
 out of a pool of 24 trial space group operations
 (whereof 12 operations were pure point group operations)
 and found also     1 'primitive' translations


The magnetic configuration has the point symmetry D_3h.
 The point group associated with its full space group is D_6h.
 
 
 KPOINTS: KPOINTS created by Atomic Simulation Env

Automatic generation of k-mesh.
 
 Subroutine IBZKPT returns following result:
 ===========================================
 
 Found    270 irreducible k-points:
 
 Following reciprocal coordinates:
            Coordinates               Weight
  0.000000  0.000000  0.000000      1.000000
  0.062500  0.000000  0.000000      6.000000
  0.125000  0.000000  0.000000      6.000000
  0.187500  0.000000  0.000000      6.000000
  0.250000  0.000000  0.000000      6.000000
  0.312500  0.000000  0.000000      6.000000
  0.375000  0.000000  0.000000      6.000000
  0.437500  0.000000  0.000000      6.000000
  0.500000  0.000000  0.000000      3.000000
  0.062500  0.062500  0.000000      6.000000
  0.125000  0.062500  0.000000     12.000000
  0.187500  0.062500  0.000000     12.000000
  0.250000  0.062500  0.000000     12.000000
  0.312500  0.062500  0.000000     12.000000
  0.375000  0.062500  0.000000     12.000000
  0.437500  0.062500  0.000000     12.000000
  0.125000  0.125000  0.000000      6.000000
  0.187500  0.125000  0.000000     12.000000
  0.250000  0.125000  0.000000     12.000000
  0.312500  0.125000  0.000000     12.000000
  0.375000  0.125000  0.000000     12.000000
  0.437500  0.125000  0.000000      6.000000
  0.187500  0.187500  0.000000      6.000000
  0.250000  0.187500  0.000000     12.000000
  0.312500  0.187500  0.000000     12.000000
  0.375000  0.187500  0.000000     12.000000
  0.250000  0.250000  0.000000      6.000000
  0.312500  0.250000  0.000000     12.000000
  0.375000  0.250000  0.000000      6.000000
  0.312500  0.312500  0.000000      6.000000
  0.000000  0.000000  0.062500      2.000000
  0.062500  0.000000  0.062500     12.000000
  0.125000  0.000000  0.062500     12.000000
  0.187500  0.000000  0.062500     12.000000
  0.250000  0.000000  0.062500     12.000000
  0.312500  0.000000  0.062500     12.000000
  0.375000  0.000000  0.062500     12.000000
  0.437500  0.000000  0.062500     12.000000
  0.500000  0.000000  0.062500      6.000000
  0.062500  0.062500  0.062500     12.000000
  0.125000  0.062500  0.062500     24.000000
  0.187500  0.062500  0.062500     24.000000
  0.250000  0.062500  0.062500     24.000000
  0.312500  0.062500  0.062500     24.000000
  0.375000  0.062500  0.062500     24.000000
  0.437500  0.062500  0.062500     24.000000
  0.125000  0.125000  0.062500     12.000000
  0.187500  0.125000  0.062500     24.000000
  0.250000  0.125000  0.062500     24.000000
  0.312500  0.125000  0.062500     24.000000
  0.375000  0.125000  0.062500     24.000000
  0.437500  0.125000  0.062500     12.000000
  0.187500  0.187500  0.062500     12.000000
  0.250000  0.187500  0.062500     24.000000
  0.312500  0.187500  0.062500     24.000000
  0.375000  0.187500  0.062500     24.000000
  0.250000  0.250000  0.062500     12.000000
  0.312500  0.250000  0.062500     24.000000
  0.375000  0.250000  0.062500     12.000000
  0.312500  0.312500  0.062500     12.000000
  0.000000  0.000000  0.125000      2.000000
  0.062500  0.000000  0.125000     12.000000
  0.125000  0.000000  0.125000     12.000000
  0.187500  0.000000  0.125000     12.000000
  0.250000  0.000000  0.125000     12.000000
  0.312500  0.000000  0.125000     12.000000
  0.375000  0.000000  0.125000     12.000000
  0.437500  0.000000  0.125000     12.000000
  0.500000  0.000000  0.125000      6.000000
  0.062500  0.062500  0.125000     12.000000
  0.125000  0.062500  0.125000     24.000000
  0.187500  0.062500  0.125000     24.000000
  0.250000  0.062500  0.125000     24.000000
  0.312500  0.062500  0.125000     24.000000
  0.375000  0.062500  0.125000     24.000000
  0.437500  0.062500  0.125000     24.000000
  0.125000  0.125000  0.125000     12.000000
  0.187500  0.125000  0.125000     24.000000
  0.250000  0.125000  0.125000     24.000000
  0.312500  0.125000  0.125000     24.000000
  0.375000  0.125000  0.125000     24.000000
  0.437500  0.125000  0.125000     12.000000
  0.187500  0.187500  0.125000     12.000000
  0.250000  0.187500  0.125000     24.000000
  0.312500  0.187500  0.125000     24.000000
  0.375000  0.187500  0.125000     24.000000
  0.250000  0.250000  0.125000     12.000000
  0.312500  0.250000  0.125000     24.000000
  0.375000  0.250000  0.125000     12.000000
  0.312500  0.312500  0.125000     12.000000
  0.000000  0.000000  0.187500      2.000000
  0.062500  0.000000  0.187500     12.000000
  0.125000  0.000000  0.187500     12.000000
  0.187500  0.000000  0.187500     12.000000
  0.250000  0.000000  0.187500     12.000000
  0.312500  0.000000  0.187500     12.000000
  0.375000  0.000000  0.187500     12.000000
  0.437500  0.000000  0.187500     12.000000
  0.500000  0.000000  0.187500      6.000000
  0.062500  0.062500  0.187500     12.000000
  0.125000  0.062500  0.187500     24.000000
  0.187500  0.062500  0.187500     24.000000
  0.250000  0.062500  0.187500     24.000000
  0.312500  0.062500  0.187500     24.000000
  0.375000  0.062500  0.187500     24.000000
  0.437500  0.062500  0.187500     24.000000
  0.125000  0.125000  0.187500     12.000000
  0.187500  0.125000  0.187500     24.000000
  0.250000  0.125000  0.187500     24.000000
  0.312500  0.125000  0.187500     24.000000
  0.375000  0.125000  0.187500     24.000000
  0.437500  0.125000  0.187500     12.000000
  0.187500  0.187500  0.187500     12.000000
  0.250000  0.187500  0.187500     24.000000
  0.312500  0.187500  0.187500     24.000000
  0.375000  0.187500  0.187500     24.000000
  0.250000  0.250000  0.187500     12.000000
  0.312500  0.250000  0.187500     24.000000
  0.375000  0.250000  0.187500     12.000000
  0.312500  0.312500  0.187500     12.000000
  0.000000  0.000000  0.250000      2.000000
  0.062500  0.000000  0.250000     12.000000
  0.125000  0.000000  0.250000     12.000000
  0.187500  0.000000  0.250000     12.000000
  0.250000  0.000000  0.250000     12.000000
  0.312500  0.000000  0.250000     12.000000
  0.375000  0.000000  0.250000     12.000000
  0.437500  0.000000  0.250000     12.000000
  0.500000  0.000000  0.250000      6.000000
  0.062500  0.062500  0.250000     12.000000
  0.125000  0.062500  0.250000     24.000000
  0.187500  0.062500  0.250000     24.000000
  0.250000  0.062500  0.250000     24.000000
  0.312500  0.062500  0.250000     24.000000
  0.375000  0.062500  0.250000     24.000000
  0.437500  0.062500  0.250000     24.000000
  0.125000  0.125000  0.250000     12.000000
  0.187500  0.125000  0.250000     24.000000
  0.250000  0.125000  0.250000     24.000000
  0.312500  0.125000  0.250000     24.000000
  0.375000  0.125000  0.250000     24.000000
  0.437500  0.125000  0.250000     12.000000
  0.187500  0.187500  0.250000     12.000000
  0.250000  0.187500  0.250000     24.000000
  0.312500  0.187500  0.250000     24.000000
  0.375000  0.187500  0.250000     24.000000
  0.250000  0.250000  0.250000     12.000000
  0.312500  0.250000  0.250000     24.000000
  0.375000  0.250000  0.250000     12.000000
  0.312500  0.312500  0.250000     12.000000
  0.000000  0.000000  0.312500      2.000000
  0.062500  0.000000  0.312500     12.000000
  0.125000  0.000000  0.312500     12.000000
  0.187500  0.000000  0.312500     12.000000
  0.250000  0.000000  0.312500     12.000000
  0.312500  0.000000  0.312500     12.000000
  0.375000  0.000000  0.312500     12.000000
  0.437500  0.000000  0.312500     12.000000
  0.500000  0.000000  0.312500      6.000000
  0.062500  0.062500  0.312500     12.000000
  0.125000  0.062500  0.312500     24.000000
  0.187500  0.062500  0.312500     24.000000
  0.250000  0.062500  0.312500     24.000000
  0.312500  0.062500  0.312500     24.000000
  0.375000  0.062500  0.312500     24.000000
  0.437500  0.062500  0.312500     24.000000
  0.125000  0.125000  0.312500     12.000000
  0.187500  0.125000  0.312500     24.000000
  0.250000  0.125000  0.312500     24.000000
  0.312500  0.125000  0.312500     24.000000
  0.375000  0.125000  0.312500     24.000000
  0.437500  0.125000  0.312500     12.000000
  0.187500  0.187500  0.312500     12.000000
  0.250000  0.187500  0.312500     24.000000
  0.312500  0.187500  0.312500     24.000000
  0.375000  0.187500  0.312500     24.000000
  0.250000  0.250000  0.312500     12.000000
  0.312500  0.250000  0.312500     24.000000
  0.375000  0.250000  0.312500     12.000000
  0.312500  0.312500  0.312500     12.000000
  0.000000  0.000000  0.375000      2.000000
  0.062500  0.000000  0.375000     12.000000
  0.125000  0.000000  0.375000     12.000000
  0.187500  0.000000  0.375000     12.000000
  0.250000  0.000000  0.375000     12.000000
  0.312500  0.000000  0.375000     12.000000
  0.375000  0.000000  0.375000     12.000000
  0.437500  0.000000  0.375000     12.000000
  0.500000  0.000000  0.375000      6.000000
  0.062500  0.062500  0.375000     12.000000
  0.125000  0.062500  0.375000     24.000000
  0.187500  0.062500  0.375000     24.000000
  0.250000  0.062500  0.375000     24.000000
  0.312500  0.062500  0.375000     24.000000
  0.375000  0.062500  0.375000     24.000000
  0.437500  0.062500  0.375000     24.000000
  0.125000  0.125000  0.375000     12.000000
  0.187500  0.125000  0.375000     24.000000
  0.250000  0.125000  0.375000     24.000000
  0.312500  0.125000  0.375000     24.000000
  0.375000  0.125000  0.375000     24.000000
  0.437500  0.125000  0.375000     12.000000
  0.187500  0.187500  0.375000     12.000000
  0.250000  0.187500  0.375000     24.000000
  0.312500  0.187500  0.375000     24.000000
  0.375000  0.187500  0.375000     24.000000
  0.250000  0.250000  0.375000     12.000000
  0.312500  0.250000  0.375000     24.000000
  0.375000  0.250000  0.375000     12.000000
  0.312500  0.312500  0.375000     12.000000
  0.000000  0.000000  0.437500      2.000000
  0.062500  0.000000  0.437500     12.000000
  0.125000  0.000000  0.437500     12.000000
  0.187500  0.000000  0.437500     12.000000
  0.250000  0.000000  0.437500     12.000000
  0.312500  0.000000  0.437500     12.000000
  0.375000  0.000000  0.437500     12.000000
  0.437500  0.000000  0.437500     12.000000
  0.500000  0.000000  0.437500      6.000000
  0.062500  0.062500  0.437500     12.000000
  0.125000  0.062500  0.437500     24.000000
  0.187500  0.062500  0.437500     24.000000
  0.250000  0.062500  0.437500     24.000000
  0.312500  0.062500  0.437500     24.000000
  0.375000  0.062500  0.437500     24.000000
  0.437500  0.062500  0.437500     24.000000
  0.125000  0.125000  0.437500     12.000000
  0.187500  0.125000  0.437500     24.000000
  0.250000  0.125000  0.437500     24.000000
  0.312500  0.125000  0.437500     24.000000
  0.375000  0.125000  0.437500     24.000000
  0.437500  0.125000  0.437500     12.000000
  0.187500  0.187500  0.437500     12.000000
  0.250000  0.187500  0.437500     24.000000
  0.312500  0.187500  0.437500     24.000000
  0.375000  0.187500  0.437500     24.000000
  0.250000  0.250000  0.437500     12.000000
  0.312500  0.250000  0.437500     24.000000
  0.375000  0.250000  0.437500     12.000000
  0.312500  0.312500  0.437500     12.000000
  0.000000  0.000000  0.500000      1.000000
  0.062500  0.000000  0.500000      6.000000
  0.125000  0.000000  0.500000      6.000000
  0.187500  0.000000  0.500000      6.000000
  0.250000  0.000000  0.500000      6.000000
  0.312500  0.000000  0.500000      6.000000
  0.375000  0.000000  0.500000      6.000000
  0.437500  0.000000  0.500000      6.000000
  0.500000  0.000000  0.500000      3.000000
  0.062500  0.062500  0.500000      6.000000
  0.125000  0.062500  0.500000     12.000000
  0.187500  0.062500  0.500000     12.000000
  0.250000  0.062500  0.500000     12.000000
  0.312500  0.062500  0.500000     12.000000
  0.375000  0.062500  0.500000     12.000000
  0.437500  0.062500  0.500000     12.000000
  0.125000  0.125000  0.500000      6.000000
  0.187500  0.125000  0.500000     12.000000
  0.250000  0.125000  0.500000     12.000000
  0.312500  0.125000  0.500000     12.000000
  0.375000  0.125000  0.500000     12.000000
  0.437500  0.125000  0.500000      6.000000
  0.187500  0.187500  0.500000      6.000000
  0.250000  0.187500  0.500000     12.000000
  0.312500  0.187500  0.500000     12.000000
  0.375000  0.187500  0.500000     12.000000
  0.250000  0.250000  0.500000      6.000000
  0.312500  0.250000  0.500000     12.000000
  0.375000  0.250000  0.500000      6.000000
  0.312500  0.312500  0.500000      6.000000
 
 Following cartesian coordinates:
            Coordinates               Weight
  0.000000  0.000000  0.000000      1.000000
  0.025394  0.014661  0.000000      6.000000
  0.050788  0.029323  0.000000      6.000000
  0.076182  0.043984  0.000000      6.000000
  0.101576  0.058645  0.000000      6.000000
  0.126971  0.073307  0.000000      6.000000
  0.152365  0.087968  0.000000      6.000000
  0.177759  0.102629  0.000000      6.000000
  0.203153  0.117290  0.000000      3.000000
  0.025394  0.043984  0.000000      6.000000
  0.050788  0.058645  0.000000     12.000000
  0.076182  0.073307  0.000000     12.000000
  0.101576  0.087968  0.000000     12.000000
  0.126971  0.102629  0.000000     12.000000
  0.152365  0.117290  0.000000     12.000000
  0.177759  0.131952  0.000000     12.000000
  0.050788  0.087968  0.000000      6.000000
  0.076182  0.102629  0.000000     12.000000
  0.101576  0.117290  0.000000     12.000000
  0.126971  0.131952  0.000000     12.000000
  0.152365  0.146613  0.000000     12.000000
  0.177759  0.161274  0.000000      6.000000
  0.076182  0.131952  0.000000      6.000000
  0.101576  0.146613  0.000000     12.000000
  0.126971  0.161274  0.000000     12.000000
  0.152365  0.175936  0.000000     12.000000
  0.101576  0.175936  0.000000      6.000000
  0.126971  0.190597  0.000000     12.000000
  0.152365  0.205258  0.000000      6.000000
  0.126971  0.219920  0.000000      6.000000
  0.000000  0.000000  0.009317      2.000000
  0.025394  0.014661  0.009317     12.000000
  0.050788  0.029323  0.009317     12.000000
  0.076182  0.043984  0.009317     12.000000
  0.101576  0.058645  0.009317     12.000000
  0.126971  0.073307  0.009317     12.000000
  0.152365  0.087968  0.009317     12.000000
  0.177759  0.102629  0.009317     12.000000
  0.203153  0.117290  0.009317      6.000000
  0.025394  0.043984  0.009317     12.000000
  0.050788  0.058645  0.009317     24.000000
  0.076182  0.073307  0.009317     24.000000
  0.101576  0.087968  0.009317     24.000000
  0.126971  0.102629  0.009317     24.000000
  0.152365  0.117290  0.009317     24.000000
  0.177759  0.131952  0.009317     24.000000
  0.050788  0.087968  0.009317     12.000000
  0.076182  0.102629  0.009317     24.000000
  0.101576  0.117290  0.009317     24.000000
  0.126971  0.131952  0.009317     24.000000
  0.152365  0.146613  0.009317     24.000000
  0.177759  0.161274  0.009317     12.000000
  0.076182  0.131952  0.009317     12.000000
  0.101576  0.146613  0.009317     24.000000
  0.126971  0.161274  0.009317     24.000000
  0.152365  0.175936  0.009317     24.000000
  0.101576  0.175936  0.009317     12.000000
  0.126971  0.190597  0.009317     24.000000
  0.152365  0.205258  0.009317     12.000000
  0.126971  0.219920  0.009317     12.000000
  0.000000  0.000000  0.018635      2.000000
  0.025394  0.014661  0.018635     12.000000
  0.050788  0.029323  0.018635     12.000000
  0.076182  0.043984  0.018635     12.000000
  0.101576  0.058645  0.018635     12.000000
  0.126971  0.073307  0.018635     12.000000
  0.152365  0.087968  0.018635     12.000000
  0.177759  0.102629  0.018635     12.000000
  0.203153  0.117290  0.018635      6.000000
  0.025394  0.043984  0.018635     12.000000
  0.050788  0.058645  0.018635     24.000000
  0.076182  0.073307  0.018635     24.000000
  0.101576  0.087968  0.018635     24.000000
  0.126971  0.102629  0.018635     24.000000
  0.152365  0.117290  0.018635     24.000000
  0.177759  0.131952  0.018635     24.000000
  0.050788  0.087968  0.018635     12.000000
  0.076182  0.102629  0.018635     24.000000
  0.101576  0.117290  0.018635     24.000000
  0.126971  0.131952  0.018635     24.000000
  0.152365  0.146613  0.018635     24.000000
  0.177759  0.161274  0.018635     12.000000
  0.076182  0.131952  0.018635     12.000000
  0.101576  0.146613  0.018635     24.000000
  0.126971  0.161274  0.018635     24.000000
  0.152365  0.175936  0.018635     24.000000
  0.101576  0.175936  0.018635     12.000000
  0.126971  0.190597  0.018635     24.000000
  0.152365  0.205258  0.018635     12.000000
  0.126971  0.219920  0.018635     12.000000
  0.000000  0.000000  0.027952      2.000000
  0.025394  0.014661  0.027952     12.000000
  0.050788  0.029323  0.027952     12.000000
  0.076182  0.043984  0.027952     12.000000
  0.101576  0.058645  0.027952     12.000000
  0.126971  0.073307  0.027952     12.000000
  0.152365  0.087968  0.027952     12.000000
  0.177759  0.102629  0.027952     12.000000
  0.203153  0.117290  0.027952      6.000000
  0.025394  0.043984  0.027952     12.000000
  0.050788  0.058645  0.027952     24.000000
  0.076182  0.073307  0.027952     24.000000
  0.101576  0.087968  0.027952     24.000000
  0.126971  0.102629  0.027952     24.000000
  0.152365  0.117290  0.027952     24.000000
  0.177759  0.131952  0.027952     24.000000
  0.050788  0.087968  0.027952     12.000000
  0.076182  0.102629  0.027952     24.000000
  0.101576  0.117290  0.027952     24.000000
  0.126971  0.131952  0.027952     24.000000
  0.152365  0.146613  0.027952     24.000000
  0.177759  0.161274  0.027952     12.000000
  0.076182  0.131952  0.027952     12.000000
  0.101576  0.146613  0.027952     24.000000
  0.126971  0.161274  0.027952     24.000000
  0.152365  0.175936  0.027952     24.000000
  0.101576  0.175936  0.027952     12.000000
  0.126971  0.190597  0.027952     24.000000
  0.152365  0.205258  0.027952     12.000000
  0.126971  0.219920  0.027952     12.000000
  0.000000  0.000000  0.037269      2.000000
  0.025394  0.014661  0.037269     12.000000
  0.050788  0.029323  0.037269     12.000000
  0.076182  0.043984  0.037269     12.000000
  0.101576  0.058645  0.037269     12.000000
  0.126971  0.073307  0.037269     12.000000
  0.152365  0.087968  0.037269     12.000000
  0.177759  0.102629  0.037269     12.000000
  0.203153  0.117290  0.037269      6.000000
  0.025394  0.043984  0.037269     12.000000
  0.050788  0.058645  0.037269     24.000000
  0.076182  0.073307  0.037269     24.000000
  0.101576  0.087968  0.037269     24.000000
  0.126971  0.102629  0.037269     24.000000
  0.152365  0.117290  0.037269     24.000000
  0.177759  0.131952  0.037269     24.000000
  0.050788  0.087968  0.037269     12.000000
  0.076182  0.102629  0.037269     24.000000
  0.101576  0.117290  0.037269     24.000000
  0.126971  0.131952  0.037269     24.000000
  0.152365  0.146613  0.037269     24.000000
  0.177759  0.161274  0.037269     12.000000
  0.076182  0.131952  0.037269     12.000000
  0.101576  0.146613  0.037269     24.000000
  0.126971  0.161274  0.037269     24.000000
  0.152365  0.175936  0.037269     24.000000
  0.101576  0.175936  0.037269     12.000000
  0.126971  0.190597  0.037269     24.000000
  0.152365  0.205258  0.037269     12.000000
  0.126971  0.219920  0.037269     12.000000
  0.000000  0.000000  0.046587      2.000000
  0.025394  0.014661  0.046587     12.000000
  0.050788  0.029323  0.046587     12.000000
  0.076182  0.043984  0.046587     12.000000
  0.101576  0.058645  0.046587     12.000000
  0.126971  0.073307  0.046587     12.000000
  0.152365  0.087968  0.046587     12.000000
  0.177759  0.102629  0.046587     12.000000
  0.203153  0.117290  0.046587      6.000000
  0.025394  0.043984  0.046587     12.000000
  0.050788  0.058645  0.046587     24.000000
  0.076182  0.073307  0.046587     24.000000
  0.101576  0.087968  0.046587     24.000000
  0.126971  0.102629  0.046587     24.000000
  0.152365  0.117290  0.046587     24.000000
  0.177759  0.131952  0.046587     24.000000
  0.050788  0.087968  0.046587     12.000000
  0.076182  0.102629  0.046587     24.000000
  0.101576  0.117290  0.046587     24.000000
  0.126971  0.131952  0.046587     24.000000
  0.152365  0.146613  0.046587     24.000000
  0.177759  0.161274  0.046587     12.000000
  0.076182  0.131952  0.046587     12.000000
  0.101576  0.146613  0.046587     24.000000
  0.126971  0.161274  0.046587     24.000000
  0.152365  0.175936  0.046587     24.000000
  0.101576  0.175936  0.046587     12.000000
  0.126971  0.190597  0.046587     24.000000
  0.152365  0.205258  0.046587     12.000000
  0.126971  0.219920  0.046587     12.000000
  0.000000  0.000000  0.055904      2.000000
  0.025394  0.014661  0.055904     12.000000
  0.050788  0.029323  0.055904     12.000000
  0.076182  0.043984  0.055904     12.000000
  0.101576  0.058645  0.055904     12.000000
  0.126971  0.073307  0.055904     12.000000
  0.152365  0.087968  0.055904     12.000000
  0.177759  0.102629  0.055904     12.000000
  0.203153  0.117290  0.055904      6.000000
  0.025394  0.043984  0.055904     12.000000
  0.050788  0.058645  0.055904     24.000000
  0.076182  0.073307  0.055904     24.000000
  0.101576  0.087968  0.055904     24.000000
  0.126971  0.102629  0.055904     24.000000
  0.152365  0.117290  0.055904     24.000000
  0.177759  0.131952  0.055904     24.000000
  0.050788  0.087968  0.055904     12.000000
  0.076182  0.102629  0.055904     24.000000
  0.101576  0.117290  0.055904     24.000000
  0.126971  0.131952  0.055904     24.000000
  0.152365  0.146613  0.055904     24.000000
  0.177759  0.161274  0.055904     12.000000
  0.076182  0.131952  0.055904     12.000000
  0.101576  0.146613  0.055904     24.000000
  0.126971  0.161274  0.055904     24.000000
  0.152365  0.175936  0.055904     24.000000
  0.101576  0.175936  0.055904     12.000000
  0.126971  0.190597  0.055904     24.000000
  0.152365  0.205258  0.055904     12.000000
  0.126971  0.219920  0.055904     12.000000
  0.000000  0.000000  0.065222      2.000000
  0.025394  0.014661  0.065222     12.000000
  0.050788  0.029323  0.065222     12.000000
  0.076182  0.043984  0.065222     12.000000
  0.101576  0.058645  0.065222     12.000000
  0.126971  0.073307  0.065222     12.000000
  0.152365  0.087968  0.065222     12.000000
  0.177759  0.102629  0.065222     12.000000
  0.203153  0.117290  0.065222      6.000000
  0.025394  0.043984  0.065222     12.000000
  0.050788  0.058645  0.065222     24.000000
  0.076182  0.073307  0.065222     24.000000
  0.101576  0.087968  0.065222     24.000000
  0.126971  0.102629  0.065222     24.000000
  0.152365  0.117290  0.065222     24.000000
  0.177759  0.131952  0.065222     24.000000
  0.050788  0.087968  0.065222     12.000000
  0.076182  0.102629  0.065222     24.000000
  0.101576  0.117290  0.065222     24.000000
  0.126971  0.131952  0.065222     24.000000
  0.152365  0.146613  0.065222     24.000000
  0.177759  0.161274  0.065222     12.000000
  0.076182  0.131952  0.065222     12.000000
  0.101576  0.146613  0.065222     24.000000
  0.126971  0.161274  0.065222     24.000000
  0.152365  0.175936  0.065222     24.000000
  0.101576  0.175936  0.065222     12.000000
  0.126971  0.190597  0.065222     24.000000
  0.152365  0.205258  0.065222     12.000000
  0.126971  0.219920  0.065222     12.000000
  0.000000  0.000000  0.074539      1.000000
  0.025394  0.014661  0.074539      6.000000
  0.050788  0.029323  0.074539      6.000000
  0.076182  0.043984  0.074539      6.000000
  0.101576  0.058645  0.074539      6.000000
  0.126971  0.073307  0.074539      6.000000
  0.152365  0.087968  0.074539      6.000000
  0.177759  0.102629  0.074539      6.000000
  0.203153  0.117290  0.074539      3.000000
  0.025394  0.043984  0.074539      6.000000
  0.050788  0.058645  0.074539     12.000000
  0.076182  0.073307  0.074539     12.000000
  0.101576  0.087968  0.074539     12.000000
  0.126971  0.102629  0.074539     12.000000
  0.152365  0.117290  0.074539     12.000000
  0.177759  0.131952  0.074539     12.000000
  0.050788  0.087968  0.074539      6.000000
  0.076182  0.102629  0.074539     12.000000
  0.101576  0.117290  0.074539     12.000000
  0.126971  0.131952  0.074539     12.000000
  0.152365  0.146613  0.074539     12.000000
  0.177759  0.161274  0.074539      6.000000
  0.076182  0.131952  0.074539      6.000000
  0.101576  0.146613  0.074539     12.000000
  0.126971  0.161274  0.074539     12.000000
  0.152365  0.175936  0.074539     12.000000
  0.101576  0.175936  0.074539      6.000000
  0.126971  0.190597  0.074539     12.000000
  0.152365  0.205258  0.074539      6.000000
  0.126971  0.219920  0.074539      6.000000
 


--------------------------------------------------------------------------------------------------------




 Dimension of arrays:
   k-points           NKPTS =    270   k-points in BZ     NKDIM =    270   number of bands    NBANDS=     14
   number of dos      NEDOS =    301   number of ions     NIONS =      4
   non local maximal  LDIM  =      4   non local SUM 2l+1 LMDIM =      8
   total plane-waves  NPLWV =  10752
   max r-space proj   IRMAX =      1   max aug-charges    IRDMAX=   3805
   dimension x,y,z NGX =    16 NGY =   16 NGZ =   42
   dimension x,y,z NGXF=    32 NGYF=   32 NGZF=   84
   support grid    NGXF=    32 NGYF=   32 NGZF=   84
   ions per type =               4
 NGX,Y,Z   is equivalent  to a cutoff of  10.81, 10.81, 10.41 a.u.
 NGXF,Y,Z  is equivalent  to a cutoff of  21.61, 21.61, 20.82 a.u.


 I would recommend the setting:
   dimension x,y,z NGX =    15 NGY =   15 NGZ =   41
 SYSTEM =  unknown system                          
 POSCAR =   C                                      

 Startparameter for this run:
   NWRITE =      2    write-flag & timer
   PREC   = accura    normal or accurate (medium, high low for compatibility)
   ISTART =      0    job   : 0-new  1-cont  2-samecut
   ICHARG =      2    charge: 1-file 2-atom 10-const
   ISPIN  =      2    spin polarized calculation?
   LNONCOLLINEAR =      F non collinear calculations
   LSORBIT =      F    spin-orbit coupling
   INIWAV =      1    electr: 0-lowe 1-rand  2-diag
   LASPH  =      F    aspherical Exc in radial PAW
   METAGGA=      F    non-selfconsistent MetaGGA calc.

 Electronic Relaxation 1
   ENCUT  =  350.0 eV  25.72 Ry    5.07 a.u.   3.75  3.75 10.23*2*pi/ulx,y,z
   ENINI  =  350.0     initial cutoff
   ENAUG  =  644.9 eV  augmentation charge cutoff
   NELM   =     60;   NELMIN=  2; NELMDL= -5     # of ELM steps 
   EDIFF  = 0.1E-03   stopping-criterion for ELM
   LREAL  =      F    real-space projection
   NLSPLINE    = F    spline interpolate recip. space projectors
   LCOMPAT=      F    compatible to vasp.4.4
   GGA_COMPAT  = T    GGA compatible to vasp.4.4-vasp.4.6
   LMAXPAW     = -100 max onsite density
   LMAXMIX     =    2 max onsite mixed and CHGCAR
   VOSKOWN=      0    Vosko Wilk Nusair interpolation
   ROPT   =    0.00000
 Ionic relaxation
   EDIFFG = 0.1E-02   stopping-criterion for IOM
   NSW    =      0    number of steps for IOM
   NBLOCK =      1;   KBLOCK =      1    inner block; outer block 
   IBRION =     -1    ionic relax: 0-MD 1-quasi-New 2-CG
   NFREE  =      0    steps in history (QN), initial steepest desc. (CG)
   ISIF   =      2    stress and relaxation
   IWAVPR =     10    prediction:  0-non 1-charg 2-wave 3-comb
   ISYM   =      2    0-nonsym 1-usesym 2-fastsym
   LCORR  =      T    Harris-Foulkes like correction to forces

   POTIM  = 0.5000    time-step for ionic-motion
   TEIN   =    0.0    initial temperature
   TEBEG  =    0.0;   TEEND  =   0.0 temperature during run
   SMASS  =  -3.00    Nose mass-parameter (am)
   estimated Nose-frequenzy (Omega)   =  0.10E-29 period in steps =****** mass=  -0.138E-27a.u.
   SCALEE = 1.0000    scale energy and forces
   NPACO  =    256;   APACO  = 16.0  distance and # of slots for P.C.
   PSTRESS=    0.0 pullay stress

  Mass of Ions in am
   POMASS =  12.01
  Ionic Valenz
   ZVAL   =   4.00
  Atomic Wigner-Seitz radii
   RWIGS  =  -1.00
  virtual crystal weights 
   VCA    =   1.00
   NELECT =      16.0000    total number of electrons
   NUPDOWN=      -1.0000    fix difference up-down

 DOS related values:
   EMIN   =  10.00;   EMAX   =-10.00  energy-range for DOS
   EFERMI =   0.00
   ISMEAR =     1;   SIGMA  =   0.05  broadening in eV -4-tet -1-fermi 0-gaus

 Electronic relaxation 2 (details)
   IALGO  =     38    algorithm
   LDIAG  =      T    sub-space diagonalisation (order eigenvalues)
   LSUBROT=      T    optimize rotation matrix (better conditioning)
   TURBO    =      0    0=normal 1=particle mesh
   IRESTART =      0    0=no restart 2=restart with 2 vectors
   NREBOOT  =      0    no. of reboots
   NMIN     =      0    reboot dimension
   EREF     =   0.00    reference energy to select bands
   IMIX   =      4    mixing-type and parameters
     AMIX     =   0.40;   BMIX     =  1.00
     AMIX_MAG =   1.60;   BMIX_MAG =  1.00
     AMIN     =   0.10
     WC   =   100.;   INIMIX=   1;  MIXPRE=   1

 Intra band minimization:
   WEIMIN = 0.0000     energy-eigenvalue tresh-hold
   EBREAK =  0.18E-05  absolut break condition
   DEPER  =   0.30     relativ break condition  

   TIME   =   0.40     timestep for ELM

  volume/ion in A,a.u.               =       8.80        59.37
  Fermi-wavevector in a.u.,A,eV,Ry     =   1.258861  2.378903 21.561578  1.584731
  Thomas-Fermi vector in A             =   2.392450
 
 Write flags
   LWAVE  =      T    write WAVECAR
   LCHARG =      T    write CHGCAR
   LVTOT  =      F    write LOCPOT, total local potential
   LVHAR  =      F    write LOCPOT, Hartree potential only
   LELF   =      F    write electronic localiz. function (ELF)
   LORBIT =     11    0 simple, 1 ext, 2 COOP (PROOUT)


 Dipole corrections
   LMONO  =      F    monopole corrections only (constant potential shift)
   LDIPOL =      F    correct potential (dipole corrections)
   IDIPOL =      0    1-x, 2-y, 3-z, 4-all directions 
   EPSILON=  1.0000000 bulk dielectric constant

 Exchange correlation treatment:
   GGA     =    --    GGA type
   LEXCH   =     8    internal setting for exchange type
   VOSKOWN=      0    Vosko Wilk Nusair interpolation
   LHFCALC =     F    Hartree Fock is set to
   LHFONE  =     F    Hartree Fock one center treatment
   AEXX    =    0.0000 exact exchange contribution

 Linear response parameters
   LEPSILON=     F    determine dielectric tensor
   LRPA    =     F    only Hartree local field effects (RPA)
   LNABLA  =     F    use nabla operator in PAW spheres
   LVEL    =     F    velocity operator in full k-point grid
   LINTERFAST=   F  fast interpolation
   KINTER  =     0    interpolate to denser k-point grid
   CSHIFT  =0.1000    complex shift for real part using Kramers Kronig
   OMEGAMAX=  -1.0    maximum frequency
   RTIME   =    0.100 relaxation time in fs

 Orbital magnetization related:
   ORBITALMAG=     F  switch on orbital magnetization
   LCHIMAG   =     F  perturbation theory with respect to B field
   DQ        =  0.001000  dq finite difference perturbation B field



--------------------------------------------------------------------------------------------------------


 Static calculation
 charge density and potential will be updated during run
 spin polarized calculation
 Variant of blocked Davidson
 Davidson routine will perform the subspace rotation
 perform sub-space diagonalisation
    after iterative eigenvector-optimisation
 modified Broyden-mixing scheme, WC =      100.0
 initial mixing is a Kerker type mixing with AMIX =  0.4000 and BMIX =      1.0000
 Hartree-type preconditioning will be used
 using additional bands            6
 reciprocal scheme for non local part
 calculate Harris-corrections to forces 
   (improved forces if not selfconsistent)
 use gradient corrections 
 use of overlap-Matrix (Vanderbilt PP)
 Methfessel and Paxton  Order N= 1 SIGMA  =   0.05


--------------------------------------------------------------------------------------------------------


  energy-cutoff  :      350.00
  volume of cell :       35.19
      direct lattice vectors                 reciprocal lattice vectors
     2.461200000  0.000000000  0.000000000     0.406305867  0.234580802  0.000000000
    -1.230600000  2.131461724  0.000000000     0.000000000  0.469161603  0.000000000
     0.000000000  0.000000000  6.707900000     0.000000000  0.000000000  0.149077953

  length of vectors
     2.461200000  2.461200000  6.707900000     0.469161603  0.469161603  0.149077953


 
 k-points in units of 2pi/SCALE and weight: KPOINTS created by Atomic Simulation Env
   0.00000000  0.00000000  0.00000000       0.000
   0.02539412  0.01466130  0.00000000       0.001
   0.05078823  0.02932260  0.00000000       0.001
   0.07618235  0.04398390  0.00000000       0.001
   0.10157647  0.05864520  0.00000000       0.001
   0.12697058  0.07330650  0.00000000       0.001
   0.15236470  0.08796780  0.00000000       0.001
   0.17775882  0.10262910  0.00000000       0.001
   0.20315293  0.11729040  0.00000000       0.001
   0.02539412  0.04398390  0.00000000       0.001
   0.05078823  0.05864520  0.00000000       0.003
   0.07618235  0.07330650  0.00000000       0.003
   0.10157647  0.08796780  0.00000000       0.003
   0.12697058  0.10262910  0.00000000       0.003
   0.15236470  0.11729040  0.00000000       0.003
   0.17775882  0.13195170  0.00000000       0.003
   0.05078823  0.08796780  0.00000000       0.001
   0.07618235  0.10262910  0.00000000       0.003
   0.10157647  0.11729040  0.00000000       0.003
   0.12697058  0.13195170  0.00000000       0.003
   0.15236470  0.14661300  0.00000000       0.003
   0.17775882  0.16127430  0.00000000       0.001
   0.07618235  0.13195170  0.00000000       0.001
   0.10157647  0.14661300  0.00000000       0.003
   0.12697058  0.16127430  0.00000000       0.003
   0.15236470  0.17593560  0.00000000       0.003
   0.10157647  0.17593560  0.00000000       0.001
   0.12697058  0.19059690  0.00000000       0.003
   0.15236470  0.20525820  0.00000000       0.001
   0.12697058  0.21991950  0.00000000       0.001
   0.00000000  0.00000000  0.00931737       0.000
   0.02539412  0.01466130  0.00931737       0.003
   0.05078823  0.02932260  0.00931737       0.003
   0.07618235  0.04398390  0.00931737       0.003
   0.10157647  0.05864520  0.00931737       0.003
   0.12697058  0.07330650  0.00931737       0.003
   0.15236470  0.08796780  0.00931737       0.003
   0.17775882  0.10262910  0.00931737       0.003
   0.20315293  0.11729040  0.00931737       0.001
   0.02539412  0.04398390  0.00931737       0.003
   0.05078823  0.05864520  0.00931737       0.006
   0.07618235  0.07330650  0.00931737       0.006
   0.10157647  0.08796780  0.00931737       0.006
   0.12697058  0.10262910  0.00931737       0.006
   0.15236470  0.11729040  0.00931737       0.006
   0.17775882  0.13195170  0.00931737       0.006
   0.05078823  0.08796780  0.00931737       0.003
   0.07618235  0.10262910  0.00931737       0.006
   0.10157647  0.11729040  0.00931737       0.006
   0.12697058  0.13195170  0.00931737       0.006
   0.15236470  0.14661300  0.00931737       0.006
   0.17775882  0.16127430  0.00931737       0.003
   0.07618235  0.13195170  0.00931737       0.003
   0.10157647  0.14661300  0.00931737       0.006
   0.12697058  0.16127430  0.00931737       0.006
   0.15236470  0.17593560  0.00931737       0.006
   0.10157647  0.17593560  0.00931737       0.003
   0.12697058  0.19059690  0.00931737       0.006
   0.15236470  0.20525820  0.00931737       0.003
   0.12697058  0.21991950  0.00931737       0.003
   0.00000000  0.00000000  0.01863474       0.000
   0.02539412  0.01466130  0.01863474       0.003
   0.05078823  0.02932260  0.01863474       0.003
   0.07618235  0.04398390  0.01863474       0.003
   0.10157647  0.05864520  0.01863474       0.003
   0.12697058  0.07330650  0.01863474       0.003
   0.15236470  0.08796780  0.01863474       0.003
   0.17775882  0.10262910  0.01863474       0.003
   0.20315293  0.11729040  0.01863474       0.001
   0.02539412  0.04398390  0.01863474       0.003
   0.05078823  0.05864520  0.01863474       0.006
   0.07618235  0.07330650  0.01863474       0.006
   0.10157647  0.08796780  0.01863474       0.006
   0.12697058  0.10262910  0.01863474       0.006
   0.15236470  0.11729040  0.01863474       0.006
   0.17775882  0.13195170  0.01863474       0.006
   0.05078823  0.08796780  0.01863474       0.003
   0.07618235  0.10262910  0.01863474       0.006
   0.10157647  0.11729040  0.01863474       0.006
   0.12697058  0.13195170  0.01863474       0.006
   0.15236470  0.14661300  0.01863474       0.006
   0.17775882  0.16127430  0.01863474       0.003
   0.07618235  0.13195170  0.01863474       0.003
   0.10157647  0.14661300  0.01863474       0.006
   0.12697058  0.16127430  0.01863474       0.006
   0.15236470  0.17593560  0.01863474       0.006
   0.10157647  0.17593560  0.01863474       0.003
   0.12697058  0.19059690  0.01863474       0.006
   0.15236470  0.20525820  0.01863474       0.003
   0.12697058  0.21991950  0.01863474       0.003
   0.00000000  0.00000000  0.02795212       0.000
   0.02539412  0.01466130  0.02795212       0.003
   0.05078823  0.02932260  0.02795212       0.003
   0.07618235  0.04398390  0.02795212       0.003
   0.10157647  0.05864520  0.02795212       0.003
   0.12697058  0.07330650  0.02795212       0.003
   0.15236470  0.08796780  0.02795212       0.003
   0.17775882  0.10262910  0.02795212       0.003
   0.20315293  0.11729040  0.02795212       0.001
   0.02539412  0.04398390  0.02795212       0.003
   0.05078823  0.05864520  0.02795212       0.006
   0.07618235  0.07330650  0.02795212       0.006
   0.10157647  0.08796780  0.02795212       0.006
   0.12697058  0.10262910  0.02795212       0.006
   0.15236470  0.11729040  0.02795212       0.006
   0.17775882  0.13195170  0.02795212       0.006
   0.05078823  0.08796780  0.02795212       0.003
   0.07618235  0.10262910  0.02795212       0.006
   0.10157647  0.11729040  0.02795212       0.006
   0.12697058  0.13195170  0.02795212       0.006
   0.15236470  0.14661300  0.02795212       0.006
   0.17775882  0.16127430  0.02795212       0.003
   0.07618235  0.13195170  0.02795212       0.003
   0.10157647  0.14661300  0.02795212       0.006
   0.12697058  0.16127430  0.02795212       0.006
   0.15236470  0.17593560  0.02795212       0.006
   0.10157647  0.17593560  0.02795212       0.003
   0.12697058  0.19059690  0.02795212       0.006
   0.15236470  0.20525820  0.02795212       0.003
   0.12697058  0.21991950  0.02795212       0.003
   0.00000000  0.00000000  0.03726949       0.000
   0.02539412  0.01466130  0.03726949       0.003
   0.05078823  0.02932260  0.03726949       0.003
   0.07618235  0.04398390  0.03726949       0.003
   0.10157647  0.05864520  0.03726949       0.003
   0.12697058  0.07330650  0.03726949       0.003
   0.15236470  0.08796780  0.03726949       0.003
   0.17775882  0.10262910  0.03726949       0.003
   0.20315293  0.11729040  0.03726949       0.001
   0.02539412  0.04398390  0.03726949       0.003
   0.05078823  0.05864520  0.03726949       0.006
   0.07618235  0.07330650  0.03726949       0.006
   0.10157647  0.08796780  0.03726949       0.006
   0.12697058  0.10262910  0.03726949       0.006
   0.15236470  0.11729040  0.03726949       0.006
   0.17775882  0.13195170  0.03726949       0.006
   0.05078823  0.08796780  0.03726949       0.003
   0.07618235  0.10262910  0.03726949       0.006
   0.10157647  0.11729040  0.03726949       0.006
   0.12697058  0.13195170  0.03726949       0.006
   0.15236470  0.14661300  0.03726949       0.006
   0.17775882  0.16127430  0.03726949       0.003
   0.07618235  0.13195170  0.03726949       0.003
   0.10157647  0.14661300  0.03726949       0.006
   0.12697058  0.16127430  0.03726949       0.006
   0.15236470  0.17593560  0.03726949       0.006
   0.10157647  0.17593560  0.03726949       0.003
   0.12697058  0.19059690  0.03726949       0.006
   0.15236470  0.20525820  0.03726949       0.003
   0.12697058  0.21991950  0.03726949       0.003
   0.00000000  0.00000000  0.04658686       0.000
   0.02539412  0.01466130  0.04658686       0.003
   0.05078823  0.02932260  0.04658686       0.003
   0.07618235  0.04398390  0.04658686       0.003
   0.10157647  0.05864520  0.04658686       0.003
   0.12697058  0.07330650  0.04658686       0.003
   0.15236470  0.08796780  0.04658686       0.003
   0.17775882  0.10262910  0.04658686       0.003
   0.20315293  0.11729040  0.04658686       0.001
   0.02539412  0.04398390  0.04658686       0.003
   0.05078823  0.05864520  0.04658686       0.006
   0.07618235  0.07330650  0.04658686       0.006
   0.10157647  0.08796780  0.04658686       0.006
   0.12697058  0.10262910  0.04658686       0.006
   0.15236470  0.11729040  0.04658686       0.006
   0.17775882  0.13195170  0.04658686       0.006
   0.05078823  0.08796780  0.04658686       0.003
   0.07618235  0.10262910  0.04658686       0.006
   0.10157647  0.11729040  0.04658686       0.006
   0.12697058  0.13195170  0.04658686       0.006
   0.15236470  0.14661300  0.04658686       0.006
   0.17775882  0.16127430  0.04658686       0.003
   0.07618235  0.13195170  0.04658686       0.003
   0.10157647  0.14661300  0.04658686       0.006
   0.12697058  0.16127430  0.04658686       0.006
   0.15236470  0.17593560  0.04658686       0.006
   0.10157647  0.17593560  0.04658686       0.003
   0.12697058  0.19059690  0.04658686       0.006
   0.15236470  0.20525820  0.04658686       0.003
   0.12697058  0.21991950  0.04658686       0.003
   0.00000000  0.00000000  0.05590423       0.000
   0.02539412  0.01466130  0.05590423       0.003
   0.05078823  0.02932260  0.05590423       0.003
   0.07618235  0.04398390  0.05590423       0.003
   0.10157647  0.05864520  0.05590423       0.003
   0.12697058  0.07330650  0.05590423       0.003
   0.15236470  0.08796780  0.05590423       0.003
   0.17775882  0.10262910  0.05590423       0.003
   0.20315293  0.11729040  0.05590423       0.001
   0.02539412  0.04398390  0.05590423       0.003
   0.05078823  0.05864520  0.05590423       0.006
   0.07618235  0.07330650  0.05590423       0.006
   0.10157647  0.08796780  0.05590423       0.006
   0.12697058  0.10262910  0.05590423       0.006
   0.15236470  0.11729040  0.05590423       0.006
   0.17775882  0.13195170  0.05590423       0.006
   0.05078823  0.08796780  0.05590423       0.003
   0.07618235  0.10262910  0.05590423       0.006
   0.10157647  0.11729040  0.05590423       0.006
   0.12697058  0.13195170  0.05590423       0.006
   0.15236470  0.14661300  0.05590423       0.006
   0.17775882  0.16127430  0.05590423       0.003
   0.07618235  0.13195170  0.05590423       0.003
   0.10157647  0.14661300  0.05590423       0.006
   0.12697058  0.16127430  0.05590423       0.006
   0.15236470  0.17593560  0.05590423       0.006
   0.10157647  0.17593560  0.05590423       0.003
   0.12697058  0.19059690  0.05590423       0.006
   0.15236470  0.20525820  0.05590423       0.003
   0.12697058  0.21991950  0.05590423       0.003
   0.00000000  0.00000000  0.06522160       0.000
   0.02539412  0.01466130  0.06522160       0.003
   0.05078823  0.02932260  0.06522160       0.003
   0.07618235  0.04398390  0.06522160       0.003
   0.10157647  0.05864520  0.06522160       0.003
   0.12697058  0.07330650  0.06522160       0.003
   0.15236470  0.08796780  0.06522160       0.003
   0.17775882  0.10262910  0.06522160       0.003
   0.20315293  0.11729040  0.06522160       0.001
   0.02539412  0.04398390  0.06522160       0.003
   0.05078823  0.05864520  0.06522160       0.006
   0.07618235  0.07330650  0.06522160       0.006
   0.10157647  0.08796780  0.06522160       0.006
   0.12697058  0.10262910  0.06522160       0.006
   0.15236470  0.11729040  0.06522160       0.006
   0.17775882  0.13195170  0.06522160       0.006
   0.05078823  0.08796780  0.06522160       0.003
   0.07618235  0.10262910  0.06522160       0.006
   0.10157647  0.11729040  0.06522160       0.006
   0.12697058  0.13195170  0.06522160       0.006
   0.15236470  0.14661300  0.06522160       0.006
   0.17775882  0.16127430  0.06522160       0.003
   0.07618235  0.13195170  0.06522160       0.003
   0.10157647  0.14661300  0.06522160       0.006
   0.12697058  0.16127430  0.06522160       0.006
   0.15236470  0.17593560  0.06522160       0.006
   0.10157647  0.17593560  0.06522160       0.003
   0.12697058  0.19059690  0.06522160       0.006
   0.15236470  0.20525820  0.06522160       0.003
   0.12697058  0.21991950  0.06522160       0.003
   0.00000000  0.00000000  0.07453898       0.000
   0.02539412  0.01466130  0.07453898       0.001
   0.05078823  0.02932260  0.07453898       0.001
   0.07618235  0.04398390  0.07453898       0.001
   0.10157647  0.05864520  0.07453898       0.001
   0.12697058  0.07330650  0.07453898       0.001
   0.15236470  0.08796780  0.07453898       0.001
   0.17775882  0.10262910  0.07453898       0.001
   0.20315293  0.11729040  0.07453898       0.001
   0.02539412  0.04398390  0.07453898       0.001
   0.05078823  0.05864520  0.07453898       0.003
   0.07618235  0.07330650  0.07453898       0.003
   0.10157647  0.08796780  0.07453898       0.003
   0.12697058  0.10262910  0.07453898       0.003
   0.15236470  0.11729040  0.07453898       0.003
   0.17775882  0.13195170  0.07453898       0.003
   0.05078823  0.08796780  0.07453898       0.001
   0.07618235  0.10262910  0.07453898       0.003
   0.10157647  0.11729040  0.07453898       0.003
   0.12697058  0.13195170  0.07453898       0.003
   0.15236470  0.14661300  0.07453898       0.003
   0.17775882  0.16127430  0.07453898       0.001
   0.07618235  0.13195170  0.07453898       0.001
   0.10157647  0.14661300  0.07453898       0.003
   0.12697058  0.16127430  0.07453898       0.003
   0.15236470  0.17593560  0.07453898       0.003
   0.10157647  0.17593560  0.07453898       0.001
   0.12697058  0.19059690  0.07453898       0.003
   0.15236470  0.20525820  0.07453898       0.001
   0.12697058  0.21991950  0.07453898       0.001
 
 k-points in reciprocal lattice and weights: KPOINTS created by Atomic Simulation Env
   0.00000000  0.00000000  0.00000000       0.000
   0.06250000  0.00000000  0.00000000       0.001
   0.12500000  0.00000000  0.00000000       0.001
   0.18750000  0.00000000  0.00000000       0.001
   0.25000000  0.00000000  0.00000000       0.001
   0.31250000  0.00000000  0.00000000       0.001
   0.37500000  0.00000000  0.00000000       0.001
   0.43750000  0.00000000  0.00000000       0.001
   0.50000000  0.00000000  0.00000000       0.001
   0.06250000  0.06250000  0.00000000       0.001
   0.12500000  0.06250000  0.00000000       0.003
   0.18750000  0.06250000  0.00000000       0.003
   0.25000000  0.06250000  0.00000000       0.003
   0.31250000  0.06250000  0.00000000       0.003
   0.37500000  0.06250000  0.00000000       0.003
   0.43750000  0.06250000  0.00000000       0.003
   0.12500000  0.12500000  0.00000000       0.001
   0.18750000  0.12500000  0.00000000       0.003
   0.25000000  0.12500000  0.00000000       0.003
   0.31250000  0.12500000  0.00000000       0.003
   0.37500000  0.12500000  0.00000000       0.003
   0.43750000  0.12500000  0.00000000       0.001
   0.18750000  0.18750000  0.00000000       0.001
   0.25000000  0.18750000  0.00000000       0.003
   0.31250000  0.18750000  0.00000000       0.003
   0.37500000  0.18750000  0.00000000       0.003
   0.25000000  0.25000000  0.00000000       0.001
   0.31250000  0.25000000  0.00000000       0.003
   0.37500000  0.25000000  0.00000000       0.001
   0.31250000  0.31250000  0.00000000       0.001
   0.00000000  0.00000000  0.06250000       0.000
   0.06250000  0.00000000  0.06250000       0.003
   0.12500000  0.00000000  0.06250000       0.003
   0.18750000  0.00000000  0.06250000       0.003
   0.25000000  0.00000000  0.06250000       0.003
   0.31250000  0.00000000  0.06250000       0.003
   0.37500000  0.00000000  0.06250000       0.003
   0.43750000  0.00000000  0.06250000       0.003
   0.50000000  0.00000000  0.06250000       0.001
   0.06250000  0.06250000  0.06250000       0.003
   0.12500000  0.06250000  0.06250000       0.006
   0.18750000  0.06250000  0.06250000       0.006
   0.25000000  0.06250000  0.06250000       0.006
   0.31250000  0.06250000  0.06250000       0.006
   0.37500000  0.06250000  0.06250000       0.006
   0.43750000  0.06250000  0.06250000       0.006
   0.12500000  0.12500000  0.06250000       0.003
   0.18750000  0.12500000  0.06250000       0.006
   0.25000000  0.12500000  0.06250000       0.006
   0.31250000  0.12500000  0.06250000       0.006
   0.37500000  0.12500000  0.06250000       0.006
   0.43750000  0.12500000  0.06250000       0.003
   0.18750000  0.18750000  0.06250000       0.003
   0.25000000  0.18750000  0.06250000       0.006
   0.31250000  0.18750000  0.06250000       0.006
   0.37500000  0.18750000  0.06250000       0.006
   0.25000000  0.25000000  0.06250000       0.003
   0.31250000  0.25000000  0.06250000       0.006
   0.37500000  0.25000000  0.06250000       0.003
   0.31250000  0.31250000  0.06250000       0.003
   0.00000000  0.00000000  0.12500000       0.000
   0.06250000  0.00000000  0.12500000       0.003
   0.12500000  0.00000000  0.12500000       0.003
   0.18750000  0.00000000  0.12500000       0.003
   0.25000000  0.00000000  0.12500000       0.003
   0.31250000  0.00000000  0.12500000       0.003
   0.37500000  0.00000000  0.12500000       0.003
   0.43750000  0.00000000  0.12500000       0.003
   0.50000000  0.00000000  0.12500000       0.001
   0.06250000  0.06250000  0.12500000       0.003
   0.12500000  0.06250000  0.12500000       0.006
   0.18750000  0.06250000  0.12500000       0.006
   0.25000000  0.06250000  0.12500000       0.006
   0.31250000  0.06250000  0.12500000       0.006
   0.37500000  0.06250000  0.12500000       0.006
   0.43750000  0.06250000  0.12500000       0.006
   0.12500000  0.12500000  0.12500000       0.003
   0.18750000  0.12500000  0.12500000       0.006
   0.25000000  0.12500000  0.12500000       0.006
   0.31250000  0.12500000  0.12500000       0.006
   0.37500000  0.12500000  0.12500000       0.006
   0.43750000  0.12500000  0.12500000       0.003
   0.18750000  0.18750000  0.12500000       0.003
   0.25000000  0.18750000  0.12500000       0.006
   0.31250000  0.18750000  0.12500000       0.006
   0.37500000  0.18750000  0.12500000       0.006
   0.25000000  0.25000000  0.12500000       0.003
   0.31250000  0.25000000  0.12500000       0.006
   0.37500000  0.25000000  0.12500000       0.003
   0.31250000  0.31250000  0.12500000       0.003
   0.00000000  0.00000000  0.18750000       0.000
   0.06250000  0.00000000  0.18750000       0.003
   0.12500000  0.00000000  0.18750000       0.003
   0.18750000  0.00000000  0.18750000       0.003
   0.25000000  0.00000000  0.18750000       0.003
   0.31250000  0.00000000  0.18750000       0.003
   0.37500000  0.00000000  0.18750000       0.003
   0.43750000  0.00000000  0.18750000       0.003
   0.50000000  0.00000000  0.18750000       0.001
   0.06250000  0.06250000  0.18750000       0.003
   0.12500000  0.06250000  0.18750000       0.006
   0.18750000  0.06250000  0.18750000       0.006
   0.25000000  0.06250000  0.18750000       0.006
   0.31250000  0.06250000  0.18750000       0.006
   0.37500000  0.06250000  0.18750000       0.006
   0.43750000  0.06250000  0.18750000       0.006
   0.12500000  0.12500000  0.18750000       0.003
   0.18750000  0.12500000  0.18750000       0.006
   0.25000000  0.12500000  0.18750000       0.006
   0.31250000  0.12500000  0.18750000       0.006
   0.37500000  0.12500000  0.18750000       0.006
   0.43750000  0.12500000  0.18750000       0.003
   0.18750000  0.18750000  0.18750000       0.003
   0.25000000  0.18750000  0.18750000       0.006
   0.31250000  0.18750000  0.18750000       0.006
   0.37500000  0.18750000  0.18750000       0.006
   0.25000000  0.25000000  0.18750000       0.003
   0.31250000  0.25000000  0.18750000       0.006
   0.37500000  0.25000000  0.18750000       0.003
   0.31250000  0.31250000  0.18750000       0.003
   0.00000000  0.00000000  0.25000000       0.000
   0.06250000  0.00000000  0.25000000       0.003
   0.12500000  0.00000000  0.25000000       0.003
   0.18750000  0.00000000  0.25000000       0.003
   0.25000000  0.00000000  0.25000000       0.003
   0.31250000  0.00000000  0.25000000       0.003
   0.37500000  0.00000000  0.25000000       0.003
   0.43750000  0.00000000  0.25000000       0.003
   0.50000000  0.00000000  0.25000000       0.001
   0.06250000  0.06250000  0.25000000       0.003
   0.12500000  0.06250000  0.25000000       0.006
   0.18750000  0.06250000  0.25000000       0.006
   0.25000000  0.06250000  0.25000000       0.006
   0.31250000  0.06250000  0.25000000       0.006
   0.37500000  0.06250000  0.25000000       0.006
   0.43750000  0.06250000  0.25000000       0.006
   0.12500000  0.12500000  0.25000000       0.003
   0.18750000  0.12500000  0.25000000       0.006
   0.25000000  0.12500000  0.25000000       0.006
   0.31250000  0.12500000  0.25000000       0.006
   0.37500000  0.12500000  0.25000000       0.006
   0.43750000  0.12500000  0.25000000       0.003
   0.18750000  0.18750000  0.25000000       0.003
   0.25000000  0.18750000  0.25000000       0.006
   0.31250000  0.18750000  0.25000000       0.006
   0.37500000  0.18750000  0.25000000       0.006
   0.25000000  0.25000000  0.25000000       0.003
   0.31250000  0.25000000  0.25000000       0.006
   0.37500000  0.25000000  0.25000000       0.003
   0.31250000  0.31250000  0.25000000       0.003
   0.00000000  0.00000000  0.31250000       0.000
   0.06250000  0.00000000  0.31250000       0.003
   0.12500000  0.00000000  0.31250000       0.003
   0.18750000  0.00000000  0.31250000       0.003
   0.25000000  0.00000000  0.31250000       0.003
   0.31250000  0.00000000  0.31250000       0.003
   0.37500000  0.00000000  0.31250000       0.003
   0.43750000  0.00000000  0.31250000       0.003
   0.50000000  0.00000000  0.31250000       0.001
   0.06250000  0.06250000  0.31250000       0.003
   0.12500000  0.06250000  0.31250000       0.006
   0.18750000  0.06250000  0.31250000       0.006
   0.25000000  0.06250000  0.31250000       0.006
   0.31250000  0.06250000  0.31250000       0.006
   0.37500000  0.06250000  0.31250000       0.006
   0.43750000  0.06250000  0.31250000       0.006
   0.12500000  0.12500000  0.31250000       0.003
   0.18750000  0.12500000  0.31250000       0.006
   0.25000000  0.12500000  0.31250000       0.006
   0.31250000  0.12500000  0.31250000       0.006
   0.37500000  0.12500000  0.31250000       0.006
   0.43750000  0.12500000  0.31250000       0.003
   0.18750000  0.18750000  0.31250000       0.003
   0.25000000  0.18750000  0.31250000       0.006
   0.31250000  0.18750000  0.31250000       0.006
   0.37500000  0.18750000  0.31250000       0.006
   0.25000000  0.25000000  0.31250000       0.003
   0.31250000  0.25000000  0.31250000       0.006
   0.37500000  0.25000000  0.31250000       0.003
   0.31250000  0.31250000  0.31250000       0.003
   0.00000000  0.00000000  0.37500000       0.000
   0.06250000  0.00000000  0.37500000       0.003
   0.12500000  0.00000000  0.37500000       0.003
   0.18750000  0.00000000  0.37500000       0.003
   0.25000000  0.00000000  0.37500000       0.003
   0.31250000  0.00000000  0.37500000       0.003
   0.37500000  0.00000000  0.37500000       0.003
   0.43750000  0.00000000  0.37500000       0.003
   0.50000000  0.00000000  0.37500000       0.001
   0.06250000  0.06250000  0.37500000       0.003
   0.12500000  0.06250000  0.37500000       0.006
   0.18750000  0.06250000  0.37500000       0.006
   0.25000000  0.06250000  0.37500000       0.006
   0.31250000  0.06250000  0.37500000       0.006
   0.37500000  0.06250000  0.37500000       0.006
   0.43750000  0.06250000  0.37500000       0.006
   0.12500000  0.12500000  0.37500000       0.003
   0.18750000  0.12500000  0.37500000       0.006
   0.25000000  0.12500000  0.37500000       0.006
   0.31250000  0.12500000  0.37500000       0.006
   0.37500000  0.12500000  0.37500000       0.006
   0.43750000  0.12500000  0.37500000       0.003
   0.18750000  0.18750000  0.37500000       0.003
   0.25000000  0.18750000  0.37500000       0.006
   0.31250000  0.18750000  0.37500000       0.006
   0.37500000  0.18750000  0.37500000       0.006
   0.25000000  0.25000000  0.37500000       0.003
   0.31250000  0.25000000  0.37500000       0.006
   0.37500000  0.25000000  0.37500000       0.003
   0.31250000  0.31250000  0.37500000       0.003
   0.00000000  0.00000000  0.43750000       0.000
   0.06250000  0.00000000  0.43750000       0.003
   0.12500000  0.00000000  0.43750000       0.003
   0.18750000  0.00000000  0.43750000       0.003
   0.25000000  0.00000000  0.43750000       0.003
   0.31250000  0.00000000  0.43750000       0.003
   0.37500000  0.00000000  0.43750000       0.003
   0.43750000  0.00000000  0.43750000       0.003
   0.50000000  0.00000000  0.43750000       0.001
   0.06250000  0.06250000  0.43750000       0.003
   0.12500000  0.06250000  0.43750000       0.006
   0.18750000  0.06250000  0.43750000       0.006
   0.25000000  0.06250000  0.43750000       0.006
   0.31250000  0.06250000  0.43750000       0.006
   0.37500000  0.06250000  0.43750000       0.006
   0.43750000  0.06250000  0.43750000       0.006
   0.12500000  0.12500000  0.43750000       0.003
   0.18750000  0.12500000  0.43750000       0.006
   0.25000000  0.12500000  0.43750000       0.006
   0.31250000  0.12500000  0.43750000       0.006
   0.37500000  0.12500000  0.43750000       0.006
   0.43750000  0.12500000  0.43750000       0.003
   0.18750000  0.18750000  0.43750000       0.003
   0.25000000  0.18750000  0.43750000       0.006
   0.31250000  0.18750000  0.43750000       0.006
   0.37500000  0.18750000  0.43750000       0.006
   0.25000000  0.25000000  0.43750000       0.003
   0.31250000  0.25000000  0.43750000       0.006
   0.37500000  0.25000000  0.43750000       0.003
   0.31250000  0.31250000  0.43750000       0.003
   0.00000000  0.00000000  0.50000000       0.000
   0.06250000  0.00000000  0.50000000       0.001
   0.12500000  0.00000000  0.50000000       0.001
   0.18750000  0.00000000  0.50000000       0.001
   0.25000000  0.00000000  0.50000000       0.001
   0.31250000  0.00000000  0.50000000       0.001
   0.37500000  0.00000000  0.50000000       0.001
   0.43750000  0.00000000  0.50000000       0.001
   0.50000000  0.00000000  0.50000000       0.001
   0.06250000  0.06250000  0.50000000       0.001
   0.12500000  0.06250000  0.50000000       0.003
   0.18750000  0.06250000  0.50000000       0.003
   0.25000000  0.06250000  0.50000000       0.003
   0.31250000  0.06250000  0.50000000       0.003
   0.37500000  0.06250000  0.50000000       0.003
   0.43750000  0.06250000  0.50000000       0.003
   0.12500000  0.12500000  0.50000000       0.001
   0.18750000  0.12500000  0.50000000       0.003
   0.25000000  0.12500000  0.50000000       0.003
   0.31250000  0.12500000  0.50000000       0.003
   0.37500000  0.12500000  0.50000000       0.003
   0.43750000  0.12500000  0.50000000       0.001
   0.18750000  0.18750000  0.50000000       0.001
   0.25000000  0.18750000  0.50000000       0.003
   0.31250000  0.18750000  0.50000000       0.003
   0.37500000  0.18750000  0.50000000       0.003
   0.25000000  0.25000000  0.50000000       0.001
   0.31250000  0.25000000  0.50000000       0.003
   0.37500000  0.25000000  0.50000000       0.001
   0.31250000  0.31250000  0.50000000       0.001
 
 position of ions in fractional coordinates (direct lattice) 
   0.00000000  0.00000000  0.00000000
   0.33333333  0.66666667  0.00000000
   0.33333333  0.66666667  0.50000000
   0.66666667  0.33333333  0.50000000
 
 position of ions in cartesian coordinates  (Angst):
   0.00000000  0.00000000  0.00000000
   0.00000000  1.42097448  0.00000000
   0.00000000  1.42097448  3.35395000
   1.23060000  0.71048724  3.35395000
 


--------------------------------------------------------------------------------------------------------


 k-point  1 :  0.00000.00000.0000  plane waves:     513
 k-point  2 :  0.06250.00000.0000  plane waves:     521
 k-point  3 :  0.12500.00000.0000  plane waves:     523
 k-point  4 :  0.18750.00000.0000  plane waves:     525
 k-point  5 :  0.25000.00000.0000  plane waves:     515
 k-point  6 :  0.31250.00000.0000  plane waves:     524
 k-point  7 :  0.37500.00000.0000  plane waves:     522
 k-point  8 :  0.43750.00000.0000  plane waves:     534
 k-point  9 :  0.50000.00000.0000  plane waves:     526
 k-point 10 :  0.06250.06250.0000  plane waves:     525
 k-point 11 :  0.12500.06250.0000  plane waves:     521
 k-point 12 :  0.18750.06250.0000  plane waves:     516
 k-point 13 :  0.25000.06250.0000  plane waves:     519
 k-point 14 :  0.31250.06250.0000  plane waves:     524
 k-point 15 :  0.37500.06250.0000  plane waves:     523
 k-point 16 :  0.43750.06250.0000  plane waves:     531
 k-point 17 :  0.12500.12500.0000  plane waves:     520
 k-point 18 :  0.18750.12500.0000  plane waves:     517
 k-point 19 :  0.25000.12500.0000  plane waves:     520
 k-point 20 :  0.31250.12500.0000  plane waves:     520
 k-point 21 :  0.37500.12500.0000  plane waves:     526
 k-point 22 :  0.43750.12500.0000  plane waves:     530
 k-point 23 :  0.18750.18750.0000  plane waves:     516
 k-point 24 :  0.25000.18750.0000  plane waves:     517
 k-point 25 :  0.31250.18750.0000  plane waves:     527
 k-point 26 :  0.37500.18750.0000  plane waves:     528
 k-point 27 :  0.25000.25000.0000  plane waves:     516
 k-point 28 :  0.31250.25000.0000  plane waves:     524
 k-point 29 :  0.37500.25000.0000  plane waves:     532
 k-point 30 :  0.31250.31250.0000  plane waves:     530
 k-point 31 :  0.00000.00000.0625  plane waves:     531
 k-point 32 :  0.06250.00000.0625  plane waves:     525
 k-point 33 :  0.12500.00000.0625  plane waves:     521
 k-point 34 :  0.18750.00000.0625  plane waves:     526
 k-point 35 :  0.25000.00000.0625  plane waves:     516
 k-point 36 :  0.31250.00000.0625  plane waves:     521
 k-point 37 :  0.37500.00000.0625  plane waves:     521
 k-point 38 :  0.43750.00000.0625  plane waves:     533
 k-point 39 :  0.50000.00000.0625  plane waves:     526
 k-point 40 :  0.06250.06250.0625  plane waves:     523
 k-point 41 :  0.12500.06250.0625  plane waves:     523
 k-point 42 :  0.18750.06250.0625  plane waves:     518
 k-point 43 :  0.25000.06250.0625  plane waves:     515
 k-point 44 :  0.31250.06250.0625  plane waves:     520
 k-point 45 :  0.37500.06250.0625  plane waves:     523
 k-point 46 :  0.43750.06250.0625  plane waves:     529
 k-point 47 :  0.12500.12500.0625  plane waves:     519
 k-point 48 :  0.18750.12500.0625  plane waves:     520
 k-point 49 :  0.25000.12500.0625  plane waves:     518
 k-point 50 :  0.31250.12500.0625  plane waves:     521
 k-point 51 :  0.37500.12500.0625  plane waves:     528
 k-point 52 :  0.43750.12500.0625  plane waves:     531
 k-point 53 :  0.18750.18750.0625  plane waves:     516
 k-point 54 :  0.25000.18750.0625  plane waves:     519
 k-point 55 :  0.31250.18750.0625  plane waves:     526
 k-point 56 :  0.37500.18750.0625  plane waves:     530
 k-point 57 :  0.25000.25000.0625  plane waves:     526
 k-point 58 :  0.31250.25000.0625  plane waves:     526
 k-point 59 :  0.37500.25000.0625  plane waves:     530
 k-point 60 :  0.31250.31250.0625  plane waves:     530
 k-point 61 :  0.00000.00000.1250  plane waves:     525
 k-point 62 :  0.06250.00000.1250  plane waves:     528
 k-point 63 :  0.12500.00000.1250  plane waves:     523
 k-point 64 :  0.18750.00000.1250  plane waves:     521
 k-point 65 :  0.25000.00000.1250  plane waves:     514
 k-point 66 :  0.31250.00000.1250  plane waves:     519
 k-point 67 :  0.37500.00000.1250  plane waves:     525
 k-point 68 :  0.43750.00000.1250  plane waves:     530
 k-point 69 :  0.50000.00000.1250  plane waves:     522
 k-point 70 :  0.06250.06250.1250  plane waves:     523
 k-point 71 :  0.12500.06250.1250  plane waves:     524
 k-point 72 :  0.18750.06250.1250  plane waves:     522
 k-point 73 :  0.25000.06250.1250  plane waves:     521
 k-point 74 :  0.31250.06250.1250  plane waves:     521
 k-point 75 :  0.37500.06250.1250  plane waves:     529
 k-point 76 :  0.43750.06250.1250  plane waves:     526
 k-point 77 :  0.12500.12500.1250  plane waves:     523
 k-point 78 :  0.18750.12500.1250  plane waves:     522
 k-point 79 :  0.25000.12500.1250  plane waves:     518
 k-point 80 :  0.31250.12500.1250  plane waves:     521
 k-point 81 :  0.37500.12500.1250  plane waves:     526
 k-point 82 :  0.43750.12500.1250  plane waves:     527
 k-point 83 :  0.18750.18750.1250  plane waves:     519
 k-point 84 :  0.25000.18750.1250  plane waves:     519
 k-point 85 :  0.31250.18750.1250  plane waves:     525
 k-point 86 :  0.37500.18750.1250  plane waves:     527
 k-point 87 :  0.25000.25000.1250  plane waves:     522
 k-point 88 :  0.31250.25000.1250  plane waves:     524
 k-point 89 :  0.37500.25000.1250  plane waves:     527
 k-point 90 :  0.31250.31250.1250  plane waves:     531
 k-point 91 :  0.00000.00000.1875  plane waves:     525
 k-point 92 :  0.06250.00000.1875  plane waves:     522
 k-point 93 :  0.12500.00000.1875  plane waves:     529
 k-point 94 :  0.18750.00000.1875  plane waves:     522
 k-point 95 :  0.25000.00000.1875  plane waves:     516
 k-point 96 :  0.31250.00000.1875  plane waves:     522
 k-point 97 :  0.37500.00000.1875  plane waves:     525
 k-point 98 :  0.43750.00000.1875  plane waves:     524
 k-point 99 :  0.50000.00000.1875  plane waves:     526
 k-point ** :  0.06250.06250.1875  plane waves:     526
 k-point ** :  0.12500.06250.1875  plane waves:     524
 k-point ** :  0.18750.06250.1875  plane waves:     525
 k-point ** :  0.25000.06250.1875  plane waves:     519
 k-point ** :  0.31250.06250.1875  plane waves:     519
 k-point ** :  0.37500.06250.1875  plane waves:     527
 k-point ** :  0.43750.06250.1875  plane waves:     526
 k-point ** :  0.12500.12500.1875  plane waves:     525
 k-point ** :  0.18750.12500.1875  plane waves:     520
 k-point ** :  0.25000.12500.1875  plane waves:     514
 k-point ** :  0.31250.12500.1875  plane waves:     520
 k-point ** :  0.37500.12500.1875  plane waves:     525
 k-point ** :  0.43750.12500.1875  plane waves:     525
 k-point ** :  0.18750.18750.1875  plane waves:     518
 k-point ** :  0.25000.18750.1875  plane waves:     517
 k-point ** :  0.31250.18750.1875  plane waves:     522
 k-point ** :  0.37500.18750.1875  plane waves:     526
 k-point ** :  0.25000.25000.1875  plane waves:     523
 k-point ** :  0.31250.25000.1875  plane waves:     524
 k-point ** :  0.37500.25000.1875  plane waves:     527
 k-point ** :  0.31250.31250.1875  plane waves:     529
 k-point ** :  0.00000.00000.2500  plane waves:     524
 k-point ** :  0.06250.00000.2500  plane waves:     523
 k-point ** :  0.12500.00000.2500  plane waves:     529
 k-point ** :  0.18750.00000.2500  plane waves:     525
 k-point ** :  0.25000.00000.2500  plane waves:     515
 k-point ** :  0.31250.00000.2500  plane waves:     522
 k-point ** :  0.37500.00000.2500  plane waves:     521
 k-point ** :  0.43750.00000.2500  plane waves:     527
 k-point ** :  0.50000.00000.2500  plane waves:     526
 k-point ** :  0.06250.06250.2500  plane waves:     527
 k-point ** :  0.12500.06250.2500  plane waves:     526
 k-point ** :  0.18750.06250.2500  plane waves:     524
 k-point ** :  0.25000.06250.2500  plane waves:     519
 k-point ** :  0.31250.06250.2500  plane waves:     521
 k-point ** :  0.37500.06250.2500  plane waves:     525
 k-point ** :  0.43750.06250.2500  plane waves:     525
 k-point ** :  0.12500.12500.2500  plane waves:     521
 k-point ** :  0.18750.12500.2500  plane waves:     519
 k-point ** :  0.25000.12500.2500  plane waves:     514
 k-point ** :  0.31250.12500.2500  plane waves:     520
 k-point ** :  0.37500.12500.2500  plane waves:     527
 k-point ** :  0.43750.12500.2500  plane waves:     526
 k-point ** :  0.18750.18750.2500  plane waves:     517
 k-point ** :  0.25000.18750.2500  plane waves:     518
 k-point ** :  0.31250.18750.2500  plane waves:     523
 k-point ** :  0.37500.18750.2500  plane waves:     529
 k-point ** :  0.25000.25000.2500  plane waves:     521
 k-point ** :  0.31250.25000.2500  plane waves:     526
 k-point ** :  0.37500.25000.2500  plane waves:     527
 k-point ** :  0.31250.31250.2500  plane waves:     527
 k-point ** :  0.00000.00000.3125  plane waves:     530
 k-point ** :  0.06250.00000.3125  plane waves:     529
 k-point ** :  0.12500.00000.3125  plane waves:     530
 k-point ** :  0.18750.00000.3125  plane waves:     519
 k-point ** :  0.25000.00000.3125  plane waves:     520
 k-point ** :  0.31250.00000.3125  plane waves:     523
 k-point ** :  0.37500.00000.3125  plane waves:     524
 k-point ** :  0.43750.00000.3125  plane waves:     524
 k-point ** :  0.50000.00000.3125  plane waves:     518
 k-point ** :  0.06250.06250.3125  plane waves:     527
 k-point ** :  0.12500.06250.3125  plane waves:     526
 k-point ** :  0.18750.06250.3125  plane waves:     523
 k-point ** :  0.25000.06250.3125  plane waves:     519
 k-point ** :  0.31250.06250.3125  plane waves:     520
 k-point ** :  0.37500.06250.3125  plane waves:     524
 k-point ** :  0.43750.06250.3125  plane waves:     523
 k-point ** :  0.12500.12500.3125  plane waves:     523
 k-point ** :  0.18750.12500.3125  plane waves:     519
 k-point ** :  0.25000.12500.3125  plane waves:     514
 k-point ** :  0.31250.12500.3125  plane waves:     521
 k-point ** :  0.37500.12500.3125  plane waves:     524
 k-point ** :  0.43750.12500.3125  plane waves:     530
 k-point ** :  0.18750.18750.3125  plane waves:     515
 k-point ** :  0.25000.18750.3125  plane waves:     519
 k-point ** :  0.31250.18750.3125  plane waves:     523
 k-point ** :  0.37500.18750.3125  plane waves:     529
 k-point ** :  0.25000.25000.3125  plane waves:     524
 k-point ** :  0.31250.25000.3125  plane waves:     525
 k-point ** :  0.37500.25000.3125  plane waves:     529
 k-point ** :  0.31250.31250.3125  plane waves:     529
 k-point ** :  0.00000.00000.3750  plane waves:     536
 k-point ** :  0.06250.00000.3750  plane waves:     534
 k-point ** :  0.12500.00000.3750  plane waves:     529
 k-point ** :  0.18750.00000.3750  plane waves:     523
 k-point ** :  0.25000.00000.3750  plane waves:     522
 k-point ** :  0.31250.00000.3750  plane waves:     520
 k-point ** :  0.37500.00000.3750  plane waves:     522
 k-point ** :  0.43750.00000.3750  plane waves:     524
 k-point ** :  0.50000.00000.3750  plane waves:     514
 k-point ** :  0.06250.06250.3750  plane waves:     529
 k-point ** :  0.12500.06250.3750  plane waves:     525
 k-point ** :  0.18750.06250.3750  plane waves:     523
 k-point ** :  0.25000.06250.3750  plane waves:     521
 k-point ** :  0.31250.06250.3750  plane waves:     521
 k-point ** :  0.37500.06250.3750  plane waves:     521
 k-point ** :  0.43750.06250.3750  plane waves:     523
 k-point ** :  0.12500.12500.3750  plane waves:     523
 k-point ** :  0.18750.12500.3750  plane waves:     518
 k-point ** :  0.25000.12500.3750  plane waves:     514
 k-point ** :  0.31250.12500.3750  plane waves:     521
 k-point ** :  0.37500.12500.3750  plane waves:     527
 k-point ** :  0.43750.12500.3750  plane waves:     531
 k-point ** :  0.18750.18750.3750  plane waves:     516
 k-point ** :  0.25000.18750.3750  plane waves:     518
 k-point ** :  0.31250.18750.3750  plane waves:     525
 k-point ** :  0.37500.18750.3750  plane waves:     532
 k-point ** :  0.25000.25000.3750  plane waves:     523
 k-point ** :  0.31250.25000.3750  plane waves:     526
 k-point ** :  0.37500.25000.3750  plane waves:     526
 k-point ** :  0.31250.31250.3750  plane waves:     526
 k-point ** :  0.00000.00000.4375  plane waves:     536
 k-point ** :  0.06250.00000.4375  plane waves:     532
 k-point ** :  0.12500.00000.4375  plane waves:     522
 k-point ** :  0.18750.00000.4375  plane waves:     526
 k-point ** :  0.25000.00000.4375  plane waves:     526
 k-point ** :  0.31250.00000.4375  plane waves:     524
 k-point ** :  0.37500.00000.4375  plane waves:     524
 k-point ** :  0.43750.00000.4375  plane waves:     514
 k-point ** :  0.50000.00000.4375  plane waves:     522
 k-point ** :  0.06250.06250.4375  plane waves:     530
 k-point ** :  0.12500.06250.4375  plane waves:     526
 k-point ** :  0.18750.06250.4375  plane waves:     520
 k-point ** :  0.25000.06250.4375  plane waves:     522
 k-point ** :  0.31250.06250.4375  plane waves:     520
 k-point ** :  0.37500.06250.4375  plane waves:     520
 k-point ** :  0.43750.06250.4375  plane waves:     524
 k-point ** :  0.12500.12500.4375  plane waves:     525
 k-point ** :  0.18750.12500.4375  plane waves:     519
 k-point ** :  0.25000.12500.4375  plane waves:     513
 k-point ** :  0.31250.12500.4375  plane waves:     521
 k-point ** :  0.37500.12500.4375  plane waves:     530
 k-point ** :  0.43750.12500.4375  plane waves:     532
 k-point ** :  0.18750.18750.4375  plane waves:     516
 k-point ** :  0.25000.18750.4375  plane waves:     517
 k-point ** :  0.31250.18750.4375  plane waves:     525
 k-point ** :  0.37500.18750.4375  plane waves:     529
 k-point ** :  0.25000.25000.4375  plane waves:     520
 k-point ** :  0.31250.25000.4375  plane waves:     527
 k-point ** :  0.37500.25000.4375  plane waves:     526
 k-point ** :  0.31250.31250.4375  plane waves:     530
 k-point ** :  0.00000.00000.5000  plane waves:     536
 k-point ** :  0.06250.00000.5000  plane waves:     534
 k-point ** :  0.12500.00000.5000  plane waves:     524
 k-point ** :  0.18750.00000.5000  plane waves:     530
 k-point ** :  0.25000.00000.5000  plane waves:     524
 k-point ** :  0.31250.00000.5000  plane waves:     526
[...]
      3      -3.5133      1.00000
      4      -3.5133      1.00000
      5      -0.8933      1.00000
      6      -0.8933      1.00000
      7      -0.6805      1.00000
      8      -0.6805      1.00000
      9      11.0494      0.00000
     10      11.0494      0.00000
     11      13.0551      0.00000
     12      13.0551      0.00000
     13      13.9355      0.00000
     14      13.9355      0.00000

 k-point 254 :       0.3125    0.0625    0.5000
  band No.  band energies     occupation 
      1     -12.0150      1.00000
      2     -12.0150      1.00000
      3      -5.1452      1.00000
      4      -5.1452      1.00000
      5      -1.4132      1.00000
      6      -1.4132      1.00000
      7       0.3266      1.00000
      8       0.3266      1.00000
      9       9.3324      0.00000
     10       9.3324      0.00000
     11      12.8624      0.00000
     12      12.8624      0.00000
     13      14.8467      0.00000
     14      14.8467      0.00000

 k-point 255 :       0.3750    0.0625    0.5000
  band No.  band energies     occupation 
      1     -10.9630      1.00000
      2     -10.9630      1.00000
      3      -6.7175      1.00000
      4      -6.7175      1.00000
      5      -1.7746      1.00000
      6      -1.7746      1.00000
      7       1.4109      1.00000
      8       1.4109      1.00000
      9       7.7247      0.00000
     10       7.7247      0.00000
     11      12.6881      0.00000
     12      12.6881      0.00000
     13      15.9122      0.00000
     14      15.9122      0.00000

 k-point 256 :       0.4375    0.0625    0.5000
  band No.  band energies     occupation 
      1      -9.8363      1.00000
      2      -9.8363      1.00000
      3      -8.1133      1.00000
      4      -8.1133      1.00000
      5      -1.9586      1.00000
      6      -1.9586      1.00000
      7       2.2953      1.00000
      8       2.2953      1.00000
      9       6.5611      0.00000
     10       6.5611      0.00000
     11      12.5943      0.00000
     12      12.5943      0.00000
     13      16.9397      0.00000
     14      16.9397      0.00000

 k-point 257 :       0.1250    0.1250    0.5000
  band No.  band energies     occupation 
      1     -13.7329      1.00000
      2     -13.7329      1.00000
      3      -1.6299      1.00000
      4      -1.6299      1.00000
      5      -1.4821      1.00000
      6      -1.4821      1.00000
      7      -0.4029      1.00000
      8      -0.4029      1.00000
      9      12.8139      0.00000
     10      12.8139      0.00000
     11      13.0177      0.00000
     12      13.0177      0.00000
     13      14.1505      0.00000
     14      14.1505      0.00000

 k-point 258 :       0.1875    0.1250    0.5000
  band No.  band energies     occupation 
      1     -13.0947      1.00000
      2     -13.0947      1.00000
      3      -2.7864      1.00000
      4      -2.7864      1.00000
      5      -1.2539      1.00000
      6      -1.2539      1.00000
      7      -0.8832      1.00000
      8      -0.8832      1.00000
      9      11.5601      0.00000
     10      11.5601      0.00000
     11      13.4846      0.00000
     12      13.4846      0.00000
     13      14.3903      0.00000
     14      14.3903      0.00000

 k-point 259 :       0.2500    0.1250    0.5000
  band No.  band energies     occupation 
      1     -12.2832      1.00000
      2     -12.2832      1.00000
      3      -4.2828      1.00000
      4      -4.2828      1.00000
      5      -1.9283      1.00000
      6      -1.9283      1.00000
      7       0.0413      1.00000
      8       0.0413      1.00000
      9       9.9676      0.00000
     10       9.9676      0.00000
     11      13.9695      0.00000
     12      13.9695      0.00000
     13      14.5908      0.00000
     14      14.5908      0.00000

 k-point 260 :       0.3125    0.1250    0.5000
  band No.  band energies     occupation 
      1     -11.3101      1.00000
      2     -11.3101      1.00000
      3      -5.8274      1.00000
      4      -5.8274      1.00000
      5      -2.4096      1.00000
      6      -2.4096      1.00000
      7       1.0990      1.00000
      8       1.0990      1.00000
      9       8.3675      0.00000
     10       8.3675      0.00000
     11      13.8784      0.00000
     12      13.8784      0.00000
     13      15.4042      0.00000
     14      15.4042      0.00000

 k-point 261 :       0.3750    0.1250    0.5000
  band No.  band energies     occupation 
      1     -10.2062      1.00000
      2     -10.2061      1.00000
      3      -7.2995      1.00000
      4      -7.2995      1.00000
      5      -2.6999      1.00000
      6      -2.6999      1.00000
      7       2.1485      1.00000
      8       2.1485      1.00000
      9       6.9619      0.00000
     10       6.9619      0.00000
     11      13.7496      0.00000
     12      13.7496      0.00000
     13      16.2561      0.00000
     14      16.2561      0.00000

 k-point 262 :       0.4375    0.1250    0.5000
  band No.  band energies     occupation 
      1      -9.3294      1.00000
      2      -9.3294      1.00000
      3      -8.3029      1.00000
      4      -8.3029      1.00000
      5      -2.7971      1.00000
      6      -2.7971      1.00000
      7       2.7001      1.00000
      8       2.7001      1.00000
      9       6.2907      0.00000
     10       6.2907      0.00000
     11      13.7005      0.00000
     12      13.7005      0.00000
     13      16.6809      0.00000
     14      16.6809      0.00000

 k-point 263 :       0.1875    0.1875    0.5000
  band No.  band energies     occupation 
      1     -12.3734      1.00000
      2     -12.3734      1.00000
      3      -3.7740      1.00000
      4      -3.7740      1.00000
      5      -2.3393      1.00000
      6      -2.3393      1.00000
      7      -0.0553      1.00000
      8      -0.0553      1.00000
      9      10.2278      0.00000
     10      10.2278      0.00000
     11      14.1937      0.00000
     12      14.1937      0.00000
     13      15.4648      0.00000
     14      15.4648      0.00000

 k-point 264 :       0.2500    0.1875    0.5000
  band No.  band energies     occupation 
      1     -11.4855      1.00000
      2     -11.4855      1.00000
      3      -5.0042      1.00000
      4      -5.0042      1.00000
      5      -3.1519      1.00000
      6      -3.1519      1.00000
      7       0.9362      1.00000
      8       0.9362      1.00000
      9       8.7991      0.00000
     10       8.7991      0.00000
     11      14.8859      0.00000
     12      14.8859      0.00000
     13      15.7333      0.00000
     14      15.7333      0.00000

 k-point 265 :       0.3125    0.1875    0.5000
  band No.  band energies     occupation 
      1     -10.4511      1.00000
      2     -10.4511      1.00000
      3      -6.3855      1.00000
      4      -6.3855      1.00000
      5      -3.6345      1.00000
      6      -3.6345      1.00000
      7       2.0200      1.00000
      8       2.0200      1.00000
      9       7.3850      0.00000
     10       7.3850      0.00000
     11      15.1885      0.00000
     12      15.1885      0.00000
     13      15.8830      0.00000
     14      15.8830      0.00000

 k-point 266 :       0.3750    0.1875    0.5000
  band No.  band energies     occupation 
      1      -9.3502      1.00000
      2      -9.3502      1.00000
      3      -7.6894      1.00000
      4      -7.6894      1.00000
      5      -3.8593      1.00000
      6      -3.8593      1.00000
      7       2.9528      1.00000
      8       2.9528      1.00000
      9       6.2799      0.00000
     10       6.2799      0.00000
     11      15.1622      0.00000
     12      15.1622      0.00000
     13      16.1074      0.00000
     14      16.1074      0.00000

 k-point 267 :       0.2500    0.2500    0.5000
  band No.  band energies     occupation 
      1     -10.5346      1.00000
      2     -10.5346      1.00000
      3      -5.8035      1.00000
      4      -5.8035      1.00000
      5      -4.2351      1.00000
      6      -4.2351      1.00000
      7       1.9711      1.00000
      8       1.9711      1.00000
      9       7.5739      0.00000
     10       7.5739      0.00000
     11      15.2823      0.00000
     12      15.2823      0.00000
     13      17.2424      0.00000
     14      17.2425      0.00000

 k-point 268 :       0.3125    0.2500    0.5000
  band No.  band energies     occupation 
      1      -9.4652      1.00000
      2      -9.4652      1.00000
      3      -6.8597      1.00000
      4      -6.8597      1.00000
      5      -4.8480      1.00000
      6      -4.8480      1.00000
      7       3.0524      1.00000
      8       3.0524      1.00000
      9       6.3720      0.00000
     10       6.3720      0.00000
     11      15.2680      0.00000
     12      15.2680      0.00000
     13      17.2646      0.00000
     14      17.2646      0.00000

 k-point 269 :       0.3750    0.2500    0.5000
  band No.  band energies     occupation 
      1      -8.6151      1.00000
      2      -8.6151      1.00000
      3      -7.7394      1.00000
      4      -7.7393      1.00000
      5      -5.0227      1.00000
      6      -5.0227      1.00000
      7       3.7034      1.00000
      8       3.7034      1.00000
      9       5.6805      0.00000
     10       5.6805      0.00000
     11      15.1997      0.00000
     12      15.1997      0.00000
     13      17.2343      0.00000
     14      17.2343      0.00000

 k-point 270 :       0.3125    0.3125    0.5000
  band No.  band energies     occupation 
      1      -8.4334      1.00000
      2      -8.4334      1.00000
      3      -7.4350      1.00000
      4      -7.4350      1.00000
      5      -5.6778      1.00000
      6      -5.6778      1.00000
      7       4.1074      1.00000
      8       4.1074      1.00000
      9       5.3483      0.00000
     10       5.3483      0.00000
     11      14.9717      0.00000
     12      14.9717      0.00000
     13      18.3486      0.00000
     14      18.3486      0.00000


--------------------------------------------------------------------------------------------------------


 soft charge-density along one line, spin component           1
         0         1         2         3         4         5         6         7         8         9
 total charge-density along one line
 
 soft charge-density along one line, spin component           2
         0         1         2         3         4         5         6         7         8         9
 total charge-density along one line
 
 pseudopotential strength for first ion, spin component:           1
  9.767   0.005   0.000   0.000   0.000   0.000   0.000   0.000
  0.005  -0.002   0.000   0.000   0.000   0.000   0.000   0.000
  0.000   0.000  -3.947   0.000   0.000  -0.015   0.000   0.000
  0.000   0.000   0.000  -3.940   0.000   0.000  -0.012   0.000
  0.000   0.000   0.000   0.000  -3.947   0.000   0.000  -0.015
  0.000   0.000  -0.015   0.000   0.000  -0.764   0.000   0.000
  0.000   0.000   0.000  -0.012   0.000   0.000  -0.764   0.000
  0.000   0.000   0.000   0.000  -0.015   0.000   0.000  -0.764
 pseudopotential strength for first ion, spin component:           2
  9.767   0.005   0.000   0.000   0.000   0.000   0.000   0.000
  0.005  -0.002   0.000   0.000   0.000   0.000   0.000   0.000
  0.000   0.000  -3.947   0.000   0.000  -0.015   0.000   0.000
  0.000   0.000   0.000  -3.940   0.000   0.000  -0.012   0.000
  0.000   0.000   0.000   0.000  -3.947   0.000   0.000  -0.015
  0.000   0.000  -0.015   0.000   0.000  -0.764   0.000   0.000
  0.000   0.000   0.000  -0.012   0.000   0.000  -0.764   0.000
  0.000   0.000   0.000   0.000  -0.015   0.000   0.000  -0.764
 total augmentation occupancy for first ion, spin component:           1
  1.474  -1.120   0.000   0.000   0.000   0.000   0.000   0.000
 -1.120   1.056   0.000   0.000   0.000   0.000   0.000   0.000
  0.000   0.000   1.214   0.000   0.000   0.245   0.000   0.000
  0.000   0.000   0.000   0.923   0.000   0.000   0.128   0.000
  0.000   0.000   0.000   0.000   1.214   0.000   0.000   0.245
  0.000   0.000   0.245   0.000   0.000   0.055   0.000   0.000
  0.000   0.000   0.000   0.128   0.000   0.000   0.019   0.000
  0.000   0.000   0.000   0.000   0.245   0.000   0.000   0.055
 total augmentation occupancy for first ion, spin component:           2
  0.000  -0.001   0.000   0.000   0.000   0.000   0.000   0.000
 -0.001   0.002   0.000   0.000   0.000   0.000   0.000   0.000
  0.000   0.000   0.000   0.000   0.000   0.000   0.000   0.000
  0.000   0.000   0.000   0.000   0.000   0.000   0.000   0.000
  0.000   0.000   0.000   0.000   0.000   0.000   0.000   0.000
  0.000   0.000   0.000   0.000   0.000   0.000   0.000   0.000
  0.000   0.000   0.000   0.000   0.000   0.000   0.000   0.000
  0.000   0.000   0.000   0.000   0.000   0.000   0.000   0.000


------------------------ aborting loop because EDIFF is reached ----------------------------------------


 


 total charge     
 
# of ion     s       p       d       tot
----------------------------------------
  1        0.866   1.804   0.000   2.670
  2        0.867   1.800   0.000   2.667
  3        0.867   1.800   0.000   2.667
  4        0.866   1.804   0.000   2.670
------------------------------------------------
tot        3.466   7.207   0.000  10.673
 


 magnetization (x)
 
# of ion     s       p       d       tot
----------------------------------------
  1        0.000   0.000   0.000   0.000
  2        0.000   0.000   0.000   0.000
  3        0.000   0.000   0.000   0.000
  4        0.000   0.000   0.000   0.000
------------------------------------------------
tot        0.000   0.000   0.000   0.000
 
    CHARGE:  cpu time    2.27: real time    2.27
    FORLOC:  cpu time    0.01: real time    0.01
    FORNL :  cpu time    2.94: real time    2.94
    STRESS:  cpu time    3.22: real time    3.22
    FORHAR:  cpu time    0.04: real time    0.04
    MIXING:  cpu time    0.01: real time    0.01

  FORCE on cell =-STRESS in cart. coord.  units (eV):
  Direction    XX          YY          ZZ          XY          YZ          ZX
  --------------------------------------------------------------------------------------
  Alpha Z    37.04767    37.04767    37.04767
  Ewald      78.34827    78.34827  -617.29730     0.00000     0.00000     0.00000
  Hartree   161.14011   161.14011  -138.75307     0.00000     0.00000     0.00000
  E(xc)     -58.50812   -58.50812   -60.65209     0.00000     0.00000     0.00000
  Local    -443.68140  -443.68145   517.52489    -0.00004     0.00000     0.00000
  n-local   -13.46207   -14.48941   -12.78598    -0.71034     0.02511     0.02665
  augment    -1.51755    -1.51751    -1.39205     0.00004     0.00000     0.00000
  Kinetic   236.52426   244.59501   275.37379     6.52795    -0.34876    -0.39776
  Fock        0.00000     0.00000     0.00000     0.00000     0.00000     0.00000
  -------------------------------------------------------------------------------------
  Total      -0.58714    -0.58714    -0.93414     0.00000     0.00000     0.00000
  in kB     -26.73262   -26.73262   -42.53146     0.00000     0.00000     0.00000
  external pressure =      -32.00 kB  Pullay stress =        0.00 kB


 VOLUME and BASIS-vectors are now :
 -----------------------------------------------------------------------------
  energy-cutoff  :      350.00
  volume of cell :       35.19
      direct lattice vectors                 reciprocal lattice vectors
     2.461200000  0.000000000  0.000000000     0.406305867  0.234580802  0.000000000
    -1.230600000  2.131461724  0.000000000     0.000000000  0.469161603  0.000000000
     0.000000000  0.000000000  6.707900000     0.000000000  0.000000000  0.149077953

  length of vectors
     2.461200000  2.461200000  6.707900000     0.469161603  0.469161603  0.149077953


 FORCES acting on ions
    electron-ion (+dipol)            ewald-force                    non-local-force                 convergence-correction
 -----------------------------------------------------------------------------------------------
   0.136E-06 -.787E-07 0.174E-13   0.624E-11 -.358E-11 -.182E-13   0.694E-16 0.555E-16 0.000E+00   0.172E-06 -.991E-07 -.704E-13
   -.173E-05 0.999E-06 -.277E-12   -.624E-11 0.358E-11 -.182E-13   -.208E-15 -.555E-16 0.000E+00   -.172E-06 0.995E-07 -.683E-13
   -.165E-05 0.953E-06 -.929E-13   -.126E-10 0.731E-11 0.182E-13   0.250E-15 0.555E-16 0.000E+00   0.172E-06 -.995E-07 0.123E-12
   0.166E-05 -.957E-06 -.896E-12   0.126E-10 -.731E-11 0.182E-13   -.971E-16 -.555E-16 0.000E+00   -.172E-06 0.991E-07 0.121E-12
 -----------------------------------------------------------------------------------------------
   -.159E-05 0.917E-06 -.125E-11   0.658E-14 -.737E-15 0.316E-29   0.139E-16 0.000E+00 0.000E+00   -.824E-10 0.476E-10 0.105E-12
 
 
 POSITION                                       TOTAL-FORCE (eV/Angst)
 -----------------------------------------------------------------------------------
      0.00000      0.00000      0.00000         0.000000      0.000000      0.000000
      0.00000      1.42097      0.00000         0.000000      0.000000      0.000000
      0.00000      1.42097      3.35395         0.000000      0.000000      0.000000
      1.23060      0.71049      3.35395         0.000000      0.000000      0.000000
 -----------------------------------------------------------------------------------
    total drift:                               -0.000002      0.000001      0.000000


--------------------------------------------------------------------------------------------------------



  FREE ENERGIE OF THE ION-ELECTRON SYSTEM (eV)
  ---------------------------------------------------
  free  energy   TOTEN  =       -36.914236 eV

  energy  without entropy=      -36.914266  energy(sigma->0) =      -36.914246
 


--------------------------------------------------------------------------------------------------------


    POTLOK:  cpu time    0.33: real time    0.33


--------------------------------------------------------------------------------------------------------


 writing wavefunctions
     LOOP+:  cpu time  413.56: real time  414.36
    4ORBIT:  cpu time    0.00: real time    0.00
 


 total charge     
 
# of ion     s       p       d       tot
----------------------------------------
  1        0.866   1.804   0.000   2.670
  2        0.867   1.800   0.000   2.667
  3        0.867   1.800   0.000   2.667
  4        0.866   1.804   0.000   2.670
------------------------------------------------
tot        3.466   7.207   0.000  10.673
 


 magnetization (x)
 
# of ion     s       p       d       tot
----------------------------------------
  1        0.000   0.000   0.000   0.000
  2        0.000   0.000   0.000   0.000
  3        0.000   0.000   0.000   0.000
  4        0.000   0.000   0.000   0.000
------------------------------------------------
tot        0.000   0.000   0.000   0.000
 

 total amount of memory used by VASP on root node   118197. kBytes
========================================================================

   base      :      30000. kBytes
   nonl-proj :       9296. kBytes
   fftplans  :       2996. kBytes
   grid      :       7176. kBytes
   one-center:         24. kBytes
   wavefun   :      68705. kBytes
 
  
  
 General timing and accounting informations for this job:
 ========================================================
  
                  Total CPU time used (sec):      416.540
                            User time (sec):      416.095
                          System time (sec):        0.445
                         Elapsed time (sec):      417.923
  
                   Maximum memory used (kb):           0.
                   Average memory used (kb):           0.
  
                          Minor page faults:        76684
                          Major page faults:            0
                 Voluntary context switches:         2558
