PROCAR lm decomposed
# of k-points:  270         # of bands:  14         # of ions:   4

 k-point    1 :    0.00000000 0.00000000 0.00000000     weight = 0.00024414

band   1 # energy  -14.98455083 # occ.  1.00000000
 
ion      s     py     pz     px    dxy    dyz    dz2    dxz    dx2    tot
  1  0.159  0.000  0.000  0.000  0.000  0.000  0.000  0.000  0.000  0.159
  2  0.159  0.000  0.000  0.000  0.000  0.000  0.000  0.000  0.000  0.159
  3  0.159  0.000  0.000  0.000  0.000  0.000  0.000  0.000  0.000  0.159
  4  0.159  0.000  0.000  0.000  0.000  0.000  0.000  0.000  0.000  0.159
tot  0.635  0.000  0.000  0.000  0.000  0.000  0.000  0.000  0.000  0.635
 
band   2 # energy  -14.68551010 # occ.  1.00000000
 
ion      s     py     pz     px    dxy    dyz    dz2    dxz    dx2    tot
  1  0.165  0.000  0.000  0.000  0.000  0.000  0.000  0.000  0.000  0.165
  2  0.165  0.000  0.000  0.000  0.000  0.000  0.000  0.000  0.000  0.165
  3  0.165  0.000  0.000  0.000  0.000  0.000  0.000  0.000  0.000  0.165
  4  0.165  0.000  0.000  0.000  0.000  0.000  0.000  0.000  0.000  0.165
tot  0.659  0.000  0.000  0.000  0.000  0.000  0.000  0.000  0.000  0.659
 
band   3 # energy   -3.82122979 # occ.  1.00000000
 
ion      s     py     pz     px    dxy    dyz    dz2    dxz    dx2    tot
  1  0.000  0.000  0.096  0.000  0.000  0.000  0.000  0.000  0.000  0.096
  2  0.000  0.000  0.097  0.000  0.000  0.000  0.000  0.000  0.000  0.097
  3  0.000  0.000  0.097  0.000  0.000  0.000  0.000  0.000  0.000  0.097
  4  0.000  0.000  0.096  0.000  0.000  0.000  0.000  0.000  0.000  0.096
tot  0.000  0.000  0.387  0.000  0.000  0.000  0.000  0.000  0.000  0.387
 
band   4 # energy   -1.86414114 # occ.  1.00000000
 
ion      s     py     pz     px    dxy    dyz    dz2    dxz    dx2    tot
  1  0.000  0.000  0.127  0.000  0.000  0.000  0.000  0.000  0.000  0.127
  2  0.000  0.000  0.126  0.000  0.000  0.000  0.000  0.000  0.000  0.126
  3  0.000  0.000  0.126  0.000  0.000  0.000  0.000  0.000  0.000  0.126
  4  0.000  0.000  0.127  0.000  0.000  0.000  0.000  0.000  0.000  0.127
tot  0.000  0.000  0.506  0.000  0.000  0.000  0.000  0.000  0.000  0.506
 
band   5 # energy    1.72619216 # occ.  1.00000000
 
ion      s     py     pz     px    dxy    dyz    dz2    dxz    dx2    tot
  1  0.000  0.052  0.000  0.156  0.000  0.000  0.000  0.000  0.000  0.207
  2  0.000  0.052  0.000  0.156  0.000  0.000  0.000  0.000  0.000  0.208
  3  0.000  0.052  0.000  0.156  0.000  0.000  0.000  0.000  0.000  0.208
  4  0.000  0.052  0.000  0.155  0.000  0.000  0.000  0.000  0.000  0.207
tot  0.000  0.208  0.000  0.623  0.000  0.000  0.000  0.000  0.000  0.831
 
band   6 # energy    1.72621613 # occ.  1.00000000
 
ion      s     py     pz     px    dxy    dyz    dz2    dxz    dx2    tot
  1  0.000  0.156  0.000  0.052  0.000  0.000  0.000  0.000  0.000  0.207
  2  0.000  0.156  0.000  0.052  0.000  0.000  0.000  0.000  0.000  0.208
  3  0.000  0.156  0.000  0.052  0.000  0.000  0.000  0.000  0.000  0.208
  4  0.000  0.155  0.000  0.052  0.000  0.000  0.000  0.000  0.000  0.207
tot  0.000  0.623  0.000  0.208  0.000  0.000  0.000  0.000  0.000  0.831
 
band   7 # energy    1.73092244 # occ.  1.00000000
 
ion      s     py     pz     px    dxy    dyz    dz2    dxz    dx2    tot
  1  0.000  0.052  0.000  0.156  0.000  0.000  0.000  0.000  0.000  0.208
  2  0.000  0.052  0.000  0.156  0.000  0.000  0.000  0.000  0.000  0.208
  3  0.000  0.052  0.000  0.156  0.000  0.000  0.000  0.000  0.000  0.208
  4  0.000  0.052  0.000  0.156  0.000  0.000  0.000  0.000  0.000  0.208
tot  0.000  0.208  0.000  0.623  0.000  0.000  0.000  0.000  0.000  0.831
 
band   8 # energy    1.73094709 # occ.  1.00000000
 
ion      s     py     pz     px    dxy    dyz    dz2    dxz    dx2    tot
  1  0.000  0.156  0.000  0.052  0.000  0.000  0.000  0.000  0.000  0.208
  2  0.000  0.156  0.000  0.052  0.000  0.000  0.000  0.000  0.000  0.208
  3  0.000  0.156  0.000  0.052  0.000  0.000  0.000  0.000  0.000  0.208
  4  0.000  0.156  0.000  0.052  0.000  0.000  0.000  0.000  0.000  0.208
tot  0.000  0.623  0.000  0.208  0.000  0.000  0.000  0.000  0.000  0.831
 
band   9 # energy    8.98738278 # occ.  0.00000000
 
ion      s     py     pz     px    dxy    dyz    dz2    dxz    dx2    tot
  1  0.021  0.000  0.000  0.000  0.000  0.000  0.000  0.000  0.000  0.021
  2  0.020  0.000  0.000  0.000  0.000  0.000  0.000  0.000  0.000  0.020
  3  0.020  0.000  0.000  0.000  0.000  0.000  0.000  0.000  0.000  0.020
  4  0.021  0.000  0.000  0.000  0.000  0.000  0.000  0.000  0.000  0.021
tot  0.082  0.000  0.000  0.000  0.000  0.000  0.000  0.000  0.000  0.082
 
band  10 # energy   13.14565811 # occ.  0.00000000
 
ion      s     py     pz     px    dxy    dyz    dz2    dxz    dx2    tot
  1  0.000  0.033  0.000  0.098  0.000  0.000  0.000  0.000  0.000  0.131
  2  0.000  0.033  0.000  0.099  0.000  0.000  0.000  0.000  0.000  0.132
  3  0.000  0.033  0.000  0.099  0.000  0.000  0.000  0.000  0.000  0.132
  4  0.000  0.033  0.000  0.098  0.000  0.000  0.000  0.000  0.000  0.131
tot  0.000  0.132  0.000  0.395  0.000  0.000  0.000  0.000  0.000  0.526
 
band  11 # energy   13.14567100 # occ.  0.00000000
 
ion      s     py     pz     px    dxy    dyz    dz2    dxz    dx2    tot
  1  0.000  0.098  0.000  0.033  0.000  0.000  0.000  0.000  0.000  0.131
  2  0.000  0.099  0.000  0.033  0.000  0.000  0.000  0.000  0.000  0.132
  3  0.000  0.099  0.000  0.033  0.000  0.000  0.000  0.000  0.000  0.132
  4  0.000  0.098  0.000  0.033  0.000  0.000  0.000  0.000  0.000  0.131
tot  0.000  0.395  0.000  0.132  0.000  0.000  0.000  0.000  0.000  0.526
 
band  12 # energy   13.20874819 # occ.  0.00000000
 
ion      s     py     pz     px    dxy    dyz    dz2    dxz    dx2    tot
  1  0.000  0.033  0.000  0.100  0.000  0.000  0.000  0.000  0.000  0.134
  2  0.000  0.033  0.000  0.098  0.000  0.000  0.000  0.000  0.000  0.131
  3  0.000  0.033  0.000  0.098  0.000  0.000  0.000  0.000  0.000  0.131
  4  0.000  0.033  0.000  0.100  0.000  0.000  0.000  0.000  0.000  0.134
tot  0.000  0.132  0.000  0.397  0.000  0.000  0.000  0.000  0.000  0.530
 
band  13 # energy   13.20876031 # occ.  0.00000000
 
ion      s     py     pz     px    dxy    dyz    dz2    dxz    dx2    tot
  1  0.000  0.100  0.000  0.033  0.000  0.000  0.000  0.000  0.000  0.134
  2  0.000  0.098  0.000  0.033  0.000  0.000  0.000  0.000  0.000  0.131
  3  0.000  0.098  0.000  0.033  0.000  0.000  0.000  0.000  0.000  0.131
  4  0.000  0.100  0.000  0.033  0.000  0.000  0.000  0.000  0.000  0.134
tot  0.000  0.397  0.000  0.132  0.000  0.000  0.000  0.000  0.000  0.530
 
band  14 # energy   15.32591209 # occ.  0.00000000
 
ion      s     py     pz     px    dxy    dyz    dz2    dxz    dx2    tot
  1  0.000  0.000  0.063  0.000  0.000  0.000  0.000  0.000  0.000  0.063
  2  0.000  0.000  0.089  0.000  0.000  0.000  0.000  0.000  0.000  0.089
  3  0.000  0.000  0.092  0.000  0.000  0.000  0.000  0.000  0.000  0.092
  4  0.000  0.000  0.061  0.000  0.000  0.000  0.000  0.000  0.000  0.061
tot  0.000  0.000  0.306  0.000  0.000  0.000  0.000  0.000  0.000  0.306
 

 k-point    2 :    0.06250000 0.00000000 0.00000000     weight = 0.00146484

band   1 # energy  -14.89128357 # occ.  1.00000000
 
ion      s     py     pz     px    dxy    dyz    dz2    dxz    dx2    tot
  1  0.158  0.000  0.000  0.001  0.000  0.000  0.000  0.000  0.000  0.159
  2  0.158  0.000  0.000  0.001  0.000  0.000  0.000  0.000  0.000  0.159
  3  0.158  0.000  0.000  0.001  0.000  0.000  0.000  0.000  0.000  0.159
  4  0.158  0.000  0.000  0.001  0.000  0.000  0.000  0.000  0.000  0.159
tot  0.633  0.001  0.000  0.003  0.000  0.000  0.000  0.000  0.000  0.637
 
band   2 # energy  -14.59365123 # occ.  1.00000000
 
ion      s     py     pz     px    dxy    dyz    dz2    dxz    dx2    tot
  1  0.164  0.000  0.000  0.001  0.000  0.000  0.000  0.000  0.000  0.165
  2  0.164  0.000  0.000  0.001  0.000  0.000  0.000  0.000  0.000  0.165
  3  0.164  0.000  0.000  0.001  0.000  0.000  0.000  0.000  0.000  0.165
  4  0.164  0.000  0.000  0.001  0.000  0.000  0.000  0.000  0.000  0.165
tot  0.656  0.001  0.000  0.003  0.000  0.000  0.000  0.000  0.000  0.660
 
band   3 # energy   -3.70735671 # occ.  1.00000000
 
ion      s     py     pz     px    dxy    dyz    dz2    dxz    dx2    tot
  1  0.000  0.000  0.097  0.000  0.000  0.000  0.000  0.000  0.000  0.097
  2  0.000  0.000  0.097  0.000  0.000  0.000  0.000  0.000  0.000  0.097
  3  0.000  0.000  0.097  0.000  0.000  0.000  0.000  0.000  0.000  0.097
  4  0.000  0.000  0.097  0.000  0.000  0.000  0.000  0.000  0.000  0.097
tot  0.000  0.000  0.388  0.000  0.000  0.000  0.000  0.000  0.000  0.388
 
band   4 # energy   -1.75982096 # occ.  1.00000000
 
ion      s     py     pz     px    dxy    dyz    dz2    dxz    dx2    tot
  1  0.000  0.000  0.127  0.000  0.000  0.000  0.000  0.000  0.000  0.127
  2  0.000  0.000  0.126  0.000  0.000  0.000  0.000  0.000  0.000  0.126
  3  0.000  0.000  0.126  0.000  0.000  0.000  0.000  0.000  0.000  0.126
  4  0.000  0.000  0.127  0.000  0.000  0.000  0.000  0.000  0.000  0.127
tot  0.000  0.000  0.506  0.000  0.000  0.000  0.000  0.000  0.000  0.506
 
band   5 # energy    1.33213574 # occ.  1.00000000
 
ion      s     py     pz     px    dxy    dyz    dz2    dxz    dx2    tot
  1  0.005  0.050  0.000  0.150  0.000  0.000  0.000  0.000  0.000  0.205
  2  0.005  0.050  0.000  0.150  0.000  0.000  0.000  0.000  0.000  0.205
  3  0.005  0.050  0.000  0.150  0.000  0.000  0.000  0.000  0.000  0.205
  4  0.005  0.050  0.000  0.150  0.000  0.000  0.000  0.000  0.000  0.205
tot  0.020  0.200  0.000  0.600  0.000  0.000  0.000  0.000  0.000  0.821
 
band   6 # energy    1.35609529 # occ.  1.00000000
 
ion      s     py     pz     px    dxy    dyz    dz2    dxz    dx2    tot
  1  0.005  0.050  0.000  0.150  0.000  0.000  0.000  0.000  0.000  0.206
  2  0.005  0.050  0.000  0.151  0.000  0.000  0.000  0.000  0.000  0.206
  3  0.005  0.050  0.000  0.151  0.000  0.000  0.000  0.000  0.000  0.206
  4  0.005  0.050  0.000  0.150  0.000  0.000  0.000  0.000  0.000  0.206
tot  0.021  0.201  0.000  0.602  0.000  0.000  0.000  0.000  0.000  0.824
 
band   7 # energy    1.52179306 # occ.  1.00000000
 
ion      s     py     pz     px    dxy    dyz    dz2    dxz    dx2    tot
  1  0.000  0.155  0.000  0.052  0.000  0.000  0.000  0.000  0.000  0.206
  2  0.000  0.155  0.000  0.052  0.000  0.000  0.000  0.000  0.000  0.207
  3  0.000  0.155  0.000  0.052  0.000  0.000  0.000  0.000  0.000  0.207
  4  0.000  0.155  0.000  0.051  0.000  0.000  0.000  0.000  0.000  0.206
tot  0.000  0.619  0.000  0.206  0.000  0.000  0.000  0.000  0.000  0.825
 
band   8 # energy    1.53559173 # occ.  1.00000000
 
ion      s     py     pz     px    dxy    dyz    dz2    dxz    dx2    tot
  1  0.000  0.155  0.000  0.052  0.000  0.000  0.000  0.000  0.000  0.207
  2  0.000  0.155  0.000  0.052  0.000  0.000  0.000  0.000  0.000  0.207
  3  0.000  0.155  0.000  0.052  0.000  0.000  0.000  0.000  0.000  0.207
  4  0.000  0.155  0.000  0.052  0.000  0.000  0.000  0.000  0.000  0.207
tot  0.000  0.620  0.000  0.207  0.000  0.000  0.000  0.000  0.000  0.827
 
band   9 # energy    9.09982297 # occ.  0.00000000
 
ion      s     py     pz     px    dxy    dyz    dz2    dxz    dx2    tot
  1  0.020  0.000  0.000  0.001  0.000  0.000  0.000  0.000  0.000  0.021
  2  0.020  0.000  0.000  0.000  0.000  0.000  0.000  0.000  0.000  0.021
  3  0.020  0.000  0.000  0.000  0.000  0.000  0.000  0.000  0.000  0.021
  4  0.020  0.000  0.000  0.001  0.000  0.000  0.000  0.000  0.000  0.021
tot  0.080  0.001  0.000  0.002  0.000  0.000  0.000  0.000  0.000  0.083
 
band  10 # energy   13.17506116 # occ.  0.00000000
 
ion      s     py     pz     px    dxy    dyz    dz2    dxz    dx2    tot
  1  0.003  0.031  0.000  0.094  0.000  0.000  0.000  0.000  0.000  0.128
  2  0.003  0.032  0.000  0.096  0.000  0.000  0.000  0.000  0.000  0.131
  3  0.003  0.032  0.000  0.096  0.000  0.000  0.000  0.000  0.000  0.131
  4  0.003  0.031  0.000  0.094  0.000  0.000  0.000  0.000  0.000  0.128
tot  0.012  0.126  0.000  0.379  0.000  0.000  0.000  0.000  0.000  0.518
 
band  11 # energy   13.23694975 # occ.  0.00000000
 
ion      s     py     pz     px    dxy    dyz    dz2    dxz    dx2    tot
  1  0.003  0.032  0.000  0.097  0.000  0.000  0.000  0.000  0.000  0.132
  2  0.004  0.031  0.000  0.094  0.000  0.000  0.000  0.000  0.000  0.129
  3  0.004  0.031  0.000  0.094  0.000  0.000  0.000  0.000  0.000  0.129
  4  0.003  0.032  0.000  0.097  0.000  0.000  0.000  0.000  0.000  0.132
tot  0.014  0.127  0.000  0.381  0.000  0.000  0.000  0.000  0.000  0.522
 
band  12 # energy   13.54548361 # occ.  0.00000000
 
ion      s     py     pz     px    dxy    dyz    dz2    dxz    dx2    tot
  1  0.000  0.099  0.000  0.033  0.000  0.000  0.000  0.000  0.000  0.132
  2  0.000  0.101  0.000  0.034  0.000  0.000  0.000  0.000  0.000  0.134
  3  0.000  0.101  0.000  0.034  0.000  0.000  0.000  0.000  0.000  0.134
  4  0.000  0.099  0.000  0.033  0.000  0.000  0.000  0.000  0.000  0.132
tot  0.000  0.400  0.000  0.133  0.000  0.000  0.000  0.000  0.000  0.533
 
band  13 # energy   13.58777886 # occ.  0.00000000
 
ion      s     py     pz     px    dxy    dyz    dz2    dxz    dx2    tot
  1  0.000  0.102  0.000  0.034  0.000  0.000  0.000  0.000  0.000  0.135
  2  0.000  0.100  0.000  0.033  0.000  0.000  0.000  0.000  0.000  0.133
  3  0.000  0.100  0.000  0.033  0.000  0.000  0.000  0.000  0.000  0.133
  4  0.000  0.102  0.000  0.034  0.000  0.000  0.000  0.000  0.000  0.135
tot  0.000  0.402  0.000  0.134  0.000  0.000  0.000  0.000  0.000  0.537
 
band  14 # energy   15.41073498 # occ.  0.00000000
 
ion      s     py     pz     px    dxy    dyz    dz2    dxz    dx2    tot
  1  0.000  0.000  0.039  0.000  0.000  0.000  0.000  0.000  0.000  0.039
  2  0.000  0.000  0.119  0.000  0.000  0.000  0.000  0.000  0.000  0.119
  3  0.000  0.000  0.118  0.000  0.000  0.000  0.000  0.000  0.000  0.118
  4  0.000  0.000  0.040  0.000  0.000  0.000  0.000  0.000  0.000  0.040
tot  0.000  0.000  0.317  0.000  0.000  0.000  0.000  0.000  0.000  0.317
 

 k-point    3 :    0.12500000 0.00000000 0.00000000     weight = 0.00146484

band   1 # energy  -14.61127188 # occ.  1.00000000
 
ion      s     py     pz     px    dxy    dyz    dz2    dxz    dx2    tot
  1  0.156  0.001  0.000  0.003  0.000  0.000  0.000  0.000  0.000  0.160
  2  0.156  0.001  0.000  0.003  0.000  0.000  0.000  0.000  0.000  0.160
  3  0.156  0.001  0.000  0.003  0.000  0.000  0.000  0.000  0.000  0.160
  4  0.156  0.001  0.000  0.003  0.000  0.000  0.000  0.000  0.000  0.160
tot  0.624  0.004  0.000  0.012  0.000  0.000  0.000  0.000  0.000  0.640
 
band   2 # energy  -14.31852325 # occ.  1.00000000
 
ion      s     py     pz     px    dxy    dyz    dz2    dxz    dx2    tot
  1  0.161  0.001  0.000  0.003  0.000  0.000  0.000  0.000  0.000  0.165
  2  0.161  0.001  0.000  0.003  0.000  0.000  0.000  0.000  0.000  0.165
  3  0.161  0.001  0.000  0.003  0.000  0.000  0.000  0.000  0.000  0.165
  4  0.161  0.001  0.000  0.003  0.000  0.000  0.000  0.000  0.000  0.165
tot  0.646  0.004  0.000  0.012  0.000  0.000  0.000  0.000  0.000  0.662
 
band   3 # energy   -3.36742058 # occ.  1.00000000
 
ion      s     py     pz     px    dxy    dyz    dz2    dxz    dx2    tot
  1  0.000  0.000  0.097  0.000  0.000  0.000  0.000  0.000  0.000  0.097
  2  0.000  0.000  0.098  0.000  0.000  0.000  0.000  0.000  0.000  0.098
  3  0.000  0.000  0.098  0.000  0.000  0.000  0.000  0.000  0.000  0.098
  4  0.000  0.000  0.097  0.000  0.000  0.000  0.000  0.000  0.000  0.097
tot  0.000  0.000  0.390  0.000  0.000  0.000  0.000  0.000  0.000  0.390
 
band   4 # energy   -1.44300008 # occ.  1.00000000
 
ion      s     py     pz     px    dxy    dyz    dz2    dxz    dx2    tot
  1  0.000  0.000  0.127  0.000  0.000  0.000  0.000  0.000  0.000  0.127
  2  0.000  0.000  0.127  0.000  0.000  0.000  0.000  0.000  0.000  0.127
  3  0.000  0.000  0.127  0.000  0.000  0.000  0.000  0.000  0.000  0.127
  4  0.000  0.000  0.127  0.000  0.000  0.000  0.000  0.000  0.000  0.127
tot  0.000  0.000  0.508  0.000  0.000  0.000  0.000  0.000  0.000  0.508
 
band   5 # energy    0.30729301 # occ.  1.00000000
 
ion      s     py     pz     px    dxy    dyz    dz2    dxz    dx2    tot
  1  0.018  0.045  0.000  0.136  0.000  0.000  0.000  0.000  0.000  0.200
  2  0.018  0.046  0.000  0.137  0.000  0.000  0.000  0.000  0.000  0.200
  3  0.018  0.046  0.000  0.137  0.000  0.000  0.000  0.000  0.000  0.200
  4  0.018  0.045  0.000  0.136  0.000  0.000  0.000  0.000  0.000  0.200
tot  0.072  0.182  0.000  0.547  0.000  0.000  0.000  0.000  0.000  0.801
 
band   6 # energy    0.35253794 # occ.  1.00000000
 
ion      s     py     pz     px    dxy    dyz    dz2    dxz    dx2    tot
  1  0.018  0.046  0.000  0.138  0.000  0.000  0.000  0.000  0.000  0.202
  2  0.019  0.046  0.000  0.138  0.000  0.000  0.000  0.000  0.000  0.202
  3  0.019  0.046  0.000  0.138  0.000  0.000  0.000  0.000  0.000  0.202
  4  0.018  0.046  0.000  0.138  0.000  0.000  0.000  0.000  0.000  0.202
tot  0.074  0.183  0.000  0.550  0.000  0.000  0.000  0.000  0.000  0.808
 
band   7 # energy    0.99182273 # occ.  1.00000000
 
ion      s     py     pz     px    dxy    dyz    dz2    dxz    dx2    tot
  1  0.000  0.152  0.000  0.051  0.000  0.000  0.000  0.000  0.000  0.203
  2  0.000  0.153  0.000  0.051  0.000  0.000  0.000  0.000  0.000  0.204
  3  0.000  0.153  0.000  0.051  0.000  0.000  0.000  0.000  0.000  0.203
  4  0.000  0.152  0.000  0.051  0.000  0.000  0.000  0.000  0.000  0.203
tot  0.000  0.610  0.000  0.203  0.000  0.000  0.000  0.000  0.000  0.813
 
band   8 # energy    1.03019041 # occ.  1.00000000
 
ion      s     py     pz     px    dxy    dyz    dz2    dxz    dx2    tot
  1  0.000  0.153  0.000  0.051  0.000  0.000  0.000  0.000  0.000  0.204
  2  0.000  0.153  0.000  0.051  0.000  0.000  0.000  0.000  0.000  0.204
  3  0.000  0.153  0.000  0.051  0.000  0.000  0.000  0.000  0.000  0.204
  4  0.000  0.153  0.000  0.051  0.000  0.000  0.000  0.000  0.000  0.204
tot  0.000  0.613  0.000  0.204  0.000  0.000  0.000  0.000  0.000  0.817
 
band   9 # energy    9.43996680 # occ.  0.00000000
 
ion      s     py     pz     px    dxy    dyz    dz2    dxz    dx2    tot
  1  0.019  0.001  0.000  0.002  0.000  0.000  0.000  0.000  0.000  0.021
  2  0.018  0.001  0.000  0.002  0.000  0.000  0.000  0.000  0.000  0.021
  3  0.018  0.001  0.000  0.002  0.000  0.000  0.000  0.000  0.000  0.021
  4  0.019  0.001  0.000  0.002  0.000  0.000  0.000  0.000  0.000  0.021
tot  0.074  0.002  0.000  0.007  0.000  0.000  0.000  0.000  0.000  0.084
 
band  10 # energy   13.17718252 # occ.  0.00000000
 
ion      s     py     pz     px    dxy    dyz    dz2    dxz    dx2    tot
  1  0.017  0.026  0.000  0.079  0.000  0.000  0.000  0.000  0.000  0.122
  2  0.017  0.027  0.000  0.082  0.000  0.000  0.000  0.000  0.000  0.127
  3  0.017  0.027  0.000  0.082  0.000  0.000  0.000  0.000  0.000  0.127
  4  0.017  0.026  0.000  0.079  0.000  0.000  0.000  0.000  0.000  0.122
tot  0.068  0.107  0.000  0.322  0.000  0.000  0.000  0.000  0.000  0.497
 
band  11 # energy   13.28580933 # occ.  0.00000000
 
ion      s     py     pz     px    dxy    dyz    dz2    dxz    dx2    tot
  1  0.018  0.028  0.000  0.083  0.000  0.000  0.000  0.000  0.000  0.129
  2  0.018  0.027  0.000  0.080  0.000  0.000  0.000  0.000  0.000  0.124
  3  0.018  0.027  0.000  0.080  0.000  0.000  0.000  0.000  0.000  0.124
  4  0.018  0.028  0.000  0.083  0.000  0.000  0.000  0.000  0.000  0.129
tot  0.073  0.109  0.000  0.326  0.000  0.000  0.000  0.000  0.000  0.507
 
band  12 # energy   14.66332238 # occ.  0.00000000
 
ion      s     py     pz     px    dxy    dyz    dz2    dxz    dx2    tot
  1  0.000  0.102  0.000  0.034  0.000  0.000  0.000  0.000  0.000  0.136
  2  0.000  0.104  0.000  0.035  0.000  0.000  0.000  0.000  0.000  0.139
  3  0.000  0.104  0.000  0.035  0.000  0.000  0.000  0.000  0.000  0.139
  4  0.000  0.102  0.000  0.034  0.000  0.000  0.000  0.000  0.000  0.136
tot  0.000  0.413  0.000  0.138  0.000  0.000  0.000  0.000  0.000  0.550
 
band  13 # energy   14.70158804 # occ.  0.00000000
 
ion      s     py     pz     px    dxy    dyz    dz2    dxz    dx2    tot
  1  0.000  0.105  0.000  0.035  0.000  0.000  0.000  0.000  0.000  0.140
  2  0.000  0.103  0.000  0.034  0.000  0.000  0.000  0.000  0.000  0.137
  3  0.000  0.103  0.000  0.034  0.000  0.000  0.000  0.000  0.000  0.137
  4  0.000  0.105  0.000  0.035  0.000  0.000  0.000  0.000  0.000  0.140
tot  0.000  0.415  0.000  0.138  0.000  0.000  0.000  0.000  0.000  0.553
 
band  14 # energy   14.91048002 # occ.  0.00000000
 
ion      s     py     pz     px    dxy    dyz    dz2    dxz    dx2    tot
  1  0.000  0.000  0.152  0.000  0.000  0.000  0.000  0.000  0.000  0.152
  2  0.000  0.000  0.198  0.000  0.000  0.000  0.000  0.000  0.000  0.198
  3  0.000  0.000  0.202  0.000  0.000  0.000  0.000  0.000  0.000  0.202
  4  0.000  0.000  0.156  0.000  0.000  0.000  0.000  0.000  0.000  0.156
tot  0.000  0.000  0.708  0.000  0.000  0.000  0.000  0.000  0.000  0.708
 

 k-point    4 :    0.18750000 0.00000000 0.00000000     weight = 0.00146484

band   1 # energy  -14.14636718 # occ.  1.00000000
 
ion      s     py     pz     px    dxy    dyz    dz2    dxz    dx2    tot
  1  0.152  0.002  0.000  0.006  0.000  0.000  0.000  0.000  0.000  0.161
  2  0.153  0.002  0.000  0.006  0.000  0.000  0.000  0.000  0.000  0.161
  3  0.153  0.002  0.000  0.006  0.000  0.000  0.000  0.000  0.000  0.161
  4  0.152  0.002  0.000  0.006  0.000  0.000  0.000  0.000  0.000  0.161
tot  0.610  0.009  0.000  0.026  0.000  0.000  0.000  0.000  0.000  0.644
 
band   2 # energy  -13.86199325 # occ.  1.00000000
 
ion      s     py     pz     px    dxy    dyz    dz2    dxz    dx2    tot
  1  0.157  0.002  0.000  0.007  0.000  0.000  0.000  0.000  0.000  0.166
  2  0.157  0.002  0.000  0.007  0.000  0.000  0.000  0.000  0.000  0.166
  3  0.157  0.002  0.000  0.007  0.000  0.000  0.000  0.000  0.000  0.166
  4  0.157  0.002  0.000  0.007  0.000  0.000  0.000  0.000  0.000  0.166
tot  0.630  0.009  0.000  0.027  0.000  0.000  0.000  0.000  0.000  0.666
 
band   3 # energy   -2.80583336 # occ.  1.00000000
 
ion      s     py     pz     px    dxy    dyz    dz2    dxz    dx2    tot
  1  0.000  0.000  0.098  0.000  0.000  0.000  0.000  0.000  0.000  0.098
  2  0.000  0.000  0.099  0.000  0.000  0.000  0.000  0.000  0.000  0.099
  3  0.000  0.000  0.099  0.000  0.000  0.000  0.000  0.000  0.000  0.099
  4  0.000  0.000  0.098  0.000  0.000  0.000  0.000  0.000  0.000  0.098
tot  0.000  0.000  0.394  0.000  0.000  0.000  0.000  0.000  0.000  0.394
 
band   4 # energy   -1.12024553 # occ.  1.00000000
 
ion      s     py     pz     px    dxy    dyz    dz2    dxz    dx2    tot
  1  0.034  0.040  0.000  0.121  0.000  0.000  0.000  0.000  0.000  0.195
  2  0.034  0.040  0.000  0.121  0.000  0.000  0.000  0.000  0.000  0.195
  3  0.034  0.040  0.000  0.121  0.000  0.000  0.000  0.000  0.000  0.195
  4  0.034  0.040  0.000  0.121  0.000  0.000  0.000  0.000  0.000  0.195
tot  0.136  0.161  0.000  0.483  0.000  0.000  0.000  0.000  0.000  0.779
 
band   5 # energy   -1.04855630 # occ.  1.00000000
 
ion      s     py     pz     px    dxy    dyz    dz2    dxz    dx2    tot
  1  0.034  0.041  0.000  0.122  0.000  0.000  0.000  0.000  0.000  0.197
  2  0.035  0.041  0.000  0.122  0.000  0.000  0.000  0.000  0.000  0.197
  3  0.035  0.041  0.000  0.122  0.000  0.000  0.000  0.000  0.000  0.197
  4  0.034  0.041  0.000  0.122  0.000  0.000  0.000  0.000  0.000  0.197
tot  0.139  0.163  0.000  0.488  0.000  0.000  0.000  0.000  0.000  0.789
 
band   6 # energy   -0.92154319 # occ.  1.00000000
 
ion      s     py     pz     px    dxy    dyz    dz2    dxz    dx2    tot
  1  0.000  0.000  0.128  0.000  0.000  0.000  0.000  0.000  0.000  0.128
  2  0.000  0.000  0.128  0.000  0.000  0.000  0.000  0.000  0.000  0.128
  3  0.000  0.000  0.128  0.000  0.000  0.000  0.000  0.000  0.000  0.128
  4  0.000  0.000  0.128  0.000  0.000  0.000  0.000  0.000  0.000  0.128
tot  0.000  0.000  0.512  0.000  0.000  0.000  0.000  0.000  0.000  0.512
 
band   7 # energy    0.33234962 # occ.  1.00000000
 
ion      s     py     pz     px    dxy    dyz    dz2    dxz    dx2    tot
  1  0.000  0.150  0.000  0.050  0.000  0.000  0.000  0.000  0.000  0.201
  2  0.000  0.151  0.000  0.050  0.000  0.000  0.000  0.000  0.000  0.201
  3  0.000  0.151  0.000  0.050  0.000  0.000  0.000  0.000  0.000  0.201
  4  0.000  0.150  0.000  0.050  0.000  0.000  0.000  0.000  0.000  0.201
tot  0.000  0.602  0.000  0.201  0.000  0.000  0.000  0.000  0.000  0.803
 
band   8 # energy    0.37861519 # occ.  1.00000000
 
ion      s     py     pz     px    dxy    dyz    dz2    dxz    dx2    tot
  1  0.000  0.151  0.000  0.050  0.000  0.000  0.000  0.000  0.000  0.202
  2  0.000  0.152  0.000  0.050  0.000  0.000  0.000  0.000  0.000  0.202
  3  0.000  0.152  0.000  0.051  0.000  0.000  0.000  0.000  0.000  0.202
  4  0.000  0.151  0.000  0.050  0.000  0.000  0.000  0.000  0.000  0.202
tot  0.000  0.606  0.000  0.202  0.000  0.000  0.000  0.000  0.000  0.807
 
band   9 # energy   10.00732142 # occ.  0.00000000
 
ion      s     py     pz     px    dxy    dyz    dz2    dxz    dx2    tot
  1  0.016  0.001  0.000  0.004  0.000  0.000  0.000  0.000  0.000  0.022
  2  0.016  0.001  0.000  0.004  0.000  0.000  0.000  0.000  0.000  0.021
  3  0.016  0.001  0.000  0.004  0.000  0.000  0.000  0.000  0.000  0.021
  4  0.016  0.001  0.000  0.004  0.000  0.000  0.000  0.000  0.000  0.022
tot  0.065  0.005  0.000  0.016  0.000  0.000  0.000  0.000  0.000  0.085
 
band  10 # energy   13.00140394 # occ.  0.00000000
 
ion      s     py     pz     px    dxy    dyz    dz2    dxz    dx2    tot
  1  0.037  0.020  0.000  0.059  0.000  0.000  0.000  0.000  0.000  0.116
  2  0.040  0.021  0.000  0.062  0.000  0.000  0.000  0.000  0.000  0.123
  3  0.040  0.021  0.000  0.062  0.000  0.000  0.000  0.000  0.000  0.123
  4  0.037  0.020  0.000  0.059  0.000  0.000  0.000  0.000  0.000  0.116
tot  0.154  0.081  0.000  0.242  0.000  0.000  0.000  0.000  0.000  0.477
 
band  11 # energy   13.20194932 # occ.  0.00000000
 
ion      s     py     pz     px    dxy    dyz    dz2    dxz    dx2    tot
  1  0.043  0.021  0.000  0.063  0.000  0.000  0.000  0.000  0.000  0.126
  2  0.040  0.020  0.000  0.060  0.000  0.000  0.000  0.000  0.000  0.120
  3  0.040  0.020  0.000  0.060  0.000  0.000  0.000  0.000  0.000  0.120
  4  0.043  0.021  0.000  0.063  0.000  0.000  0.000  0.000  0.000  0.126
tot  0.166  0.082  0.000  0.245  0.000  0.000  0.000  0.000  0.000  0.492
 
band  12 # energy   13.48039181 # occ.  0.00000000
 
ion      s     py     pz     px    dxy    dyz    dz2    dxz    dx2    tot
  1  0.000  0.000  0.150  0.000  0.000  0.000  0.000  0.000  0.000  0.150
  2  0.000  0.000  0.174  0.000  0.000  0.000  0.000  0.000  0.000  0.174
  3  0.000  0.000  0.174  0.000  0.000  0.000  0.000  0.000  0.000  0.174
  4  0.000  0.000  0.150  0.000  0.000  0.000  0.000  0.000  0.000  0.150
tot  0.000  0.000  0.648  0.000  0.000  0.000  0.000  0.000  0.000  0.648
 
band  13 # energy   13.94290247 # occ.  0.00000000
 
ion      s     py     pz     px    dxy    dyz    dz2    dxz    dx2    tot
  1  0.000  0.000  0.180  0.000  0.000  0.000  0.000  0.000  0.000  0.180
  2  0.000  0.000  0.166  0.000  0.000  0.000  0.000  0.000  0.000  0.166
  3  0.000  0.000  0.166  0.000  0.000  0.000  0.000  0.000  0.000  0.166
  4  0.000  0.000  0.180  0.000  0.000  0.000  0.000  0.000  0.000  0.180
tot  0.000  0.000  0.694  0.000  0.000  0.000  0.000  0.000  0.000  0.694
 
band  14 # energy   16.10129455 # occ.  0.00000000
 
ion      s     py     pz     px    dxy    dyz    dz2    dxz    dx2    tot
  1  0.000  0.000  0.087  0.000  0.000  0.000  0.000  0.000  0.000  0.087
  2  0.000  0.000  0.070  0.000  0.000  0.000  0.000  0.000  0.000  0.070
  3  0.000  0.000  0.070  0.000  0.000  0.000  0.000  0.000  0.000  0.070
  4  0.000  0.000  0.087  0.000  0.000  0.000  0.000  0.000  0.000  0.087
tot  0.000  0.000  0.313  0.000  0.000  0.000  0.000  0.000  0.000  0.314
 

 k-point    5 :    0.25000000 0.00000000 0.00000000     weight = 0.00146484

band   1 # energy  -13.49996493 # occ.  1.00000000
 
ion      s     py     pz     px    dxy    dyz    dz2    dxz    dx2    tot
  1  0.147  0.004  0.000  0.011  0.000  0.000  0.000  0.000  0.000  0.163
  2  0.148  0.004  0.000  0.011  0.000  0.000  0.000  0.000  0.000  0.163
  3  0.148  0.004  0.000  0.011  0.000  0.000  0.000  0.000  0.000  0.163
  4  0.147  0.004  0.000  0.011  0.000  0.000  0.000  0.000  0.000  0.163
tot  0.590  0.015  0.000  0.045  0.000  0.000  0.000  0.000  0.000  0.651
 
band   2 # energy  -13.22680865 # occ.  1.00000000
 
ion      s     py     pz     px    dxy    dyz    dz2    dxz    dx2    tot
  1  0.152  0.004  0.000  0.012  0.000  0.000  0.000  0.000  0.000  0.168
  2  0.152  0.004  0.000  0.012  0.000  0.000  0.000  0.000  0.000  0.168
  3  0.152  0.004  0.000  0.012  0.000  0.000  0.000  0.000  0.000  0.168
  4  0.152  0.004  0.000  0.012  0.000  0.000  0.000  0.000  0.000  0.168
tot  0.609  0.016  0.000  0.047  0.000  0.000  0.000  0.000  0.000  0.672
 
band   3 # energy   -2.73915749 # occ.  1.00000000
 
ion      s     py     pz     px    dxy    dyz    dz2    dxz    dx2    tot
  1  0.049  0.035  0.000  0.105  0.000  0.000  0.000  0.000  0.000  0.189
  2  0.049  0.035  0.000  0.105  0.000  0.000  0.000  0.000  0.000  0.190
  3  0.049  0.035  0.000  0.105  0.000  0.000  0.000  0.000  0.000  0.190
  4  0.049  0.035  0.000  0.105  0.000  0.000  0.000  0.000  0.000  0.189
tot  0.198  0.140  0.000  0.420  0.000  0.000  0.000  0.000  0.000  0.757
 
band   4 # energy   -2.63605781 # occ.  1.00000000
 