<?xml version="1.0" encoding="ISO-8859-1"?>
<modeling>
 <generator>
  <i name="program" type="string">vasp </i>
  <i name="version" type="string">5.2.12  </i>
  <i name="subversion" type="string">11Nov11 complex                                                      parallel </i>
  <i name="platform" type="string">LinuxIFC </i>
  <i name="date" type="string">2012 10 17 </i>
  <i name="time" type="string">09:39:31 </i>
 </generator>
 <incar>
  <i type="string" name="PREC">accurate</i>
  <i type="int" name="ISPIN">     2</i>
  <i name="ENCUT">    350.00000000</i>
  <i type="logical" name="LREAL"> F  </i>
  <i type="int" name="ISMEAR">     1</i>
  <i name="SIGMA">      0.05000000</i>
  <i type="logical" name="LORBIT"> F  </i>
 </incar>
 <kpoints>
  <generation param="Gamma">
   <v type="int" name="divisions">      16       16       16 </v>
   <v name="usershift">      0.00000000       0.00000000       0.00000000 </v>
   <v name="genvec1">      0.06250000       0.00000000       0.00000000 </v>
   <v name="genvec2">      0.00000000       0.06250000       0.00000000 </v>
   <v name="genvec3">      0.00000000       0.00000000       0.06250000 </v>
   <v name="shift">      0.00000000       0.00000000       0.00000000 </v>
  </generation>
  <varray name="kpointlist" >
   <v>       0.00000000       0.00000000       0.00000000 </v>
   <v>       0.06250000       0.00000000       0.00000000 </v>
   <v>       0.12500000       0.00000000       0.00000000 </v>
   <v>       0.18750000       0.00000000       0.00000000 </v>
   <v>       0.25000000       0.00000000       0.00000000 </v>
   <v>       0.31250000       0.00000000       0.00000000 </v>
   <v>       0.37500000       0.00000000       0.00000000 </v>
   <v>       0.43750000       0.00000000       0.00000000 </v>
   <v>       0.50000000       0.00000000       0.00000000 </v>
   <v>       0.06250000       0.06250000       0.00000000 </v>
   <v>       0.12500000       0.06250000       0.00000000 </v>
   <v>       0.18750000       0.06250000       0.00000000 </v>
   <v>       0.25000000       0.06250000       0.00000000 </v>
   <v>       0.31250000       0.06250000       0.00000000 </v>
   <v>       0.37500000       0.06250000       0.00000000 </v>
   <v>       0.43750000       0.06250000       0.00000000 </v>
   <v>       0.12500000       0.12500000       0.00000000 </v>
   <v>       0.18750000       0.12500000       0.00000000 </v>
   <v>       0.25000000       0.12500000       0.00000000 </v>
   <v>       0.31250000       0.12500000       0.00000000 </v>
   <v>       0.37500000       0.12500000       0.00000000 </v>
   <v>       0.43750000       0.12500000       0.00000000 </v>
   <v>       0.18750000       0.18750000       0.00000000 </v>
   <v>       0.25000000       0.18750000       0.00000000 </v>
   <v>       0.31250000       0.18750000       0.00000000 </v>
   <v>       0.37500000       0.18750000       0.00000000 </v>
   <v>       0.25000000       0.25000000       0.00000000 </v>
   <v>       0.31250000       0.25000000       0.00000000 </v>
   <v>       0.37500000       0.25000000       0.00000000 </v>
   <v>       0.31250000       0.31250000       0.00000000 </v>
   <v>       0.00000000       0.00000000       0.06250000 </v>
   <v>       0.06250000       0.00000000       0.06250000 </v>
   <v>       0.12500000       0.00000000       0.06250000 </v>
   <v>       0.18750000       0.00000000       0.06250000 </v>
   <v>       0.25000000       0.00000000       0.06250000 </v>
   <v>       0.31250000       0.00000000       0.06250000 </v>
   <v>       0.37500000       0.00000000       0.06250000 </v>
   <v>       0.43750000       0.00000000       0.06250000 </v>
   <v>       0.50000000       0.00000000       0.06250000 </v>
   <v>       0.06250000       0.06250000       0.06250000 </v>
   <v>       0.12500000       0.06250000       0.06250000 </v>
   <v>       0.18750000       0.06250000       0.06250000 </v>
   <v>       0.25000000       0.06250000       0.06250000 </v>
   <v>       0.31250000       0.06250000       0.06250000 </v>
   <v>       0.37500000       0.06250000       0.06250000 </v>
   <v>       0.43750000       0.06250000       0.06250000 </v>
   <v>       0.12500000       0.12500000       0.06250000 </v>
   <v>       0.18750000       0.12500000       0.06250000 </v>
   <v>       0.25000000       0.12500000       0.06250000 </v>
   <v>       0.31250000       0.12500000       0.06250000 </v>
   <v>       0.37500000       0.12500000       0.06250000 </v>
   <v>       0.43750000       0.12500000       0.06250000 </v>
   <v>       0.18750000       0.18750000       0.06250000 </v>
   <v>       0.25000000       0.18750000       0.06250000 </v>
   <v>       0.31250000       0.18750000       0.06250000 </v>
   <v>       0.37500000       0.18750000       0.06250000 </v>
   <v>       0.25000000       0.25000000       0.06250000 </v>
   <v>       0.31250000       0.25000000       0.06250000 </v>
   <v>       0.37500000       0.25000000       0.06250000 </v>
   <v>       0.31250000       0.31250000       0.06250000 </v>
   <v>       0.00000000       0.00000000       0.12500000 </v>
   <v>       0.06250000       0.00000000       0.12500000 </v>
   <v>       0.12500000       0.00000000       0.12500000 </v>
   <v>       0.18750000       0.00000000       0.12500000 </v>
   <v>       0.25000000       0.00000000       0.12500000 </v>
   <v>       0.31250000       0.00000000       0.12500000 </v>
   <v>       0.37500000       0.00000000       0.12500000 </v>
   <v>       0.43750000       0.00000000       0.12500000 </v>
   <v>       0.50000000       0.00000000       0.12500000 </v>
   <v>       0.06250000       0.06250000       0.12500000 </v>
   <v>       0.12500000       0.06250000       0.12500000 </v>
   <v>       0.18750000       0.06250000       0.12500000 </v>
   <v>       0.25000000       0.06250000       0.12500000 </v>
   <v>       0.31250000       0.06250000       0.12500000 </v>
   <v>       0.37500000       0.06250000       0.12500000 </v>
   <v>       0.43750000       0.06250000       0.12500000 </v>
   <v>       0.12500000       0.12500000       0.12500000 </v>
   <v>       0.18750000       0.12500000       0.12500000 </v>
   <v>       0.25000000       0.12500000       0.12500000 </v>
   <v>       0.31250000       0.12500000       0.12500000 </v>
   <v>       0.37500000       0.12500000       0.12500000 </v>
   <v>       0.43750000       0.12500000       0.12500000 </v>
   <v>       0.18750000       0.18750000       0.12500000 </v>
   <v>       0.25000000       0.18750000       0.12500000 </v>
   <v>       0.31250000       0.18750000       0.12500000 </v>
   <v>       0.37500000       0.18750000       0.12500000 </v>
   <v>       0.25000000       0.25000000       0.12500000 </v>
   <v>       0.31250000       0.25000000       0.12500000 </v>
   <v>       0.37500000       0.25000000       0.12500000 </v>
   <v>       0.31250000       0.31250000       0.12500000 </v>
   <v>       0.00000000       0.00000000       0.18750000 </v>
   <v>       0.06250000       0.00000000       0.18750000 </v>
   <v>       0.12500000       0.00000000       0.18750000 </v>
   <v>       0.18750000       0.00000000       0.18750000 </v>
   <v>       0.25000000       0.00000000       0.18750000 </v>
   <v>       0.31250000       0.00000000       0.18750000 </v>
   <v>       0.37500000       0.00000000       0.18750000 </v>
   <v>       0.43750000       0.00000000       0.18750000 </v>
   <v>       0.50000000       0.00000000       0.18750000 </v>
   <v>       0.06250000       0.06250000       0.18750000 </v>
   <v>       0.12500000       0.06250000       0.18750000 </v>
   <v>       0.18750000       0.06250000       0.18750000 </v>
   <v>       0.25000000       0.06250000       0.18750000 </v>
   <v>       0.31250000       0.06250000       0.18750000 </v>
   <v>       0.37500000       0.06250000       0.18750000 </v>
   <v>       0.43750000       0.06250000       0.18750000 </v>
   <v>       0.12500000       0.12500000       0.18750000 </v>
   <v>       0.18750000       0.12500000       0.18750000 </v>
   <v>       0.25000000       0.12500000       0.18750000 </v>
   <v>       0.31250000       0.12500000       0.18750000 </v>
   <v>       0.37500000       0.12500000       0.18750000 </v>
   <v>       0.43750000       0.12500000       0.18750000 </v>
   <v>       0.18750000       0.18750000       0.18750000 </v>
   <v>       0.25000000       0.18750000       0.18750000 </v>
   <v>       0.31250000       0.18750000       0.18750000 </v>
   <v>       0.37500000       0.18750000       0.18750000 </v>
   <v>       0.25000000       0.25000000       0.18750000 </v>
   <v>       0.31250000       0.25000000       0.18750000 </v>
   <v>       0.37500000       0.25000000       0.18750000 </v>
   <v>       0.31250000       0.31250000       0.18750000 </v>
   <v>       0.00000000       0.00000000       0.25000000 </v>
   <v>       0.06250000       0.00000000       0.25000000 </v>
   <v>       0.12500000       0.00000000       0.25000000 </v>
   <v>       0.18750000       0.00000000       0.25000000 </v>
   <v>       0.25000000       0.00000000       0.25000000 </v>
   <v>       0.31250000       0.00000000       0.25000000 </v>
   <v>       0.37500000       0.00000000       0.25000000 </v>
   <v>       0.43750000       0.00000000       0.25000000 </v>
   <v>       0.50000000       0.00000000       0.25000000 </v>
   <v>       0.06250000       0.06250000       0.25000000 </v>
   <v>       0.12500000       0.06250000       0.25000000 </v>
   <v>       0.18750000       0.06250000       0.25000000 </v>
   <v>       0.25000000       0.06250000       0.25000000 </v>
   <v>       0.31250000       0.06250000       0.25000000 </v>
   <v>       0.37500000       0.06250000       0.25000000 </v>
   <v>       0.43750000       0.06250000       0.25000000 </v>
   <v>       0.12500000       0.12500000       0.25000000 </v>
   <v>       0.18750000       0.12500000       0.25000000 </v>
   <v>       0.25000000       0.12500000       0.25000000 </v>
   <v>       0.31250000       0.12500000       0.25000000 </v>
   <v>       0.37500000       0.12500000       0.25000000 </v>
   <v>       0.43750000       0.12500000       0.25000000 </v>
   <v>       0.18750000       0.18750000       0.25000000 </v>
   <v>       0.25000000       0.18750000       0.25000000 </v>
   <v>       0.31250000       0.18750000       0.25000000 </v>
   <v>       0.37500000       0.18750000       0.25000000 </v>
   <v>       0.25000000       0.25000000       0.25000000 </v>
   <v>       0.31250000       0.25000000       0.25000000 </v>
   <v>       0.37500000       0.25000000       0.25000000 </v>
   <v>       0.31250000       0.31250000       0.25000000 </v>
   <v>       0.00000000       0.00000000       0.31250000 </v>
   <v>       0.06250000       0.00000000       0.31250000 </v>
   <v>       0.12500000       0.00000000       0.31250000 </v>
   <v>       0.18750000       0.00000000       0.31250000 </v>
   <v>       0.25000000       0.00000000       0.31250000 </v>
   <v>       0.31250000       0.00000000       0.31250000 </v>
   <v>       0.37500000       0.00000000       0.31250000 </v>
   <v>       0.43750000       0.00000000       0.31250000 </v>
   <v>       0.50000000       0.00000000       0.31250000 </v>
   <v>       0.06250000       0.06250000       0.31250000 </v>
   <v>       0.12500000       0.06250000       0.31250000 </v>
   <v>       0.18750000       0.06250000       0.31250000 </v>
   <v>       0.25000000       0.06250000       0.31250000 </v>
   <v>       0.31250000       0.06250000       0.31250000 </v>
   <v>       0.37500000       0.06250000       0.31250000 </v>
   <v>       0.43750000       0.06250000       0.31250000 </v>
   <v>       0.12500000       0.12500000       0.31250000 </v>
   <v>       0.18750000       0.12500000       0.31250000 </v>
   <v>       0.25000000       0.12500000       0.31250000 </v>
   <v>       0.31250000       0.12500000       0.31250000 </v>
   <v>       0.37500000       0.12500000       0.31250000 </v>
   <v>       0.43750000       0.12500000       0.31250000 </v>
   <v>       0.18750000       0.18750000       0.31250000 </v>
   <v>       0.25000000       0.18750000       0.31250000 </v>
   <v>       0.31250000       0.18750000       0.31250000 </v>
   <v>       0.37500000       0.18750000       0.31250000 </v>
   <v>       0.25000000       0.25000000       0.31250000 </v>
   <v>       0.31250000       0.25000000       0.31250000 </v>
   <v>       0.37500000       0.25000000       0.31250000 </v>
   <v>       0.31250000       0.31250000       0.31250000 </v>
   <v>       0.00000000       0.00000000       0.37500000 </v>
   <v>       0.06250000       0.00000000       0.37500000 </v>
   <v>       0.12500000       0.00000000       0.37500000 </v>
   <v>       0.18750000       0.00000000       0.37500000 </v>
   <v>       0.25000000       0.00000000       0.37500000 </v>
   <v>       0.31250000       0.00000000       0.37500000 </v>
   <v>       0.37500000       0.00000000       0.37500000 </v>
   <v>       0.43750000       0.00000000       0.37500000 </v>
   <v>       0.50000000       0.00000000       0.37500000 </v>
   <v>       0.06250000       0.06250000       0.37500000 </v>
   <v>       0.12500000       0.06250000       0.37500000 </v>
   <v>       0.18750000       0.06250000       0.37500000 </v>
   <v>       0.25000000       0.06250000       0.37500000 </v>
   <v>       0.31250000       0.06250000       0.37500000 </v>
   <v>       0.37500000       0.06250000       0.37500000 </v>
   <v>       0.43750000       0.06250000       0.37500000 </v>
   <v>       0.12500000       0.12500000       0.37500000 </v>
   <v>       0.18750000       0.12500000       0.37500000 </v>
   <v>       0.25000000       0.12500000       0.37500000 </v>
   <v>       0.31250000       0.12500000       0.37500000 </v>
   <v>       0.37500000       0.12500000       0.37500000 </v>
   <v>       0.43750000       0.12500000       0.37500000 </v>
   <v>       0.18750000       0.18750000       0.37500000 </v>
   <v>       0.25000000       0.18750000       0.37500000 </v>
   <v>       0.31250000       0.18750000       0.37500000 </v>
   <v>       0.37500000       0.18750000       0.37500000 </v>
   <v>       0.25000000       0.25000000       0.37500000 </v>
   <v>       0.31250000       0.25000000       0.37500000 </v>
   <v>       0.37500000       0.25000000       0.37500000 </v>
   <v>       0.31250000       0.31250000       0.37500000 </v>
   <v>       0.00000000       0.00000000       0.43750000 </v>
   <v>       0.06250000       0.00000000       0.43750000 </v>
   <v>       0.12500000       0.00000000       0.43750000 </v>
   <v>       0.18750000       0.00000000       0.43750000 </v>
   <v>       0.25000000       0.00000000       0.43750000 </v>
   <v>       0.31250000       0.00000000       0.43750000 </v>
   <v>       0.37500000       0.00000000       0.43750000 </v>
   <v>       0.43750000       0.00000000       0.43750000 </v>
   <v>       0.50000000       0.00000000       0.43750000 </v>
   <v>       0.06250000       0.06250000       0.43750000 </v>
   <v>       0.12500000       0.06250000       0.43750000 </v>
   <v>       0.18750000       0.06250000       0.43750000 </v>
   <v>       0.25000000       0.06250000       0.43750000 </v>
   <v>       0.31250000       0.06250000       0.43750000 </v>
   <v>       0.37500000       0.06250000       0.43750000 </v>
   <v>       0.43750000       0.06250000       0.43750000 </v>
   <v>       0.12500000       0.12500000       0.43750000 </v>
   <v>       0.18750000       0.12500000       0.43750000 </v>
   <v>       0.25000000       0.12500000       0.43750000 </v>
   <v>       0.31250000       0.12500000       0.43750000 </v>
   <v>       0.37500000       0.12500000       0.43750000 </v>
   <v>       0.43750000       0.12500000       0.43750000 </v>
   <v>       0.18750000       0.18750000       0.43750000 </v>
   <v>       0.25000000       0.18750000       0.43750000 </v>
   <v>       0.31250000       0.18750000       0.43750000 </v>
   <v>       0.37500000       0.18750000       0.43750000 </v>
   <v>       0.25000000       0.25000000       0.43750000 </v>
   <v>       0.31250000       0.25000000       0.43750000 </v>
   <v>       0.37500000       0.25000000       0.43750000 </v>
   <v>       0.31250000       0.31250000       0.43750000 </v>
   <v>       0.00000000       0.00000000       0.50000000 </v>
   <v>       0.06250000       0.00000000       0.50000000 </v>
   <v>       0.12500000       0.00000000       0.50000000 </v>
   <v>       0.18750000       0.00000000       0.50000000 </v>
   <v>       0.25000000       0.00000000       0.50000000 </v>
   <v>       0.31250000       0.00000000       0.50000000 </v>
   <v>       0.37500000       0.00000000       0.50000000 </v>
   <v>       0.43750000       0.00000000       0.50000000 </v>
   <v>       0.50000000       0.00000000       0.50000000 </v>
   <v>       0.06250000       0.06250000       0.50000000 </v>
   <v>       0.12500000       0.06250000       0.50000000 </v>
   <v>       0.18750000       0.06250000       0.50000000 </v>
   <v>       0.25000000       0.06250000       0.50000000 </v>
   <v>       0.31250000       0.06250000       0.50000000 </v>
   <v>       0.37500000       0.06250000       0.50000000 </v>
   <v>       0.43750000       0.06250000       0.50000000 </v>
   <v>       0.12500000       0.12500000       0.50000000 </v>
   <v>       0.18750000       0.12500000       0.50000000 </v>
   <v>       0.25000000       0.12500000       0.50000000 </v>
   <v>       0.31250000       0.12500000       0.50000000 </v>
   <v>       0.37500000       0.12500000       0.50000000 </v>
   <v>       0.43750000       0.12500000       0.50000000 </v>
   <v>       0.18750000       0.18750000       0.50000000 </v>
   <v>       0.25000000       0.18750000       0.50000000 </v>
   <v>       0.31250000       0.18750000       0.50000000 </v>
   <v>       0.37500000       0.18750000       0.50000000 </v>
   <v>       0.25000000       0.25000000       0.50000000 </v>
   <v>       0.31250000       0.25000000       0.50000000 </v>
   <v>       0.37500000       0.25000000       0.50000000 </v>
   <v>       0.31250000       0.31250000       0.50000000 </v>
  </varray>
  <varray name="weights" >
   <v>       0.00024414 </v>
   <v>       0.00146484 </v>
   <v>       0.00146484 </v>
   <v>       0.00146484 </v>
   <v>       0.00146484 </v>
   <v>       0.00146484 </v>
   <v>       0.00146484 </v>
   <v>       0.00146484 </v>
   <v>       0.00073242 </v>
   <v>       0.00146484 </v>
   <v>       0.00292969 </v>
   <v>       0.00292969 </v>
   <v>       0.00292969 </v>
   <v>       0.00292969 </v>
   <v>       0.00292969 </v>
   <v>       0.00292969 </v>
   <v>       0.00146484 </v>
   <v>       0.00292969 </v>
   <v>       0.00292969 </v>
   <v>       0.00292969 </v>
   <v>       0.00292969 </v>
   <v>       0.00146484 </v>
   <v>       0.00146484 </v>
   <v>       0.00292969 </v>
   <v>       0.00292969 </v>
   <v>       0.00292969 </v>
   <v>       0.00146484 </v>
   <v>       0.00292969 </v>
   <v>       0.00146484 </v>
   <v>       0.00146484 </v>
   <v>       0.00048828 </v>
   <v>       0.00292969 </v>
   <v>       0.00292969 </v>
   <v>       0.00292969 </v>
   <v>       0.00292969 </v>
   <v>       0.00292969 </v>
   <v>       0.00292969 </v>
   <v>       0.00292969 </v>
   <v>       0.00146484 </v>
   <v>       0.00292969 </v>
   <v>       0.00585938 </v>
   <v>       0.00585938 </v>
   <v>       0.00585938 </v>
   <v>       0.00585938 </v>
   <v>       0.00585938 </v>
   <v>       0.00585938 </v>
   <v>       0.00292969 </v>
   <v>       0.00585938 </v>
   <v>       0.00585938 </v>
   <v>       0.00585938 </v>
   <v>       0.00585938 </v>
   <v>       0.00292969 </v>
   <v>       0.00292969 </v>
   <v>       0.00585938 </v>
   <v>       0.00585938 </v>
   <v>       0.00585938 </v>
   <v>       0.00292969 </v>
   <v>       0.00585938 </v>
   <v>       0.00292969 </v>
   <v>       0.00292969 </v>
   <v>       0.00048828 </v>
   <v>       0.00292969 </v>
   <v>       0.00292969 </v>
   <v>       0.00292969 </v>
   <v>       0.00292969 </v>
   <v>       0.00292969 </v>
   <v>       0.00292969 </v>
   <v>       0.00292969 </v>
   <v>       0.00146484 </v>
   <v>       0.00292969 </v>
   <v>       0.00585938 </v>
   <v>       0.00585938 </v>
   <v>       0.00585938 </v>
   <v>       0.00585938 </v>
   <v>       0.00585938 </v>
   <v>       0.00585938 </v>
   <v>       0.00292969 </v>
   <v>       0.00585938 </v>
   <v>       0.00585938 </v>
   <v>       0.00585938 </v>
   <v>       0.00585938 </v>
   <v>       0.00292969 </v>
   <v>       0.00292969 </v>
   <v>       0.00585938 </v>
   <v>       0.00585938 </v>
   <v>       0.00585938 </v>
   <v>       0.00292969 </v>
   <v>       0.00585938 </v>
   <v>       0.00292969 </v>
   <v>       0.00292969 </v>
   <v>       0.00048828 </v>
   <v>       0.00292969 </v>
   <v>       0.00292969 </v>
   <v>       0.00292969 </v>
   <v>       0.00292969 </v>
   <v>       0.00292969 </v>
   <v>       0.00292969 </v>
   <v>       0.00292969 </v>
   <v>       0.00146484 </v>
   <v>       0.00292969 </v>
   <v>       0.00585938 </v>
   <v>       0.00585938 </v>
   <v>       0.00585938 </v>
   <v>       0.00585938 </v>
   <v>       0.00585938 </v>
   <v>       0.00585938 </v>
   <v>       0.00292969 </v>
   <v>       0.00585938 </v>
   <v>       0.00585938 </v>
   <v>       0.00585938 </v>
   <v>       0.00585938 </v>
   <v>       0.00292969 </v>
   <v>       0.00292969 </v>
   <v>       0.00585938 </v>
   <v>       0.00585938 </v>
   <v>       0.00585938 </v>
   <v>       0.00292969 </v>
   <v>       0.00585938 </v>
   <v>       0.00292969 </v>
   <v>       0.00292969 </v>
   <v>       0.00048828 </v>
   <v>       0.00292969 </v>
   <v>       0.00292969 </v>
   <v>       0.00292969 </v>
   <v>       0.00292969 </v>
   <v>       0.00292969 </v>
   <v>       0.00292969 </v>
   <v>       0.00292969 </v>
   <v>       0.00146484 </v>
   <v>       0.00292969 </v>
   <v>       0.00585938 </v>
   <v>       0.00585938 </v>
   <v>       0.00585938 </v>
   <v>       0.00585938 </v>
   <v>       0.00585938 </v>
   <v>       0.00585938 </v>
   <v>       0.00292969 </v>
   <v>       0.00585938 </v>
   <v>       0.00585938 </v>
   <v>       0.00585938 </v>
   <v>       0.00585938 </v>
   <v>       0.00292969 </v>
   <v>       0.00292969 </v>
   <v>       0.00585938 </v>
   <v>       0.00585938 </v>
   <v>       0.00585938 </v>
   <v>       0.00292969 </v>
   <v>       0.00585938 </v>
   <v>       0.00292969 </v>
   <v>       0.00292969 </v>
   <v>       0.00048828 </v>
   <v>       0.00292969 </v>
   <v>       0.00292969 </v>
   <v>       0.00292969 </v>
   <v>       0.00292969 </v>
   <v>       0.00292969 </v>
   <v>       0.00292969 </v>
   <v>       0.00292969 </v>
   <v>       0.00146484 </v>
   <v>       0.00292969 </v>
   <v>       0.00585938 </v>
   <v>       0.00585938 </v>
   <v>       0.00585938 </v>
   <v>       0.00585938 </v>
   <v>       0.00585938 </v>
   <v>       0.00585938 </v>
   <v>       0.00292969 </v>
   <v>       0.00585938 </v>
   <v>       0.00585938 </v>
   <v>       0.00585938 </v>
   <v>       0.00585938 </v>
   <v>       0.00292969 </v>
   <v>       0.00292969 </v>
   <v>       0.00585938 </v>
   <v>       0.00585938 </v>
   <v>       0.00585938 </v>
   <v>       0.00292969 </v>
   <v>       0.00585938 </v>
   <v>       0.00292969 </v>
   <v>       0.00292969 </v>
   <v>       0.00048828 </v>
   <v>       0.00292969 </v>
   <v>       0.00292969 </v>
   <v>       0.00292969 </v>
   <v>       0.00292969 </v>
   <v>       0.00292969 </v>
   <v>       0.00292969 </v>
   <v>       0.00292969 </v>
   <v>       0.00146484 </v>
   <v>       0.00292969 </v>
   <v>       0.00585938 </v>
   <v>       0.00585938 </v>
   <v>       0.00585938 </v>
   <v>       0.00585938 </v>
   <v>       0.00585938 </v>
   <v>       0.00585938 </v>
   <v>       0.00292969 </v>
   <v>       0.00585938 </v>
   <v>       0.00585938 </v>
   <v>       0.00585938 </v>
   <v>       0.00585938 </v>
   <v>       0.00292969 </v>
   <v>       0.00292969 </v>
   <v>       0.00585938 </v>
   <v>       0.00585938 </v>
   <v>       0.00585938 </v>
   <v>       0.00292969 </v>
   <v>       0.00585938 </v>
   <v>       0.00292969 </v>
   <v>       0.00292969 </v>
   <v>       0.00048828 </v>
   <v>       0.00292969 </v>
   <v>       0.00292969 </v>
   <v>       0.00292969 </v>
   <v>       0.00292969 </v>
   <v>       0.00292969 </v>
   <v>       0.00292969 </v>
   <v>       0.00292969 </v>
   <v>       0.00146484 </v>
   <v>       0.00292969 </v>
   <v>       0.00585938 </v>
   <v>       0.00585938 </v>
   <v>       0.00585938 </v>
   <v>       0.00585938 </v>
   <v>       0.00585938 </v>
   <v>       0.00585938 </v>
   <v>       0.00292969 </v>
   <v>       0.00585938 </v>
   <v>       0.00585938 </v>
   <v>       0.00585938 </v>
   <v>       0.00585938 </v>
   <v>       0.00292969 </v>
   <v>       0.00292969 </v>
   <v>       0.00585938 </v>
   <v>       0.00585938 </v>
   <v>       0.00585938 </v>
   <v>       0.00292969 </v>
   <v>       0.00585938 </v>
   <v>       0.00292969 </v>
   <v>       0.00292969 </v>
   <v>       0.00024414 </v>
   <v>       0.00146484 </v>
   <v>       0.00146484 </v>
   <v>       0.00146484 </v>
   <v>       0.00146484 </v>
   <v>       0.00146484 </v>
   <v>       0.00146484 </v>
   <v>       0.00146484 </v>
   <v>       0.00073242 </v>
   <v>       0.00146484 </v>
   <v>       0.00292969 </v>
   <v>       0.00292969 </v>
   <v>       0.00292969 </v>
   <v>       0.00292969 </v>
   <v>       0.00292969 </v>
   <v>       0.00292969 </v>
   <v>       0.00146484 </v>
   <v>       0.00292969 </v>
   <v>       0.00292969 </v>
   <v>       0.00292969 </v>
   <v>       0.00292969 </v>
   <v>       0.00146484 </v>
   <v>       0.00146484 </v>
   <v>       0.00292969 </v>
   <v>       0.00292969 </v>
   <v>       0.00292969 </v>
   <v>       0.00146484 </v>
   <v>       0.00292969 </v>
   <v>       0.00146484 </v>
   <v>       0.00146484 </v>
  </varray>
 </kpoints>
 <parameters>
  <separator name="general" >
   <i type="string" name="SYSTEM">unknown system</i>
   <i type="logical" name="LCOMPAT"> F  </i>
  </separator>
  <separator name="electronic" >
   <i type="string" name="PREC">accura</i>
   <i name="ENMAX">    350.00000000</i>
   <i name="ENAUG">    644.87300000</i>
   <i name="EDIFF">      0.00010000</i>
   <i type="int" name="IALGO">    38</i>
   <i type="int" name="IWAVPR">    10</i>
   <i type="int" name="NBANDS">    14</i>
   <i name="NELECT">     16.00000000</i>
   <i type="int" name="TURBO">     0</i>
   <i type="int" name="IRESTART">     0</i>
   <i type="int" name="NREBOOT">     0</i>
   <i type="int" name="NMIN">     0</i>
   <i name="EREF">      0.00000000</i>
   <separator name="electronic smearing" >
    <i type="int" name="ISMEAR">     1</i>
    <i name="SIGMA">      0.05000000</i>
    <i name="KSPACING">      0.50000000</i>
    <i type="logical" name="KGAMMA"> T  </i>
   </separator>
   <separator name="electronic projectors" >
    <i type="logical" name="LREAL"> F  </i>
    <v name="ROPT">      0.00000000</v>
    <i type="int" name="LMAXPAW">  -100</i>
    <i type="int" name="LMAXMIX">     2</i>
    <i type="logical" name="NLSPLINE"> F  </i>
   </separator>
   <separator name="electronic startup" >
    <i type="int" name="ISTART">     0</i>
    <i type="int" name="ICHARG">     2</i>
    <i type="int" name="INIWAV">     1</i>
   </separator>
   <separator name="electronic spin" >
    <i type="int" name="ISPIN">     2</i>
    <i type="logical" name="LNONCOLLINEAR"> F  </i>
    <v name="MAGMOM">      1.00000000      1.00000000      1.00000000      1.00000000</v>
    <i name="NUPDOWN">     -1.00000000</i>
    <i type="logical" name="LSORBIT"> F  </i>
    <v name="SAXIS">      0.00000000      0.00000000      1.00000000</v>
    <i type="logical" name="LSPIRAL"> F  </i>
    <v name="QSPIRAL">      0.00000000      0.00000000      0.00000000</v>
    <i type="logical" name="LZEROZ"> F  </i>
   </separator>
   <separator name="electronic exchange-correlation" >
    <i type="logical" name="LASPH"> F  </i>
    <i type="logical" name="LMETAGGA"> F  </i>
   </separator>
   <separator name="electronic convergence" >
    <i type="int" name="NELM">    60</i>
    <i type="int" name="NELMDL">    -5</i>
    <i type="int" name="NELMIN">     2</i>
    <i name="ENINI">    350.00000000</i>
    <separator name="electronic convergence detail" >
     <i type="logical" name="LDIAG"> T  </i>
     <i type="logical" name="LSUBROT"> T  </i>
     <i name="WEIMIN">      0.00000000</i>
     <i name="EBREAK">      0.00000179</i>
     <i name="DEPER">      0.30000000</i>
     <i type="int" name="NRMM">     4</i>
     <i name="TIME">      0.40000000</i>
    </separator>
   </separator>
   <separator name="electronic mixer" >
    <i name="AMIX">      0.40000000</i>
    <i name="BMIX">      1.00000000</i>
    <i name="AMIN">      0.10000000</i>
    <i name="AMIX_MAG">      1.60000000</i>
    <i name="BMIX_MAG">      1.00000000</i>
    <separator name="electronic mixer details" >
     <i type="int" name="IMIX">     4</i>
     <i type="int" name="MAXMIX">   -45</i>
     <i name="WC">    100.00000000</i>
     <i type="int" name="INIMIX">     1</i>
     <i type="int" name="MIXPRE">     1</i>
     <i type="int" name="MREMOVE">     5</i>
    </separator>
   </separator>
   <separator name="electronic dipolcorrection" >
    <i type="logical" name="LDIPOL"> F  </i>
    <i type="logical" name="LMONO"> F  </i>
    <i type="int" name="IDIPOL">     0</i>
    <i name="EPSILON">      1.00000000</i>
    <v name="DIPOL">   -100.00000000   -100.00000000   -100.00000000</v>
    <i name="EFIELD">      0.00000000</i>
   </separator>
  </separator>
  <separator name="grids" >
   <i type="int" name="NGX">    16</i>
   <i type="int" name="NGY">    16</i>
   <i type="int" name="NGZ">    42</i>
   <i type="int" name="NGXF">    32</i>
   <i type="int" name="NGYF">    32</i>
   <i type="int" name="NGZF">    84</i>
   <i type="logical" name="ADDGRID"> F  </i>
  </separator>
  <separator name="ionic" >
   <i type="int" name="NSW">     0</i>
   <i type="int" name="IBRION">    -1</i>
   <i type="int" name="ISIF">     2</i>
   <i name="PSTRESS">      0.00000000</i>
   <i name="EDIFFG">      0.00100000</i>
   <i type="int" name="NFREE">     0</i>
   <i name="POTIM">      0.50000000</i>
   <i name="SMASS">     -3.00000000</i>
   <i name="SCALEE">      1.00000000</i>
  </separator>
  <separator name="ionic md" >
   <i name="TEBEG">      0.00010000</i>
   <i name="TEEND">      0.00010000</i>
   <i type="int" name="NBLOCK">     1</i>
   <i type="int" name="KBLOCK">     1</i>
   <i type="int" name="NPACO">   256</i>
   <i name="APACO">     16.00000000</i>
  </separator>
  <separator name="symmetry" >
   <i type="int" name="ISYM">     2</i>
   <i name="SYMPREC">      0.00001000</i>
  </separator>
  <separator name="dos" >
   <i type="logical" name="LORBIT"> F  </i>
   <v name="RWIGS">     -1.00000000</v>
   <i type="int" name="NEDOS">   301</i>
   <i name="EMIN">     10.00000000</i>
   <i name="EMAX">    -10.00000000</i>
   <i name="EFERMI">      0.00000000</i>
  </separator>
  <separator name="writing" >
   <i type="int" name="NWRITE">     2</i>
   <i type="logical" name="LWAVE"> T  </i>
   <i type="logical" name="LCHARG"> T  </i>
   <i type="logical" name="LPARD"> F  </i>
   <i type="logical" name="LVTOT"> F  </i>
   <i type="logical" name="LVHAR"> F  </i>
   <i type="logical" name="LELF"> F  </i>
   <i type="logical" name="LOPTICS"> F  </i>
   <v name="STM">      0.00000000      0.00000000      0.00000000      0.00000000      0.00000000      0.00000000      0.00000000</v>
  </separator>
  <separator name="performance" >
   <i type="int" name="NPAR">     1</i>
   <i type="int" name="NSIM">     4</i>
   <i type="int" name="NBLK">    -1</i>
   <i type="logical" name="LPLANE"> T  </i>
   <i type="logical" name="LSCALAPACK"> F  </i>
   <i type="logical" name="LSCAAWARE"> F  </i>
   <i type="logical" name="LSCALU"> F  </i>
   <i type="logical" name="LASYNC"> F  </i>
   <i type="logical" name="LORBITALREAL"> F  </i>
  </separator>
  <separator name="miscellaneous" >
   <i type="int" name="IDIOT">     3</i>
   <i type="logical" name="LMUSIC"> F  </i>
   <v name="POMASS">     12.01100000</v>
   <v name="DARWINR">      0.00000000</v>
   <v name="DARWINV">      1.00000000</v>
   <i type="logical" name="LCORR"> T  </i>
  </separator>
  <i type="logical" name="GGA_COMPAT"> T  </i>
  <i type="logical" name="LBERRY"> F  </i>
  <i type="int" name="ICORELEVEL">     0</i>
  <i type="logical" name="LDAU"> F  </i>
  <i type="int" name="I_CONSTRAINED_M">     0</i>
  <separator name="electronic exchange-correlation" >
   <i type="string" name="GGA">--</i>
   <i type="int" name="VOSKOWN">     0</i>
   <i type="logical" name="LHFCALC"> F  </i>
   <i type="string" name="PRECFOCK"></i>
   <i type="logical" name="LHFONE"> F  </i>
   <i type="logical" name="LRHFCALC"> F  </i>
   <i type="logical" name="LTHOMAS"> F  </i>
   <i type="logical" name="LMODELHF"> F  </i>
   <i name="ENCUT4O">     -1.00000000</i>
   <i type="int" name="EXXOEP">     0</i>
   <i type="int" name="FOURORBIT">     0</i>
   <i name="AEXX">      0.00000000</i>
   <i name="HFALPHA">      0.00000000</i>
   <i name="ALDAX">      1.00000000</i>
   <i name="AGGAX">      1.00000000</i>
   <i name="ALDAC">      1.00000000</i>
   <i name="AGGAC">      1.00000000</i>
   <i type="int" name="NKREDX">     1</i>
   <i type="int" name="NKREDY">     1</i>
   <i type="int" name="NKREDZ">     1</i>
   <i type="logical" name="SHIFTRED"> F  </i>
   <i type="logical" name="ODDONLY"> F  </i>
   <i type="logical" name="EVENONLY"> F  </i>
   <i type="int" name="LMAXFOCK">     0</i>
   <i type="int" name="NMAXFOCKAE">     0</i>
   <i type="logical" name="LFOCKAEDFT"> F  </i>
   <i name="HFSCREEN">      0.00000000</i>
   <i name="HFSCREENC">      0.00000000</i>
  </separator>
  <separator name="vdW DFT" >
   <i type="logical" name="LUSE_VDW"> F  </i>
   <i name="Zab_VDW">     -0.84910000</i>
   <i name="PARAM1">      0.12340000</i>
   <i name="PARAM2">      1.00000000</i>
   <i name="PARAM3">      0.00000000</i>
  </separator>
  <separator name="model GW" >
   <i type="int" name="MODEL_GW">     0</i>
   <i name="MODEL_EPS0">      5.27839982</i>
   <i name="MODEL_ALPHA">      1.00000000</i>
  </separator>
  <separator name="linear response parameters" >
   <i type="logical" name="LEPSILON"> F  </i>
   <i type="logical" name="LRPA"> F  </i>
   <i type="logical" name="LNABLA"> F  </i>
   <i type="logical" name="LVEL"> F  </i>
   <i type="int" name="KINTER">     0</i>
   <i name="CSHIFT">      0.10000000</i>
   <i name="OMEGAMAX">     -1.00000000</i>
  </separator>
  <separator name="orbital magnetization" >
   <i type="logical" name="NUCIND"> F  </i>
   <v name="MAGPOS">      0.00000000      0.00000000      0.00000000</v>
   <i type="logical" name="LNICSALL"> T  </i>
   <i type="logical" name="ORBITALMAG"> F  </i>
   <i type="logical" name="LMAGBLOCH"> F  </i>
   <i type="logical" name="LCHIMAG"> F  </i>
   <i type="logical" name="LGAUGE"> T  </i>
   <i type="int" name="MAGATOM">     0</i>
   <v name="MAGDIPOL">      0.00000000      0.00000000      0.00000000</v>
   <v name="AVECCONST">      0.00000000      0.00000000      0.00000000</v>
  </separator>
  <separator name="response functions" >
   <i type="logical" name="LADDER"> F  </i>
   <i type="logical" name="LHARTREE"> T  </i>
   <i type="int" name="IBSE">     0</i>
   <i type="logical" name="LTCTE"> F  </i>
   <i type="logical" name="LTETE"> F  </i>
   <i type="logical" name="LFXCEPS"> F  </i>
   <i type="logical" name="L2ORDER"> F  </i>
   <i type="logical" name="LUSEW"> F  </i>
   <i name="ENCUTGW">     -2.00000000</i>
   <i name="ENCUTGWSOFT">     -2.00000000</i>
   <i name="ENCUTLF">     -1.00000000</i>
   <i type="int" name="LMAXMP2">    -1</i>
   <i name="SCISSOR">      0.00000000</i>
   <i type="int" name="NOMEGA">     0</i>
   <i type="int" name="NOMEGAR">     0</i>
   <i type="int" name="NBANDSGW">    -1</i>
   <i type="int" name="NBANDSO">    -1</i>
   <i type="int" name="NBANDSV">    -1</i>
   <i name="OPTEMAX">      0.00000000</i>
   <i type="int" name="NELM">     1</i>
   <i type="int" name="DIM">     3</i>
   <i type="int" name="ANTIRES">     0</i>
   <i name="OMEGAMAX">    -30.00000000</i>
   <i name="OMEGATL">   -200.00000000</i>
   <i type="int" name="OMEGAGRID">     0</i>
   <i name="CSHIFT">     -0.10000000</i>
   <i type="logical" name="SELFENERGY"> F  </i>
   <i type="logical" name="LSPECTRAL"> F  </i>
   <i type="logical" name="ODDONLYGW"> F  </i>
   <i type="logical" name="EVENONLYGW"> F  </i>
   <i type="int" name="NKREDLFX">     1</i>
   <i type="int" name="NKREDLFY">     1</i>
   <i type="int" name="NKREDLFZ">     1</i>
   <i type="int" name="MAXMEM">  1800</i>
   <i type="int" name="TELESCOPE">     0</i>
  </separator>
 </parameters>
 <atominfo>
  <atoms>       4 </atoms>
  <types>       1 </types>
  <array name="atoms" >
   <dimension dim="1">ion</dimension>
   <field type="string">element</field>
   <field type="int">atomtype</field>
   <set>
    <rc><c>C </c><c>   1</c></rc>
    <rc><c>C </c><c>   1</c></rc>
    <rc><c>C </c><c>   1</c></rc>
    <rc><c>C </c><c>   1</c></rc>
   </set>
  </array>
  <array name="atomtypes" >
   <dimension dim="1">type</dimension>
   <field type="int">atomspertype</field>
   <field type="string">element</field>
   <field>mass</field>
   <field>valence</field>
   <field type="string">pseudopotential</field>
   <set>
    <rc><c>   4</c><c>C </c><c>     12.01100000</c><c>      4.00000000</c><c> PAW_PBE C 08Apr2002                    </c></rc>
   </set>
  </array>
 </atominfo>
 <structure name="initialpos" >
  <crystal>
   <varray name="basis" >
    <v>       2.46120000       0.00000000       0.00000000 </v>
    <v>      -1.23060000       2.13146172       0.00000000 </v>
    <v>       0.00000000       0.00000000       6.70790000 </v>
   </varray>
   <i name="volume">     35.18933212 </i>
   <varray name="rec_basis" >
    <v>       0.40630587       0.23458080       0.00000000 </v>
    <v>       0.00000000       0.46916160       0.00000000 </v>
    <v>       0.00000000       0.00000000       0.14907795 </v>
   </varray>
  </crystal>
  <varray name="positions" >
   <v>       0.00000000       0.00000000       0.00000000 </v>
   <v>       0.33333333       0.66666667       0.00000000 </v>
   <v>       0.33333333       0.66666667       0.50000000 </v>
   <v>       0.66666667       0.33333333       0.50000000 </v>
  </varray>
 </structure>
 <calculation>
  <scstep>
   <time name="dav">   28.89   28.89</time>
   <time name="total">   29.29   29.30</time>
   <energy>
    <i name="alphaZ">     37.04766603 </i>
    <i name="ewald">   -460.60042082 </i>
    <i name="hartreedc">   -148.78490797 </i>
    <i name="XCdc">     56.10990993 </i>
    <i name="pawpsdc">    150.95130483 </i>
    <i name="pawaedc">   -155.51722924 </i>
    <i name="eentropy">      0.00004251 </i>
    <i name="bandstr">    -45.57307494 </i>
    <i name="atom">    588.28246388 </i>
    <i name="e_fr_energy">     21.91575420 </i>
    <i name="e_wo_entrp">     21.91571170 </i>
    <i name="e_0_energy">     21.91574003 </i>
   </energy>
  </scstep>
  <scstep>
   <time name="dav">   35.95   35.96</time>
   <time name="total">   36.00   36.01</time>
   <energy>
    <i name="e_fr_energy">    -35.38940982 </i>
    <i name="e_wo_entrp">    -35.38943241 </i>
    <i name="e_0_energy">    -35.38941735 </i>
   </energy>
  </scstep>
  <scstep>
   <time name="dav">   35.06   35.07</time>
   <time name="total">   35.11   35.13</time>
   <energy>
    <i name="e_fr_energy">    -37.58030757 </i>
    <i name="e_wo_entrp">    -37.58027145 </i>
    <i name="e_0_energy">    -37.58029553 </i>
   </energy>
  </scstep>
  <scstep>
   <time name="dav">   32.90   32.91</time>
   <time name="total">   32.96   32.98</time>
   <energy>
    <i name="e_fr_energy">    -37.60076882 </i>
    <i name="e_wo_entrp">    -37.60073286 </i>
    <i name="e_0_energy">    -37.60075683 </i>
   </energy>
  </scstep>
  <scstep>
   <time name="dav">   35.13   35.14</time>
   <time name="total">   37.48   37.51</time>
   <energy>
    <i name="e_fr_energy">    -37.60116926 </i>
    <i name="e_wo_entrp">    -37.60113328 </i>
    <i name="e_0_energy">    -37.60115727 </i>
   </energy>
  </scstep>
  <scstep>
   <time name="dav">   30.36   30.37</time>
   <time name="total">   33.05   33.08</time>
   <energy>
    <i name="e_fr_energy">    -36.91399544 </i>
    <i name="e_wo_entrp">    -36.91401220 </i>
    <i name="e_0_energy">    -36.91400103 </i>
   </energy>
  </scstep>
  <scstep>
   <time name="dav">   30.95   30.96</time>
   <time name="total">   33.61   33.63</time>
   <energy>
    <i name="e_fr_energy">    -36.95362050 </i>
    <i name="e_wo_entrp">    -36.95365071 </i>
    <i name="e_0_energy">    -36.95363057 </i>
   </energy>
  </scstep>
  <scstep>
   <time name="dav">   32.49   32.50</time>
   <time name="total">   35.15   35.17</time>
   <energy>
    <i name="e_fr_energy">    -36.90123238 </i>
    <i name="e_wo_entrp">    -36.90126249 </i>
    <i name="e_0_energy">    -36.90124242 </i>
   </energy>
  </scstep>
  <scstep>
   <time name="dav">   31.01   31.02</time>
   <time name="total">   33.66   33.68</time>
   <energy>
    <i name="e_fr_energy">    -36.91311572 </i>
    <i name="e_wo_entrp">    -36.91314419 </i>
    <i name="e_0_energy">    -36.91312521 </i>
   </energy>
  </scstep>
  <scstep>
   <time name="dav">   33.54   33.55</time>
   <time name="total">   36.20   36.22</time>
   <energy>
    <i name="e_fr_energy">    -36.91394646 </i>
    <i name="e_wo_entrp">    -36.91397669 </i>
    <i name="e_0_energy">    -36.91395654 </i>
   </energy>
  </scstep>
  <scstep>
   <time name="dav">   31.41   31.42</time>
   <time name="total">   34.06   34.08</time>
   <energy>
    <i name="e_fr_energy">    -36.91419917 </i>
    <i name="e_wo_entrp">    -36.91422923 </i>
    <i name="e_0_energy">    -36.91420919 </i>
   </energy>
  </scstep>
  <scstep>
   <time name="dav">   26.98   26.99</time>
   <time name="total">   27.36   27.38</time>
   <energy>
    <i name="alphaZ">     37.04766603 </i>
    <i name="ewald">   -460.60042082 </i>
    <i name="hartreedc">   -183.49746239 </i>
    <i name="XCdc">     57.69190593 </i>
    <i name="pawpsdc">    281.13547183 </i>
    <i name="pawaedc">   -286.21914698 </i>
    <i name="eentropy">      0.00003005 </i>
    <i name="bandstr">    -70.75474302 </i>
    <i name="atom">    588.28246388 </i>
    <i name="e_fr_energy">    -36.91423550 </i>
    <i name="e_wo_entrp">    -36.91426555 </i>
    <i name="e_0_energy">    -36.91424552 </i>
   </energy>
  </scstep>
  <parameters_embedded>
   <separator name="dft+d2" >
    <i type="logical" name="LVDW"> F  </i>
   </separator>
  </parameters_embedded>
  <structure>
   <crystal>
    <varray name="basis" >
     <v>       2.46120000       0.00000000       0.00000000 </v>
     <v>      -1.23060000       2.13146172       0.00000000 </v>
     <v>       0.00000000       0.00000000       6.70790000 </v>
    </varray>
    <i name="volume">     35.18933212 </i>
    <varray name="rec_basis" >
     <v>       0.40630587       0.23458080       0.00000000 </v>
     <v>       0.00000000       0.46916160       0.00000000 </v>
     <v>       0.00000000       0.00000000       0.14907795 </v>
    </varray>
   </crystal>
   <varray name="positions" >
    <v>       0.00000000       0.00000000       0.00000000 </v>
    <v>       0.33333333       0.66666667       0.00000000 </v>
    <v>       0.33333333       0.66666667       0.50000000 </v>
    <v>       0.66666667       0.33333333       0.50000000 </v>
   </varray>
  </structure>
  <varray name="forces" >
   <v>       0.00000000       0.00000000       0.00000000 </v>
   <v>       0.00000000       0.00000000       0.00000000 </v>
   <v>       0.00000000       0.00000000       0.00000000 </v>
   <v>       0.00000000       0.00000000       0.00000000 </v>
  </varray>
  <varray name="stress" >
   <v>     -26.73262439       0.00000000       0.00000000 </v>
   <v>       0.00000000     -26.73262439       0.00000000 </v>
   <v>       0.00000000       0.00000000     -42.53145534 </v>
  </varray>
  <energy>
   <i name="e_fr_energy">    -36.91423550 </i>
   <i name="e_wo_entrp">    -36.91424552 </i>
   <i name="e_0_energy">      0.00003005 </i>
  </energy>
  <time name="totalsc">  413.56  414.36</time>
  <eigenvalues>
   <array>
    <dimension dim="1">band</dimension>
    <dimension dim="2">kpoint</dimension>
    <dimension dim="3">spin</dimension>
    <field>eigene</field>
    <field>occ</field>
    <set>
     <set comment="spin 1">
      <set comment="kpoint 1">
       <r>  -14.9846    1.0000 </r>
       <r>  -14.6855    1.0000 </r>
       <r>   -3.8212    1.0000 </r>
       <r>   -1.8641    1.0000 </r>
       <r>    1.7262    1.0000 </r>
       <r>    1.7262    1.0000 </r>
       <r>    1.7309    1.0000 </r>
       <r>    1.7309    1.0000 </r>
       <r>    8.9874    0.0000 </r>
       <r>   13.1457    0.0000 </r>
       <r>   13.1457    0.0000 </r>
       <r>   13.2087    0.0000 </r>
       <r>   13.2088    0.0000 </r>
       <r>   15.3259    0.0000 </r>
      </set>
      <set comment="kpoint 2">
       <r>  -14.8913    1.0000 </r>
       <r>  -14.5937    1.0000 </r>
       <r>   -3.7074    1.0000 </r>
       <r>   -1.7598    1.0000 </r>
       <r>    1.3321    1.0000 </r>
       <r>    1.3561    1.0000 </r>
       <r>    1.5218    1.0000 </r>
       <r>    1.5356    1.0000 </r>
       <r>    9.0998    0.0000 </r>
       <r>   13.1751    0.0000 </r>
       <r>   13.2369    0.0000 </r>
       <r>   13.5455    0.0000 </r>
       <r>   13.5878    0.0000 </r>
       <r>   15.4107    0.0000 </r>
      </set>
      <set comment="kpoint 3">
       <r>  -14.6113    1.0000 </r>
       <r>  -14.3185    1.0000 </r>
       <r>   -3.3674    1.0000 </r>
       <r>   -1.4430    1.0000 </r>
       <r>    0.3073    1.0000 </r>
       <r>    0.3525    1.0000 </r>
       <r>    0.9918    1.0000 </r>
       <r>    1.0302    1.0000 </r>
       <r>    9.4400    0.0000 </r>
       <r>   13.1772    0.0000 </r>
       <r>   13.2858    0.0000 </r>
       <r>   14.6633    0.0000 </r>
       <r>   14.7016    0.0000 </r>
       <r>   14.9105    0.0000 </r>
      </set>
      <set comment="kpoint 4">
       <r>  -14.1464    1.0000 </r>
       <r>  -13.8620    1.0000 </r>
       <r>   -2.8058    1.0000 </r>
       <r>   -1.1202    1.0000 </r>
       <r>   -1.0486    1.0000 </r>
       <r>   -0.9215    1.0000 </r>
       <r>    0.3323    1.0000 </r>
       <r>    0.3786    1.0000 </r>
       <r>   10.0073    0.0000 </r>
       <r>   13.0014    0.0000 </r>
       <r>   13.2019    0.0000 </r>
       <r>   13.4804    0.0000 </r>
       <r>   13.9429    0.0000 </r>
       <r>   16.1013    0.0000 </r>
      </set>
      <set comment="kpoint 5">
       <r>  -13.5000    1.0000 </r>
       <r>  -13.2268    1.0000 </r>
       <r>   -2.7392    1.0000 </r>
       <r>   -2.6361    1.0000 </r>
       <r>   -2.0351    1.0000 </r>
       <r>   -0.3276    1.0000 </r>
       <r>   -0.2771    1.0000 </r>
       <r>   -0.2084    1.0000 </r>
       <r>   10.7960    0.0000 </r>
       <r>   11.7517    0.0000 </r>
       <r>   12.4025    0.0000 </r>
       <r>   12.7357    0.0000 </r>
       <r>   13.0231    0.0000 </r>
       <r>   16.6387    0.0000 </r>
      </set>
      <set comment="kpoint 6">
       <r>  -12.6770    1.0000 </r>
       <r>  -12.4194    1.0000 </r>
       <r>   -4.4186    1.0000 </r>
       <r>   -4.2933    1.0000 </r>
       <r>   -1.0667    1.0000 </r>
       <r>   -0.9049    1.0000 </r>
       <r>   -0.8496    1.0000 </r>
       <r>    0.6616    1.0000 </r>
       <r>    9.8825    0.0000 </r>
       <r>   10.7381    0.0000 </r>
       <r>   11.7787    0.0000 </r>
       <r>   12.4472    0.0000 </r>
       <r>   12.8092    0.0000 </r>
       <r>   17.2890    0.0000 </r>
      </set>
      <set comment="kpoint 7">
       <r>  -11.6893    1.0000 </r>
       <r>  -11.4490    1.0000 </r>
       <r>   -6.0606    1.0000 </r>
       <r>   -5.9092    1.0000 </r>
       <r>   -1.3448    1.0000 </r>
       <r>   -1.2860    1.0000 </r>
       <r>    0.0579    1.0000 </r>
       <r>    1.6273    1.0000 </r>
       <r>    8.1121    0.0000 </r>
       <r>    9.1079    0.0000 </r>
       <r>   12.1733    0.0000 </r>
       <r>   12.4959    0.0000 </r>
       <r>   13.1540    0.0000 </r>
       <r>   17.9872    0.0000 </r>
      </set>
      <set comment="kpoint 8">
       <r>  -10.5633    1.0000 </r>
       <r>  -10.3494    1.0000 </r>
       <r>   -7.5897    1.0000 </r>
       <r>   -7.4226    1.0000 </r>
       <r>   -1.6181    1.0000 </r>
       <r>   -1.5635    1.0000 </r>
       <r>    1.2273    1.0000 </r>
       <r>    2.4334    1.0000 </r>
       <r>    6.7215    0.0000 </r>
       <r>    7.6626    0.0000 </r>
       <r>   12.0250    0.0000 </r>
       <r>   12.4078    0.0000 </r>
       <r>   14.5174    0.0000 </r>
       <r>   17.7246    0.0000 </r>
      </set>
      <set comment="kpoint 9">
       <r>   -9.6282    1.0000 </r>
       <r>   -9.5182    1.0000 </r>
       <r>   -8.5663    1.0000 </r>
       <r>   -8.4836    1.0000 </r>
       <r>   -1.7098    1.0000 </r>
       <r>   -1.6526    1.0000 </r>
       <r>    1.9454    1.0000 </r>
       <r>    2.6356    1.0000 </r>
       <r>    6.2520    0.0000 </r>
       <r>    6.9165    0.0000 </r>
       <r>   11.9720    0.0000 </r>
       <r>   12.3706    0.0000 </r>
       <r>   16.0290    0.0000 </r>
       <r>   16.1528    0.0000 </r>
      </set>
      <set comment="kpoint 10">
       <r>  -14.7044    1.0000 </r>
       <r>  -14.4102    1.0000 </r>
       <r>   -3.4811    1.0000 </r>
       <r>   -1.5478    1.0000 </r>
       <r>    0.6778    1.0000 </r>
       <r>    0.7007    1.0000 </r>
       <r>    1.1164    1.0000 </r>
       <r>    1.1348    1.0000 </r>
       <r>    9.3269    0.0000 </r>
       <r>   13.3084    0.0000 </r>
       <r>   13.3934    0.0000 </r>
       <r>   14.1602    0.0000 </r>
       <r>   14.2236    0.0000 </r>
       <r>   15.2204    0.0000 </r>
      </set>
      <set comment="kpoint 11">
       <r>  -14.3320    1.0000 </r>
       <r>  -14.0442    1.0000 </r>
       <r>   -3.0290    1.0000 </r>
       <r>   -1.1287    1.0000 </r>
       <r>   -0.4731    1.0000 </r>
       <r>   -0.4258    1.0000 </r>
       <r>    0.4531    1.0000 </r>
       <r>    0.4824    1.0000 </r>
       <r>    9.7820    0.0000 </r>
       <r>   13.4115    0.0000 </r>
       <r>   13.5468    0.0000 </r>
       <r>   14.0655    0.0000 </r>
       <r>   14.4425    0.0000 </r>
       <r>   15.2506    0.0000 </r>
      </set>
      <set comment="kpoint 12">
       <r>  -13.7764    1.0000 </r>
       <r>  -13.4985    1.0000 </r>
       <r>   -2.3625    1.0000 </r>
       <r>   -1.9439    1.0000 </r>
       <r>   -1.8632    1.0000 </r>
       <r>   -0.5098    1.0000 </r>
       <r>   -0.2645    1.0000 </r>
       <r>   -0.2198    1.0000 </r>
       <r>   10.4632    0.0000 </r>
       <r>   12.5252    0.0000 </r>
       <r>   13.0416    0.0000 </r>
       <r>   13.2519    0.0000 </r>
       <r>   13.5054    0.0000 </r>
       <r>   16.3993    0.0000 </r>
      </set>
      <set comment="kpoint 13">
       <r>  -13.0415    1.0000 </r>
       <r>  -12.7774    1.0000 </r>
       <r>   -3.5666    1.0000 </r>
       <r>   -3.4586    1.0000 </r>
       <r>   -1.4919    1.0000 </r>
       <r>   -0.9174    1.0000 </r>
       <r>   -0.8630    1.0000 </r>
       <r>    0.2856    1.0000 </r>
       <r>   10.7505    0.0000 </r>
       <r>   11.3628    0.0000 </r>
       <r>   11.4679    0.0000 </r>
       <r>   12.9869    0.0000 </r>
       <r>   13.3152    0.0000 </r>
       <r>   16.9286    0.0000 </r>
      </set>
      <set comment="kpoint 14">
       <r>  -12.1356    1.0000 </r>
       <r>  -11.8877    1.0000 </r>
       <r>   -5.2131    1.0000 </r>
       <r>   -5.0779    1.0000 </r>
       <r>   -1.4407    1.0000 </r>
       <r>   -1.3850    1.0000 </r>
       <r>   -0.4391    1.0000 </r>
       <r>    1.2173    1.0000 </r>
       <r>    8.9386    0.0000 </r>
       <r>    9.8292    0.0000 </r>
       <r>   12.4163    0.0000 </r>
       <r>   12.7474    0.0000 </r>
       <r>   13.1357    0.0000 </r>
       <r>   17.5422    0.0000 </r>
      </set>
      <set comment="kpoint 15">
       <r>  -11.0747    1.0000 </r>
       <r>  -10.8467    1.0000 </r>
       <r>   -6.7952    1.0000 </r>
       <r>   -6.6376    1.0000 </r>
       <r>   -1.8035    1.0000 </r>
       <r>   -1.7456    1.0000 </r>
       <r>    0.7325    1.0000 </r>
       <r>    2.1537    1.0000 </r>
       <r>    7.3253    0.0000 </r>
       <r>    8.2918    0.0000 </r>
       <r>   12.5019    0.0000 </r>
       <r>   12.8705    0.0000 </r>
       <r>   13.8823    0.0000 </r>
       <r>   18.1484    0.0000 </r>
      </set>
      <set comment="kpoint 16">
       <r>   -9.9284    1.0000 </r>
       <r>   -9.7441    1.0000 </r>
       <r>   -8.1879    1.0000 </r>
       <r>   -8.0336    1.0000 </r>
       <r>   -1.9901    1.0000 </r>
       <r>   -1.9321    1.0000 </r>
       <r>    1.8030    1.0000 </r>
       <r>    2.6984    1.0000 </r>
       <r>    6.3501    0.0000 </r>
       <r>    7.0859    0.0000 </r>
       <r>   12.3972    0.0000 </r>
       <r>   12.8000    0.0000 </r>
       <r>   15.3526    0.0000 </r>
       <r>   16.9495    0.0000 </r>
      </set>
      <set comment="kpoint 17">
       <r>  -13.8688    1.0000 </r>
       <r>  -13.5895    1.0000 </r>
       <r>   -2.4743    1.0000 </r>
       <r>   -1.5024    1.0000 </r>
       <r>   -1.4564    1.0000 </r>
       <r>   -0.6105    1.0000 </r>
       <r>   -0.4167    1.0000 </r>
       <r>   -0.3859    1.0000 </r>
       <r>   10.3531    0.0000 </r>
       <r>   12.8365    0.0000 </r>
       <r>   13.2517    0.0000 </r>
       <r>   13.9648    0.0000 </r>
       <r>   14.1411    0.0000 </r>
       <r>   15.6582    0.0000 </r>
      </set>
      <set comment="kpoint 18">
       <r>  -13.2248    1.0000 </r>
       <r>  -12.9575    1.0000 </r>
       <r>   -2.8228    1.0000 </r>
       <r>   -2.7480    1.0000 </r>
       <r>   -1.7039    1.0000 </r>
       <r>   -1.2780    1.0000 </r>
       <r>   -1.2281    1.0000 </r>
       <r>    0.0947    1.0000 </r>
       <r>   11.1490    0.0000 </r>
       <r>   11.3346    0.0000 </r>
       <r>   11.8485    0.0000 </r>
       <r>   14.1335    0.0000 </r>
       <r>   14.4176    0.0000 </r>
       <r>   16.5601    0.0000 </r>
      </set>
      <set comment="kpoint 19">
       <r>  -12.4065    1.0000 </r>
       <r>  -12.1534    1.0000 </r>
       <r>   -4.3394    1.0000 </r>
       <r>   -4.2292    1.0000 </r>
       <r>   -1.9594    1.0000 </r>
       <r>   -1.8946    1.0000 </r>
       <r>   -0.7426    1.0000 </r>
       <r>    0.9644    1.0000 </r>
       <r>    9.6563    0.0000 </r>
       <r>   10.3396    0.0000 </r>
       <r>   12.1579    0.0000 </r>
       <r>   13.9448    0.0000 </r>
       <r>   14.3215    0.0000 </r>
       <r>   17.0971    0.0000 </r>
      </set>
      <set comment="kpoint 20">
       <r>  -11.4247    1.0000 </r>
       <r>  -11.1902    1.0000 </r>
       <r>   -5.8951    1.0000 </r>
       <r>   -5.7545    1.0000 </r>
       <r>   -2.4431    1.0000 </r>
       <r>   -2.3689    1.0000 </r>
       <r>    0.3786    1.0000 </r>
       <r>    1.9204    1.0000 </r>
       <r>    7.9991    0.0000 </r>
       <r>    8.8272    0.0000 </r>
       <r>   13.3378    0.0000 </r>
       <r>   13.7382    0.0000 </r>
       <r>   14.1679    0.0000 </r>
       <r>   17.4678    0.0000 </r>
      </set>
      <set comment="kpoint 21">
       <r>  -10.3089    1.0000 </r>
       <r>  -10.0994    1.0000 </r>
       <r>   -7.3775    1.0000 </r>
       <r>   -7.2185    1.0000 </r>
       <r>   -2.7358    1.0000 </r>
       <r>   -2.6574    1.0000 </r>
       <r>    1.5524    1.0000 </r>
       <r>    2.7535    1.0000 </r>
       <r>    6.6618    0.0000 </r>
       <r>    7.4601    0.0000 </r>
       <r>   13.5464    0.0000 </r>
       <r>   13.9796    0.0000 </r>
       <r>   14.8247    0.0000 </r>
       <r>   17.7467    0.0000 </r>
      </set>
      <set comment="kpoint 22">
       <r>   -9.3893    1.0000 </r>
       <r>   -9.2807    1.0000 </r>
       <r>   -8.3347    1.0000 </r>
       <r>   -8.2556    1.0000 </r>
       <r>   -2.8344    1.0000 </r>
       <r>   -2.7508    1.0000 </r>
       <r>    2.2863    1.0000 </r>
       <r>    2.9677    1.0000 </r>
       <r>    6.2307    0.0000 </r>
       <r>    6.6955    0.0000 </r>
       <r>   13.4923    0.0000 </r>
       <r>   13.9492    0.0000 </r>
       <r>   16.2371    0.0000 </r>
       <r>   16.3870    0.0000 </r>
      </set>
      <set comment="kpoint 23">
       <r>  -12.4973    1.0000 </r>
       <r>  -12.2426    1.0000 </r>
       <r>   -3.8071    1.0000 </r>
       <r>   -3.7456    1.0000 </r>
       <r>   -2.3624    1.0000 </r>
       <r>   -2.3172    1.0000 </r>
       <r>   -0.8422    1.0000 </r>
       <r>    0.8792    1.0000 </r>
       <r>    9.9685    0.0000 </r>
       <r>   10.4985    0.0000 </r>
       <r>   12.0529    0.0000 </r>
       <r>   15.1881    0.0000 </r>
       <r>   15.4628    0.0000 </r>
       <r>   16.6180    0.0000 </r>
      </set>
      <set comment="kpoint 24">
       <r>  -11.6016    1.0000 </r>
       <r>  -11.3639    1.0000 </r>
       <r>   -5.0528    1.0000 </r>
       <r>   -4.9557    1.0000 </r>
       <r>   -3.1876    1.0000 </r>
       <r>   -3.1172    1.0000 </r>
       <r>    0.1989    1.0000 </r>
       <r>    1.7961    1.0000 </r>
       <r>    8.4999    0.0000 </r>
       <r>    9.1121    0.0000 </r>
       <r>   13.1612    0.0000 </r>
       <r>   15.3338    0.0000 </r>
       <r>   15.8301    0.0000 </r>
       <r>   17.0096    0.0000 </r>
      </set>
      <set comment="kpoint 25">
       <r>  -10.5570    1.0000 </r>
       <r>  -10.3402    1.0000 </r>
       <r>   -6.4538    1.0000 </r>
       <r>   -6.3157    1.0000 </r>
       <r>   -3.6792    1.0000 </r>
       <r>   -3.5883    1.0000 </r>
       <r>    1.3608    1.0000 </r>
       <r>    2.7503    1.0000 </r>
       <r>    7.0671    0.0000 </r>
       <r>    7.7694    0.0000 </r>
       <r>   14.4381    0.0000 </r>
       <r>   15.1511    0.0000 </r>
       <r>   15.7391    0.0000 </r>
       <r>   16.9818    0.0000 </r>
      </set>
      <set comment="kpoint 26">
       <r>   -9.4377    1.0000 </r>
       <r>   -9.2618    1.0000 </r>
       <r>   -7.7582    1.0000 </r>
       <r>   -7.6162    1.0000 </r>
       <r>   -3.9083    1.0000 </r>
       <r>   -3.8082    1.0000 </r>
       <r>    2.4596    1.0000 </r>
       <r>    3.3559    1.0000 </r>
       <r>    6.1618    0.0000 </r>
       <r>    6.6189    0.0000 </r>
       <r>   15.0192    0.0000 </r>
       <r>   15.5981    0.0000 </r>
       <r>   15.9069    0.0000 </r>
       <r>   17.0005    0.0000 </r>
      </set>
      <set comment="kpoint 27">
       <r>  -10.6410    1.0000 </r>
       <r>  -10.4222    1.0000 </r>
       <r>   -5.8433    1.0000 </r>
       <r>   -5.7664    1.0000 </r>
       <r>   -4.2617    1.0000 </r>
       <r>   -4.2027    1.0000 </r>
       <r>    1.2965    1.0000 </r>
       <r>    2.7390    1.0000 </r>
       <r>    7.2736    0.0000 </r>
       <r>    7.8799    0.0000 </r>
       <r>   14.3409    0.0000 </r>
       <r>   16.6613    0.0000 </r>
       <r>   16.6780    0.0000 </r>
       <r>   16.8934    0.0000 </r>
      </set>
      <set comment="kpoint 28">
       <r>   -9.5612    1.0000 </r>
       <r>   -9.3670    1.0000 </r>
       <r>   -6.9176    1.0000 </r>
       <r>   -6.7996    1.0000 </r>
       <r>   -4.8895    1.0000 </r>
       <r>   -4.8007    1.0000 </r>
       <r>    2.4713    1.0000 </r>
       <r>    3.6476    1.0000 </r>
       <r>    6.0947    0.0000 </r>
       <r>    6.7159    0.0000 </r>
       <r>   15.6248    0.0000 </r>
       <r>   16.3538    0.0000 </r>
       <r>   16.5891    0.0000 </r>
       <r>   16.6055    0.0000 </r>
      </set>
      <set comment="kpoint 29">
       <r>   -8.6723    1.0000 </r>
       <r>   -8.5684    1.0000 </r>
       <r>   -7.7559    1.0000 </r>
       <r>   -7.7104    1.0000 </r>
       <r>   -5.0721    1.0000 </r>
       <r>   -4.9702    1.0000 </r>
       <r>    3.2874    1.0000 </r>
       <r>    3.9372    1.0000 </r>
       <r>    5.7114    0.0000 </r>
       <r>    5.8931    0.0000 </r>
       <r>   16.2617    0.0000 </r>
       <r>   16.2850    0.0000 </r>
       <r>   16.4711    0.0000 </r>
       <r>   16.7999    0.0000 </r>
      </set>
      <set comment="kpoint 30">
       <r>   -8.5118    1.0000 </r>
       <r>   -8.3569    1.0000 </r>
       <r>   -7.4816    1.0000 </r>
       <r>   -7.3889    1.0000 </r>
       <r>   -5.6954    1.0000 </r>
       <r>   -5.6513    1.0000 </r>
       <r>    3.6096    1.0000 </r>
       <r>    4.5069    0.9327 </r>
       <r>    5.0668    0.0000 </r>
       <r>    5.7693    0.0000 </r>
       <r>   15.9456    0.0000 </r>
       <r>   15.9817    0.0000 </r>
       <r>   16.7150    0.0000 </r>
       <r>   17.2358    0.0000 </r>
      </set>
      <set comment="kpoint 31">
       <r>  -14.9820    1.0000 </r>
       <r>  -14.6886    1.0000 </r>
       <r>   -3.8065    1.0000 </r>
       <r>   -1.8901    1.0000 </r>
       <r>    1.7116    1.0000 </r>
       <r>    1.7116    1.0000 </r>
       <r>    1.7255    1.0000 </r>
       <r>    1.7256    1.0000 </r>
       <r>    9.0355    0.0000 </r>
       <r>   13.1367    0.0000 </r>
       <r>   13.1368    0.0000 </r>
       <r>   13.1845    0.0000 </r>
       <r>   13.1845    0.0000 </r>
       <r>   15.2229    0.0000 </r>
      </set>
      <set comment="kpoint 32">
       <r>  -14.8886    1.0000 </r>
       <r>  -14.5967    1.0000 </r>
       <r>   -3.6920    1.0000 </r>
       <r>   -1.7835    1.0000 </r>
       <r>    1.3321    1.0000 </r>
       <r>    1.3551    1.0000 </r>
       <r>    1.5122    1.0000 </r>
       <r>    1.5354    1.0000 </r>
       <r>    9.1483    0.0000 </r>
       <r>   13.1744    0.0000 </r>
       <r>   13.2362    0.0000 </r>
       <r>   13.5446    0.0000 </r>
       <r>   13.5869    0.0000 </r>
       <r>   15.3199    0.0000 </r>
      </set>
      <set comment="kpoint 33">
       <r>  -14.6086    1.0000 </r>
       <r>  -14.3215    1.0000 </r>
       <r>   -3.3515    1.0000 </r>
       <r>   -1.4659    1.0000 </r>
       <r>    0.3078    1.0000 </r>
       <r>    0.3522    1.0000 </r>
       <r>    0.9991    1.0000 </r>
       <r>    1.0299    1.0000 </r>
       <r>    9.4878    0.0000 </r>
       <r>   13.1782    0.0000 </r>
       <r>   13.2847    0.0000 </r>
       <r>   14.6644    0.0000 </r>
       <r>   14.7013    0.0000 </r>
       <r>   14.9155    0.0000 </r>
      </set>
      <set comment="kpoint 34">
       <r>  -14.1438    1.0000 </r>
       <r>  -13.8649    1.0000 </r>
       <r>   -2.7929    1.0000 </r>
       <r>   -1.1197    1.0000 </r>
       <r>   -1.0492    1.0000 </r>
       <r>   -0.9439    1.0000 </r>
       <r>    0.3327    1.0000 </r>
       <r>    0.3782    1.0000 </r>
       <r>   10.0539    0.0000 </r>
       <r>   13.0018    0.0000 </r>
       <r>   13.2038    0.0000 </r>
       <r>   13.4862    0.0000 </r>
       <r>   13.9390    0.0000 </r>
       <r>   16.0018    0.0000 </r>
      </set>
      <set comment="kpoint 35">
       <r>  -13.4975    1.0000 </r>
       <r>  -13.2295    1.0000 </r>
       <r>   -2.7382    1.0000 </r>
       <r>   -2.6402    1.0000 </r>
       <r>   -2.0181    1.0000 </r>
       <r>   -0.3280    1.0000 </r>
       <r>   -0.2778    1.0000 </r>
       <r>   -0.2305    1.0000 </r>
       <r>   10.8384    0.0000 </r>
       <r>   11.7574    0.0000 </r>
       <r>   12.3860    0.0000 </r>
       <r>   12.7385    0.0000 </r>
       <r>   13.0232    0.0000 </r>
       <r>   16.5631    0.0000 </r>
      </set>
      <set comment="kpoint 36">
       <r>  -12.6746    1.0000 </r>
       <r>  -12.4220    1.0000 </r>
       <r>   -4.4173    1.0000 </r>
       <r>   -4.2943    1.0000 </r>
       <r>   -1.0519    1.0000 </r>
       <r>   -0.9043    1.0000 </r>
       <r>   -0.8500    1.0000 </r>
       <r>    0.6468    1.0000 </r>
       <r>    9.8877    0.0000 </r>
       <r>   10.7341    0.0000 </r>
       <r>   11.8228    0.0000 </r>
       <r>   12.4509    0.0000 </r>
       <r>   12.8115    0.0000 </r>
       <r>   17.2155    0.0000 </r>
      </set>
      <set comment="kpoint 37">
       <r>  -11.6869    1.0000 </r>
       <r>  -11.4511    1.0000 </r>
       <r>   -6.0591    1.0000 </r>
       <r>   -5.9115    1.0000 </r>
       <r>   -1.3432    1.0000 </r>
       <r>   -1.2891    1.0000 </r>
       <r>    0.0724    1.0000 </r>
       <r>    1.6104    1.0000 </r>
       <r>    8.1163    0.0000 </r>
       <r>    9.0969    0.0000 </r>
       <r>   12.1780    0.0000 </r>
       <r>   12.4959    0.0000 </r>
       <r>   13.1934    0.0000 </r>
       <r>   17.9252    0.0000 </r>
      </set>
      <set comment="kpoint 38">
       <r>  -10.5613    1.0000 </r>
       <r>  -10.3515    1.0000 </r>
       <r>   -7.5865    1.0000 </r>
       <r>   -7.4243    1.0000 </r>
       <r>   -1.6173    1.0000 </r>
       <r>   -1.5633    1.0000 </r>
       <r>    1.2389    1.0000 </r>
       <r>    2.4222    1.0000 </r>
       <r>    6.7246    0.0000 </r>
       <r>    7.6462    0.0000 </r>
       <r>   12.0287    0.0000 </r>
       <r>   12.4040    0.0000 </r>
       <r>   14.5559    0.0000 </r>
       <r>   17.7443    0.0000 </r>
      </set>
      <set comment="kpoint 39">
       <r>   -9.6270    1.0000 </r>
       <r>   -9.5190    1.0000 </r>
       <r>   -8.5659    1.0000 </r>
       <r>   -8.4847    1.0000 </r>
       <r>   -1.7093    1.0000 </r>
       <r>   -1.6531    1.0000 </r>
       <r>    1.9540    1.0000 </r>
       <r>    2.6322    1.0000 </r>
       <r>    6.2503    0.0000 </r>
       <r>    6.9030    0.0000 </r>
       <r>   11.9756    0.0000 </r>
       <r>   12.3667    0.0000 </r>
       <r>   16.0665    0.0000 </r>
       <r>   16.1797    0.0000 </r>
      </set>
      <set comment="kpoint 40">
       <r>  -14.7018    1.0000 </r>
       <r>  -14.4132    1.0000 </r>
       <r>   -3.4651    1.0000 </r>
       <r>   -1.5708    1.0000 </r>
       <r>    0.6781    1.0000 </r>
       <r>    0.7005    1.0000 </r>
       <r>    1.1188    1.0000 </r>
       <r>    1.1353    1.0000 </r>
       <r>    9.3750    0.0000 </r>
       <r>   13.3091    0.0000 </r>
       <r>   13.3929    0.0000 </r>
       <r>   14.1614    0.0000 </r>
       <r>   14.2233    0.0000 </r>
       <r>   15.2224    0.0000 </r>
      </set>
      <set comment="kpoint 41">
       <r>  -14.3294    1.0000 </r>
       <r>  -14.0473    1.0000 </r>
       <r>   -3.0150    1.0000 </r>
       <r>   -1.1515    1.0000 </r>
       <r>   -0.4728    1.0000 </r>
       <r>   -0.4263    1.0000 </r>
       <r>    0.4526    1.0000 </r>
       <r>    0.4833    1.0000 </r>
       <r>    9.8291    0.0000 </r>
       <r>   13.4073    0.0000 </r>
       <r>   13.5447    0.0000 </r>
       <r>   14.0686    0.0000 </r>
       <r>   14.4396    0.0000 </r>
       <r>   15.2523    0.0000 </r>
      </set>
      <set comment="kpoint 42">
       <r>  -13.7739    1.0000 </r>
       <r>  -13.5013    1.0000 </r>
       <r>   -2.3476    1.0000 </r>
       <r>   -1.9443    1.0000 </r>
       <r>   -1.8644    1.0000 </r>
       <r>   -0.5320    1.0000 </r>
       <r>   -0.2644    1.0000 </r>
       <r>   -0.2215    1.0000 </r>
       <r>   10.5084    0.0000 </r>
       <r>   12.5290    0.0000 </r>
       <r>   13.0310    0.0000 </r>
       <r>   13.2542    0.0000 </r>
       <r>   13.5014    0.0000 </r>
       <r>   16.3036    0.0000 </r>
      </set>
      <set comment="kpoint 43">
       <r>  -13.0390    1.0000 </r>
       <r>  -12.7800    1.0000 </r>
       <r>   -3.5654    1.0000 </r>
       <r>   -3.4570    1.0000 </r>
       <r>   -1.4761    1.0000 </r>
       <r>   -0.9162    1.0000 </r>
       <r>   -0.8632    1.0000 </r>
       <r>    0.2675    1.0000 </r>
       <r>   10.7575    0.0000 </r>
       <r>   11.4107    0.0000 </r>
       <r>   11.4529    0.0000 </r>
       <r>   12.9912    0.0000 </r>
       <r>   13.3154    0.0000 </r>
       <r>   16.8562    0.0000 </r>
      </set>
      <set comment="kpoint 44">
       <r>  -12.1333    1.0000 </r>
       <r>  -11.8902    1.0000 </r>
       <r>   -5.2115    1.0000 </r>
       <r>   -5.0787    1.0000 </r>
       <r>   -1.4398    1.0000 </r>
       <r>   -1.3843    1.0000 </r>
       <r>   -0.4246    1.0000 </r>
       <r>    1.2014    1.0000 </r>
       <r>    8.9460    0.0000 </r>
       <r>    9.8270    0.0000 </r>
       <r>   12.4519    0.0000 </r>
       <r>   12.7547    0.0000 </r>
       <r>   13.1397    0.0000 </r>
       <r>   17.4787    0.0000 </r>
      </set>
      <set comment="kpoint 45">
       <r>  -11.0727    1.0000 </r>
       <r>  -10.8490    1.0000 </r>
       <r>   -6.7946    1.0000 </r>
       <r>   -6.6391    1.0000 </r>
       <r>   -1.8030    1.0000 </r>
       <r>   -1.7465    1.0000 </r>
       <r>    0.7455    1.0000 </r>
       <r>    2.1390    1.0000 </r>
       <r>    7.3310    0.0000 </r>
       <r>    8.2841    0.0000 </r>
       <r>   12.5057    0.0000 </r>
       <r>   12.8672    0.0000 </r>
       <r>   13.9212    0.0000 </r>
       <r>   18.0718    0.0000 </r>
      </set>
      <set comment="kpoint 46">
       <r>   -9.9264    1.0000 </r>
       <r>   -9.7460    1.0000 </r>
       <r>   -8.1856    1.0000 </r>
       <r>   -8.0352    1.0000 </r>
       <r>   -1.9898    1.0000 </r>
       <r>   -1.9322    1.0000 </r>
       <r>    1.8123    1.0000 </r>
       <r>    2.6921    1.0000 </r>
       <r>    6.3507    0.0000 </r>
       <r>    7.0769    0.0000 </r>
       <r>   12.4005    0.0000 </r>
       <r>   12.7968    0.0000 </r>
       <r>   15.3870    0.0000 </r>
       <r>   16.9742    0.0000 </r>
      </set>
      <set comment="kpoint 47">
       <r>  -13.8662    1.0000 </r>
       <r>  -13.5923    1.0000 </r>
       <r>   -2.4575    1.0000 </r>
       <r>   -1.5020    1.0000 </r>
       <r>   -1.4567    1.0000 </r>
       <r>   -0.6326    1.0000 </r>
       <r>   -0.4147    1.0000 </r>
       <r>   -0.3863    1.0000 </r>
       <r>   10.3991    0.0000 </r>
       <r>   12.8417    0.0000 </r>
       <r>   13.2534    0.0000 </r>
       <r>   13.9680    0.0000 </r>
       <r>   14.1350    0.0000 </r>
       <r>   15.6634    0.0000 </r>
      </set>
      <set comment="kpoint 48">
       <r>  -13.2223    1.0000 </r>
       <r>  -12.9602    1.0000 </r>
       <r>   -2.8225    1.0000 </r>
       <r>   -2.7500    1.0000 </r>
       <r>   -1.6898    1.0000 </r>
       <r>   -1.2785    1.0000 </r>
       <r>   -1.2294    1.0000 </r>
       <r>    0.0752    1.0000 </r>
       <r>   11.1897    0.0000 </r>
       <r>   11.3346    0.0000 </r>
       <r>   11.8326    0.0000 </r>
       <r>   14.1335    0.0000 </r>
       <r>   14.4177    0.0000 </r>
       <r>   16.5457    0.0000 </r>
      </set>
      <set comment="kpoint 49">
       <r>  -12.4042    1.0000 </r>
       <r>  -12.1560    1.0000 </r>
       <r>   -4.3384    1.0000 </r>
       <r>   -4.2286    1.0000 </r>
       <r>   -1.9577    1.0000 </r>
       <r>   -1.8948    1.0000 </r>
       <r>   -0.7274    1.0000 </r>
       <r>    0.9448    1.0000 </r>
       <r>    9.6634    0.0000 </r>
       <r>   10.3259    0.0000 </r>
       <r>   12.1997    0.0000 </r>
       <r>   13.9486    0.0000 </r>
       <r>   14.3199    0.0000 </r>
       <r>   17.0357    0.0000 </r>
      </set>
      <set comment="kpoint 50">
       <r>  -11.4223    1.0000 </r>
       <r>  -11.1926    1.0000 </r>
       <r>   -5.8941    1.0000 </r>
       <r>   -5.7569    1.0000 </r>
       <r>   -2.4432    1.0000 </r>
       <r>   -2.3704    1.0000 </r>
       <r>    0.3916    1.0000 </r>
       <r>    1.9061    1.0000 </r>
       <r>    8.0008    0.0000 </r>
       <r>    8.8202    0.0000 </r>
       <r>   13.3728    0.0000 </r>
       <r>   13.7416    0.0000 </r>
       <r>   14.1680    0.0000 </r>
       <r>   17.4125    0.0000 </r>
      </set>
      <set comment="kpoint 51">
       <r>  -10.3070    1.0000 </r>
       <r>  -10.1016    1.0000 </r>
       <r>   -7.3761    1.0000 </r>
       <r>   -7.2201    1.0000 </r>
       <r>   -2.7352    1.0000 </r>
       <r>   -2.6582    1.0000 </r>
       <r>    1.5633    1.0000 </r>
       <r>    2.7421    1.0000 </r>
       <r>    6.6614    0.0000 </r>
       <r>    7.4452    0.0000 </r>
       <r>   13.5496    0.0000 </r>
       <r>   13.9749    0.0000 </r>
       <r>   14.8553    0.0000 </r>
       <r>   17.5964    0.0000 </r>
      </set>
      <set comment="kpoint 52">
       <r>   -9.3882    1.0000 </r>
       <r>   -9.2815    1.0000 </r>
       <r>   -8.3339    1.0000 </r>
       <r>   -8.2556    1.0000 </r>
       <r>   -2.8335    1.0000 </r>
       <r>   -2.7541    1.0000 </r>
       <r>    2.2951    1.0000 </r>
       <r>    2.9645    1.0000 </r>
       <r>    6.2239    0.0000 </r>
       <r>    6.6808    0.0000 </r>
       <r>   13.4969    0.0000 </r>
       <r>   13.9444    0.0000 </r>
       <r>   16.2661    0.0000 </r>
       <r>   16.3853    0.0000 </r>
      </set>
      <set comment="kpoint 53">
       <r>  -12.4949    1.0000 </r>
       <r>  -12.2451    1.0000 </r>
       <r>   -3.8066    1.0000 </r>
       <r>   -3.7461    1.0000 </r>
       <r>   -2.3612    1.0000 </r>
       <r>   -2.3174    1.0000 </r>
       <r>   -0.8284    1.0000 </r>
       <r>    0.8590    1.0000 </r>
       <r>    9.9723    0.0000 </r>
       <r>   10.4889    0.0000 </r>
       <r>   12.0942    0.0000 </r>
       <r>   15.1909    0.0000 </r>
       <r>   15.4646    0.0000 </r>
       <r>   16.6150    0.0000 </r>
      </set>
      <set comment="kpoint 54">
       <r>  -11.5994    1.0000 </r>
       <r>  -11.3664    1.0000 </r>
       <r>   -5.0519    1.0000 </r>
       <r>   -4.9575    1.0000 </r>
       <r>   -3.1873    1.0000 </r>
       <r>   -3.1180    1.0000 </r>
       <r>    0.2106    1.0000 </r>
       <r>    1.7773    1.0000 </r>
       <r>    8.5014    0.0000 </r>
       <r>    9.1101    0.0000 </r>
       <r>   13.1969    0.0000 </r>
       <r>   15.3345    0.0000 </r>
       <r>   15.8269    0.0000 </r>
       <r>   16.9553    0.0000 </r>
      </set>
      <set comment="kpoint 55">
       <r>  -10.5550    1.0000 </r>
       <r>  -10.3424    1.0000 </r>
       <r>   -6.4523    1.0000 </r>
       <r>   -6.3168    1.0000 </r>
       <r>   -3.6785    1.0000 </r>
       <r>   -3.5883    1.0000 </r>
       <r>    1.3734    1.0000 </r>
       <r>    2.7331    1.0000 </r>
       <r>    7.0709    0.0000 </r>
       <r>    7.7655    0.0000 </r>
       <r>   14.4629    0.0000 </r>
       <r>   15.1531    0.0000 </r>
       <r>   15.7347    0.0000 </r>
       <r>   16.9345    0.0000 </r>
      </set>
      <set comment="kpoint 56">
       <r>   -9.4365    1.0000 </r>
       <r>   -9.2635    1.0000 </r>
       <r>   -7.7567    1.0000 </r>
       <r>   -7.6184    1.0000 </r>
       <r>   -3.9076    1.0000 </r>
       <r>   -3.8091    1.0000 </r>
       <r>    2.4692    1.0000 </r>
       <r>    3.3488    1.0000 </r>
       <r>    6.1585    0.0000 </r>
       <r>    6.6130    0.0000 </r>
       <r>   15.0203    0.0000 </r>
       <r>   15.5843    0.0000 </r>
       <r>   15.9068    0.0000 </r>
       <r>   16.8639    0.0000 </r>
      </set>
      <set comment="kpoint 57">
       <r>  -10.6397    1.0000 </r>
       <r>  -10.4248    1.0000 </r>
       <r>   -5.8435    1.0000 </r>
       <r>   -5.7689    1.0000 </r>
       <r>   -4.2627    1.0000 </r>
       <r>   -4.2062    1.0000 </r>
       <r>    1.3046    1.0000 </r>
       <r>    2.7195    1.0000 </r>
       <r>    7.2740    0.0000 </r>
       <r>    7.8737    0.0000 </r>
       <r>   14.3615    0.0000 </r>
       <r>   16.5096    0.0000 </r>
       <r>   16.8033    0.0000 </r>
       <r>   16.8874    0.0000 </r>
      </set>
      <set comment="kpoint 58">
       <r>   -9.5595    1.0000 </r>
       <r>   -9.3689    1.0000 </r>
       <r>   -6.9165    1.0000 </r>
       <r>   -6.8008    1.0000 </r>
       <r>   -4.8888    1.0000 </r>
       <r>   -4.8033    1.0000 </r>
       <r>    2.4826    1.0000 </r>
       <r>    3.6328    1.0000 </r>
       <r>    6.0974    0.0000 </r>
       <r>    6.7106    0.0000 </r>
       <r>   15.5970    0.0000 </r>
       <r>   16.2710    0.0000 </r>
       <r>   16.5413    0.0000 </r>
       <r>   16.7544    0.0000 </r>
      </set>
      <set comment="kpoint 59">
       <r>   -8.6709    1.0000 </r>
       <r>   -8.5702    1.0000 </r>
       <r>   -7.7555    1.0000 </r>
       <r>   -7.7113    1.0000 </r>
       <r>   -5.0715    1.0000 </r>
       <r>   -4.9716    1.0000 </r>
       <r>    3.2968    1.0000 </r>
       <r>    3.9385    1.0000 </r>
       <r>    5.7152    0.0000 </r>
       <r>    5.8915    0.0000 </r>
       <r>   16.1309    0.0000 </r>
       <r>   16.1783    0.0000 </r>
       <r>   16.5068    0.0000 </r>
       <r>   16.9240    0.0000 </r>
      </set>
      <set comment="kpoint 60">
       <r>   -8.5111    1.0000 </r>
       <r>   -8.3586    1.0000 </r>
       <r>   -7.4804    1.0000 </r>
       <r>   -7.3898    1.0000 </r>
       <r>   -5.6952    1.0000 </r>
       <r>   -5.6524    1.0000 </r>
       <r>    3.6246    1.0000 </r>
       <r>    4.4999    0.9820 </r>
       <r>    5.0706    0.0000 </r>
       <r>    5.7652    0.0000 </r>
       <r>   15.8844    0.0000 </r>
       <r>   15.8870    0.0000 </r>
       <r>   16.7963    0.0000 </r>
       <r>   17.3104    0.0000 </r>
      </set>
      <set comment="kpoint 61">
       <r>  -14.9740    1.0000 </r>
       <r>  -14.6977    1.0000 </r>
       <r>   -3.7583    1.0000 </r>
       <r>   -1.9584    1.0000 </r>
       <r>    1.7147    1.0000 </r>
       <r>    1.7147    1.0000 </r>
       <r>    1.7260    1.0000 </r>
       <r>    1.7260    1.0000 </r>
       <r>    9.1797    0.0000 </r>
       <r>   13.1385    0.0000 </r>
       <r>   13.1385    0.0000 </r>
       <r>   13.1823    0.0000 </r>
       <r>   13.1823    0.0000 </r>
       <r>   14.9376    0.0000 </r>
      </set>
      <set comment="kpoint 62">
       <r>  -14.8806    1.0000 </r>
       <r>  -14.6057    1.0000 </r>
       <r>   -3.6452    1.0000 </r>
       <r>   -1.8522    1.0000 </r>
       <r>    1.3303    1.0000 </r>
       <r>    1.3544    1.0000 </r>
       <r>    1.5109    1.0000 </r>
       <r>    1.5314    1.0000 </r>
       <r>    9.2921    0.0000 </r>
       <r>   13.1751    0.0000 </r>
       <r>   13.2343    0.0000 </r>
       <r>   13.5418    0.0000 </r>
       <r>   13.5840    0.0000 </r>
       <r>   15.0266    0.0000 </r>
      </set>
      <set comment="kpoint 63">
       <r>  -14.6008    1.0000 </r>
       <r>  -14.3304    1.0000 </r>
       <r>   -3.3050    1.0000 </r>
       <r>   -1.5337    1.0000 </r>
       <r>    0.3091    1.0000 </r>
       <r>    0.3504    1.0000 </r>
       <r>    0.9972    1.0000 </r>
       <r>    1.0291    1.0000 </r>
       <r>    9.6296    0.0000 </r>
       <r>   13.1782    0.0000 </r>
       <r>   13.2813    0.0000 </r>
       <r>   14.6660    0.0000 </r>
       <r>   14.7001    0.0000 </r>
       <r>   14.9171    0.0000 </r>
      </set>
      <set comment="kpoint 64">
       <r>  -14.1362    1.0000 </r>
       <r>  -13.8735    1.0000 </r>
       <r>   -2.7470    1.0000 </r>
       <r>   -1.1156    1.0000 </r>
       <r>   -1.0503    1.0000 </r>
       <r>   -1.0093    1.0000 </r>
       <r>    0.3407    1.0000 </r>
       <r>    0.3776    1.0000 </r>
       <r>   10.1919    0.0000 </r>
       <r>   13.0057    0.0000 </r>
       <r>   13.2041    0.0000 </r>
       <r>   13.5067    0.0000 </r>
       <r>   13.9224    0.0000 </r>
[...]
       </set>
       <set comment="band 10">
        <r>  0.0000  0.0002  0.0000  0.0007  0.0000  0.0000  0.0000  0.0000  0.0000 </r>
        <r>  0.0001  0.0002  0.0000  0.0002  0.0000  0.0000  0.0000  0.0000  0.0000 </r>
        <r>  0.0000  0.0000  0.2741  0.0000  0.0000  0.0000  0.0000  0.0000  0.0000 </r>
        <r>  0.0000  0.0000  0.2765  0.0000  0.0000  0.0000  0.0000  0.0000  0.0000 </r>
       </set>
       <set comment="band 11">
        <r>  0.0000  0.0000  0.0350  0.0000  0.0000  0.0000  0.0000  0.0000  0.0000 </r>
        <r>  0.0000  0.0003  0.0404  0.0002  0.0000  0.0000  0.0000  0.0000  0.0000 </r>
        <r>  0.0046  0.0333  0.0003  0.0270  0.0000  0.0000  0.0000  0.0000  0.0000 </r>
        <r>  0.0001  0.0056  0.0003  0.0035  0.0000  0.0000  0.0000  0.0000  0.0000 </r>
       </set>
       <set comment="band 12">
        <r>  0.0001  0.0056  0.0003  0.0035  0.0000  0.0000  0.0000  0.0000  0.0000 </r>
        <r>  0.0046  0.0333  0.0003  0.0270  0.0000  0.0000  0.0000  0.0000  0.0000 </r>
        <r>  0.0000  0.0003  0.0404  0.0002  0.0000  0.0000  0.0000  0.0000  0.0000 </r>
        <r>  0.0000  0.0000  0.0350  0.0000  0.0000  0.0000  0.0000  0.0000  0.0000 </r>
       </set>
       <set comment="band 13">
        <r>  0.0089  0.0491  0.0048  0.0961  0.0000  0.0000  0.0000  0.0000  0.0000 </r>
        <r>  0.0478  0.0127  0.0001  0.0333  0.0000  0.0000  0.0000  0.0000  0.0000 </r>
        <r>  0.0347  0.0094  0.0001  0.0249  0.0000  0.0000  0.0000  0.0000  0.0000 </r>
        <r>  0.0068  0.0355  0.0065  0.0700  0.0000  0.0000  0.0000  0.0000  0.0000 </r>
       </set>
       <set comment="band 14">
        <r>  0.0066  0.0358  0.0065  0.0701  0.0000  0.0000  0.0000  0.0000  0.0000 </r>
        <r>  0.0348  0.0094  0.0001  0.0245  0.0000  0.0000  0.0000  0.0000  0.0000 </r>
        <r>  0.0481  0.0124  0.0001  0.0329  0.0000  0.0000  0.0000  0.0000  0.0000 </r>
        <r>  0.0087  0.0493  0.0048  0.0968  0.0000  0.0000  0.0000  0.0000  0.0000 </r>
       </set>
      </set>
      <set comment="kpoint 268">
       <set comment="band 1">
        <r>  0.2520  0.0695  0.0000  0.0328  0.0000  0.0000  0.0000  0.0000  0.0000 </r>
        <r>  0.2532  0.0693  0.0000  0.0327  0.0000  0.0000  0.0000  0.0000  0.0000 </r>
        <r>  0.0000  0.0000  0.0000  0.0000  0.0000  0.0000  0.0000  0.0000  0.0000 </r>
        <r>  0.0000  0.0000  0.0000  0.0000  0.0000  0.0000  0.0000  0.0000  0.0000 </r>
       </set>
       <set comment="band 2">
        <r>  0.0000  0.0000  0.0000  0.0000  0.0000  0.0000  0.0000  0.0000  0.0000 </r>
        <r>  0.0000  0.0000  0.0000  0.0000  0.0000  0.0000  0.0000  0.0000  0.0000 </r>
        <r>  0.2532  0.0693  0.0000  0.0327  0.0000  0.0000  0.0000  0.0000  0.0000 </r>
        <r>  0.2520  0.0695  0.0000  0.0328  0.0000  0.0000  0.0000  0.0000  0.0000 </r>
       </set>
       <set comment="band 3">
        <r>  0.2018  0.0405  0.0000  0.1279  0.0000  0.0000  0.0000  0.0000  0.0000 </r>
        <r>  0.2009  0.0409  0.0000  0.1282  0.0000  0.0000  0.0000  0.0000  0.0000 </r>
        <r>  0.0000  0.0000  0.0000  0.0000  0.0000  0.0000  0.0000  0.0000  0.0000 </r>
        <r>  0.0000  0.0000  0.0000  0.0000  0.0000  0.0000  0.0000  0.0000  0.0000 </r>
       </set>
       <set comment="band 4">
        <r>  0.0000  0.0000  0.0000  0.0000  0.0000  0.0000  0.0000  0.0000  0.0000 </r>
        <r>  0.0000  0.0000  0.0000  0.0000  0.0000  0.0000  0.0000  0.0000  0.0000 </r>
        <r>  0.2009  0.0409  0.0000  0.1282  0.0000  0.0000  0.0000  0.0000  0.0000 </r>
        <r>  0.2018  0.0405  0.0000  0.1279  0.0000  0.0000  0.0000  0.0000  0.0000 </r>
       </set>
       <set comment="band 5">
        <r>  0.0346  0.1826  0.0000  0.1273  0.0000  0.0000  0.0000  0.0000  0.0000 </r>
        <r>  0.0344  0.1827  0.0000  0.1275  0.0000  0.0000  0.0000  0.0000  0.0000 </r>
        <r>  0.0000  0.0000  0.0000  0.0000  0.0000  0.0000  0.0000  0.0000  0.0000 </r>
        <r>  0.0000  0.0000  0.0000  0.0000  0.0000  0.0000  0.0000  0.0000  0.0000 </r>
       </set>
       <set comment="band 6">
        <r>  0.0000  0.0000  0.0000  0.0000  0.0000  0.0000  0.0000  0.0000  0.0000 </r>
        <r>  0.0000  0.0000  0.0000  0.0000  0.0000  0.0000  0.0000  0.0000  0.0000 </r>
        <r>  0.0344  0.1827  0.0000  0.1275  0.0000  0.0000  0.0000  0.0000  0.0000 </r>
        <r>  0.0346  0.1826  0.0000  0.1273  0.0000  0.0000  0.0000  0.0000  0.0000 </r>
       </set>
       <set comment="band 7">
        <r>  0.0000  0.0000  0.2496  0.0000  0.0000  0.0000  0.0000  0.0000  0.0000 </r>
        <r>  0.0000  0.0000  0.2527  0.0000  0.0000  0.0000  0.0000  0.0000  0.0000 </r>
        <r>  0.0006  0.0002  0.0000  0.0001  0.0000  0.0000  0.0000  0.0000  0.0000 </r>
        <r>  0.0002  0.0005  0.0000  0.0003  0.0000  0.0000  0.0000  0.0000  0.0000 </r>
       </set>
       <set comment="band 8">
        <r>  0.0002  0.0005  0.0000  0.0003  0.0000  0.0000  0.0000  0.0000  0.0000 </r>
        <r>  0.0006  0.0002  0.0000  0.0001  0.0000  0.0000  0.0000  0.0000  0.0000 </r>
        <r>  0.0000  0.0000  0.2527  0.0000  0.0000  0.0000  0.0000  0.0000  0.0000 </r>
        <r>  0.0000  0.0000  0.2496  0.0000  0.0000  0.0000  0.0000  0.0000  0.0000 </r>
       </set>
       <set comment="band 9">
        <r>  0.0000  0.0000  0.2683  0.0000  0.0000  0.0000  0.0000  0.0000  0.0000 </r>
        <r>  0.0000  0.0000  0.2648  0.0000  0.0000  0.0000  0.0000  0.0000  0.0000 </r>
        <r>  0.0002  0.0002  0.0000  0.0003  0.0000  0.0000  0.0000  0.0000  0.0000 </r>
        <r>  0.0001  0.0003  0.0000  0.0006  0.0000  0.0000  0.0000  0.0000  0.0000 </r>
       </set>
       <set comment="band 10">
        <r>  0.0001  0.0003  0.0000  0.0006  0.0000  0.0000  0.0000  0.0000  0.0000 </r>
        <r>  0.0002  0.0002  0.0000  0.0003  0.0000  0.0000  0.0000  0.0000  0.0000 </r>
        <r>  0.0000  0.0000  0.2648  0.0000  0.0000  0.0000  0.0000  0.0000  0.0000 </r>
        <r>  0.0000  0.0000  0.2683  0.0000  0.0000  0.0000  0.0000  0.0000  0.0000 </r>
       </set>
       <set comment="band 11">
        <r>  0.0000  0.0000  0.0177  0.0000  0.0000  0.0000  0.0000  0.0000  0.0000 </r>
        <r>  0.0000  0.0000  0.0191  0.0000  0.0000  0.0000  0.0000  0.0000  0.0000 </r>
        <r>  0.0038  0.0311  0.0000  0.0289  0.0000  0.0000  0.0000  0.0000  0.0000 </r>
        <r>  0.0003  0.0005  0.0000  0.0015  0.0000  0.0000  0.0000  0.0000  0.0000 </r>
       </set>
       <set comment="band 12">
        <r>  0.0003  0.0005  0.0000  0.0015  0.0000  0.0000  0.0000  0.0000  0.0000 </r>
        <r>  0.0038  0.0311  0.0000  0.0289  0.0000  0.0000  0.0000  0.0000  0.0000 </r>
        <r>  0.0000  0.0000  0.0191  0.0000  0.0000  0.0000  0.0000  0.0000  0.0000 </r>
        <r>  0.0000  0.0000  0.0177  0.0000  0.0000  0.0000  0.0000  0.0000  0.0000 </r>
       </set>
       <set comment="band 13">
        <r>  0.0748  0.1308  0.0000  0.0922  0.0000  0.0000  0.0000  0.0000  0.0000 </r>
        <r>  0.0778  0.0579  0.0001  0.0457  0.0000  0.0000  0.0000  0.0000  0.0000 </r>
        <r>  0.0007  0.0005  0.0098  0.0004  0.0000  0.0000  0.0000  0.0000  0.0000 </r>
        <r>  0.0006  0.0011  0.0057  0.0008  0.0000  0.0000  0.0000  0.0000  0.0000 </r>
       </set>
       <set comment="band 14">
        <r>  0.0006  0.0011  0.0057  0.0008  0.0000  0.0000  0.0000  0.0000  0.0000 </r>
        <r>  0.0007  0.0005  0.0098  0.0004  0.0000  0.0000  0.0000  0.0000  0.0000 </r>
        <r>  0.0778  0.0579  0.0001  0.0457  0.0000  0.0000  0.0000  0.0000  0.0000 </r>
        <r>  0.0748  0.1309  0.0000  0.0922  0.0000  0.0000  0.0000  0.0000  0.0000 </r>
       </set>
      </set>
      <set comment="kpoint 269">
       <set comment="band 1">
        <r>  0.2686  0.0421  0.0000  0.0561  0.0000  0.0000  0.0000  0.0000  0.0000 </r>
        <r>  0.2720  0.0417  0.0000  0.0551  0.0000  0.0000  0.0000  0.0000  0.0000 </r>
        <r>  0.0000  0.0000  0.0000  0.0000  0.0000  0.0000  0.0000  0.0000  0.0000 </r>
        <r>  0.0000  0.0000  0.0000  0.0000  0.0000  0.0000  0.0000  0.0000  0.0000 </r>
       </set>
       <set comment="band 2">
        <r>  0.0000  0.0000  0.0000  0.0000  0.0000  0.0000  0.0000  0.0000  0.0000 </r>
        <r>  0.0000  0.0000  0.0000  0.0000  0.0000  0.0000  0.0000  0.0000  0.0000 </r>
        <r>  0.2720  0.0417  0.0000  0.0551  0.0000  0.0000  0.0000  0.0000  0.0000 </r>
        <r>  0.2686  0.0421  0.0000  0.0561  0.0000  0.0000  0.0000  0.0000  0.0000 </r>
       </set>
       <set comment="band 3">
        <r>  0.1815  0.0444  0.0000  0.1294  0.0000  0.0000  0.0000  0.0000  0.0000 </r>
        <r>  0.1784  0.0449  0.0000  0.1307  0.0000  0.0000  0.0000  0.0000  0.0000 </r>
        <r>  0.0000  0.0000  0.0000  0.0000  0.0000  0.0000  0.0000  0.0000  0.0000 </r>
        <r>  0.0000  0.0000  0.0000  0.0000  0.0000  0.0000  0.0000  0.0000  0.0000 </r>
       </set>
       <set comment="band 4">
        <r>  0.0000  0.0000  0.0000  0.0000  0.0000  0.0000  0.0000  0.0000  0.0000 </r>
        <r>  0.0000  0.0000  0.0000  0.0000  0.0000  0.0000  0.0000  0.0000  0.0000 </r>
        <r>  0.1784  0.0449  0.0000  0.1307  0.0000  0.0000  0.0000  0.0000  0.0000 </r>
        <r>  0.1815  0.0444  0.0000  0.1294  0.0000  0.0000  0.0000  0.0000  0.0000 </r>
       </set>
       <set comment="band 5">
        <r>  0.0420  0.2074  0.0000  0.0961  0.0000  0.0000  0.0000  0.0000  0.0000 </r>
        <r>  0.0418  0.2077  0.0000  0.0962  0.0000  0.0000  0.0000  0.0000  0.0000 </r>
        <r>  0.0000  0.0000  0.0000  0.0000  0.0000  0.0000  0.0000  0.0000  0.0000 </r>
        <r>  0.0000  0.0000  0.0000  0.0000  0.0000  0.0000  0.0000  0.0000  0.0000 </r>
       </set>
       <set comment="band 6">
        <r>  0.0000  0.0000  0.0000  0.0000  0.0000  0.0000  0.0000  0.0000  0.0000 </r>
        <r>  0.0000  0.0000  0.0000  0.0000  0.0000  0.0000  0.0000  0.0000  0.0000 </r>
        <r>  0.0418  0.2077  0.0000  0.0962  0.0000  0.0000  0.0000  0.0000  0.0000 </r>
        <r>  0.0420  0.2074  0.0000  0.0961  0.0000  0.0000  0.0000  0.0000  0.0000 </r>
       </set>
       <set comment="band 7">
        <r>  0.0000  0.0000  0.2564  0.0000  0.0000  0.0000  0.0000  0.0000  0.0000 </r>
        <r>  0.0000  0.0000  0.2616  0.0000  0.0000  0.0000  0.0000  0.0000  0.0000 </r>
        <r>  0.0005  0.0001  0.0000  0.0002  0.0000  0.0000  0.0000  0.0000  0.0000 </r>
        <r>  0.0000  0.0002  0.0000  0.0007  0.0000  0.0000  0.0000  0.0000  0.0000 </r>
       </set>
       <set comment="band 8">
        <r>  0.0000  0.0002  0.0000  0.0007  0.0000  0.0000  0.0000  0.0000  0.0000 </r>
        <r>  0.0005  0.0001  0.0000  0.0002  0.0000  0.0000  0.0000  0.0000  0.0000 </r>
        <r>  0.0000  0.0000  0.2616  0.0000  0.0000  0.0000  0.0000  0.0000  0.0000 </r>
        <r>  0.0000  0.0000  0.2564  0.0000  0.0000  0.0000  0.0000  0.0000  0.0000 </r>
       </set>
       <set comment="band 9">
        <r>  0.0000  0.0000  0.2616  0.0000  0.0000  0.0000  0.0000  0.0000  0.0000 </r>
        <r>  0.0000  0.0000  0.2559  0.0000  0.0000  0.0000  0.0000  0.0000  0.0000 </r>
        <r>  0.0002  0.0002  0.0000  0.0004  0.0000  0.0000  0.0000  0.0000  0.0000 </r>
        <r>  0.0002  0.0006  0.0000  0.0002  0.0000  0.0000  0.0000  0.0000  0.0000 </r>
       </set>
       <set comment="band 10">
        <r>  0.0002  0.0006  0.0000  0.0002  0.0000  0.0000  0.0000  0.0000  0.0000 </r>
        <r>  0.0002  0.0002  0.0000  0.0004  0.0000  0.0000  0.0000  0.0000  0.0000 </r>
        <r>  0.0000  0.0000  0.2559  0.0000  0.0000  0.0000  0.0000  0.0000  0.0000 </r>
        <r>  0.0000  0.0000  0.2616  0.0000  0.0000  0.0000  0.0000  0.0000  0.0000 </r>
       </set>
       <set comment="band 11">
        <r>  0.0000  0.0000  0.0111  0.0000  0.0000  0.0000  0.0000  0.0000  0.0000 </r>
        <r>  0.0000  0.0000  0.0112  0.0000  0.0000  0.0000  0.0000  0.0000  0.0000 </r>
        <r>  0.0036  0.0284  0.0000  0.0296  0.0000  0.0000  0.0000  0.0000  0.0000 </r>
        <r>  0.0005  0.0009  0.0000  0.0005  0.0000  0.0000  0.0000  0.0000  0.0000 </r>
       </set>
       <set comment="band 12">
        <r>  0.0005  0.0009  0.0000  0.0005  0.0000  0.0000  0.0000  0.0000  0.0000 </r>
        <r>  0.0036  0.0284  0.0000  0.0296  0.0000  0.0000  0.0000  0.0000  0.0000 </r>
        <r>  0.0000  0.0000  0.0112  0.0000  0.0000  0.0000  0.0000  0.0000  0.0000 </r>
        <r>  0.0000  0.0000  0.0111  0.0000  0.0000  0.0000  0.0000  0.0000  0.0000 </r>
       </set>
       <set comment="band 13">
        <r>  0.0792  0.1353  0.0000  0.0855  0.0000  0.0000  0.0000  0.0000  0.0000 </r>
        <r>  0.0802  0.0711  0.0000  0.0351  0.0000  0.0000  0.0000  0.0000  0.0000 </r>
        <r>  0.0000  0.0000  0.0104  0.0000  0.0000  0.0000  0.0000  0.0000  0.0000 </r>
        <r>  0.0000  0.0000  0.0046  0.0000  0.0000  0.0000  0.0000  0.0000  0.0000 </r>
       </set>
       <set comment="band 14">
        <r>  0.0000  0.0000  0.0046  0.0000  0.0000  0.0000  0.0000  0.0000  0.0000 </r>
        <r>  0.0000  0.0000  0.0104  0.0000  0.0000  0.0000  0.0000  0.0000  0.0000 </r>
        <r>  0.0802  0.0711  0.0000  0.0351  0.0000  0.0000  0.0000  0.0000  0.0000 </r>
        <r>  0.0792  0.1353  0.0000  0.0855  0.0000  0.0000  0.0000  0.0000  0.0000 </r>
       </set>
      </set>
      <set comment="kpoint 270">
       <set comment="band 1">
        <r>  0.2485  0.0758  0.0000  0.0397  0.0000  0.0000  0.0000  0.0000  0.0000 </r>
        <r>  0.2520  0.0749  0.0000  0.0391  0.0000  0.0000  0.0000  0.0000  0.0000 </r>
        <r>  0.0000  0.0000  0.0000  0.0000  0.0000  0.0000  0.0000  0.0000  0.0000 </r>
        <r>  0.0000  0.0000  0.0000  0.0000  0.0000  0.0000  0.0000  0.0000  0.0000 </r>
       </set>
       <set comment="band 2">
        <r>  0.0000  0.0000  0.0000  0.0000  0.0000  0.0000  0.0000  0.0000  0.0000 </r>
        <r>  0.0000  0.0000  0.0000  0.0000  0.0000  0.0000  0.0000  0.0000  0.0000 </r>
        <r>  0.2520  0.0749  0.0000  0.0391  0.0000  0.0000  0.0000  0.0000  0.0000 </r>
        <r>  0.2485  0.0758  0.0000  0.0397  0.0000  0.0000  0.0000  0.0000  0.0000 </r>
       </set>
       <set comment="band 3">
        <r>  0.2383  0.0719  0.0000  0.0640  0.0000  0.0000  0.0000  0.0000  0.0000 </r>
        <r>  0.2350  0.0731  0.0000  0.0647  0.0000  0.0000  0.0000  0.0000  0.0000 </r>
        <r>  0.0000  0.0000  0.0000  0.0000  0.0000  0.0000  0.0000  0.0000  0.0000 </r>
        <r>  0.0000  0.0000  0.0000  0.0000  0.0000  0.0000  0.0000  0.0000  0.0000 </r>
       </set>
       <set comment="band 4">
        <r>  0.0000  0.0000  0.0000  0.0000  0.0000  0.0000  0.0000  0.0000  0.0000 </r>
        <r>  0.0000  0.0000  0.0000  0.0000  0.0000  0.0000  0.0000  0.0000  0.0000 </r>
        <r>  0.2350  0.0731  0.0000  0.0647  0.0000  0.0000  0.0000  0.0000  0.0000 </r>
        <r>  0.2383  0.0719  0.0000  0.0640  0.0000  0.0000  0.0000  0.0000  0.0000 </r>
       </set>
       <set comment="band 5">
        <r>  0.0096  0.1350  0.0000  0.1828  0.0000  0.0000  0.0000  0.0000  0.0000 </r>
        <r>  0.0095  0.1350  0.0000  0.1831  0.0000  0.0000  0.0000  0.0000  0.0000 </r>
        <r>  0.0000  0.0000  0.0000  0.0000  0.0000  0.0000  0.0000  0.0000  0.0000 </r>
        <r>  0.0000  0.0000  0.0001  0.0000  0.0000  0.0000  0.0000  0.0000  0.0000 </r>
       </set>
       <set comment="band 6">
        <r>  0.0000  0.0000  0.0001  0.0000  0.0000  0.0000  0.0000  0.0000  0.0000 </r>
        <r>  0.0000  0.0000  0.0000  0.0000  0.0000  0.0000  0.0000  0.0000  0.0000 </r>
        <r>  0.0095  0.1350  0.0000  0.1831  0.0000  0.0000  0.0000  0.0000  0.0000 </r>
        <r>  0.0096  0.1350  0.0000  0.1828  0.0000  0.0000  0.0000  0.0000  0.0000 </r>
       </set>
       <set comment="band 7">
        <r>  0.0000  0.0000  0.2545  0.0000  0.0000  0.0000  0.0000  0.0000  0.0000 </r>
        <r>  0.0000  0.0000  0.2631  0.0000  0.0000  0.0000  0.0000  0.0000  0.0000 </r>
        <r>  0.0004  0.0002  0.0000  0.0002  0.0000  0.0000  0.0000  0.0000  0.0000 </r>
        <r>  0.0000  0.0007  0.0000  0.0002  0.0000  0.0000  0.0000  0.0000  0.0000 </r>
       </set>
       <set comment="band 8">
        <r>  0.0000  0.0007  0.0000  0.0002  0.0000  0.0000  0.0000  0.0000  0.0000 </r>
        <r>  0.0004  0.0002  0.0000  0.0002  0.0000  0.0000  0.0000  0.0000  0.0000 </r>
        <r>  0.0000  0.0000  0.2631  0.0000  0.0000  0.0000  0.0000  0.0000  0.0000 </r>
        <r>  0.0000  0.0000  0.2545  0.0000  0.0000  0.0000  0.0000  0.0000  0.0000 </r>
       </set>
       <set comment="band 9">
        <r>  0.0000  0.0000  0.2690  0.0000  0.0000  0.0000  0.0000  0.0000  0.0000 </r>
        <r>  0.0000  0.0000  0.2601  0.0000  0.0000  0.0000  0.0000  0.0000  0.0000 </r>
        <r>  0.0002  0.0002  0.0000  0.0002  0.0000  0.0000  0.0000  0.0000  0.0000 </r>
        <r>  0.0000  0.0002  0.0000  0.0007  0.0000  0.0000  0.0000  0.0000  0.0000 </r>
       </set>
       <set comment="band 10">
        <r>  0.0000  0.0002  0.0000  0.0007  0.0000  0.0000  0.0000  0.0000  0.0000 </r>
        <r>  0.0002  0.0002  0.0000  0.0002  0.0000  0.0000  0.0000  0.0000  0.0000 </r>
        <r>  0.0000  0.0000  0.2601  0.0000  0.0000  0.0000  0.0000  0.0000  0.0000 </r>
        <r>  0.0000  0.0000  0.2690  0.0000  0.0000  0.0000  0.0000  0.0000  0.0000 </r>
       </set>
       <set comment="band 11">
        <r>  0.0000  0.0000  0.0027  0.0000  0.0000  0.0000  0.0000  0.0000  0.0000 </r>
        <r>  0.0000  0.0000  0.0029  0.0000  0.0000  0.0000  0.0000  0.0000  0.0000 </r>
        <r>  0.0003  0.0231  0.0000  0.0220  0.0000  0.0000  0.0000  0.0000  0.0000 </r>
        <r>  0.0000  0.0000  0.0000  0.0000  0.0000  0.0000  0.0000  0.0000  0.0000 </r>
       </set>
       <set comment="band 12">
        <r>  0.0000  0.0000  0.0000  0.0000  0.0000  0.0000  0.0000  0.0000  0.0000 </r>
        <r>  0.0003  0.0231  0.0000  0.0220  0.0000  0.0000  0.0000  0.0000  0.0000 </r>
        <r>  0.0000  0.0000  0.0029  0.0000  0.0000  0.0000  0.0000  0.0000  0.0000 </r>
        <r>  0.0000  0.0000  0.0027  0.0000  0.0000  0.0000  0.0000  0.0000  0.0000 </r>
       </set>
       <set comment="band 13">
        <r>  0.0084  0.1400  0.0000  0.1537  0.0000  0.0000  0.0000  0.0000  0.0000 </r>
        <r>  0.0504  0.0065  0.0062  0.0046  0.0000  0.0000  0.0000  0.0000  0.0000 </r>
        <r>  0.0143  0.0019  0.0217  0.0013  0.0000  0.0000  0.0000  0.0000  0.0000 </r>
        <r>  0.0024  0.0398  0.0000  0.0436  0.0000  0.0000  0.0000  0.0000  0.0000 </r>
       </set>
       <set comment="band 14">
        <r>  0.0024  0.0398  0.0000  0.0437  0.0000  0.0000  0.0000  0.0000  0.0000 </r>
        <r>  0.0143  0.0019  0.0217  0.0013  0.0000  0.0000  0.0000  0.0000  0.0000 </r>
        <r>  0.0504  0.0065  0.0062  0.0046  0.0000  0.0000  0.0000  0.0000  0.0000 </r>
        <r>  0.0084  0.1400  0.0000  0.1537  0.0000  0.0000  0.0000  0.0000  0.0000 </r>
       </set>
      </set>
     </set>
    </set>
   </array>
  </projected>
 </calculation>
 <structure name="finalpos" >
  <crystal>
   <varray name="basis" >
    <v>       2.46120000       0.00000000       0.00000000 </v>
    <v>      -1.23060000       2.13146172       0.00000000 </v>
    <v>       0.00000000       0.00000000       6.70790000 </v>
   </varray>
   <i name="volume">     35.18933212 </i>
   <varray name="rec_basis" >
    <v>       0.40630587       0.23458080       0.00000000 </v>
    <v>       0.00000000       0.46916160       0.00000000 </v>
    <v>       0.00000000       0.00000000       0.14907795 </v>
   </varray>
  </crystal>
  <varray name="positions" >
   <v>       0.00000000       0.00000000       0.00000000 </v>
   <v>       0.33333333       0.66666667       0.00000000 </v>
   <v>       0.33333333       0.66666667       0.50000000 </v>
   <v>       0.66666667       0.33333333       0.50000000 </v>
  </varray>
 </structure>
</modeling>
