   4   4   1   0
  0.8797333E+01  0.2461200E-09  0.2461200E-09  0.6707900E-09  0.5000000E-15
  1.000000000000000E-004
  CAR 
 unknown system                          
     20.55015679    -16.73447243  301      4.76203918      1.00000000
    -16.734  0.0000E+00  0.0000E+00  0.0000E+00  0.0000E+00
    -16.610  0.0000E+00  0.0000E+00  0.0000E+00  0.0000E+00
    -16.486  0.0000E+00  0.0000E+00  0.0000E+00  0.0000E+00
    -16.362  0.0000E+00  0.0000E+00  0.0000E+00  0.0000E+00
    -16.237  0.0000E+00  0.0000E+00  0.0000E+00  0.0000E+00
    -16.113  0.0000E+00  0.0000E+00  0.0000E+00  0.0000E+00
    -15.989  0.0000E+00  0.0000E+00  0.0000E+00  0.0000E+00
    -15.864  0.0000E+00  0.0000E+00  0.0000E+00  0.0000E+00
    -15.740  0.0000E+00  0.0000E+00  0.0000E+00  0.0000E+00
    -15.616  0.0000E+00  0.0000E+00  0.0000E+00  0.0000E+00
    -15.492 -0.3144E-36 -0.4154E-41 -0.3907E-37 -0.5163E-42
    -15.367 -0.1563E-19 -0.4257E-23 -0.1942E-20 -0.5290E-24
    -15.243 -0.2861E-08 -0.1639E-10 -0.3556E-09 -0.2036E-11
    -15.119 -0.1576E-02 -0.2207E-03 -0.1958E-03 -0.2743E-04
    -14.995  0.1138E+00  0.5768E-01  0.1395E-01  0.7141E-02
    -14.870  0.1381E+00  0.1619E+00  0.3111E-01  0.2726E-01
    -14.746  0.1599E+00  0.1403E+00  0.5099E-01  0.4470E-01
    -14.622  0.3683E-01  0.8814E-01  0.5557E-01  0.5565E-01
    -14.497 -0.6582E-03 -0.8216E-03  0.5548E-01  0.5555E-01
    -14.373  0.2399E+00  0.2124E-01  0.8530E-01  0.5819E-01
    -14.249  0.1034E+01  0.1076E+01  0.2138E+00  0.1919E+00
    -14.125  0.8849E+00  0.7815E+00  0.3238E+00  0.2891E+00
    -14.000  0.5281E+00  0.8205E+00  0.3894E+00  0.3910E+00
    -13.876 -0.4470E-02 -0.1725E-01  0.3889E+00  0.3889E+00
    -13.752 -0.2141E-08 -0.2067E-06  0.3889E+00  0.3889E+00
    -13.627  0.0000E+00  0.0000E+00  0.3889E+00  0.3889E+00
    -13.503 -0.2792E-33 -0.7167E-38  0.3889E+00  0.3889E+00
    -13.379 -0.3405E-17 -0.1650E-20  0.3889E+00  0.3889E+00
    -13.255 -0.1541E-06 -0.1437E-08  0.3889E+00  0.3889E+00
    -13.130 -0.1779E-01 -0.4189E-02  0.3867E+00  0.3884E+00
    -13.006  0.8897E+00  0.5554E+00  0.4972E+00  0.4574E+00
    -12.882  0.8470E+00  0.9799E+00  0.6025E+00  0.5792E+00
    -12.757  0.9836E+00  0.1099E+01  0.7248E+00  0.7158E+00
    -12.633 -0.2045E-01  0.5211E-01  0.7222E+00  0.7222E+00
    -12.509 -0.6456E-02 -0.8292E-03  0.7214E+00  0.7221E+00
    -12.385  0.6429E+00  0.2857E+00  0.8013E+00  0.7576E+00
    -12.260  0.9550E+00  0.1114E+01  0.9200E+00  0.8960E+00
    -12.136  0.1093E+01  0.1124E+01  0.1056E+01  0.1036E+01
    -12.012 -0.2620E-02  0.1596E+00  0.1056E+01  0.1056E+01
    -11.887 -0.1135E-04 -0.2550E-03  0.1056E+01  0.1056E+01
    -11.763  0.0000E+00 -0.2502E-11  0.1056E+01  0.1056E+01
    -11.639  0.0000E+00  0.0000E+00  0.1056E+01  0.1056E+01
    -11.515  0.0000E+00  0.0000E+00  0.1056E+01  0.1056E+01
    -11.390  0.0000E+00  0.0000E+00  0.1056E+01  0.1056E+01
    -11.266  0.0000E+00  0.0000E+00  0.1056E+01  0.1056E+01
    -11.142  0.0000E+00  0.0000E+00  0.1056E+01  0.1056E+01
    -11.017 -0.9805E-39 -0.1607E-43  0.1056E+01  0.1056E+01
    -10.893 -0.4718E-21 -0.1308E-24  0.1056E+01  0.1056E+01
    -10.769 -0.8849E-09 -0.4191E-11  0.1056E+01  0.1056E+01
    -10.645 -0.5711E-02 -0.5063E-03  0.1055E+01  0.1055E+01
    -10.520  0.1020E+01  0.3289E+00  0.1182E+01  0.1096E+01
    -10.396  0.2316E+01  0.2544E+01  0.1469E+01  0.1413E+01
    -10.272  0.2080E+01  0.2445E+01  0.1728E+01  0.1716E+01
    -10.148 -0.4582E-01  0.4740E-01  0.1722E+01  0.1722E+01
    -10.023 -0.1718E-05 -0.6347E-04  0.1722E+01  0.1722E+01
     -9.899 -0.7243E-09 -0.6688E-11  0.1722E+01  0.1722E+01
     -9.775 -0.2737E-02 -0.3489E-03  0.1722E+01  0.1722E+01
     -9.650  0.3937E+00  0.1552E+00  0.1771E+01  0.1741E+01
     -9.526  0.9700E+00  0.1098E+01  0.1891E+01  0.1878E+01
     -9.402 -0.1998E-01  0.8811E-01  0.1889E+01  0.1889E+01
     -9.278 -0.1088E-05 -0.1143E-03  0.1889E+01  0.1889E+01
     -9.153  0.0000E+00 -0.5223E-12  0.1889E+01  0.1889E+01
     -9.029 -0.1370E-33 -0.1093E-35  0.1889E+01  0.1889E+01
     -8.905 -0.2242E-17 -0.6720E-19  0.1889E+01  0.1889E+01
     -8.780 -0.1348E-06 -0.1545E-07  0.1889E+01  0.1889E+01
     -8.656 -0.1883E-01 -0.9731E-02  0.1887E+01  0.1888E+01
     -8.532  0.9975E+00  0.7294E+00  0.2011E+01  0.1978E+01
     -8.408  0.3641E+00  0.6297E+00  0.2056E+01  0.2057E+01
     -8.283 -0.1730E-02 -0.8290E-02  0.2056E+01  0.2056E+01
     -8.159 -0.2220E-05 -0.4936E-04  0.2056E+01  0.2056E+01
     -8.035 -0.2486E-01  0.3838E-01  0.2052E+01  0.2060E+01
     -7.910  0.1343E+01  0.4603E+00  0.2219E+01  0.2118E+01
     -7.786  0.4527E+00  0.1317E+01  0.2276E+01  0.2281E+01
     -7.662  0.1763E-01 -0.2766E-01  0.2278E+01  0.2278E+01
     -7.538 -0.1919E-04 -0.8178E-06  0.2278E+01  0.2278E+01
     -7.413 -0.2959E-13  0.0000E+00  0.2278E+01  0.2278E+01
     -7.289 -0.2276E-42 -0.1552E-46  0.2278E+01  0.2278E+01
     -7.165 -0.9951E-24 -0.7369E-27  0.2278E+01  0.2278E+01
     -7.040 -0.1745E-10 -0.1371E-12  0.2278E+01  0.2278E+01
     -6.916 -0.1120E-02 -0.9850E-04  0.2278E+01  0.2278E+01
     -6.792  0.5516E+00  0.7994E-01  0.2346E+01  0.2288E+01
     -6.668  0.3560E+01  0.3341E+01  0.2789E+01  0.2703E+01
     -6.543  0.1262E+01  0.1975E+01  0.2945E+01  0.2948E+01
     -6.419 -0.8054E-02 -0.3154E-01  0.2944E+01  0.2944E+01
     -6.295 -0.1737E-08 -0.9092E-07  0.2944E+01  0.2944E+01
     -6.170 -0.2701E-15 -0.2371E-16  0.2944E+01  0.2944E+01
     -6.046 -0.2893E-05 -0.7110E-06  0.2944E+01  0.2944E+01
     -5.922 -0.2685E-01 -0.3106E-01  0.2941E+01  0.2941E+01
     -5.798  0.9486E+00  0.9563E+00  0.3059E+01  0.3059E+01
     -5.673 -0.2769E-01 -0.3123E-01  0.3056E+01  0.3056E+01
     -5.549 -0.2434E-06 -0.1053E-05  0.3056E+01  0.3056E+01
     -5.425 -0.2773E-31 -0.1212E-34  0.3056E+01  0.3056E+01
     -5.301 -0.1191E-15 -0.4817E-18  0.3056E+01  0.3056E+01
     -5.176 -0.1731E-05 -0.6713E-07  0.3056E+01  0.3056E+01
     -5.052 -0.3442E-01 -0.2134E-01  0.3051E+01  0.3053E+01
     -4.928  0.1491E+01  0.1184E+01  0.3237E+01  0.3200E+01
     -4.803  0.1252E+01  0.1539E+01  0.3392E+01  0.3391E+01
     -4.679 -0.2619E-01 -0.1954E-01  0.3389E+01  0.3389E+01
     -4.555 -0.3650E-06 -0.7047E-05  0.3389E+01  0.3389E+01
     -4.431  0.0000E+00  0.0000E+00  0.3389E+01  0.3389E+01
     -4.306 -0.1459E-34 -0.1118E-45  0.3389E+01  0.3389E+01
     -4.182 -0.2424E-18 -0.1643E-26  0.3389E+01  0.3389E+01
     -4.058 -0.1370E-07 -0.8967E-13  0.3389E+01  0.3389E+01
     -3.933 -0.1228E-02 -0.1526E-04  0.3389E+01  0.3389E+01
     -3.809  0.3737E-01  0.1136E-01  0.3393E+01  0.3390E+01
     -3.685  0.7796E-01  0.6618E-01  0.3403E+01  0.3399E+01
     -3.561 -0.2486E-02  0.3430E-01  0.3403E+01  0.3403E+01
     -3.436 -0.2936E-01 -0.4274E-01  0.3399E+01  0.3397E+01
     -3.312  0.4157E+01  0.3358E+01  0.3916E+01  0.3815E+01
     -3.188  0.1311E+01  0.2136E+01  0.4079E+01  0.4080E+01
     -3.063  0.1029E+01  0.3252E+00  0.4207E+01  0.4121E+01
     -2.939  0.2282E+01  0.2608E+01  0.4490E+01  0.4445E+01
     -2.815  0.1160E+00  0.4964E+00  0.4505E+01  0.4507E+01
     -2.691 -0.5790E-02 -0.1708E-01  0.4504E+01  0.4504E+01
     -2.566  0.4630E+00  0.2967E+00  0.4561E+01  0.4541E+01
     -2.442  0.4736E-01  0.1494E+00  0.4567E+01  0.4560E+01
     -2.318  0.1664E-01  0.7905E-01  0.4569E+01  0.4570E+01
     -2.193  0.1159E+00 -0.1034E-01  0.4584E+01  0.4568E+01
     -2.069  0.3308E+00  0.4466E+00  0.4625E+01  0.4624E+01
     -1.945  0.7681E-01  0.4230E-01  0.4634E+01  0.4629E+01
     -1.821  0.2522E-01  0.3777E-01  0.4638E+01  0.4634E+01
     -1.696  0.1784E+01  0.1019E+01  0.4859E+01  0.4761E+01
     -1.572  0.2716E+01  0.3517E+01  0.5197E+01  0.5198E+01
     -1.448  0.1880E+00 -0.4390E-03  0.5220E+01  0.5198E+01
     -1.323  0.4644E+00  0.3538E+00  0.5278E+01  0.5242E+01
     -1.199  0.4480E+00  0.4804E+00  0.5334E+01  0.5301E+01
     -1.075  0.1251E+01  0.6381E+00  0.5489E+01  0.5381E+01
     -0.951  0.2132E+01  0.3014E+01  0.5754E+01  0.5755E+01
     -0.826 -0.3734E-01 -0.4118E-01  0.5749E+01  0.5750E+01
     -0.702  0.1727E+00  0.7118E-02  0.5771E+01  0.5751E+01
     -0.578  0.2905E+01  0.1974E+01  0.6132E+01  0.5996E+01
     -0.454  0.7233E+00  0.1829E+01  0.6222E+01  0.6224E+01
     -0.329  0.4133E+00 -0.9076E-02  0.6273E+01  0.6222E+01
     -0.205  0.1623E+00  0.4481E+00  0.6293E+01  0.6278E+01
     -0.081  0.3228E+00  0.4268E+00  0.6334E+01  0.6331E+01
      0.044  0.1430E+00  0.9428E-02  0.6351E+01  0.6332E+01
      0.168  0.4787E+00  0.4418E+00  0.6411E+01  0.6387E+01
      0.292  0.3339E+00  0.4517E+00  0.6452E+01  0.6443E+01
      0.416  0.1468E+00  0.2154E+00  0.6471E+01  0.6470E+01
      0.541  0.8438E+00  0.2234E+00  0.6575E+01  0.6498E+01
      0.665  0.2342E+01  0.2967E+01  0.6867E+01  0.6867E+01
      0.789 -0.4829E-01 -0.4485E-01  0.6861E+01  0.6861E+01
      0.914  0.4562E+00  0.2113E+00  0.6917E+01  0.6887E+01
      1.038  0.2258E+00  0.3112E+00  0.6945E+01  0.6926E+01
      1.162 -0.6602E-02  0.1490E+00  0.6944E+01  0.6945E+01
      1.286 -0.9649E-03 -0.6435E-03  0.6944E+01  0.6944E+01
      1.411  0.2437E+00 -0.1613E-01  0.6975E+01  0.6942E+01
      1.535  0.1129E+01  0.7681E+00  0.7115E+01  0.7038E+01
      1.659 -0.4310E-01  0.5792E+00  0.7110E+01  0.7110E+01
      1.784  0.1836E+01  0.1265E+01  0.7338E+01  0.7267E+01
      1.908 -0.3614E-01  0.5318E+00  0.7333E+01  0.7333E+01
      2.032  0.5818E+00  0.1463E+00  0.7406E+01  0.7351E+01
      2.156  0.7464E+00  0.1039E+01  0.7498E+01  0.7481E+01
      2.281  0.1184E+00  0.2758E+00  0.7513E+01  0.7515E+01
      2.405  0.9973E+00  0.8048E-01  0.7637E+01  0.7525E+01
      2.529  0.3337E+00  0.1054E+01  0.7678E+01  0.7656E+01
      2.654  0.1154E+01  0.1731E+00  0.7822E+01  0.7677E+01
      2.778  0.5495E+00  0.1285E+01  0.7890E+01  0.7837E+01
      2.902 -0.9915E-02  0.4293E+00  0.7889E+01  0.7890E+01
      3.026 -0.2566E-05 -0.1202E-01  0.7889E+01  0.7889E+01
      3.151  0.0000E+00 -0.5231E-07  0.7889E+01  0.7889E+01
      3.275  0.0000E+00  0.0000E+00  0.7889E+01  0.7889E+01
      3.399  0.0000E+00  0.0000E+00  0.7889E+01  0.7889E+01
      3.524  0.0000E+00  0.0000E+00  0.7889E+01  0.7889E+01
      3.648  0.0000E+00 -0.5527E-34  0.7889E+01  0.7889E+01
      3.772 -0.9215E-31 -0.7647E-18  0.7889E+01  0.7889E+01
      3.896 -0.1389E-15 -0.3586E-07  0.7889E+01  0.7889E+01
      4.021 -0.7170E-06 -0.2658E-02  0.7889E+01  0.7889E+01
      4.145 -0.1476E-02  0.1433E+00  0.7889E+01  0.7906E+01
      4.269  0.1923E+00  0.8276E-01  0.7913E+01  0.7917E+01
      4.393  0.3131E-01  0.9172E-01  0.7916E+01  0.7928E+01
      4.518  0.1284E+00  0.5744E-01  0.7932E+01  0.7935E+01
      4.642  0.6580E+00 -0.5150E-02  0.8014E+01  0.7935E+01
      4.766  0.2554E+00  0.1578E+00  0.8046E+01  0.7954E+01
      4.891  0.1555E+00  0.3597E+00  0.8065E+01  0.7999E+01
      5.015 -0.3982E-02  0.5339E+00  0.8065E+01  0.8065E+01
      5.139  0.1829E-01  0.1488E+00  0.8067E+01  0.8084E+01
      5.263  0.1320E+00 -0.7949E-02  0.8083E+01  0.8083E+01
      5.388 -0.6333E-02  0.1860E+00  0.8083E+01  0.8106E+01
      5.512  0.2031E+00  0.4247E-01  0.8108E+01  0.8111E+01
      5.636  0.2551E-01 -0.1806E-03  0.8111E+01  0.8111E+01
      5.761 -0.5537E-04 -0.8440E-11  0.8111E+01  0.8111E+01
      5.885 -0.6201E-12 -0.9585E-25  0.8111E+01  0.8111E+01
      6.009 -0.7605E-11 -0.2070E-11  0.8111E+01  0.8111E+01
      6.133 -0.3990E-03 -0.1663E-03  0.8111E+01  0.8111E+01
      6.258  0.1843E+00  0.9467E-01  0.8134E+01  0.8123E+01
      6.382  0.4671E+00  0.4682E+00  0.8192E+01  0.8181E+01
      6.506  0.1301E+00  0.2191E+00  0.8208E+01  0.8208E+01
      6.631  0.1889E+00 -0.3476E-02  0.8232E+01  0.8208E+01
      6.755  0.2933E-01  0.2234E+00  0.8235E+01  0.8236E+01
      6.879  0.2346E+00 -0.1683E-02  0.8264E+01  0.8235E+01
      7.003  0.1389E+01  0.4703E+00  0.8437E+01  0.8294E+01
      7.128  0.8885E+00  0.1219E+01  0.8548E+01  0.8445E+01
      7.252  0.1493E+00  0.9053E+00  0.8566E+01  0.8558E+01
      7.376  0.8025E+00  0.6046E+00  0.8666E+01  0.8633E+01
      7.501  0.8786E+00  0.2453E+00  0.8775E+01  0.8663E+01
      7.625  0.5729E+00  0.9306E+00  0.8846E+01  0.8779E+01
      7.749  0.8060E+00  0.9029E+00  0.8946E+01  0.8891E+01
      7.873 -0.1615E-01  0.4327E+00  0.8944E+01  0.8945E+01
      7.998 -0.2969E-06 -0.5280E-02  0.8944E+01  0.8944E+01
      8.122  0.0000E+00 -0.2917E-08  0.8944E+01  0.8944E+01
      8.246  0.0000E+00  0.0000E+00  0.8944E+01  0.8944E+01
      8.371  0.0000E+00  0.0000E+00  0.8944E+01  0.8944E+01
      8.495 -0.2793E-41 -0.8845E-48  0.8944E+01  0.8944E+01
      8.619 -0.3151E-23 -0.4237E-28  0.8944E+01  0.8944E+01
      8.743 -0.1285E-10 -0.7610E-14  0.8944E+01  0.8944E+01
      8.868 -0.1442E-03 -0.4434E-05  0.8944E+01  0.8944E+01
      8.992  0.2718E-01  0.5460E-02  0.8948E+01  0.8945E+01
      9.116  0.1022E-01  0.3208E-01  0.8949E+01  0.8949E+01
      9.240 -0.1339E-01 -0.7861E-03  0.8947E+01  0.8949E+01
      9.365  0.7288E+00  0.1695E+00  0.9038E+01  0.8970E+01
      9.489  0.4527E+00  0.5789E+00  0.9094E+01  0.9042E+01
      9.613  0.1219E-01  0.4551E+00  0.9096E+01  0.9099E+01
      9.738  0.4638E+00 -0.7922E-02  0.9153E+01  0.9098E+01
      9.862  0.2112E+00  0.6735E+00  0.9180E+01  0.9181E+01
      9.986  0.4659E+00 -0.8059E-02  0.9238E+01  0.9180E+01
     10.110  0.1984E+00  0.4549E+00  0.9262E+01  0.9237E+01
     10.235  0.8425E+00  0.6076E+00  0.9367E+01  0.9312E+01
     10.359  0.1406E+00  0.5658E+00  0.9384E+01  0.9383E+01
     10.483 -0.1099E-02  0.1290E-01  0.9384E+01  0.9384E+01
     10.608 -0.6924E-09 -0.1170E-04  0.9384E+01  0.9384E+01
     10.732 -0.1946E-09 -0.3012E-17  0.9384E+01  0.9384E+01
     10.856 -0.1318E-02 -0.1315E-06  0.9384E+01  0.9384E+01
     10.980  0.2398E+00 -0.1615E-01  0.9414E+01  0.9382E+01
     11.105  0.1269E+01  0.9971E+00  0.9572E+01  0.9506E+01
     11.229  0.4751E+00  0.5836E+00  0.9631E+01  0.9579E+01
     11.353  0.4482E+00  0.4447E+00  0.9686E+01  0.9634E+01
     11.478  0.8846E+00  0.6704E+00  0.9796E+01  0.9717E+01
     11.602  0.4122E-01  0.6774E+00  0.9801E+01  0.9801E+01
     11.726  0.2902E+00  0.9541E-01  0.9837E+01  0.9813E+01
     11.850  0.2260E+00  0.4276E+00  0.9866E+01  0.9866E+01
     11.975  0.2482E+00  0.6652E-01  0.9896E+01  0.9875E+01
     12.099  0.4180E+00  0.4554E+00  0.9948E+01  0.9931E+01
     12.223  0.3935E+00  0.4736E+00  0.9997E+01  0.9990E+01
     12.348  0.1394E+01  0.8945E+00  0.1017E+02  0.1010E+02
     12.472  0.1304E+01  0.1349E+01  0.1033E+02  0.1027E+02
     12.596  0.1181E+01  0.1493E+01  0.1048E+02  0.1045E+02
     12.720 -0.2599E-02  0.1721E+00  0.1048E+02  0.1048E+02
     12.845  0.5683E+00  0.3903E+00  0.1055E+02  0.1052E+02
     12.969  0.8356E-01  0.2887E+00  0.1056E+02  0.1056E+02
     13.093  0.3731E+00  0.3673E-01  0.1061E+02  0.1056E+02
     13.218  0.8276E+00  0.1055E+01  0.1071E+02  0.1070E+02
     13.342  0.2471E+01  0.2533E+01  0.1102E+02  0.1101E+02
     13.466  0.1163E+00  0.1208E-01  0.1103E+02  0.1101E+02
     13.590  0.3112E+00  0.4743E+00  0.1107E+02  0.1107E+02
     13.715  0.2365E+00 -0.1638E-01  0.1110E+02  0.1107E+02
     13.839  0.1987E+00  0.4579E+00  0.1112E+02  0.1113E+02
     13.963  0.4635E+00  0.3166E+00  0.1118E+02  0.1117E+02
     14.087  0.2098E+00  0.1138E+00  0.1121E+02  0.1118E+02
     14.212  0.6936E+00  0.5098E+00  0.1129E+02  0.1124E+02
     14.336  0.6385E+00  0.4111E+00  0.1137E+02  0.1129E+02
     14.460  0.9975E+00  0.6318E+00  0.1150E+02  0.1137E+02
     14.585  0.8603E+00  0.1660E+01  0.1160E+02  0.1158E+02
     14.709  0.3186E+01  0.1880E+01  0.1200E+02  0.1181E+02
     14.833  0.2554E+01  0.3489E+01  0.1232E+02  0.1225E+02
     14.957  0.7091E+00  0.1166E+01  0.1241E+02  0.1239E+02
     15.082  0.1738E+01  0.1693E+01  0.1262E+02  0.1260E+02
     15.206  0.1480E+01  0.1496E+01  0.1281E+02  0.1279E+02
     15.330  0.6403E+00  0.1810E+00  0.1288E+02  0.1281E+02
     15.455  0.1162E+01  0.1786E+01  0.1303E+02  0.1303E+02
     15.579  0.2962E+00  0.1797E+00  0.1307E+02  0.1305E+02
     15.703 -0.1004E-01  0.8505E-01  0.1306E+02  0.1306E+02
     15.827  0.4763E-01  0.5502E-01  0.1307E+02  0.1307E+02
     15.952  0.1470E+01  0.7054E+00  0.1325E+02  0.1316E+02
     16.076  0.2526E+00  0.1045E+01  0.1328E+02  0.1329E+02
     16.200  0.1686E+00  0.2144E-01  0.1331E+02  0.1329E+02
     16.325  0.1089E+00  0.1958E+00  0.1332E+02  0.1332E+02
     16.449  0.1529E+01  0.9279E+00  0.1351E+02  0.1343E+02
     16.573  0.3727E+00  0.1027E+01  0.1356E+02  0.1356E+02
     16.697 -0.8175E-03 -0.2923E-01  0.1356E+02  0.1356E+02
     16.822  0.3710E-01 -0.6777E-03  0.1356E+02  0.1356E+02
     16.946  0.9368E+00  0.1389E+00  0.1368E+02  0.1357E+02
     17.070  0.5966E+00  0.1254E+01  0.1375E+02  0.1373E+02
     17.195  0.3777E+00  0.4783E+00  0.1380E+02  0.1379E+02
     17.319  0.4181E+00  0.5381E+00  0.1385E+02  0.1385E+02
     17.443  0.3939E+00  0.2166E+00  0.1390E+02  0.1388E+02
     17.567  0.2160E+00  0.1392E+00  0.1393E+02  0.1390E+02
     17.692  0.3871E-02  0.2188E+00  0.1393E+02  0.1393E+02
     17.816 -0.5897E-02 -0.2897E-02  0.1393E+02  0.1393E+02
     17.940  0.3051E+00  0.2152E+00  0.1396E+02  0.1395E+02
     18.065 -0.1192E-02  0.8248E-01  0.1396E+02  0.1396E+02
     18.189 -0.3184E-05 -0.2662E-03  0.1396E+02  0.1396E+02
     18.313 -0.4328E-19 -0.8441E-11  0.1396E+02  0.1396E+02
     18.437 -0.8474E-08 -0.2070E-05  0.1396E+02  0.1396E+02
     18.562 -0.3374E-02  0.2247E-03  0.1396E+02  0.1396E+02
     18.686  0.1518E+00  0.1519E+00  0.1398E+02  0.1398E+02
     18.810  0.1362E+00 -0.4888E-02  0.1400E+02  0.1398E+02
     18.934  0.1338E-01  0.1544E+00  0.1400E+02  0.1400E+02
     19.059 -0.9663E-05 -0.3563E-02  0.1400E+02  0.1400E+02
     19.183  0.0000E+00 -0.1051E-07  0.1400E+02  0.1400E+02
     19.307  0.0000E+00  0.0000E+00  0.1400E+02  0.1400E+02
     19.432  0.0000E+00  0.0000E+00  0.1400E+02  0.1400E+02
     19.556  0.0000E+00  0.0000E+00  0.1400E+02  0.1400E+02
     19.680  0.0000E+00  0.0000E+00  0.1400E+02  0.1400E+02
     19.804  0.0000E+00  0.0000E+00  0.1400E+02  0.1400E+02
     19.929  0.0000E+00  0.0000E+00  0.1400E+02  0.1400E+02
     20.053  0.0000E+00  0.0000E+00  0.1400E+02  0.1400E+02
     20.177  0.0000E+00  0.0000E+00  0.1400E+02  0.1400E+02
     20.302  0.0000E+00  0.0000E+00  0.1400E+02  0.1400E+02
     20.426  0.0000E+00  0.0000E+00  0.1400E+02  0.1400E+02
     20.550  0.0000E+00  0.0000E+00  0.1400E+02  0.1400E+02
     20.55015679    -16.73447243  301      4.76203918      1.00000000
    -16.734  0.0000E+00  0.0000E+00  0.0000E+00  0.0000E+00  0.0000E+00  0.0000E+00  0.0000E+00  0.0000E+00  0.0000E+00  0.0000E+00  0.0000E+00  0.0000E+00  0.0000E+00  0.0000E+00  0.0000E+00  0.0000E+00  0.0000E+00  0.0000E+00
    -16.610  0.0000E+00  0.0000E+00  0.0000E+00  0.0000E+00  0.0000E+00  0.0000E+00  0.0000E+00  0.0000E+00  0.0000E+00  0.0000E+00  0.0000E+00  0.0000E+00  0.0000E+00  0.0000E+00  0.0000E+00  0.0000E+00  0.0000E+00  0.0000E+00
    -16.486  0.0000E+00  0.0000E+00  0.0000E+00  0.0000E+00  0.0000E+00  0.0000E+00  0.0000E+00  0.0000E+00  0.0000E+00  0.0000E+00  0.0000E+00  0.0000E+00  0.0000E+00  0.0000E+00  0.0000E+00  0.0000E+00  0.0000E+00  0.0000E+00
    -16.362  0.0000E+00  0.0000E+00  0.0000E+00  0.0000E+00  0.0000E+00  0.0000E+00  0.0000E+00  0.0000E+00  0.0000E+00  0.0000E+00  0.0000E+00  0.0000E+00  0.0000E+00  0.0000E+00  0.0000E+00  0.0000E+00  0.0000E+00  0.0000E+00
    -16.237  0.0000E+00  0.0000E+00  0.0000E+00  0.0000E+00  0.0000E+00  0.0000E+00  0.0000E+00  0.0000E+00  0.0000E+00  0.0000E+00  0.0000E+00  0.0000E+00  0.0000E+00  0.0000E+00  0.0000E+00  0.0000E+00  0.0000E+00  0.0000E+00
    -16.113  0.0000E+00  0.0000E+00  0.0000E+00  0.0000E+00  0.0000E+00  0.0000E+00  0.0000E+00  0.0000E+00  0.0000E+00  0.0000E+00  0.0000E+00  0.0000E+00  0.0000E+00  0.0000E+00  0.0000E+00  0.0000E+00  0.0000E+00  0.0000E+00
    -15.989  0.0000E+00  0.0000E+00  0.0000E+00  0.0000E+00  0.0000E+00  0.0000E+00  0.0000E+00  0.0000E+00  0.0000E+00  0.0000E+00  0.0000E+00  0.0000E+00  0.0000E+00  0.0000E+00  0.0000E+00  0.0000E+00  0.0000E+00  0.0000E+00
    -15.864  0.0000E+00  0.0000E+00  0.0000E+00  0.0000E+00  0.0000E+00  0.0000E+00  0.0000E+00  0.0000E+00  0.0000E+00  0.0000E+00  0.0000E+00  0.0000E+00  0.0000E+00  0.0000E+00  0.0000E+00  0.0000E+00  0.0000E+00  0.0000E+00
    -15.740  0.0000E+00  0.0000E+00  0.0000E+00  0.0000E+00  0.0000E+00  0.0000E+00  0.0000E+00  0.0000E+00  0.0000E+00  0.0000E+00  0.0000E+00  0.0000E+00  0.0000E+00  0.0000E+00  0.0000E+00  0.0000E+00  0.0000E+00  0.0000E+00
    -15.616  0.0000E+00  0.0000E+00  0.0000E+00  0.0000E+00  0.0000E+00  0.0000E+00  0.0000E+00  0.0000E+00  0.0000E+00  0.0000E+00  0.0000E+00  0.0000E+00  0.0000E+00  0.0000E+00  0.0000E+00  0.0000E+00  0.0000E+00  0.0000E+00
    -15.492 -0.4948E-37 -0.6487E-42 -0.2061E-50 -0.5779E-57 -0.3787E-44 -0.3125E-49 -0.5388E-50 -0.1070E-55  0.0000E+00  0.0000E+00  0.0000E+00  0.0000E+00  0.0000E+00  0.0000E+00  0.0000E+00  0.0000E+00  0.0000E+00  0.0000E+00
    -15.367 -0.2459E-20 -0.6648E-24 -0.1022E-33 -0.6030E-39 -0.1234E-26 -0.2093E-30 -0.2677E-33 -0.1091E-37  0.0000E+00  0.0000E+00  0.0000E+00  0.0000E+00  0.0000E+00  0.0000E+00  0.0000E+00  0.0000E+00  0.0000E+00  0.0000E+00
    -15.243 -0.4504E-09 -0.2559E-11 -0.1845E-22 -0.2587E-26 -0.1434E-14 -0.5168E-17 -0.4893E-22 -0.4076E-25  0.0000E+00  0.0000E+00  0.0000E+00  0.0000E+00  0.0000E+00  0.0000E+00  0.0000E+00  0.0000E+00  0.0000E+00  0.0000E+00
    -15.119 -0.2481E-03 -0.3448E-04 -0.9416E-17 -0.5408E-19 -0.4304E-08 -0.3886E-09 -0.2665E-16 -0.4583E-18  0.0000E+00  0.0000E+00  0.0000E+00  0.0000E+00  0.0000E+00  0.0000E+00  0.0000E+00  0.0000E+00  0.0000E+00  0.0000E+00
    -14.995  0.1794E-01  0.9010E-02  0.6617E-15  0.1949E-16  0.5716E-06  0.1450E-06  0.1874E-14  0.9661E-16  0.0000E+00  0.0000E+00  0.0000E+00  0.0000E+00  0.0000E+00  0.0000E+00  0.0000E+00  0.0000E+00  0.0000E+00  0.0000E+00
    -14.870  0.2205E-01  0.2551E-01  0.7858E-15  0.5660E-16  0.3098E-05  0.2563E-05  0.1943E-14  0.2180E-15  0.0000E+00  0.0000E+00  0.0000E+00  0.0000E+00  0.0000E+00  0.0000E+00  0.0000E+00  0.0000E+00  0.0000E+00  0.0000E+00
    -14.746  0.2602E-01  0.2256E-01  0.8480E-15  0.1504E-15  0.2357E-05  0.2844E-05  0.2946E-14  0.2173E-15  0.0000E+00  0.0000E+00  0.0000E+00  0.0000E+00  0.0000E+00  0.0000E+00  0.0000E+00  0.0000E+00  0.0000E+00  0.0000E+00
    -14.622  0.6011E-02  0.1426E-01 -0.2518E-13 -0.1944E-16  0.8623E-07  0.3663E-06 -0.7544E-13 -0.1005E-15  0.0000E+00  0.0000E+00  0.0000E+00  0.0000E+00  0.0000E+00  0.0000E+00  0.0000E+00  0.0000E+00  0.0000E+00  0.0000E+00
    -14.497 -0.1019E-03 -0.1328E-03 -0.9767E-06 -0.4723E-07 -0.1018E-08 -0.1977E-08 -0.2930E-05 -0.1417E-06  0.0000E+00  0.0000E+00  0.0000E+00  0.0000E+00  0.0000E+00  0.0000E+00  0.0000E+00  0.0000E+00  0.0000E+00  0.0000E+00
    -14.373  0.3684E-01  0.3230E-02  0.4095E-03  0.3650E-04  0.4305E-06 -0.1030E-06  0.1228E-02  0.1095E-03  0.0000E+00  0.0000E+00  0.0000E+00  0.0000E+00  0.0000E+00  0.0000E+00  0.0000E+00  0.0000E+00  0.0000E+00  0.0000E+00
    -14.249  0.1594E+00  0.1641E+00  0.1777E-02  0.1862E-02  0.1401E-04  0.9905E-05  0.5330E-02  0.5586E-02  0.0000E+00  0.0000E+00  0.0000E+00  0.0000E+00  0.0000E+00  0.0000E+00  0.0000E+00  0.0000E+00  0.0000E+00  0.0000E+00
    -14.125  0.1387E+00  0.1208E+00  0.1551E-02  0.1376E-02  0.1706E-04  0.1740E-04  0.4652E-02  0.4129E-02  0.0000E+00  0.0000E+00  0.0000E+00  0.0000E+00  0.0000E+00  0.0000E+00  0.0000E+00  0.0000E+00  0.0000E+00  0.0000E+00
    -14.000  0.8362E-01  0.1286E+00  0.9353E-03  0.1465E-02  0.2137E-05  0.5353E-05  0.2806E-02  0.4396E-02  0.0000E+00  0.0000E+00  0.0000E+00  0.0000E+00  0.0000E+00  0.0000E+00  0.0000E+00  0.0000E+00  0.0000E+00  0.0000E+00
    -13.876 -0.7083E-03 -0.2707E-02 -0.7923E-05 -0.3085E-04 -0.1053E-07 -0.6381E-07 -0.2377E-04 -0.9255E-04  0.0000E+00  0.0000E+00  0.0000E+00  0.0000E+00  0.0000E+00  0.0000E+00  0.0000E+00  0.0000E+00  0.0000E+00  0.0000E+00
    -13.752 -0.3394E-09 -0.3248E-07 -0.3797E-11 -0.3702E-09 -0.7769E-15 -0.1158E-12 -0.1139E-10 -0.1111E-08  0.0000E+00  0.0000E+00  0.0000E+00  0.0000E+00  0.0000E+00  0.0000E+00  0.0000E+00  0.0000E+00  0.0000E+00  0.0000E+00
    -13.627  0.0000E+00  0.0000E+00  0.0000E+00  0.0000E+00  0.0000E+00  0.0000E+00  0.0000E+00  0.0000E+00  0.0000E+00  0.0000E+00  0.0000E+00  0.0000E+00  0.0000E+00  0.0000E+00  0.0000E+00  0.0000E+00  0.0000E+00  0.0000E+00
    -13.503 -0.4001E-34 -0.1015E-38 -0.4186E-35 -0.1088E-39 -0.6819E-41 -0.1160E-45 -0.1403E-35 -0.3647E-40  0.0000E+00  0.0000E+00  0.0000E+00  0.0000E+00  0.0000E+00  0.0000E+00  0.0000E+00  0.0000E+00  0.0000E+00  0.0000E+00
    -13.379 -0.4880E-18 -0.2337E-21 -0.5105E-19 -0.2504E-22 -0.4390E-24 -0.1409E-27 -0.1711E-19 -0.8397E-23  0.0000E+00  0.0000E+00  0.0000E+00  0.0000E+00  0.0000E+00  0.0000E+00  0.0000E+00  0.0000E+00  0.0000E+00  0.0000E+00
    -13.255 -0.2210E-07 -0.2035E-09 -0.2312E-08 -0.2180E-10 -0.9846E-13 -0.6201E-15 -0.7749E-09 -0.7311E-11  0.0000E+00  0.0000E+00  0.0000E+00  0.0000E+00  0.0000E+00  0.0000E+00  0.0000E+00  0.0000E+00  0.0000E+00  0.0000E+00
    -13.130 -0.2551E-02 -0.5935E-03 -0.2671E-03 -0.6361E-04 -0.5258E-07 -0.7848E-08 -0.8952E-04 -0.2133E-04  0.0000E+00  0.0000E+00  0.0000E+00  0.0000E+00  0.0000E+00  0.0000E+00  0.0000E+00  0.0000E+00  0.0000E+00  0.0000E+00
    -13.006  0.1278E+00  0.7873E-01  0.1337E-01  0.8439E-02  0.4975E-05  0.1830E-05  0.4482E-02  0.2830E-02  0.0000E+00  0.0000E+00  0.0000E+00  0.0000E+00  0.0000E+00  0.0000E+00  0.0000E+00  0.0000E+00  0.0000E+00  0.0000E+00
    -12.882  0.1232E+00  0.1402E+00  0.1289E-01  0.1502E-01  0.1580E-04  0.1488E-04  0.4321E-02  0.5037E-02  0.0000E+00  0.0000E+00  0.0000E+00  0.0000E+00  0.0000E+00  0.0000E+00  0.0000E+00  0.0000E+00  0.0000E+00  0.0000E+00
    -12.757  0.1448E+00  0.1597E+00  0.1520E-01  0.1716E-01  0.6921E-05  0.9922E-05  0.5096E-02  0.5754E-02  0.0000E+00  0.0000E+00  0.0000E+00  0.0000E+00  0.0000E+00  0.0000E+00  0.0000E+00  0.0000E+00  0.0000E+00  0.0000E+00
    -12.633 -0.3013E-02  0.7598E-02 -0.3164E-03  0.8186E-03 -0.1033E-06 -0.5224E-07 -0.1061E-03  0.2745E-03  0.0000E+00  0.0000E+00  0.0000E+00  0.0000E+00  0.0000E+00  0.0000E+00  0.0000E+00  0.0000E+00  0.0000E+00  0.0000E+00
    -12.509 -0.9029E-03 -0.1148E-03 -0.4218E-04 -0.6022E-05 -0.1204E-07 -0.1072E-08 -0.1265E-03 -0.1564E-04  0.0000E+00  0.0000E+00  0.0000E+00  0.0000E+00  0.0000E+00  0.0000E+00  0.0000E+00  0.0000E+00  0.0000E+00  0.0000E+00
    -12.385  0.8996E-01  0.3940E-01  0.4201E-02  0.1894E-02  0.2176E-05  0.4434E-06  0.1260E-01  0.5681E-02  0.0000E+00  0.0000E+00  0.0000E+00  0.0000E+00  0.0000E+00  0.0000E+00  0.0000E+00  0.0000E+00  0.0000E+00  0.0000E+00
    -12.260  0.1344E+00  0.1542E+00  0.6290E-02  0.7421E-02  0.1410E-04  0.1189E-04  0.1887E-01  0.2226E-01  0.0000E+00  0.0000E+00  0.0000E+00  0.0000E+00  0.0000E+00  0.0000E+00  0.0000E+00  0.0000E+00  0.0000E+00  0.0000E+00
    -12.136  0.1561E+00  0.1579E+00  0.7312E-02  0.7618E-02  0.8036E-05  0.1084E-04  0.2193E-01  0.2285E-01  0.0000E+00  0.0000E+00  0.0000E+00  0.0000E+00  0.0000E+00  0.0000E+00  0.0000E+00  0.0000E+00  0.0000E+00  0.0000E+00
    -12.012 -0.3661E-03  0.2254E-01 -0.1728E-04  0.1087E-02 -0.1100E-06  0.1659E-06 -0.5183E-04  0.3261E-02  0.0000E+00  0.0000E+00  0.0000E+00  0.0000E+00  0.0000E+00  0.0000E+00  0.0000E+00  0.0000E+00  0.0000E+00  0.0000E+00
    -11.887 -0.1627E-05 -0.3602E-04 -0.7615E-07 -0.1737E-05 -0.1080E-10 -0.3256E-09 -0.2284E-06 -0.5209E-05  0.0000E+00  0.0000E+00  0.0000E+00  0.0000E+00  0.0000E+00  0.0000E+00  0.0000E+00  0.0000E+00  0.0000E+00  0.0000E+00
    -11.763  0.0000E+00 -0.3536E-12  0.0000E+00 -0.1704E-13  0.0000E+00 -0.7195E-18  0.0000E+00 -0.5112E-13  0.0000E+00  0.0000E+00  0.0000E+00  0.0000E+00  0.0000E+00  0.0000E+00  0.0000E+00  0.0000E+00  0.0000E+00  0.0000E+00
    -11.639  0.0000E+00  0.0000E+00  0.0000E+00  0.0000E+00  0.0000E+00  0.0000E+00  0.0000E+00  0.0000E+00  0.0000E+00  0.0000E+00  0.0000E+00  0.0000E+00  0.0000E+00  0.0000E+00  0.0000E+00  0.0000E+00  0.0000E+00  0.0000E+00
    -11.515  0.0000E+00  0.0000E+00  0.0000E+00  0.0000E+00  0.0000E+00  0.0000E+00  0.0000E+00  0.0000E+00  0.0000E+00  0.0000E+00  0.0000E+00  0.0000E+00  0.0000E+00  0.0000E+00  0.0000E+00  0.0000E+00  0.0000E+00  0.0000E+00
    -11.390  0.0000E+00  0.0000E+00  0.0000E+00  0.0000E+00  0.0000E+00  0.0000E+00  0.0000E+00  0.0000E+00  0.0000E+00  0.0000E+00  0.0000E+00  0.0000E+00  0.0000E+00  0.0000E+00  0.0000E+00  0.0000E+00  0.0000E+00  0.0000E+00
    -11.266  0.0000E+00  0.0000E+00  0.0000E+00  0.0000E+00  0.0000E+00  0.0000E+00  0.0000E+00  0.0000E+00  0.0000E+00  0.0000E+00  0.0000E+00  0.0000E+00  0.0000E+00  0.0000E+00  0.0000E+00  0.0000E+00  0.0000E+00  0.0000E+00
    -11.142  0.0000E+00  0.0000E+00  0.0000E+00  0.0000E+00  0.0000E+00  0.0000E+00  0.0000E+00  0.0000E+00  0.0000E+00  0.0000E+00  0.0000E+00  0.0000E+00  0.0000E+00  0.0000E+00  0.0000E+00  0.0000E+00  0.0000E+00  0.0000E+00
    -11.017 -0.1260E-39 -0.2010E-44 -0.2397E-40 -0.4014E-45 -0.2952E-46 -0.3410E-51 -0.1783E-40 -0.3019E-45  0.0000E+00  0.0000E+00  0.0000E+00  0.0000E+00  0.0000E+00  0.0000E+00  0.0000E+00  0.0000E+00  0.0000E+00  0.0000E+00
    -10.893 -0.6063E-22 -0.1637E-25 -0.1153E-22 -0.3268E-26 -0.5263E-28 -0.1039E-31 -0.8581E-23 -0.2458E-26  0.0000E+00  0.0000E+00  0.0000E+00  0.0000E+00  0.0000E+00  0.0000E+00  0.0000E+00  0.0000E+00  0.0000E+00  0.0000E+00
    -10.769 -0.1138E-09 -0.5245E-12 -0.2163E-10 -0.1047E-12 -0.3414E-15 -0.1183E-17 -0.1609E-10 -0.7874E-13  0.0000E+00  0.0000E+00  0.0000E+00  0.0000E+00  0.0000E+00  0.0000E+00  0.0000E+00  0.0000E+00  0.0000E+00  0.0000E+00
    -10.645 -0.7352E-03 -0.6343E-04 -0.1396E-03 -0.1265E-04 -0.6652E-08 -0.4406E-09 -0.1039E-03 -0.9514E-05  0.0000E+00  0.0000E+00  0.0000E+00  0.0000E+00  0.0000E+00  0.0000E+00  0.0000E+00  0.0000E+00  0.0000E+00  0.0000E+00
    -10.520  0.1314E+00  0.4120E-01  0.2493E-01  0.8213E-02  0.1878E-05  0.1690E-06  0.1854E-01  0.6180E-02  0.0000E+00  0.0000E+00  0.0000E+00  0.0000E+00  0.0000E+00  0.0000E+00  0.0000E+00  0.0000E+00  0.0000E+00  0.0000E+00