    4    4    1    2
  0.8797333E+01  0.2461200E-09  0.2461200E-09  0.6707900E-09  0.5000000E-15
  1.000000000000000E-004
  CAR 
 unknown system                          
   16   28   14
 
  0.0000000E+00  0.0000000E+00  0.0000000E+00  0.4629630E-02
   1      -15.039717    -15.009478
   2      -14.741498    -14.712007
   3       -3.865143     -3.797411
   4       -1.848626     -1.773746
   5        1.689857      1.702427
   6        1.689947      1.702512
   7        1.739419      1.752625
   8        1.739508      1.752708
   9        8.977997      9.015452
  10       13.282635     13.293920
  11       13.282685     13.293966
  12       13.320701     13.332411
  13       13.320757     13.332463
  14       15.310798     15.374343
 
  0.1666667E+00 -0.1387779E-16  0.0000000E+00  0.2777778E-01
   1      -14.377953    -14.348013
   2      -14.091985    -14.062821
   3       -3.061912     -2.993996
   4       -1.127559     -1.050922
   5       -0.626544     -0.609212
   6       -0.572106     -0.554967
   7        0.542695      0.555284
   8        0.607307      0.620039
   9        9.784571      9.821814
  10       13.104236     13.127543
  11       13.283335     13.301076
  12       14.058579     14.143418
  13       14.447412     14.559667
  14       15.840807     15.842122
 
  0.3333333E+00  0.0000000E+00  0.0000000E+00  0.2777778E-01
   1      -12.421079    -12.391998
   2      -12.168969    -12.140435
   3       -4.997613     -4.975363
   4       -4.864409     -4.842608
   5       -1.082788     -1.070394
   6       -1.010634     -0.998232
   7       -0.741322     -0.672517
   8        0.965040      1.047949
   9        9.292018      9.361497
  10       10.225079     10.327933
  11       12.107010     12.134015
  12       12.365422     12.415849
  13       12.748999     12.775656
  14       17.528757     17.603143
 
  0.5000000E+00 -0.2775558E-16  0.0000000E+00  0.1388889E-01
   1       -9.678654     -9.653347
   2       -9.576825     -9.537026
   3       -8.589545     -8.576351
   4       -8.511938     -8.486117
   5       -1.729776     -1.717486
   6       -1.632499     -1.620274
   7        1.946994      1.988522
   8        2.590166      2.723670
   9        6.255257      6.259640
  10        6.896137      7.033224
  11       11.938900     11.976428
  12       12.333024     12.369521
  13       16.074078     16.065033
  14       16.152727     16.238583
 
  0.1666667E+00  0.1666667E+00  0.0000000E+00  0.2777778E-01
   1      -13.065324    -13.035950
   2      -12.804413    -12.775719
   3       -3.081869     -3.060927
   4       -3.027920     -3.005172
   5       -1.702587     -1.690022
   6       -1.666466     -1.653097
   7       -1.490123     -1.421353
   8        0.305869      0.385903
   9       10.961399     11.045801
  10       11.413139     11.450099
  11       11.463514     11.561327
  12       14.754544     14.780581
  13       14.994591     15.005012
  14       16.379124     16.424429
 
  0.3333333E+00  0.1666667E+00  0.0000000E+00  0.5555556E-01
   1      -10.543124    -10.514790
   2      -10.324739    -10.295993
   3       -6.792919     -6.769291
   4       -6.641455     -6.617503
   5       -3.364644     -3.350080
   6       -3.295807     -3.281225
   7        1.404192      1.469883
   8        2.729189      2.826258
   9        6.939674      7.005118
  10        7.684864      7.779712
  11       14.494309     14.511066
  12       14.650617     14.710080
  13       15.154564     15.180239
  14       17.214790     17.289758
 
  0.3333333E+00  0.3333333E+00  0.0000000E+00  0.9259259E-02
   1       -7.996378     -8.023686
   2       -7.955647     -7.869991
   3       -7.955626     -7.869970
   4       -7.806561     -7.832896
   5       -5.865249     -5.855155
   6       -5.865241     -5.855147
   7        4.189571      4.087085
   8        4.601741      4.871236
   9        4.601754      4.871249
  10        5.506454      5.395662
  11       15.861782     15.911712
  12       15.861788     15.911718
  13       17.116684     17.069092
  14       17.331518     17.418615
 
  0.0000000E+00  0.0000000E+00  0.1666667E+00  0.9259259E-02
   1      -15.020842    -14.990653
   2      -14.762691    -14.733132
   3       -3.755079     -3.687156
   4       -2.016196     -1.942276
   5        1.694015      1.706665
   6        1.694105      1.706749
   7        1.745167      1.758349
   8        1.745255      1.758432
   9        9.322084      9.360910
  10       13.286553     13.297781
  11       13.286604     13.297827
  12       13.317762     13.329509
  13       13.317818     13.329561
  14       14.646757     14.704181
 
  0.1666667E+00 -0.1387779E-16  0.1666667E+00  0.5555556E-01
   1      -14.359579    -14.329699
   2      -14.112274    -14.083045
   3       -2.952173     -2.883821
   4       -1.270014     -1.194556
   5       -0.621393     -0.604054
   6       -0.574593     -0.557388
   7        0.546320      0.558899
   8        0.608382      0.621172
   9       10.115783     10.154687
  10       13.107518     13.131544
  11       13.272758     13.290856
  12       14.124307     14.205375
  13       14.432291     14.547703
  14       15.329914     15.395267
 
  0.3333333E+00  0.0000000E+00  0.1666667E+00  0.5555556E-01
   1      -12.405159    -12.376114
   2      -12.185675    -12.157073
   3       -4.996937     -4.974793
   4       -4.873328     -4.851512
   5       -1.073238     -1.060853
   6       -1.005795     -0.993333
   7       -0.634129     -0.564532
   8        0.834156      0.915243
   9        9.333371      9.405512
  10       10.142735     10.243161
  11       12.279957     12.303225
  12       12.439451     12.492829
  13       12.824947     12.854283
  14       17.070034     17.138730
 
  0.5000000E+00 -0.2775558E-16  0.1666667E+00  0.2777778E-01
   1       -9.670408     -9.644287
   2       -9.581208     -9.542515
   3       -8.586646     -8.572447
   4       -8.518835     -8.493706
   5       -1.708586     -1.696187
   6       -1.632999     -1.620719
   7        2.005166      2.050874
   8        2.569181      2.694799
   9        6.260695      6.275339
  10        6.828975      6.958388
  11       11.965320     12.003001
  12       12.307461     12.344232
  13       16.337111     16.327160
  14       16.345468     16.434347
 
  0.1666667E+00  0.1666667E+00  0.1666667E+00  0.5555556E-01
   1      -13.048514    -13.019194
   2      -12.823140    -12.794386
   3       -3.080666     -3.059614
   4       -3.028373     -3.005745
   5       -1.702914     -1.690288
   6       -1.674794     -1.661471
   7       -1.383455     -1.314132
   8        0.174384      0.252969
   9       11.002860     11.088618
  10       11.412097     11.515424
  11       11.726827     11.759060
  12       14.766861     14.792579
  13       15.010071     15.021950
  14       16.360869     16.391213
 
  0.3333333E+00  0.1666667E+00  0.1666667E+00  0.1111111E+00
   1      -10.529723    -10.501361
   2      -10.341327    -10.312637
   3       -6.783092     -6.759407
   4       -6.652678     -6.628727
   5       -3.371593     -3.357049
   6       -3.304889     -3.290350
   7        1.478677      1.545669
   8        2.625585      2.719300
   9        6.972459      7.041400
  10        7.616773      7.710134
  11       14.593255     14.612217
  12       14.710712     14.773791
  13       15.150826     15.174708
  14       16.923132     16.989448
 
  0.3333333E+00  0.3333333E+00  0.1666667E+00  0.1851852E-01
   1       -7.983315     -8.010525
   2       -7.953800     -7.868160
   3       -7.953778     -7.868138
   4       -7.818283     -7.844645
   5       -5.865995     -5.855905
   6       -5.865986     -5.855897
   7        4.252295      4.149260
   8        4.617551      4.887412
   9        4.617564      4.887424
  10        5.442885      5.333059
  11       15.511363     15.565690
  12       15.511369     15.565695
  13       17.333664     17.286702
  14       17.864488     17.944496
 
  0.0000000E+00  0.0000000E+00  0.3333333E+00  0.9259259E-02
   1      -14.969086    -14.939004
   2      -14.820647    -14.790952
   3       -3.440288     -3.371493
   4       -2.459387     -2.387505
   5        1.698115      1.710819
   6        1.698206      1.710903
   7        1.741691      1.754807
   8        1.741779      1.754889
   9       10.267445     10.309909
  10       13.203497     13.254081
  11       13.242775     13.254133
  12       13.242831     13.256090
  13       13.289890     13.301521
  14       13.289946     13.301573
 
  0.1666667E+00 -0.1387779E-16  0.3333333E+00  0.5555556E-01
   1      -14.308706    -14.278934
   2      -14.166092    -14.136695
   3       -2.645244     -2.576027
   4       -1.684116     -1.610895
   5       -0.618248     -0.600913
   6       -0.572299     -0.554952
   7        0.560668      0.573353
   8        0.586087      0.598720
   9       11.027265     11.070568
  10       13.098812     13.127784
  11       13.245853     13.264391
  12       13.916233     13.949217
  13       14.209723     14.331532
  14       14.433498     14.526838
 
  0.3333333E+00  0.0000000E+00  0.3333333E+00  0.5555556E-01
   1      -12.360335    -12.331387
   2      -12.233836    -12.205129
   3       -4.975249     -4.953214
   4       -4.902677     -4.880731
   5       -1.074850     -1.062553
   6       -1.039153     -1.026737
   7       -0.359078     -0.287816
   8        0.487347      0.564969
   9        9.455890      9.534859
  10        9.935363     10.029383
  11       12.387226     12.418846
  12       12.525221     12.562926
  13       13.477929     13.519139
  14       15.949929     16.007950
 
  0.5000000E+00 -0.2775558E-16  0.3333333E+00  0.2777778E-01
   1       -9.648412     -9.620007
   2       -9.596281     -9.560488
   3       -8.575511     -8.558686
   4       -8.533490     -8.510300
   5       -1.699572     -1.687212
   6       -1.664738     -1.652484
   7        2.160847      2.219105
   8        2.492635      2.597566
   9        6.285259      6.327160
  10        6.608150      6.716415
  11       12.038413     12.076348
  12       12.233502     12.270968
  13       16.841286     16.935424
  14       17.020634     17.014966
 
  0.1666667E+00  0.1666667E+00  0.3333333E+00  0.5555556E-01
   1      -13.003974    -12.974778
   2      -12.873137    -12.844253
   3       -3.062141     -3.040723
   4       -3.036553     -3.014321
   5       -1.705841     -1.693001
   6       -1.688801     -1.675608
   7       -1.093913     -1.023266
   8       -0.191500     -0.115705
   9       11.081226     11.170280
  10       11.313003     11.412351
  11       12.550335     12.588249
  12       14.671469     14.703263
  13       14.997890     15.013636
  14       15.295298     15.346038
 
  0.3333333E+00  0.1666667E+00  0.3333333E+00  0.1111111E+00
   1      -10.489987    -10.461562
   2      -10.381640    -10.353024
   3       -6.757002     -6.733266
   4       -6.681721     -6.657771
   5       -3.352898     -3.338304
   6       -3.321306     -3.306756
   7        1.716591      1.787591
   8        2.381201      2.466821
   9        7.096745      7.172768
  10        7.462696      7.552895
  11       14.685969     14.721821
  12       14.842640     14.891975
  13       15.375502     15.407617
  14       16.444965     16.504303
 
  0.3333333E+00  0.3333333E+00  0.3333333E+00  0.1851852E-01
   1       -7.952236     -7.975698
   2       -7.952214     -7.880409
   3       -7.948660     -7.866550
   4       -7.853870     -7.866529
   5       -5.870680     -5.860581
   6       -5.870672     -5.860573
   7        4.490649      4.386609
   8        4.638845      4.909440
   9        4.638857      4.909453
  10        5.164843      5.056916
  11       15.070697     15.125834
  12       15.070702     15.125838
  13       17.901896     17.857001
  14       18.781269     18.855401
 
  0.0000000E+00  0.0000000E+00  0.5000000E+00  0.4629630E-02
   1      -14.896232    -14.866336
   2      -14.896215    -14.866319
   3       -2.971377     -2.901288
   4       -2.971366     -2.901277
   5        1.689584      1.702416
   6        1.689590      1.702422
   7        1.689676      1.702502
   8        1.689682      1.702508
   9       11.634966     11.682227
  10       11.634968     11.682229
  11       13.247988     13.259421
  12       13.247996     13.259429
  13       13.248045     13.259473
  14       13.248053     13.259481
 
  0.1666667E+00 -0.1387779E-16  0.5000000E+00  0.2777778E-01
   1      -14.238593    -14.209001
   2      -14.238576    -14.208983
   3       -2.178527     -2.107605
   4       -2.178515     -2.107594
   5       -0.593390     -0.576073
   6       -0.593381     -0.576065
   7        0.573232      0.585890
   8        0.573239      0.585896
   9       12.317956     12.366945
  10       12.317957     12.366947
  11       13.268190     13.287052
  12       13.268200     13.287062
  13       14.297540     14.398581
  14       14.297552     14.398593
 
  0.3333333E+00  0.0000000E+00  0.5000000E+00  0.2777778E-01
   1      -12.297258    -12.268422
   2      -12.297241    -12.268405
   3       -4.934208     -4.912195
   4       -4.934196     -4.912182
   5       -1.057385     -1.045040
   6       -1.057378     -1.045034
   7        0.054281      0.128277
   8        0.054292      0.128289
   9        9.689775      9.776406
  10        9.689786      9.776418
  11       12.471979     12.506371
  12       12.471993     12.506385
  13       14.647047     14.695565
  14       14.647049     14.695567
 
  0.5000000E+00 -0.2775558E-16  0.5000000E+00  0.1388889E-01
   1       -9.622413     -9.590483
   2       -9.622396     -9.590466
   3       -8.560978     -8.540833
   4       -8.560966     -8.540820
   5       -1.691126     -1.678860
   6       -1.691120     -1.678854
   7        2.323338      2.402842
   8        2.323350      2.402854
   9        6.387887      6.464681
  10        6.387898      6.464692
  11       12.129976     12.167914
  12       12.129993     12.167931
  13       17.371385     17.445539
  14       17.371386     17.445540
 
  0.1666667E+00  0.1666667E+00  0.5000000E+00  0.2777778E-01
   1      -12.939484    -12.910438
   2      -12.939467    -12.910421
   3       -3.048434     -3.026591
   4       -3.048422     -3.026579
   5       -1.692533     -1.679468
   6       -1.692526     -1.679461
   7       -0.653986     -0.581162
   8       -0.653974     -0.581150
   9       11.194881     11.288792
  10       11.194893     11.288805
  11       13.712813     13.758131
  12       13.712814     13.758133
  13       14.992296     15.014196
  14       14.992306     15.014206
 
  0.3333333E+00  0.1666667E+00  0.5000000E+00  0.5555556E-01
   1      -10.436784    -10.408267
   2      -10.436767    -10.408251
   3       -6.723282     -6.699450
   4       -6.723268     -6.699437
   5       -3.333804     -3.319190
   6       -3.333795     -3.319181
   7        2.044331      2.121736
   8        2.044343      2.121748
   9        7.280323      7.364252
  10        7.280334      7.364264
  11       14.775981     14.817780
  12       14.775992     14.817792
  13       15.906253     15.954570
  14       15.906254     15.954570
 
  0.3333333E+00  0.3333333E+00  0.5000000E+00  0.9259259E-02
   1       -7.951852     -7.928709
   2       -7.951831     -7.928699
   3       -7.901913     -7.866149
   4       -7.901903     -7.866128
   5       -5.872386     -5.862290
   6       -5.872378     -5.862282
   7        4.645588      4.708686
   8        4.645600      4.708697
   9        4.814476      4.916610
  10        4.814487      4.916622
  11       14.902978     14.957844
  12       14.902983     14.957848
  13       18.642096     18.603399
  14       18.642101     18.603404
