       N       E                     dE             d eps       ncg     rms          rms(c)
DAV:   1     0.162589004591E+02    0.16259E+02   -0.61909E+03  1584   0.688E+02
DAV:   2    -0.356714078967E+02   -0.51930E+02   -0.48473E+02  2164   0.163E+02
DAV:   3    -0.375621155315E+02   -0.18907E+01   -0.18808E+01  2054   0.299E+01
DAV:   4    -0.375793701156E+02   -0.17255E-01   -0.17242E-01  1922   0.316E+00
DAV:   5    -0.375797065028E+02   -0.33639E-03   -0.33634E-03  2060   0.422E-01    0.118E+01
DAV:   6    -0.370541149865E+02    0.52559E+00   -0.18572E+00  1742   0.855E+00    0.471E+00
DAV:   7    -0.369711460026E+02    0.82969E-01   -0.10567E+00  1790   0.676E+00    0.188E+00
DAV:   8    -0.369166743708E+02    0.54472E-01   -0.21642E-01  1778   0.333E+00    0.637E-01
DAV:   9    -0.369288433586E+02   -0.12169E-01   -0.17965E-02  1724   0.111E+00    0.306E-01
DAV:  10    -0.369296766413E+02   -0.83328E-03   -0.13633E-03  2000   0.359E-01    0.117E-01
DAV:  11    -0.369300221215E+02   -0.34548E-03   -0.43285E-04  1742   0.175E-01    0.460E-02
DAV:  12    -0.369300845830E+02   -0.62461E-04   -0.10709E-04  1450   0.866E-02
   1 F= -.36930085E+02 E0= -.36930130E+02  d E =0.135002E-03  mag=     0.0914
