 vasp.5.2.12 11Nov11 complex                                                    
  
 executed on             LinuxIFC date 2012.10.17  09:53:36
 running on    1 nodes
 distr:  one band on    1 nodes,    1 groups


--------------------------------------------------------------------------------------------------------


 INCAR:
 POTCAR:   PAW_PBE C 08Apr2002                    
 POTCAR:   PAW_PBE C 08Apr2002                    
   VRHFIN =C: s2p2                                                              
   LEXCH  = PE                                                                  
   EATOM  =   147.1560 eV,   10.8157 Ry                                         
                                                                                
   TITEL  = PAW_PBE C 08Apr2002                                                 
   LULTRA =        F    use ultrasoft PP ?                                      
   IUNSCR =        0    unscreen: 0-lin 1-nonlin 2-no                           
   RPACOR =     .000    partial core radius                                     
   POMASS =   12.011; ZVAL   =    4.000    mass and valenz                      
   RCORE  =    1.500    outmost cutoff radius                                   
   RWIGS  =    1.630; RWIGS  =     .863    wigner-seitz radius (au A)           
   ENMAX  =  400.000; ENMIN  =  300.000 eV                                      
   ICORE  =        2    local potential                                         
   LCOR   =        T    correct aug charges                                     
   LPAW   =        T    paw PP                                                  
   EAUG   =  644.873                                                            
   DEXC   =     .000                                                            
   RMAX   =    2.266    core radius for proj-oper                               
   RAUG   =    1.300    factor for augmentation sphere                          
   RDEP   =    1.501    radius for radial grids                                 
   RDEPT  =    1.300    core radius for aug-charge                              
   QCUT   =   -5.516; QGAM   =   11.032    optimization parameters              
                                                                                
   Description                                                                  
     l     E      TYP  RCUT    TYP  RCUT                                        
     0   .000     23  1.200                                                     
     0   .000     23  1.200                                                     
     1   .000     23  1.500                                                     
     1  2.500     23  1.500                                                     
     2   .000      7  1.500                                                     
  local pseudopotential read in
  atomic valenz-charges read in
  non local Contribution for L=           0  read in
    real space projection operators read in
  non local Contribution for L=           0  read in
    real space projection operators read in
  non local Contribution for L=           1  read in
    real space projection operators read in
  non local Contribution for L=           1  read in
    real space projection operators read in
    PAW grid and wavefunctions read in
 
   number of l-projection  operators is LMAX  =           4
   number of lm-projection operators is LMMAX =           8
 
 PAW_PBE C 08Apr2002                    :
 energy of atom  1       EATOM= -147.1560
 kinetic energy error for atom=    0.2561 (will be added to EATOM!!)
 
 
 POSCAR:  C                                      
  positions in cartesian coordinates
  No initial velocities read in
 exchange correlation table for  LEXCH =        8
   RHO(1)=    0.500       N(1)  =     2000
   RHO(2)=  100.500       N(2)  =     4000
 


--------------------------------------------------------------------------------------------------------


 ion  position               nearest neighbor table
   1  0.000  0.000  0.000-   2 1.42   2 1.42   2 1.42
   2  0.333  0.667  0.000-   1 1.42   1 1.42   1 1.42
   3  0.333  0.667  0.500-   4 1.42   4 1.42   4 1.42
   4  0.667  0.333  0.500-   3 1.42   3 1.42   3 1.42
 
  LATTYP: Found a hexagonal cell.
 ALAT       =     2.4612000000
 C/A-ratio  =     2.7254591256
  
  Lattice vectors:
  
 A1 = (   2.4612000000,   0.0000000000,   0.0000000000)
 A2 = (  -1.2306000000,   2.1314617238,   0.0000000000)
 A3 = (   0.0000000000,   0.0000000000,   6.7079000000)
 Subroutine PRICEL returns:
 Original cell was already a primitive cell.
 

Analysis of symmetry for initial positions (statically):

 Routine SETGRP: Setting up the symmetry group for a 
 hexagonal supercell.


 Subroutine GETGRP returns: Found 24 space group operations
 (whereof 12 operations were pure point group operations)
 out of a pool of 24 trial point group operations.


The static configuration has the point symmetry D_3h.
 The point group associated with its full space group is D_6h.

Analysis of symmetry for dynamics (positions and initial velocities):

 Subroutine DYNSYM returns: Found 24 space group operations
 (whereof 12 operations were pure point group operations)
 out of a pool of 24 trial space group operations
 (whereof 12 operations were pure point group operations)
 and found also     1 'primitive' translations


The dynamic configuration has the point symmetry D_3h.
 The point group associated with its full space group is D_6h.

Analysis of magnetic symmetry:

 Subroutine MAGSYM returns: Found 24 space group operations
 (whereof 12 operations were pure point group operations)
 out of a pool of 24 trial space group operations
 (whereof 12 operations were pure point group operations)
 and found also     1 'primitive' translations


The magnetic configuration has the point symmetry D_3h.
 The point group associated with its full space group is D_6h.
 
 
 KPOINTS: KPOINTS created by Atomic Simulation Env

Automatic generation of k-mesh.
 
 Subroutine IBZKPT returns following result:
 ===========================================
 
 Found     28 irreducible k-points:
 
 Following reciprocal coordinates:
            Coordinates               Weight
  0.000000  0.000000  0.000000      1.000000
  0.166667  0.000000  0.000000      6.000000
  0.333333  0.000000  0.000000      6.000000
  0.500000  0.000000  0.000000      3.000000
  0.166667  0.166667  0.000000      6.000000
  0.333333  0.166667  0.000000     12.000000
  0.333333  0.333333  0.000000      2.000000
  0.000000  0.000000  0.166667      2.000000
  0.166667  0.000000  0.166667     12.000000
  0.333333  0.000000  0.166667     12.000000
  0.500000  0.000000  0.166667      6.000000
  0.166667  0.166667  0.166667     12.000000
  0.333333  0.166667  0.166667     24.000000
  0.333333  0.333333  0.166667      4.000000
  0.000000  0.000000  0.333333      2.000000
  0.166667  0.000000  0.333333     12.000000
  0.333333  0.000000  0.333333     12.000000
  0.500000  0.000000  0.333333      6.000000
  0.166667  0.166667  0.333333     12.000000
  0.333333  0.166667  0.333333     24.000000
  0.333333  0.333333  0.333333      4.000000
  0.000000  0.000000  0.500000      1.000000
  0.166667  0.000000  0.500000      6.000000
  0.333333  0.000000  0.500000      6.000000
  0.500000  0.000000  0.500000      3.000000
  0.166667  0.166667  0.500000      6.000000
  0.333333  0.166667  0.500000     12.000000
  0.333333  0.333333  0.500000      2.000000
 
 Following cartesian coordinates:
            Coordinates               Weight
  0.000000  0.000000  0.000000      1.000000
  0.067718  0.039097  0.000000      6.000000
  0.135435  0.078194  0.000000      6.000000
  0.203153  0.117290  0.000000      3.000000
  0.067718  0.117290  0.000000      6.000000
  0.135435  0.156387  0.000000     12.000000
  0.135435  0.234581  0.000000      2.000000
  0.000000  0.000000  0.024846      2.000000
  0.067718  0.039097  0.024846     12.000000
  0.135435  0.078194  0.024846     12.000000
  0.203153  0.117290  0.024846      6.000000
  0.067718  0.117290  0.024846     12.000000
  0.135435  0.156387  0.024846     24.000000
  0.135435  0.234581  0.024846      4.000000
  0.000000  0.000000  0.049693      2.000000
  0.067718  0.039097  0.049693     12.000000
  0.135435  0.078194  0.049693     12.000000
  0.203153  0.117290  0.049693      6.000000
  0.067718  0.117290  0.049693     12.000000
  0.135435  0.156387  0.049693     24.000000
  0.135435  0.234581  0.049693      4.000000
  0.000000  0.000000  0.074539      1.000000
  0.067718  0.039097  0.074539      6.000000
  0.135435  0.078194  0.074539      6.000000
  0.203153  0.117290  0.074539      3.000000
  0.067718  0.117290  0.074539      6.000000
  0.135435  0.156387  0.074539     12.000000
  0.135435  0.234581  0.074539      2.000000
 


--------------------------------------------------------------------------------------------------------




 Dimension of arrays:
   k-points           NKPTS =     28   k-points in BZ     NKDIM =     28   number of bands    NBANDS=     14
   number of dos      NEDOS =    301   number of ions     NIONS =      4
   non local maximal  LDIM  =      4   non local SUM 2l+1 LMDIM =      8
   total plane-waves  NPLWV =   7840
   max r-space proj   IRMAX =      1   max aug-charges    IRDMAX=   2828
   dimension x,y,z NGX =    14 NGY =   14 NGZ =   40
   dimension x,y,z NGXF=    28 NGYF=   28 NGZF=   80
   support grid    NGXF=    28 NGYF=   28 NGZF=   80
   ions per type =               4
 NGX,Y,Z   is equivalent  to a cutoff of   9.46,  9.46,  9.91 a.u.
 NGXF,Y,Z  is equivalent  to a cutoff of  18.91, 18.91, 19.83 a.u.


 I would recommend the setting:
   dimension x,y,z NGX =    14 NGY =   14 NGZ =   38
 SYSTEM =  unknown system                          
 POSCAR =   C                                      

 Startparameter for this run:
   NWRITE =      2    write-flag & timer
   PREC   = accura    normal or accurate (medium, high low for compatibility)
   ISTART =      0    job   : 0-new  1-cont  2-samecut
   ICHARG =      2    charge: 1-file 2-atom 10-const
   ISPIN  =      2    spin polarized calculation?
   LNONCOLLINEAR =      F non collinear calculations
   LSORBIT =      F    spin-orbit coupling
   INIWAV =      1    electr: 0-lowe 1-rand  2-diag
   LASPH  =      F    aspherical Exc in radial PAW
   METAGGA=      F    non-selfconsistent MetaGGA calc.

 Electronic Relaxation 1
   ENCUT  =  300.0 eV  22.05 Ry    4.70 a.u.   3.48  3.48  9.47*2*pi/ulx,y,z
   ENINI  =  300.0     initial cutoff
   ENAUG  =  644.9 eV  augmentation charge cutoff
   NELM   =     60;   NELMIN=  2; NELMDL= -5     # of ELM steps 
   EDIFF  = 0.1E-03   stopping-criterion for ELM
   LREAL  =      F    real-space projection
   NLSPLINE    = F    spline interpolate recip. space projectors
   LCOMPAT=      F    compatible to vasp.4.4
   GGA_COMPAT  = T    GGA compatible to vasp.4.4-vasp.4.6
   LMAXPAW     = -100 max onsite density
   LMAXMIX     =    2 max onsite mixed and CHGCAR
   VOSKOWN=      0    Vosko Wilk Nusair interpolation
   ROPT   =    0.00000
 Ionic relaxation
   EDIFFG = 0.1E-02   stopping-criterion for IOM
   NSW    =      0    number of steps for IOM
   NBLOCK =      1;   KBLOCK =      1    inner block; outer block 
   IBRION =     -1    ionic relax: 0-MD 1-quasi-New 2-CG
   NFREE  =      0    steps in history (QN), initial steepest desc. (CG)
   ISIF   =      2    stress and relaxation
   IWAVPR =     10    prediction:  0-non 1-charg 2-wave 3-comb
   ISYM   =      2    0-nonsym 1-usesym 2-fastsym
   LCORR  =      T    Harris-Foulkes like correction to forces

   POTIM  = 0.5000    time-step for ionic-motion
   TEIN   =    0.0    initial temperature
   TEBEG  =    0.0;   TEEND  =   0.0 temperature during run
   SMASS  =  -3.00    Nose mass-parameter (am)
   estimated Nose-frequenzy (Omega)   =  0.10E-29 period in steps =****** mass=  -0.138E-27a.u.
   SCALEE = 1.0000    scale energy and forces
   NPACO  =    256;   APACO  = 16.0  distance and # of slots for P.C.
   PSTRESS=    0.0 pullay stress

  Mass of Ions in am
   POMASS =  12.01
  Ionic Valenz
   ZVAL   =   4.00
  Atomic Wigner-Seitz radii
   RWIGS  =  -1.00
  virtual crystal weights 
   VCA    =   1.00
   NELECT =      16.0000    total number of electrons
   NUPDOWN=      -1.0000    fix difference up-down

 DOS related values:
   EMIN   =  10.00;   EMAX   =-10.00  energy-range for DOS
   EFERMI =   0.00
   ISMEAR =     1;   SIGMA  =   0.05  broadening in eV -4-tet -1-fermi 0-gaus

 Electronic relaxation 2 (details)
   IALGO  =     38    algorithm
   LDIAG  =      T    sub-space diagonalisation (order eigenvalues)
   LSUBROT=      T    optimize rotation matrix (better conditioning)
   TURBO    =      0    0=normal 1=particle mesh
   IRESTART =      0    0=no restart 2=restart with 2 vectors
   NREBOOT  =      0    no. of reboots
   NMIN     =      0    reboot dimension
   EREF     =   0.00    reference energy to select bands
   IMIX   =      4    mixing-type and parameters
     AMIX     =   0.40;   BMIX     =  1.00
     AMIX_MAG =   1.60;   BMIX_MAG =  1.00
     AMIN     =   0.10
     WC   =   100.;   INIMIX=   1;  MIXPRE=   1

 Intra band minimization:
   WEIMIN = 0.0000     energy-eigenvalue tresh-hold
   EBREAK =  0.18E-05  absolut break condition
   DEPER  =   0.30     relativ break condition  

   TIME   =   0.40     timestep for ELM

  volume/ion in A,a.u.               =       8.80        59.37
  Fermi-wavevector in a.u.,A,eV,Ry     =   1.258861  2.378903 21.561578  1.584731
  Thomas-Fermi vector in A             =   2.392450
 
 Write flags
   LWAVE  =      T    write WAVECAR
   LCHARG =      T    write CHGCAR
   LVTOT  =      F    write LOCPOT, total local potential
   LVHAR  =      F    write LOCPOT, Hartree potential only
   LELF   =      F    write electronic localiz. function (ELF)
   LORBIT =     11    0 simple, 1 ext, 2 COOP (PROOUT)


 Dipole corrections
   LMONO  =      F    monopole corrections only (constant potential shift)
   LDIPOL =      F    correct potential (dipole corrections)
   IDIPOL =      0    1-x, 2-y, 3-z, 4-all directions 
   EPSILON=  1.0000000 bulk dielectric constant

 Exchange correlation treatment:
   GGA     =    --    GGA type
   LEXCH   =     8    internal setting for exchange type
   VOSKOWN=      0    Vosko Wilk Nusair interpolation
   LHFCALC =     F    Hartree Fock is set to
   LHFONE  =     F    Hartree Fock one center treatment
   AEXX    =    0.0000 exact exchange contribution

 Linear response parameters
   LEPSILON=     F    determine dielectric tensor
   LRPA    =     F    only Hartree local field effects (RPA)
   LNABLA  =     F    use nabla operator in PAW spheres
   LVEL    =     F    velocity operator in full k-point grid
   LINTERFAST=   F  fast interpolation
   KINTER  =     0    interpolate to denser k-point grid
   CSHIFT  =0.1000    complex shift for real part using Kramers Kronig
   OMEGAMAX=  -1.0    maximum frequency
   RTIME   =    0.100 relaxation time in fs

 Orbital magnetization related:
   ORBITALMAG=     F  switch on orbital magnetization
   LCHIMAG   =     F  perturbation theory with respect to B field
   DQ        =  0.001000  dq finite difference perturbation B field



--------------------------------------------------------------------------------------------------------


 Static calculation
 charge density and potential will be updated during run
 spin polarized calculation
 Variant of blocked Davidson
 Davidson routine will perform the subspace rotation
 perform sub-space diagonalisation
    after iterative eigenvector-optimisation
 modified Broyden-mixing scheme, WC =      100.0
 initial mixing is a Kerker type mixing with AMIX =  0.4000 and BMIX =      1.0000
 Hartree-type preconditioning will be used
 using additional bands            6
 reciprocal scheme for non local part
 calculate Harris-corrections to forces 
   (improved forces if not selfconsistent)
 use gradient corrections 
 use of overlap-Matrix (Vanderbilt PP)
 Methfessel and Paxton  Order N= 1 SIGMA  =   0.05


--------------------------------------------------------------------------------------------------------


  energy-cutoff  :      300.00
  volume of cell :       35.19
      direct lattice vectors                 reciprocal lattice vectors
     2.461200000  0.000000000  0.000000000     0.406305867  0.234580802  0.000000000
    -1.230600000  2.131461724  0.000000000     0.000000000  0.469161603  0.000000000
     0.000000000  0.000000000  6.707900000     0.000000000  0.000000000  0.149077953

  length of vectors
     2.461200000  2.461200000  6.707900000     0.469161603  0.469161603  0.149077953


 
 k-points in units of 2pi/SCALE and weight: KPOINTS created by Atomic Simulation Env
   0.00000000  0.00000000  0.00000000       0.005
   0.06771764  0.03909680  0.00000000       0.028
   0.13543529  0.07819360  0.00000000       0.028
   0.20315293  0.11729040  0.00000000       0.014
   0.06771764  0.11729040  0.00000000       0.028
   0.13543529  0.15638720  0.00000000       0.056
   0.13543529  0.23458080  0.00000000       0.009
   0.00000000  0.00000000  0.02484633       0.009
   0.06771764  0.03909680  0.02484633       0.056
   0.13543529  0.07819360  0.02484633       0.056
   0.20315293  0.11729040  0.02484633       0.028
   0.06771764  0.11729040  0.02484633       0.056
   0.13543529  0.15638720  0.02484633       0.111
   0.13543529  0.23458080  0.02484633       0.019
   0.00000000  0.00000000  0.04969265       0.009
   0.06771764  0.03909680  0.04969265       0.056
   0.13543529  0.07819360  0.04969265       0.056
   0.20315293  0.11729040  0.04969265       0.028
   0.06771764  0.11729040  0.04969265       0.056
   0.13543529  0.15638720  0.04969265       0.111
   0.13543529  0.23458080  0.04969265       0.019
   0.00000000  0.00000000  0.07453898       0.005
   0.06771764  0.03909680  0.07453898       0.028
   0.13543529  0.07819360  0.07453898       0.028
   0.20315293  0.11729040  0.07453898       0.014
   0.06771764  0.11729040  0.07453898       0.028
   0.13543529  0.15638720  0.07453898       0.056
   0.13543529  0.23458080  0.07453898       0.009
 
 k-points in reciprocal lattice and weights: KPOINTS created by Atomic Simulation Env
   0.00000000  0.00000000  0.00000000       0.005
   0.16666667  0.00000000  0.00000000       0.028
   0.33333333  0.00000000  0.00000000       0.028
   0.50000000  0.00000000  0.00000000       0.014
   0.16666667  0.16666667  0.00000000       0.028
   0.33333333  0.16666667  0.00000000       0.056
   0.33333333  0.33333333  0.00000000       0.009
   0.00000000  0.00000000  0.16666667       0.009
   0.16666667  0.00000000  0.16666667       0.056
   0.33333333  0.00000000  0.16666667       0.056
   0.50000000  0.00000000  0.16666667       0.028
   0.16666667  0.16666667  0.16666667       0.056
   0.33333333  0.16666667  0.16666667       0.111
   0.33333333  0.33333333  0.16666667       0.019
   0.00000000  0.00000000  0.33333333       0.009
   0.16666667  0.00000000  0.33333333       0.056
   0.33333333  0.00000000  0.33333333       0.056
   0.50000000  0.00000000  0.33333333       0.028
   0.16666667  0.16666667  0.33333333       0.056
   0.33333333  0.16666667  0.33333333       0.111
   0.33333333  0.33333333  0.33333333       0.019
   0.00000000  0.00000000  0.50000000       0.005
   0.16666667  0.00000000  0.50000000       0.028
   0.33333333  0.00000000  0.50000000       0.028
   0.50000000  0.00000000  0.50000000       0.014
   0.16666667  0.16666667  0.50000000       0.028
   0.33333333  0.16666667  0.50000000       0.056
   0.33333333  0.33333333  0.50000000       0.009
 
 position of ions in fractional coordinates (direct lattice) 
   0.00000000  0.00000000  0.00000000
   0.33333333  0.66666667  0.00000000
   0.33333333  0.66666667  0.50000000
   0.66666667  0.33333333  0.50000000
 
 position of ions in cartesian coordinates  (Angst):
   0.00000000  0.00000000  0.00000000
   0.00000000  1.42097448  0.00000000
   0.00000000  1.42097448  3.35395000
   1.23060000  0.71048724  3.35395000
 


--------------------------------------------------------------------------------------------------------


 k-point  1 :  0.00000.00000.0000  plane waves:     415
 k-point  2 :  0.16670.00000.0000  plane waves:     430
 k-point  3 :  0.33330.00000.0000  plane waves:     422
 k-point  4 :  0.50000.00000.0000  plane waves:     410
 k-point  5 :  0.16670.16670.0000  plane waves:     421
 k-point  6 :  0.33330.16670.0000  plane waves:     406
 k-point  7 :  0.33330.33330.0000  plane waves:     408
 k-point  8 :  0.00000.00000.1667  plane waves:     415
 k-point  9 :  0.16670.00000.1667  plane waves:     425
 k-point 10 :  0.33330.00000.1667  plane waves:     418
 k-point 11 :  0.50000.00000.1667  plane waves:     404
 k-point 12 :  0.16670.16670.1667  plane waves:     418
 k-point 13 :  0.33330.16670.1667  plane waves:     412
 k-point 14 :  0.33330.33330.1667  plane waves:     405
 k-point 15 :  0.00000.00000.3333  plane waves:     427
 k-point 16 :  0.16670.00000.3333  plane waves:     425
 k-point 17 :  0.33330.00000.3333  plane waves:     425
 k-point 18 :  0.50000.00000.3333  plane waves:     402
 k-point 19 :  0.16670.16670.3333  plane waves:     419
 k-point 20 :  0.33330.16670.3333  plane waves:     408
 k-point 21 :  0.33330.33330.3333  plane waves:     402
 k-point 22 :  0.00000.00000.5000  plane waves:     438
 k-point 23 :  0.16670.00000.5000  plane waves:     422
 k-point 24 :  0.33330.00000.5000  plane waves:     420
 k-point 25 :  0.50000.00000.5000  plane waves:     416
 k-point 26 :  0.16670.16670.5000  plane waves:     416
 k-point 27 :  0.33330.16670.5000  plane waves:     408
 k-point 28 :  0.33330.33330.5000  plane waves:     402

 maximum and minimum number of plane-waves per node :       438      402

 maximum number of plane-waves:       438
 maximum index in each direction: 
   IXMAX=    3   IYMAX=    3   IZMAX=    9
   IXMIN=   -3   IYMIN=   -3   IZMIN=   -9

 NGX is ok and might be reduce to  14
 NGY is ok and might be reduce to  14
 NGZ is ok and might be reduce to  38

 serial   3D FFT for wavefunctions
 parallel 3D FFT for charge:
    minimum data exchange during FFTs selected (reduces bandwidth)


 total amount of memory used by VASP on root node    44152. kBytes
========================================================================

   base      :      30000. kBytes
   nonl-proj :        812. kBytes
   fftplans  :       2184. kBytes
   grid      :       5237. kBytes
   one-center:         24. kBytes
   wavefun   :       5895. kBytes
 
 Broyden mixing: mesh for mixing (old mesh)
   NGX =  7   NGY =  7   NGZ = 19
  (NGX  = 28   NGY  = 28   NGZ  = 80)
  gives a total of    931 points

 initial charge density was supplied:
 charge density of overlapping atoms calculated
 number of electron      16.0000000 magnetization       4.0000000
 keeping initial charge density in first step


--------------------------------------------------------------------------------------------------------


 Maximum index for augmentation-charges         2547 (set IRDMAX)


--------------------------------------------------------------------------------------------------------


 First call to EWALD:  gamma=   0.541
 Maximum number of real-space cells 4x 4x 2
 Maximum number of reciprocal cells 2x 2x 5

    FEWALD:  cpu time    0.00: real time    0.00


----------------------------------------- Iteration    1(   1)  ---------------------------------------


    POTLOK:  cpu time    0.20: real time    0.20
    SETDIJ:  cpu time    0.04: real time    0.04
     EDDAV:  cpu time    2.43: real time    2.43
       DOS:  cpu time    0.00: real time    0.01
    --------------------------------------------
      LOOP:  cpu time    2.68: real time    2.68

 eigenvalue-minimisations  :  1584
 total energy-change (2. order) : 0.1625890E+02  (-0.6190945E+03)
 number of electron      16.0000000 magnetization       4.0000000
 augmentation part       16.0000000 magnetization       4.0000000

 Free energy of the ion-electron system (eV)
  ---------------------------------------------------
  alpha Z        PSCENC =        37.04766603
  Ewald energy   TEWEN  =      -460.60042082
  -1/2 Hartree   DENC   =      -148.78490797
  -exchange  EXHF       =         0.00000000
  -V(xc)+E(xc)   XCENC  =        56.10990952
  PAW double counting   =       150.95130483     -155.51722924
  entropy T*S    EENTRO =         0.00010248
  eigenvalues    EBANDS =       -50.54713900
  atomic energy  EATOM  =       587.59961463
  ---------------------------------------------------
  free energy    TOTEN  =        16.25890046 eV

  energy without entropy =       16.25879798  energy(sigma->0) =       16.25886630


--------------------------------------------------------------------------------------------------------




----------------------------------------- Iteration    1(   2)  ---------------------------------------


     EDDAV:  cpu time    3.07: real time    3.07
       DOS:  cpu time    0.00: real time    0.00
    --------------------------------------------
      LOOP:  cpu time    3.07: real time    3.08

 eigenvalue-minimisations  :  2164
 total energy-change (2. order) :-0.5193031E+02  (-0.4847286E+02)
 number of electron      16.0000000 magnetization       4.0000000
 augmentation part       16.0000000 magnetization       4.0000000

 Free energy of the ion-electron system (eV)
  ---------------------------------------------------
  alpha Z        PSCENC =        37.04766603
  Ewald energy   TEWEN  =      -460.60042082
  -1/2 Hartree   DENC   =      -148.78490797
  -exchange  EXHF       =         0.00000000
  -V(xc)+E(xc)   XCENC  =        56.10990952
  PAW double counting   =       150.95130483     -155.51722924
  entropy T*S    EENTRO =         0.00004312
  eigenvalues    EBANDS =      -102.47738800
  atomic energy  EATOM  =       587.59961463
  ---------------------------------------------------
  free energy    TOTEN  =       -35.67140790 eV

  energy without entropy =      -35.67145102  energy(sigma->0) =      -35.67142227


--------------------------------------------------------------------------------------------------------




----------------------------------------- Iteration    1(   3)  ---------------------------------------


     EDDAV:  cpu time    2.95: real time    2.95
       DOS:  cpu time    0.01: real time    0.01
    --------------------------------------------
      LOOP:  cpu time    2.96: real time    2.97

 eigenvalue-minimisations  :  2054
 total energy-change (2. order) :-0.1890708E+01  (-0.1880763E+01)
 number of electron      16.0000000 magnetization       4.0000000
 augmentation part       16.0000000 magnetization       4.0000000

 Free energy of the ion-electron system (eV)
  ---------------------------------------------------
  alpha Z        PSCENC =        37.04766603
  Ewald energy   TEWEN  =      -460.60042082
  -1/2 Hartree   DENC   =      -148.78490797
  -exchange  EXHF       =         0.00000000
  -V(xc)+E(xc)   XCENC  =        56.10990952
  PAW double counting   =       150.95130483     -155.51722924
  entropy T*S    EENTRO =         0.00004706
  eigenvalues    EBANDS =      -104.36809958
  atomic energy  EATOM  =       587.59961463
  ---------------------------------------------------
  free energy    TOTEN  =       -37.56211553 eV

  energy without entropy =      -37.56216259  energy(sigma->0) =      -37.56213122


--------------------------------------------------------------------------------------------------------




----------------------------------------- Iteration    1(   4)  ---------------------------------------


     EDDAV:  cpu time    2.80: real time    2.80
       DOS:  cpu time    0.00: real time    0.00
    --------------------------------------------
      LOOP:  cpu time    2.81: real time    2.82

 eigenvalue-minimisations  :  1922
 total energy-change (2. order) :-0.1725458E-01  (-0.1724171E-01)
 number of electron      16.0000000 magnetization       4.0000000
 augmentation part       16.0000000 magnetization       4.0000000

 Free energy of the ion-electron system (eV)
  ---------------------------------------------------
  alpha Z        PSCENC =        37.04766603
  Ewald energy   TEWEN  =      -460.60042082
  -1/2 Hartree   DENC   =      -148.78490797
  -exchange  EXHF       =         0.00000000
  -V(xc)+E(xc)   XCENC  =        56.10990952
  PAW double counting   =       150.95130483     -155.51722924
  entropy T*S    EENTRO =         0.00004705
  eigenvalues    EBANDS =      -104.38535415
  atomic energy  EATOM  =       587.59961463
  ---------------------------------------------------
  free energy    TOTEN  =       -37.57937012 eV

  energy without entropy =      -37.57941717  energy(sigma->0) =      -37.57938580


--------------------------------------------------------------------------------------------------------




----------------------------------------- Iteration    1(   5)  ---------------------------------------


     EDDAV:  cpu time    2.95: real time    2.95
       DOS:  cpu time    0.00: real time    0.01
    CHARGE:  cpu time    0.21: real time    0.21
    MIXING:  cpu time    0.00: real time    0.00
    --------------------------------------------
      LOOP:  cpu time    3.18: real time    3.19

 eigenvalue-minimisations  :  2060
 total energy-change (2. order) :-0.3363871E-03  (-0.3363387E-03)
 number of electron      16.0000000 magnetization       1.1751766
 augmentation part        0.3917622 magnetization       0.9686687

 Broyden mixing:
  rms(total) = 0.11821E+01    rms(broyden)= 0.11815E+01
  rms(prec ) = 0.15207E+01
  weight for this iteration     100.00

 Free energy of the ion-electron system (eV)
  ---------------------------------------------------
  alpha Z        PSCENC =        37.04766603
  Ewald energy   TEWEN  =      -460.60042082
  -1/2 Hartree   DENC   =      -148.78490797
  -exchange  EXHF       =         0.00000000
  -V(xc)+E(xc)   XCENC  =        56.10990952
  PAW double counting   =       150.95130483     -155.51722924
  entropy T*S    EENTRO =         0.00004705
  eigenvalues    EBANDS =      -104.38569054
  atomic energy  EATOM  =       587.59961463
  ---------------------------------------------------
  free energy    TOTEN  =       -37.57970650 eV

  energy without entropy =      -37.57975356  energy(sigma->0) =      -37.57972219


--------------------------------------------------------------------------------------------------------




----------------------------------------- Iteration    1(   6)  ---------------------------------------


    POTLOK:  cpu time    0.19: real time    0.19
    SETDIJ:  cpu time    0.04: real time    0.04
     EDDAV:  cpu time    2.60: real time    2.60
       DOS:  cpu time    0.00: real time    0.01
    CHARGE:  cpu time    0.21: real time    0.21
    MIXING:  cpu time    0.00: real time    0.00
    --------------------------------------------
      LOOP:  cpu time    3.05: real time    3.07

 eigenvalue-minimisations  :  1742
 total energy-change (2. order) : 0.5255915E+00  (-0.1857192E+00)
 number of electron      15.9999999 magnetization       0.1627689
 augmentation part        0.3758443 magnetization       0.0363679

 Broyden mixing:
  rms(total) = 0.47057E+00    rms(broyden)= 0.47030E+00
  rms(prec ) = 0.68250E+00
  weight for this iteration     100.00

 eigenvalues of (default mixing * dielectric matrix)
  average eigenvalue GAMMA=   0.9634
  0.9634

 Free energy of the ion-electron system (eV)
  ---------------------------------------------------
  alpha Z        PSCENC =        37.04766603
  Ewald energy   TEWEN  =      -460.60042082
  -1/2 Hartree   DENC   =      -164.69524930
  -exchange  EXHF       =         0.00000000
  -V(xc)+E(xc)   XCENC  =        56.74363853
  PAW double counting   =       205.17960325     -210.01964484
  entropy T*S    EENTRO =         0.00011443
  eigenvalues    EBANDS =       -88.30943690
  atomic energy  EATOM  =       587.59961463
  ---------------------------------------------------
  free energy    TOTEN  =       -37.05411499 eV

  energy without entropy =      -37.05422942  energy(sigma->0) =      -37.05415313


--------------------------------------------------------------------------------------------------------




----------------------------------------- Iteration    1(   7)  ---------------------------------------


    POTLOK:  cpu time    0.19: real time    0.19
    SETDIJ:  cpu time    0.04: real time    0.04
     EDDAV:  cpu time    2.65: real time    2.65
       DOS:  cpu time    0.01: real time    0.01
    CHARGE:  cpu time    0.21: real time    0.21
    MIXING:  cpu time    0.00: real time    0.00
    --------------------------------------------
      LOOP:  cpu time    3.11: real time    3.12

 eigenvalue-minimisations  :  1790
 total energy-change (2. order) : 0.8296898E-01  (-0.1056667E+00)
 number of electron      15.9999999 magnetization      -0.0629423
 augmentation part        0.3649366 magnetization      -0.1536869

 Broyden mixing:
  rms(total) = 0.18796E+00    rms(broyden)= 0.18780E+00
  rms(prec ) = 0.26749E+00
  weight for this iteration     100.00

 eigenvalues of (default mixing * dielectric matrix)
  average eigenvalue GAMMA=   1.2052
  0.8300  1.5804

 Free energy of the ion-electron system (eV)
  ---------------------------------------------------
  alpha Z        PSCENC =        37.04766603
  Ewald energy   TEWEN  =      -460.60042082
  -1/2 Hartree   DENC   =      -175.81224611
  -exchange  EXHF       =         0.00000000
  -V(xc)+E(xc)   XCENC  =        57.18509307
  PAW double counting   =       247.43641942     -252.39565573
  entropy T*S    EENTRO =         0.00029385
  eigenvalues    EBANDS =       -77.43191033
  atomic energy  EATOM  =       587.59961463
  ---------------------------------------------------
  free energy    TOTEN  =       -36.97114600 eV

  energy without entropy =      -36.97143985  energy(sigma->0) =      -36.97124395


--------------------------------------------------------------------------------------------------------




----------------------------------------- Iteration    1(   8)  ---------------------------------------


    POTLOK:  cpu time    0.19: real time    0.19
    SETDIJ:  cpu time    0.04: real time    0.04
     EDDAV:  cpu time    2.64: real time    2.64
       DOS:  cpu time    0.01: real time    0.01
    CHARGE:  cpu time    0.21: real time    0.21
    MIXING:  cpu time    0.00: real time    0.00
    --------------------------------------------
      LOOP:  cpu time    3.09: real time    3.10

 eigenvalue-minimisations  :  1778
 total energy-change (2. order) : 0.5447163E-01  (-0.2164162E-01)
 number of electron      15.9999999 magnetization       0.0628089
 augmentation part        0.3587472 magnetization      -0.0265649

 Broyden mixing:
  rms(total) = 0.63749E-01    rms(broyden)= 0.63632E-01
  rms(prec ) = 0.75783E-01
  weight for this iteration     100.00

 eigenvalues of (default mixing * dielectric matrix)
  average eigenvalue GAMMA=   1.1956
  1.8299  0.9875  0.7694

 Free energy of the ion-electron system (eV)
  ---------------------------------------------------
  alpha Z        PSCENC =        37.04766603
  Ewald energy   TEWEN  =      -460.60042082
  -1/2 Hartree   DENC   =      -181.81565477
  -exchange  EXHF       =         0.00000000
  -V(xc)+E(xc)   XCENC  =        57.58490924
  PAW double counting   =       272.41248848     -277.40799102
  entropy T*S    EENTRO =         0.00014862
  eigenvalues    EBANDS =       -71.73743475
  atomic energy  EATOM  =       587.59961463
  ---------------------------------------------------
  free energy    TOTEN  =       -36.91667437 eV

  energy without entropy =      -36.91682299  energy(sigma->0) =      -36.91672391


--------------------------------------------------------------------------------------------------------




----------------------------------------- Iteration    1(   9)  ---------------------------------------


    POTLOK:  cpu time    0.19: real time    0.19
    SETDIJ:  cpu time    0.04: real time    0.04
     EDDAV:  cpu time    2.58: real time    2.58
       DOS:  cpu time    0.01: real time    0.01
    CHARGE:  cpu time    0.21: real time    0.21
    MIXING:  cpu time    0.00: real time    0.00
    --------------------------------------------
      LOOP:  cpu time    3.03: real time    3.04

 eigenvalue-minimisations  :  1724
 total energy-change (2. order) :-0.1216899E-01  (-0.1796471E-02)
 number of electron      15.9999999 magnetization       0.1143465
 augmentation part        0.3575414 magnetization       0.0225843

 Broyden mixing:
  rms(total) = 0.30569E-01    rms(broyden)= 0.30552E-01
  rms(prec ) = 0.36618E-01
  weight for this iteration     100.00

 eigenvalues of (default mixing * dielectric matrix)
  average eigenvalue GAMMA=   1.2811
  2.1653  1.3912  0.8843  0.6837

 Free energy of the ion-electron system (eV)
  ---------------------------------------------------
  alpha Z        PSCENC =        37.04766603
  Ewald energy   TEWEN  =      -460.60042082
  -1/2 Hartree   DENC   =      -182.55843332
  -exchange  EXHF       =         0.00000000
  -V(xc)+E(xc)   XCENC  =        57.62944077
  PAW double counting   =       276.86904811     -281.84223590
  entropy T*S    EENTRO =         0.00019239
  eigenvalues    EBANDS =       -71.07371524
  atomic energy  EATOM  =       587.59961463
  ---------------------------------------------------
  free energy    TOTEN  =       -36.92884336 eV

  energy without entropy =      -36.92903574  energy(sigma->0) =      -36.92890749


--------------------------------------------------------------------------------------------------------




----------------------------------------- Iteration    1(  10)  ---------------------------------------


    POTLOK:  cpu time    0.19: real time    0.19
    SETDIJ:  cpu time    0.04: real time    0.04
     EDDAV:  cpu time    2.89: real time    2.89
       DOS:  cpu time    0.00: real time    0.01
    CHARGE:  cpu time    0.21: real time    0.21
    MIXING:  cpu time    0.00: real time    0.00
    --------------------------------------------
      LOOP:  cpu time    3.34: real time    3.36

 eigenvalue-minimisations  :  2000
 total energy-change (2. order) :-0.8332827E-03  (-0.1363326E-03)
 number of electron      15.9999999 magnetization       0.0991129
 augmentation part        0.3574180 magnetization       0.0114259

 Broyden mixing:
  rms(total) = 0.11671E-01    rms(broyden)= 0.11665E-01
  rms(prec ) = 0.14459E-01
  weight for this iteration     100.00

 eigenvalues of (default mixing * dielectric matrix)
  average eigenvalue GAMMA=   1.2536
  2.3174  1.4846  0.9931  0.8184  0.6547

 Free energy of the ion-electron system (eV)
  ---------------------------------------------------
  alpha Z        PSCENC =        37.04766603
  Ewald energy   TEWEN  =      -460.60042082
  -1/2 Hartree   DENC   =      -182.78343981
  -exchange  EXHF       =         0.00000000
  -V(xc)+E(xc)   XCENC  =        57.64697697
  PAW double counting   =       278.72983071     -283.68417612
  entropy T*S    EENTRO =         0.00006867
  eigenvalues    EBANDS =       -70.88579690
  atomic energy  EATOM  =       587.59961463
  ---------------------------------------------------
  free energy    TOTEN  =       -36.92967664 eV

  energy without entropy =      -36.92974531  energy(sigma->0) =      -36.92969953


--------------------------------------------------------------------------------------------------------




----------------------------------------- Iteration    1(  11)  ---------------------------------------


    POTLOK:  cpu time    0.19: real time    0.19
    SETDIJ:  cpu time    0.04: real time    0.04
     EDDAV:  cpu time    2.60: real time    2.60
       DOS:  cpu time    0.00: real time    0.01
    CHARGE:  cpu time    0.21: real time    0.21
    MIXING:  cpu time    0.00: real time    0.00
    --------------------------------------------
      LOOP:  cpu time    3.05: real time    3.07

 eigenvalue-minimisations  :  1742
 total energy-change (2. order) :-0.3454802E-03  (-0.4328539E-04)
 number of electron      15.9999999 magnetization       0.0899354
 augmentation part        0.3574348 magnetization       0.0029704

 Broyden mixing:
  rms(total) = 0.45994E-02    rms(broyden)= 0.45972E-02
  rms(prec ) = 0.56844E-02
  weight for this iteration     100.00

 eigenvalues of (default mixing * dielectric matrix)
  average eigenvalue GAMMA=   1.3580
  2.5161  1.9382  1.3912  0.9077  0.7621  0.6328

 Free energy of the ion-electron system (eV)
  ---------------------------------------------------
  alpha Z        PSCENC =        37.04766603
  Ewald energy   TEWEN  =      -460.60042082
  -1/2 Hartree   DENC   =      -182.82546661
  -exchange  EXHF       =         0.00000000
  -V(xc)+E(xc)   XCENC  =        57.65097585
  PAW double counting   =       279.16292399     -284.10745810
  entropy T*S    EENTRO =         0.00012768
  eigenvalues    EBANDS =       -70.85798477
  atomic energy  EATOM  =       587.59961463
  ---------------------------------------------------
  free energy    TOTEN  =       -36.93002212 eV

  energy without entropy =      -36.93014980  energy(sigma->0) =      -36.93006468


--------------------------------------------------------------------------------------------------------




----------------------------------------- Iteration    1(  12)  ---------------------------------------


    POTLOK:  cpu time    0.19: real time    0.19
    SETDIJ:  cpu time    0.04: real time    0.04
     EDDAV:  cpu time    2.30: real time    2.30
       DOS:  cpu time    0.00: real time    0.00
    --------------------------------------------
      LOOP:  cpu time    2.54: real time    2.56

 eigenvalue-minimisations  :  1450
 total energy-change (2. order) :-0.6246149E-04  (-0.1070858E-04)
 number of electron      15.9999999 magnetization       0.0899354
 augmentation part        0.3574348 magnetization       0.0029704

 Free energy of the ion-electron system (eV)
  ---------------------------------------------------
  alpha Z        PSCENC =        37.04766603
  Ewald energy   TEWEN  =      -460.60042082
  -1/2 Hartree   DENC   =      -182.83174392
  -exchange  EXHF       =         0.00000000
  -V(xc)+E(xc)   XCENC  =        57.65203588
  PAW double counting   =       279.19556387     -284.13586931
  entropy T*S    EENTRO =         0.00013500
  eigenvalues    EBANDS =       -70.85706595
  atomic energy  EATOM  =       587.59961463
  ---------------------------------------------------
  free energy    TOTEN  =       -36.93008458 eV

  energy without entropy =      -36.93021958  energy(sigma->0) =      -36.93012958


--------------------------------------------------------------------------------------------------------




 average (electrostatic) potential at core
  the test charge radii are     0.6991
  (the norm of the test charge is              1.0000)
       1 -50.8672       2 -50.8955       3 -50.8955       4 -50.8671
 
 
 
 E-fermi :   4.7620     XC(G=0): -10.3286     alpha+bet :-11.4114


 spin component 1

 k-point   1 :       0.0000    0.0000    0.0000
  band No.  band energies     occupation 
      1     -15.0397      1.00000
      2     -14.7415      1.00000
      3      -3.8651      1.00000
      4      -1.8486      1.00000
      5       1.6899      1.00000
      6       1.6899      1.00000
      7       1.7394      1.00000
      8       1.7395      1.00000
      9       8.9780      0.00000
     10      13.2826      0.00000
     11      13.2827      0.00000
     12      13.3207      0.00000
     13      13.3208      0.00000
     14      15.3108      0.00000

 k-point   2 :       0.1667    0.0000    0.0000
  band No.  band energies     occupation 
      1     -14.3780      1.00000
      2     -14.0920      1.00000
      3      -3.0619      1.00000
      4      -1.1276      1.00000
      5      -0.6265      1.00000
      6      -0.5721      1.00000
      7       0.5427      1.00000
      8       0.6073      1.00000
      9       9.7846      0.00000
     10      13.1042      0.00000
     11      13.2833      0.00000
     12      14.0586      0.00000
     13      14.4474      0.00000
     14      15.8408      0.00000

 k-point   3 :       0.3333    0.0000    0.0000
  band No.  band energies     occupation 
      1     -12.4211      1.00000
      2     -12.1690      1.00000
      3      -4.9976      1.00000
      4      -4.8644      1.00000
      5      -1.0828      1.00000
      6      -1.0106      1.00000
      7      -0.7413      1.00000
      8       0.9650      1.00000
      9       9.2920      0.00000
     10      10.2251      0.00000
     11      12.1070      0.00000
     12      12.3654      0.00000
     13      12.7490      0.00000
     14      17.5288      0.00000

 k-point   4 :       0.5000    0.0000    0.0000
  band No.  band energies     occupation 
      1      -9.6787      1.00000
      2      -9.5768      1.00000
      3      -8.5895      1.00000
      4      -8.5119      1.00000
      5      -1.7298      1.00000
      6      -1.6325      1.00000
      7       1.9470      1.00000
      8       2.5902      1.00000
      9       6.2553      0.00000
     10       6.8961      0.00000
     11      11.9389      0.00000
     12      12.3330      0.00000
     13      16.0741      0.00000
     14      16.1527      0.00000

 k-point   5 :       0.1667    0.1667    0.0000
  band No.  band energies     occupation 
      1     -13.0653      1.00000
      2     -12.8044      1.00000
      3      -3.0819      1.00000
      4      -3.0279      1.00000
      5      -1.7026      1.00000
      6      -1.6665      1.00000
      7      -1.4901      1.00000
      8       0.3059      1.00000
      9      10.9614      0.00000
     10      11.4131      0.00000
     11      11.4635      0.00000
     12      14.7545      0.00000
     13      14.9946      0.00000
     14      16.3791      0.00000

 k-point   6 :       0.3333    0.1667    0.0000
  band No.  band energies     occupation 
      1     -10.5431      1.00000
      2     -10.3247      1.00000
      3      -6.7929      1.00000
      4      -6.6415      1.00000
      5      -3.3646      1.00000
      6      -3.2958      1.00000
      7       1.4042      1.00000
      8       2.7292      1.00000
      9       6.9397      0.00000
     10       7.6849      0.00000
     11      14.4943      0.00000
     12      14.6506      0.00000
     13      15.1546      0.00000
     14      17.2148      0.00000

 k-point   7 :       0.3333    0.3333    0.0000
  band No.  band energies     occupation 
      1      -7.9964      1.00000
      2      -7.9556      1.00000
      3      -7.9556      1.00000
      4      -7.8066      1.00000
      5      -5.8652      1.00000
      6      -5.8652      1.00000
      7       4.1896      1.00000
      8       4.6017      1.00003
      9       4.6018      1.00003
     10       5.5065      0.00000
     11      15.8618      0.00000
     12      15.8618      0.00000
     13      17.1167      0.00000
     14      17.3315      0.00000

 k-point   8 :       0.0000    0.0000    0.1667
  band No.  band energies     occupation 
      1     -15.0208      1.00000
      2     -14.7627      1.00000
      3      -3.7551      1.00000
      4      -2.0162      1.00000
      5       1.6940      1.00000
      6       1.6941      1.00000
      7       1.7452      1.00000
      8       1.7453      1.00000
      9       9.3221      0.00000
     10      13.2866      0.00000
     11      13.2866      0.00000
     12      13.3178      0.00000
     13      13.3178      0.00000
     14      14.6468      0.00000

 k-point   9 :       0.1667    0.0000    0.1667
  band No.  band energies     occupation 
      1     -14.3596      1.00000
      2     -14.1123      1.00000
      3      -2.9522      1.00000
      4      -1.2700      1.00000
      5      -0.6214      1.00000
      6      -0.5746      1.00000
      7       0.5463      1.00000
      8       0.6084      1.00000
      9      10.1158      0.00000
     10      13.1075      0.00000
     11      13.2728      0.00000
     12      14.1243      0.00000
     13      14.4323      0.00000
     14      15.3299      0.00000

 k-point  10 :       0.3333    0.0000    0.1667
  band No.  band energies     occupation 
      1     -12.4052      1.00000
      2     -12.1857      1.00000
      3      -4.9969      1.00000
      4      -4.8733      1.00000
      5      -1.0732      1.00000
      6      -1.0058      1.00000
      7      -0.6341      1.00000
      8       0.8342      1.00000
      9       9.3334      0.00000
     10      10.1427      0.00000
     11      12.2800      0.00000
     12      12.4395      0.00000
     13      12.8249      0.00000
     14      17.0700      0.00000

 k-point  11 :       0.5000    0.0000    0.1667
  band No.  band energies     occupation 
      1      -9.6704      1.00000
      2      -9.5812      1.00000
      3      -8.5866      1.00000
      4      -8.5188      1.00000
      5      -1.7086      1.00000
      6      -1.6330      1.00000
      7       2.0052      1.00000
      8       2.5692      1.00000
      9       6.2607      0.00000
     10       6.8290      0.00000
     11      11.9653      0.00000
     12      12.3075      0.00000
     13      16.3371      0.00000
     14      16.3455      0.00000

 k-point  12 :       0.1667    0.1667    0.1667
  band No.  band energies     occupation 
      1     -13.0485      1.00000
      2     -12.8231      1.00000
      3      -3.0807      1.00000
      4      -3.0284      1.00000
      5      -1.7029      1.00000
      6      -1.6748      1.00000
      7      -1.3835      1.00000
      8       0.1744      1.00000
      9      11.0029      0.00000
     10      11.4121      0.00000
     11      11.7268      0.00000
     12      14.7669      0.00000
     13      15.0101      0.00000
     14      16.3609      0.00000

 k-point  13 :       0.3333    0.1667    0.1667
  band No.  band energies     occupation 
      1     -10.5297      1.00000
      2     -10.3413      1.00000
      3      -6.7831      1.00000
      4      -6.6527      1.00000
      5      -3.3716      1.00000
      6      -3.3049      1.00000
      7       1.4787      1.00000
      8       2.6256      1.00000
      9       6.9725      0.00000
     10       7.6168      0.00000
     11      14.5933      0.00000
     12      14.7107      0.00000
     13      15.1508      0.00000
     14      16.9231      0.00000

 k-point  14 :       0.3333    0.3333    0.1667
  band No.  band energies     occupation 
      1      -7.9833      1.00000
      2      -7.9538      1.00000
      3      -7.9538      1.00000
      4      -7.8183      1.00000
      5      -5.8660      1.00000
      6      -5.8660      1.00000
      7       4.2523      1.00000
      8       4.6176      1.00017
      9       4.6176      1.00017
     10       5.4429      0.00000
     11      15.5114      0.00000
     12      15.5114      0.00000
     13      17.3337      0.00000
     14      17.8645      0.00000

 k-point  15 :       0.0000    0.0000    0.3333
  band No.  band energies     occupation 
      1     -14.9691      1.00000
      2     -14.8206      1.00000
      3      -3.4403      1.00000
      4      -2.4594      1.00000
      5       1.6981      1.00000
      6       1.6982      1.00000
      7       1.7417      1.00000
      8       1.7418      1.00000
      9      10.2674      0.00000
     10      13.2035      0.00000
     11      13.2428      0.00000
     12      13.2428      0.00000
     13      13.2899      0.00000
     14      13.2899      0.00000

 k-point  16 :       0.1667    0.0000    0.3333
  band No.  band energies     occupation 
      1     -14.3087      1.00000
      2     -14.1661      1.00000
      3      -2.6452      1.00000
      4      -1.6841      1.00000
      5      -0.6182      1.00000
      6      -0.5723      1.00000
      7       0.5607      1.00000
      8       0.5861      1.00000
      9      11.0273      0.00000
     10      13.0988      0.00000
     11      13.2459      0.00000
     12      13.9162      0.00000
     13      14.2097      0.00000
     14      14.4335      0.00000

 k-point  17 :       0.3333    0.0000    0.3333
  band No.  band energies     occupation 
      1     -12.3603      1.00000
      2     -12.2338      1.00000
      3      -4.9752      1.00000
      4      -4.9027      1.00000
      5      -1.0748      1.00000
      6      -1.0392      1.00000
      7      -0.3591      1.00000
      8       0.4873      1.00000
      9       9.4559      0.00000
     10       9.9354      0.00000
     11      12.3872      0.00000
     12      12.5252      0.00000
     13      13.4779      0.00000
     14      15.9499      0.00000

 k-point  18 :       0.5000    0.0000    0.3333
  band No.  band energies     occupation 
      1      -9.6484      1.00000
      2      -9.5963      1.00000
      3      -8.5755      1.00000
      4      -8.5335      1.00000
      5      -1.6996      1.00000
      6      -1.6647      1.00000
      7       2.1608      1.00000
      8       2.4926      1.00000
      9       6.2853      0.00000
     10       6.6081      0.00000
     11      12.0384      0.00000
     12      12.2335      0.00000
     13      16.8413      0.00000
     14      17.0206      0.00000

 k-point  19 :       0.1667    0.1667    0.3333
  band No.  band energies     occupation 
      1     -13.0040      1.00000
      2     -12.8731      1.00000
      3      -3.0621      1.00000
      4      -3.0366      1.00000
      5      -1.7058      1.00000
      6      -1.6888      1.00000
      7      -1.0939      1.00000
      8      -0.1915      1.00000
      9      11.0812      0.00000
     10      11.3130      0.00000
     11      12.5503      0.00000
     12      14.6715      0.00000
     13      14.9979      0.00000
     14      15.2953      0.00000

 k-point  20 :       0.3333    0.1667    0.3333
  band No.  band energies     occupation 
      1     -10.4900      1.00000
      2     -10.3816      1.00000
      3      -6.7570      1.00000
      4      -6.6817      1.00000
      5      -3.3529      1.00000
      6      -3.3213      1.00000
      7       1.7166      1.00000
      8       2.3812      1.00000
      9       7.0967      0.00000
     10       7.4627      0.00000
     11      14.6860      0.00000
     12      14.8426      0.00000
     13      15.3755      0.00000
     14      16.4450      0.00000

 k-point  21 :       0.3333    0.3333    0.3333
  band No.  band energies     occupation 
      1      -7.9522      1.00000
      2      -7.9522      1.00000
      3      -7.9487      1.00000
      4      -7.8539      1.00000
      5      -5.8707      1.00000
      6      -5.8707      1.00000
      7       4.4906      1.00000
      8       4.6388      1.00136
      9       4.6389      1.00136
     10       5.1648      0.00000
     11      15.0707      0.00000
     12      15.0707      0.00000
     13      17.9019      0.00000
     14      18.7813      0.00000

 k-point  22 :       0.0000    0.0000    0.5000
  band No.  band energies     occupation 
      1     -14.8962      1.00000
      2     -14.8962      1.00000
      3      -2.9714      1.00000
      4      -2.9714      1.00000
      5       1.6896      1.00000
      6       1.6896      1.00000
      7       1.6897      1.00000
      8       1.6897      1.00000
      9      11.6350      0.00000
     10      11.6350      0.00000
     11      13.2480      0.00000
     12      13.2480      0.00000
     13      13.2480      0.00000
     14      13.2481      0.00000

 k-point  23 :       0.1667    0.0000    0.5000
  band No.  band energies     occupation 
      1     -14.2386      1.00000
      2     -14.2386      1.00000
      3      -2.1785      1.00000
      4      -2.1785      1.00000
      5      -0.5934      1.00000
      6      -0.5934      1.00000
      7       0.5732      1.00000
      8       0.5732      1.00000
      9      12.3180      0.00000
     10      12.3180      0.00000
     11      13.2682      0.00000
     12      13.2682      0.00000
     13      14.2975      0.00000
     14      14.2976      0.00000

 k-point  24 :       0.3333    0.0000    0.5000
  band No.  band energies     occupation 
      1     -12.2973      1.00000
      2     -12.2972      1.00000
      3      -4.9342      1.00000
      4      -4.9342      1.00000
      5      -1.0574      1.00000
      6      -1.0574      1.00000
      7       0.0543      1.00000
      8       0.0543      1.00000
      9       9.6898      0.00000
     10       9.6898      0.00000
     11      12.4720      0.00000
     12      12.4720      0.00000
     13      14.6470      0.00000
     14      14.6470      0.00000

 k-point  25 :       0.5000    0.0000    0.5000
  band No.  band energies     occupation 
      1      -9.6224      1.00000
      2      -9.6224      1.00000
      3      -8.5610      1.00000
      4      -8.5610      1.00000
      5      -1.6911      1.00000
      6      -1.6911      1.00000
      7       2.3233      1.00000
      8       2.3233      1.00000
      9       6.3879      0.00000
     10       6.3879      0.00000
     11      12.1300      0.00000
     12      12.1300      0.00000
     13      17.3714      0.00000
     14      17.3714      0.00000

 k-point  26 :       0.1667    0.1667    0.5000
  band No.  band energies     occupation 
      1     -12.9395      1.00000
      2     -12.9395      1.00000
      3      -3.0484      1.00000
      4      -3.0484      1.00000
      5      -1.6925      1.00000
      6      -1.6925      1.00000
      7      -0.6540      1.00000
      8      -0.6540      1.00000
      9      11.1949      0.00000
     10      11.1949      0.00000
     11      13.7128      0.00000
     12      13.7128      0.00000
     13      14.9923      0.00000
     14      14.9923      0.00000

 k-point  27 :       0.3333    0.1667    0.5000
  band No.  band energies     occupation 
      1     -10.4368      1.00000
      2     -10.4368      1.00000
      3      -6.7233      1.00000
      4      -6.7233      1.00000
      5      -3.3338      1.00000
      6      -3.3338      1.00000
      7       2.0443      1.00000
      8       2.0443      1.00000
      9       7.2803      0.00000
     10       7.2803      0.00000
     11      14.7760      0.00000
     12      14.7760      0.00000
     13      15.9063      0.00000
     14      15.9063      0.00000

 k-point  28 :       0.3333    0.3333    0.5000
  band No.  band energies     occupation 
      1      -7.9519      1.00000
      2      -7.9518      1.00000
      3      -7.9019      1.00000
      4      -7.9019      1.00000
      5      -5.8724      1.00000
      6      -5.8724      1.00000
      7       4.6456      1.00240
      8       4.6456      1.00240
      9       4.8145     -0.02947
     10       4.8145     -0.02949
     11      14.9030      0.00000
     12      14.9030      0.00000
     13      18.6421      0.00000
     14      18.6421      0.00000

 spin component 2

 k-point   1 :       0.0000    0.0000    0.0000
  band No.  band energies     occupation 
      1     -15.0095      1.00000
      2     -14.7120      1.00000
      3      -3.7974      1.00000
      4      -1.7737      1.00000
      5       1.7024      1.00000
      6       1.7025      1.00000
      7       1.7526      1.00000
      8       1.7527      1.00000
      9       9.0155      0.00000
     10      13.2939      0.00000
     11      13.2940      0.00000
     12      13.3324      0.00000
     13      13.3325      0.00000
     14      15.3743      0.00000

 k-point   2 :       0.1667    0.0000    0.0000
  band No.  band energies     occupation 
      1     -14.3480      1.00000
      2     -14.0628      1.00000
      3      -2.9940      1.00000
      4      -1.0509      1.00000
      5      -0.6092      1.00000
      6      -0.5550      1.00000
      7       0.5553      1.00000
      8       0.6200      1.00000
      9       9.8218      0.00000
     10      13.1275      0.00000
     11      13.3011      0.00000
     12      14.1434      0.00000
     13      14.5597      0.00000
     14      15.8421      0.00000

 k-point   3 :       0.3333    0.0000    0.0000
  band No.  band energies     occupation 
      1     -12.3920      1.00000
      2     -12.1404      1.00000
      3      -4.9754      1.00000
      4      -4.8426      1.00000
      5      -1.0704      1.00000
      6      -0.9982      1.00000
      7      -0.6725      1.00000
      8       1.0479      1.00000
      9       9.3615      0.00000
     10      10.3279      0.00000
     11      12.1340      0.00000
     12      12.4158      0.00000
     13      12.7757      0.00000
     14      17.6031      0.00000

 k-point   4 :       0.5000    0.0000    0.0000
  band No.  band energies     occupation 
      1      -9.6533      1.00000
      2      -9.5370      1.00000
      3      -8.5764      1.00000
      4      -8.4861      1.00000
      5      -1.7175      1.00000
      6      -1.6203      1.00000
      7       1.9885      1.00000
      8       2.7237      1.00000
      9       6.2596      0.00000
     10       7.0332      0.00000
     11      11.9764      0.00000
     12      12.3695      0.00000
     13      16.0650      0.00000
     14      16.2386      0.00000

 k-point   5 :       0.1667    0.1667    0.0000
  band No.  band energies     occupation 
      1     -13.0360      1.00000
      2     -12.7757      1.00000
      3      -3.0609      1.00000
      4      -3.0052      1.00000
      5      -1.6900      1.00000
      6      -1.6531      1.00000
      7      -1.4214      1.00000
      8       0.3859      1.00000
      9      11.0458      0.00000
     10      11.4501      0.00000
     11      11.5613      0.00000
     12      14.7806      0.00000
     13      15.0050      0.00000
     14      16.4244      0.00000

 k-point   6 :       0.3333    0.1667    0.0000
  band No.  band energies     occupation 
      1     -10.5148      1.00000
      2     -10.2960      1.00000
      3      -6.7693      1.00000
      4      -6.6175      1.00000
      5      -3.3501      1.00000
      6      -3.2812      1.00000
      7       1.4699      1.00000
      8       2.8263      1.00000
      9       7.0051      0.00000
     10       7.7797      0.00000
     11      14.5111      0.00000
     12      14.7101      0.00000
     13      15.1802      0.00000
     14      17.2898      0.00000

 k-point   7 :       0.3333    0.3333    0.0000
  band No.  band energies     occupation 
      1      -8.0237      1.00000
      2      -7.8700      1.00000
      3      -7.8700      1.00000
      4      -7.8329      1.00000
      5      -5.8552      1.00000
      6      -5.8551      1.00000
      7       4.0871      1.00000
      8       4.8712     -0.00422
      9       4.8712     -0.00422
     10       5.3957      0.00000
     11      15.9117      0.00000
     12      15.9117      0.00000
     13      17.0691      0.00000
     14      17.4186      0.00000

 k-point   8 :       0.0000    0.0000    0.1667
  band No.  band energies     occupation 
      1     -14.9907      1.00000
      2     -14.7331      1.00000
      3      -3.6872      1.00000
      4      -1.9423      1.00000
      5       1.7067      1.00000
      6       1.7067      1.00000
      7       1.7583      1.00000
      8       1.7584      1.00000
      9       9.3609      0.00000
     10      13.2978      0.00000
     11      13.2978      0.00000
     12      13.3295      0.00000
     13      13.3296      0.00000
     14      14.7042      0.00000

 k-point   9 :       0.1667    0.0000    0.1667
  band No.  band energies     occupation 
      1     -14.3297      1.00000
      2     -14.0830      1.00000
      3      -2.8838      1.00000
      4      -1.1946      1.00000
      5      -0.6041      1.00000
      6      -0.5574      1.00000
      7       0.5589      1.00000
      8       0.6212      1.00000
      9      10.1547      0.00000
     10      13.1315      0.00000
     11      13.2909      0.00000
     12      14.2054      0.00000
     13      14.5477      0.00000
     14      15.3953      0.00000

 k-point  10 :       0.3333    0.0000    0.1667
  band No.  band energies     occupation 
      1     -12.3761      1.00000
      2     -12.1571      1.00000
      3      -4.9748      1.00000
      4      -4.8515      1.00000
      5      -1.0609      1.00000
      6      -0.9933      1.00000
      7      -0.5645      1.00000
      8       0.9152      1.00000
      9       9.4055      0.00000
     10      10.2432      0.00000
     11      12.3032      0.00000
     12      12.4928      0.00000
     13      12.8543      0.00000
     14      17.1387      0.00000

 k-point  11 :       0.5000    0.0000    0.1667
  band No.  band energies     occupation 
      1      -9.6443      1.00000
      2      -9.5425      1.00000
      3      -8.5724      1.00000
      4      -8.4937      1.00000
      5      -1.6962      1.00000
      6      -1.6207      1.00000
      7       2.0509      1.00000
      8       2.6948      1.00000
      9       6.2753      0.00000
     10       6.9584      0.00000
     11      12.0030      0.00000
     12      12.3442      0.00000
     13      16.3272      0.00000
     14      16.4343      0.00000

 k-point  12 :       0.1667    0.1667    0.1667
  band No.  band energies     occupation 
      1     -13.0192      1.00000
      2     -12.7944      1.00000
      3      -3.0596      1.00000
      4      -3.0057      1.00000
      5      -1.6903      1.00000
      6      -1.6615      1.00000
      7      -1.3141      1.00000
      8       0.2530      1.00000
      9      11.0886      0.00000
     10      11.5154      0.00000
     11      11.7591      0.00000
     12      14.7926      0.00000
     13      15.0220      0.00000
     14      16.3912      0.00000

 k-point  13 :       0.3333    0.1667    0.1667
  band No.  band energies     occupation 
      1     -10.5014      1.00000
      2     -10.3126      1.00000
      3      -6.7594      1.00000
      4      -6.6287      1.00000
      5      -3.3570      1.00000
      6      -3.2904      1.00000
      7       1.5457      1.00000
      8       2.7193      1.00000
      9       7.0414      0.00000
     10       7.7101      0.00000
     11      14.6122      0.00000
     12      14.7738      0.00000
     13      15.1747      0.00000
     14      16.9894      0.00000

 k-point  14 :       0.3333    0.3333    0.1667
  band No.  band energies     occupation 
      1      -8.0105      1.00000
      2      -7.8682      1.00000
      3      -7.8681      1.00000
      4      -7.8446      1.00000
      5      -5.8559      1.00000
      6      -5.8559      1.00000
      7       4.1493      1.00000
      8       4.8874     -0.00112
      9       4.8874     -0.00112
     10       5.3331      0.00000
     11      15.5657      0.00000
     12      15.5657      0.00000
     13      17.2867      0.00000
     14      17.9445      0.00000

 k-point  15 :       0.0000    0.0000    0.3333
  band No.  band energies     occupation 
      1     -14.9390      1.00000
      2     -14.7910      1.00000
      3      -3.3715      1.00000
      4      -2.3875      1.00000
      5       1.7108      1.00000
      6       1.7109      1.00000
      7       1.7548      1.00000
      8       1.7549      1.00000
      9      10.3099      0.00000
     10      13.2541      0.00000
     11      13.2541      0.00000
     12      13.2561      0.00000
     13      13.3015      0.00000
     14      13.3016      0.00000

 k-point  16 :       0.1667    0.0000    0.3333
  band No.  band energies     occupation 
      1     -14.2789      1.00000
      2     -14.1367      1.00000
      3      -2.5760      1.00000
      4      -1.6109      1.00000
      5      -0.6009      1.00000
      6      -0.5550      1.00000
      7       0.5734      1.00000
      8       0.5987      1.00000
      9      11.0706      0.00000
     10      13.1278      0.00000
     11      13.2644      0.00000
     12      13.9492      0.00000
     13      14.3315      0.00000
     14      14.5268      0.00000

 k-point  17 :       0.3333    0.0000    0.3333
  band No.  band energies     occupation 
      1     -12.3314      1.00000
      2     -12.2051      1.00000
      3      -4.9532      1.00000
      4      -4.8807      1.00000
      5      -1.0626      1.00000
      6      -1.0267      1.00000
      7      -0.2878      1.00000
      8       0.5650      1.00000
      9       9.5349      0.00000
     10      10.0294      0.00000
     11      12.4188      0.00000
     12      12.5629      0.00000
     13      13.5191      0.00000
     14      16.0080      0.00000

 k-point  18 :       0.5000    0.0000    0.3333
  band No.  band energies     occupation 
      1      -9.6200      1.00000
      2      -9.5605      1.00000
      3      -8.5587      1.00000
      4      -8.5103      1.00000
      5      -1.6872      1.00000
      6      -1.6525      1.00000
      7       2.2191      1.00000
      8       2.5976      1.00000
      9       6.3272      0.00000
     10       6.7164      0.00000
     11      12.0763      0.00000
     12      12.2710      0.00000
     13      16.9354      0.00000
     14      17.0150      0.00000

 k-point  19 :       0.1667    0.1667    0.3333
  band No.  band energies     occupation 
      1     -12.9748      1.00000
      2     -12.8443      1.00000
      3      -3.0407      1.00000
      4      -3.0143      1.00000
      5      -1.6930      1.00000
      6      -1.6756      1.00000
      7      -1.0233      1.00000
      8      -0.1157      1.00000
      9      11.1703      0.00000
     10      11.4124      0.00000
     11      12.5882      0.00000
     12      14.7033      0.00000
     13      15.0136      0.00000
     14      15.3460      0.00000

 k-point  20 :       0.3333    0.1667    0.3333
  band No.  band energies     occupation 
      1     -10.4616      1.00000
      2     -10.3530      1.00000
      3      -6.7333      1.00000
      4      -6.6578      1.00000
      5      -3.3383      1.00000
      6      -3.3068      1.00000
      7       1.7876      1.00000
      8       2.4668      1.00000
      9       7.1728      0.00000
     10       7.5529      0.00000
     11      14.7218      0.00000
     12      14.8920      0.00000
     13      15.4076      0.00000
     14      16.5043      0.00000

 k-point  21 :       0.3333    0.3333    0.3333
  band No.  band energies     occupation 
      1      -7.9757      1.00000
      2      -7.8804      1.00000
      3      -7.8666      1.00000
      4      -7.8665      1.00000
      5      -5.8606      1.00000
      6      -5.8606      1.00000
      7       4.3866      1.00000
      8       4.9094     -0.00012
      9       4.9095     -0.00012
     10       5.0569      0.00000
     11      15.1258      0.00000
     12      15.1258      0.00000
     13      17.8570      0.00000
     14      18.8554      0.00000

 k-point  22 :       0.0000    0.0000    0.5000
  band No.  band energies     occupation 
      1     -14.8663      1.00000
      2     -14.8663      1.00000
      3      -2.9013      1.00000
      4      -2.9013      1.00000
      5       1.7024      1.00000
      6       1.7024      1.00000
      7       1.7025      1.00000
      8       1.7025      1.00000
      9      11.6822      0.00000
     10      11.6822      0.00000
     11      13.2594      0.00000
     12      13.2594      0.00000
     13      13.2595      0.00000
     14      13.2595      0.00000

 k-point  23 :       0.1667    0.0000    0.5000
  band No.  band energies     occupation 
      1     -14.2090      1.00000
      2     -14.2090      1.00000
      3      -2.1076      1.00000
      4      -2.1076      1.00000
      5      -0.5761      1.00000
      6      -0.5761      1.00000
      7       0.5859      1.00000
      8       0.5859      1.00000
      9      12.3669      0.00000
     10      12.3669      0.00000
     11      13.2871      0.00000
     12      13.2871      0.00000
     13      14.3986      0.00000
     14      14.3986      0.00000

 k-point  24 :       0.3333    0.0000    0.5000
  band No.  band energies     occupation 
      1     -12.2684      1.00000
      2     -12.2684      1.00000
      3      -4.9122      1.00000
      4      -4.9122      1.00000
      5      -1.0450      1.00000
      6      -1.0450      1.00000
      7       0.1283      1.00000
      8       0.1283      1.00000
      9       9.7764      0.00000
     10       9.7764      0.00000
     11      12.5064      0.00000
     12      12.5064      0.00000
     13      14.6956      0.00000
     14      14.6956      0.00000

 k-point  25 :       0.5000    0.0000    0.5000
  band No.  band energies     occupation 
      1      -9.5905      1.00000
      2      -9.5905      1.00000
      3      -8.5408      1.00000
      4      -8.5408      1.00000
      5      -1.6789      1.00000
      6      -1.6789      1.00000
      7       2.4028      1.00000
      8       2.4029      1.00000
      9       6.4647      0.00000
     10       6.4647      0.00000
     11      12.1679      0.00000
     12      12.1679      0.00000
     13      17.4455      0.00000
     14      17.4455      0.00000

 k-point  26 :       0.1667    0.1667    0.5000
  band No.  band energies     occupation 
      1     -12.9104      1.00000
      2     -12.9104      1.00000
      3      -3.0266      1.00000
      4      -3.0266      1.00000
      5      -1.6795      1.00000
      6      -1.6795      1.00000
      7      -0.5812      1.00000
      8      -0.5812      1.00000
      9      11.2888      0.00000
     10      11.2888      0.00000
     11      13.7581      0.00000
     12      13.7581      0.00000
     13      15.0142      0.00000
     14      15.0142      0.00000

 k-point  27 :       0.3333    0.1667    0.5000
  band No.  band energies     occupation 
      1     -10.4083      1.00000
      2     -10.4083      1.00000
      3      -6.6995      1.00000
      4      -6.6994      1.00000
      5      -3.3192      1.00000
      6      -3.3192      1.00000
      7       2.1217      1.00000
      8       2.1217      1.00000
      9       7.3643      0.00000
     10       7.3643      0.00000
     11      14.8178      0.00000
     12      14.8178      0.00000
     13      15.9546      0.00000
     14      15.9546      0.00000

 k-point  28 :       0.3333    0.3333    0.5000
  band No.  band energies     occupation 
      1      -7.9287      1.00000
      2      -7.9287      1.00000
      3      -7.8661      1.00000
      4      -7.8661      1.00000
      5      -5.8623      1.00000
      6      -5.8623      1.00000
      7       4.7087      1.03076
      8       4.7087      1.03075
      9       4.9166     -0.00006
     10       4.9166     -0.00006
     11      14.9578      0.00000
     12      14.9578      0.00000
     13      18.6034      0.00000
     14      18.6034      0.00000


--------------------------------------------------------------------------------------------------------


 soft charge-density along one line, spin component           1
         0         1         2         3         4         5         6         7         8         9
 total charge-density along one line
 
 soft charge-density along one line, spin component           2
         0         1         2         3         4         5         6         7         8         9
 total charge-density along one line
 
 pseudopotential strength for first ion, spin component:           1
  9.774   0.006   0.000   0.000   0.000   0.000   0.000   0.000
  0.006  -0.002   0.000   0.000   0.000   0.000   0.000   0.000
  0.000   0.000  -3.960   0.000   0.000  -0.015   0.000   0.000
  0.000   0.000   0.000  -3.960   0.000   0.000  -0.013   0.000
  0.000   0.000   0.000   0.000  -3.960   0.000   0.000  -0.015
  0.000   0.000  -0.015   0.000   0.000  -0.764   0.000   0.000
  0.000   0.000   0.000  -0.013   0.000   0.000  -0.764   0.000
  0.000   0.000   0.000   0.000  -0.015   0.000   0.000  -0.764
 pseudopotential strength for first ion, spin component:           2
  9.756   0.005   0.000   0.000   0.000   0.000   0.000   0.000
  0.005  -0.002   0.000   0.000   0.000   0.000   0.000   0.000
  0.000   0.000  -3.960   0.000   0.000  -0.013   0.000   0.000
  0.000   0.000   0.000  -3.946   0.000   0.000  -0.008   0.000
  0.000   0.000   0.000   0.000  -3.960   0.000   0.000  -0.013
  0.000   0.000  -0.013   0.000   0.000  -0.764   0.000   0.000
  0.000   0.000   0.000  -0.008   0.000   0.000  -0.764   0.000
  0.000   0.000   0.000   0.000  -0.013   0.000   0.000  -0.764
 total augmentation occupancy for first ion, spin component:           1
  1.477  -0.914   0.000   0.000   0.000   0.000   0.000   0.000
 -0.914   0.840   0.000   0.000   0.000   0.000   0.000   0.000
  0.000   0.000   1.192   0.000   0.000   0.274   0.000   0.000
  0.000   0.000   0.000   0.899   0.000   0.000   0.157   0.000
  0.000   0.000   0.000   0.000   1.192   0.000   0.000   0.274
  0.000   0.000   0.274   0.000   0.000   0.069   0.000   0.000
  0.000   0.000   0.000   0.157   0.000   0.000   0.029   0.000
  0.000   0.000   0.000   0.000   0.274   0.000   0.000   0.069
 total augmentation occupancy for first ion, spin component:           2
  0.005   0.000   0.000   0.000   0.000   0.000   0.000   0.000
  0.000  -0.002   0.000   0.000   0.000   0.000   0.000   0.000
  0.000   0.000   0.003   0.000   0.000   0.000   0.000   0.000
  0.000   0.000   0.000   0.085   0.000   0.000   0.008   0.000
  0.000   0.000   0.000   0.000   0.003   0.000   0.000   0.000
  0.000   0.000   0.000   0.000   0.000   0.000   0.000   0.000
  0.000   0.000   0.000   0.008   0.000   0.000   0.001   0.000
  0.000   0.000   0.000   0.000   0.000   0.000   0.000   0.000


------------------------ aborting loop because EDIFF is reached ----------------------------------------


 


 total charge     
 
# of ion     s       p       d       tot
----------------------------------------
  1        0.852   1.812   0.000   2.664
  2        0.853   1.808   0.000   2.661
  3        0.853   1.808   0.000   2.661
  4        0.852   1.812   0.000   2.664
------------------------------------------------
tot        3.410   7.240   0.000  10.650
 


 magnetization (x)
 
# of ion     s       p       d       tot
----------------------------------------
  1        0.003   0.046   0.000   0.048
  2       -0.002  -0.022   0.000  -0.024
  3       -0.002  -0.022   0.000  -0.024
  4        0.003   0.046   0.000   0.048
------------------------------------------------
tot        0.001   0.048   0.000   0.049
 
    CHARGE:  cpu time    0.21: real time    0.21
    FORLOC:  cpu time    0.01: real time    0.01
    FORNL :  cpu time    0.27: real time    0.27
    STRESS:  cpu time    0.31: real time    0.31
    FORHAR:  cpu time    0.02: real time    0.02
    MIXING:  cpu time    0.00: real time    0.00

  FORCE on cell =-STRESS in cart. coord.  units (eV):
  Direction    XX          YY          ZZ          XY          YZ          ZX
  --------------------------------------------------------------------------------------
  Alpha Z    37.04767    37.04767    37.04767
  Ewald      78.34827    78.34827  -617.29730     0.00000     0.00000     0.00000
  Hartree   160.63373   160.63373  -138.40548     0.00000     0.00000     0.00000
  E(xc)     -58.47891   -58.47891   -60.63020     0.00000     0.00000     0.00000
  Local    -444.89271  -444.89280   514.93641    -0.00008     0.00000     0.00000
  n-local   -13.44638   -14.13461   -12.61005    -0.69627     0.02571     0.02896
  augment    -1.42989    -1.42981    -1.31851     0.00007     0.00000     0.00000
  Kinetic   236.82291   243.48966   274.57617     5.15440    -0.30272    -0.31397
  Fock        0.00000     0.00000     0.00000     0.00000     0.00000     0.00000
  -------------------------------------------------------------------------------------
  Total      -2.40607    -2.40607    -3.70128     0.00000     0.00000     0.00000
  in kB    -109.54870  -109.54870  -168.52015     0.00000     0.00000     0.00000
  external pressure =     -129.21 kB  Pullay stress =        0.00 kB


 VOLUME and BASIS-vectors are now :
 -----------------------------------------------------------------------------
  energy-cutoff  :      300.00
  volume of cell :       35.19
      direct lattice vectors                 reciprocal lattice vectors
     2.461200000  0.000000000  0.000000000     0.406305867  0.234580802  0.000000000
    -1.230600000  2.131461724  0.000000000     0.000000000  0.469161603  0.000000000
     0.000000000  0.000000000  6.707900000     0.000000000  0.000000000  0.149077953

  length of vectors
     2.461200000  2.461200000  6.707900000     0.469161603  0.469161603  0.149077953


 FORCES acting on ions
    electron-ion (+dipol)            ewald-force                    non-local-force                 convergence-correction
 -----------------------------------------------------------------------------------------------
   0.186E-05 -.108E-05 0.132E-13   0.624E-11 -.358E-11 -.182E-13   0.139E-16 -.555E-16 0.000E+00   -.197E-06 0.114E-06 -.914E-13
   -.215E-05 0.124E-05 -.433E-12   -.624E-11 0.358E-11 -.182E-13   0.000E+00 0.000E+00 0.000E+00   0.198E-06 -.114E-06 -.912E-13
   -.315E-05 0.182E-05 -.414E-12   -.126E-10 0.731E-11 0.182E-13   0.000E+00 0.000E+00 0.000E+00   -.198E-06 0.114E-06 0.851E-13
   0.317E-05 -.183E-05 -.204E-11   0.126E-10 -.731E-11 0.182E-13   -.416E-16 0.555E-16 0.000E+00   0.197E-06 -.114E-06 0.845E-13
 -----------------------------------------------------------------------------------------------
   -.280E-06 0.162E-06 -.287E-11   0.658E-14 -.737E-15 0.316E-29   -.278E-16 0.000E+00 0.000E+00   -.931E-10 0.537E-10 -.129E-13
 
 
 POSITION                                       TOTAL-FORCE (eV/Angst)
 -----------------------------------------------------------------------------------
      0.00000      0.00000      0.00000         0.000000      0.000000      0.000000
      0.00000      1.42097      0.00000         0.000000      0.000000      0.000000
      0.00000      1.42097      3.35395         0.000000      0.000000      0.000000
      1.23060      0.71049      3.35395         0.000000      0.000000      0.000000
 -----------------------------------------------------------------------------------
    total drift:                                0.000000      0.000000      0.000000


--------------------------------------------------------------------------------------------------------



  FREE ENERGIE OF THE ION-ELECTRON SYSTEM (eV)
  ---------------------------------------------------
  free  energy   TOTEN  =       -36.930085 eV

  energy  without entropy=      -36.930220  energy(sigma->0) =      -36.930130
 


--------------------------------------------------------------------------------------------------------


    POTLOK:  cpu time    0.23: real time    0.23


--------------------------------------------------------------------------------------------------------


 writing wavefunctions
     LOOP+:  cpu time   37.29: real time   37.51
    4ORBIT:  cpu time    0.00: real time    0.00
 


 total charge     
 
# of ion     s       p       d       tot
----------------------------------------
  1        0.852   1.812   0.000   2.664
  2        0.853   1.808   0.000   2.661
  3        0.853   1.808   0.000   2.661
  4        0.852   1.812   0.000   2.664
------------------------------------------------
tot        3.410   7.240   0.000  10.650
 


 magnetization (x)
 
# of ion     s       p       d       tot
----------------------------------------
  1        0.003   0.046   0.000   0.048
  2       -0.002  -0.022   0.000  -0.024
  3       -0.002  -0.022   0.000  -0.024
  4        0.003   0.046   0.000   0.048
------------------------------------------------
tot        0.001   0.048   0.000   0.049
 

 total amount of memory used by VASP on root node    44152. kBytes
========================================================================

   base      :      30000. kBytes
   nonl-proj :        812. kBytes
   fftplans  :       2184. kBytes
   grid      :       5237. kBytes
   one-center:         24. kBytes
   wavefun   :       5895. kBytes
 
  
  
 General timing and accounting informations for this job:
 ========================================================
  
                  Total CPU time used (sec):       38.158
                            User time (sec):       37.866
                          System time (sec):        0.292
                         Elapsed time (sec):       38.399
  
                   Maximum memory used (kb):           0.
                   Average memory used (kb):           0.
  
                          Minor page faults:        21468
                          Major page faults:            0
                 Voluntary context switches:         4819
