PROCAR lm decomposed
# of k-points:   28         # of bands:  14         # of ions:   4

 k-point    1 :    0.00000000 0.00000000 0.00000000     weight = 0.00462963

band   1 # energy  -15.03971656 # occ.  1.00000000
 
ion      s     py     pz     px    dxy    dyz    dz2    dxz    dx2    tot
  1  0.157  0.000  0.000  0.000  0.000  0.000  0.000  0.000  0.000  0.157
  2  0.157  0.000  0.000  0.000  0.000  0.000  0.000  0.000  0.000  0.157
  3  0.157  0.000  0.000  0.000  0.000  0.000  0.000  0.000  0.000  0.157
  4  0.157  0.000  0.000  0.000  0.000  0.000  0.000  0.000  0.000  0.157
tot  0.628  0.000  0.000  0.000  0.000  0.000  0.000  0.000  0.000  0.628
 
band   2 # energy  -14.74149773 # occ.  1.00000000
 
ion      s     py     pz     px    dxy    dyz    dz2    dxz    dx2    tot
  1  0.163  0.000  0.000  0.000  0.000  0.000  0.000  0.000  0.000  0.163
  2  0.162  0.000  0.000  0.000  0.000  0.000  0.000  0.000  0.000  0.162
  3  0.162  0.000  0.000  0.000  0.000  0.000  0.000  0.000  0.000  0.162
  4  0.163  0.000  0.000  0.000  0.000  0.000  0.000  0.000  0.000  0.163
tot  0.650  0.000  0.000  0.000  0.000  0.000  0.000  0.000  0.000  0.650
 
band   3 # energy   -3.86514283 # occ.  1.00000000
 
ion      s     py     pz     px    dxy    dyz    dz2    dxz    dx2    tot
  1  0.000  0.000  0.099  0.000  0.000  0.000  0.000  0.000  0.000  0.099
  2  0.000  0.000  0.096  0.000  0.000  0.000  0.000  0.000  0.000  0.096
  3  0.000  0.000  0.096  0.000  0.000  0.000  0.000  0.000  0.000  0.096
  4  0.000  0.000  0.099  0.000  0.000  0.000  0.000  0.000  0.000  0.099
tot  0.000  0.000  0.389  0.000  0.000  0.000  0.000  0.000  0.000  0.389
 
band   4 # energy   -1.84862610 # occ.  1.00000000
 
ion      s     py     pz     px    dxy    dyz    dz2    dxz    dx2    tot
  1  0.000  0.000  0.129  0.000  0.000  0.000  0.000  0.000  0.000  0.129
  2  0.000  0.000  0.126  0.000  0.000  0.000  0.000  0.000  0.000  0.126
  3  0.000  0.000  0.126  0.000  0.000  0.000  0.000  0.000  0.000  0.126
  4  0.000  0.000  0.129  0.000  0.000  0.000  0.000  0.000  0.000  0.129
tot  0.000  0.000  0.510  0.000  0.000  0.000  0.000  0.000  0.000  0.510
 
band   5 # energy    1.68985653 # occ.  1.00000000
 
ion      s     py     pz     px    dxy    dyz    dz2    dxz    dx2    tot
  1  0.000  0.052  0.000  0.156  0.000  0.000  0.000  0.000  0.000  0.208
  2  0.000  0.052  0.000  0.157  0.000  0.000  0.000  0.000  0.000  0.209
  3  0.000  0.052  0.000  0.157  0.000  0.000  0.000  0.000  0.000  0.209
  4  0.000  0.052  0.000  0.156  0.000  0.000  0.000  0.000  0.000  0.208
tot  0.000  0.208  0.000  0.625  0.000  0.000  0.000  0.000  0.000  0.833
 
band   6 # energy    1.68994660 # occ.  1.00000000
 
ion      s     py     pz     px    dxy    dyz    dz2    dxz    dx2    tot
  1  0.000  0.156  0.000  0.052  0.000  0.000  0.000  0.000  0.000  0.208
  2  0.000  0.157  0.000  0.052  0.000  0.000  0.000  0.000  0.000  0.209
  3  0.000  0.157  0.000  0.052  0.000  0.000  0.000  0.000  0.000  0.209
  4  0.000  0.156  0.000  0.052  0.000  0.000  0.000  0.000  0.000  0.208
tot  0.000  0.625  0.000  0.208  0.000  0.000  0.000  0.000  0.000  0.833
 
band   7 # energy    1.73941906 # occ.  1.00000000
 
ion      s     py     pz     px    dxy    dyz    dz2    dxz    dx2    tot
  1  0.000  0.053  0.000  0.158  0.000  0.000  0.000  0.000  0.000  0.210
  2  0.000  0.052  0.000  0.156  0.000  0.000  0.000  0.000  0.000  0.208
  3  0.000  0.052  0.000  0.156  0.000  0.000  0.000  0.000  0.000  0.208
  4  0.000  0.053  0.000  0.158  0.000  0.000  0.000  0.000  0.000  0.210
tot  0.000  0.209  0.000  0.627  0.000  0.000  0.000  0.000  0.000  0.836
 
band   8 # energy    1.73950751 # occ.  1.00000000
 
ion      s     py     pz     px    dxy    dyz    dz2    dxz    dx2    tot
  1  0.000  0.158  0.000  0.053  0.000  0.000  0.000  0.000  0.000  0.210
  2  0.000  0.156  0.000  0.052  0.000  0.000  0.000  0.000  0.000  0.208
  3  0.000  0.156  0.000  0.052  0.000  0.000  0.000  0.000  0.000  0.208
  4  0.000  0.158  0.000  0.053  0.000  0.000  0.000  0.000  0.000  0.210
tot  0.000  0.627  0.000  0.209  0.000  0.000  0.000  0.000  0.000  0.836
 
band   9 # energy    8.97799702 # occ.  0.00000000
 
ion      s     py     pz     px    dxy    dyz    dz2    dxz    dx2    tot
  1  0.020  0.000  0.000  0.000  0.000  0.000  0.000  0.000  0.000  0.020
  2  0.020  0.000  0.000  0.000  0.000  0.000  0.000  0.000  0.000  0.020
  3  0.020  0.000  0.000  0.000  0.000  0.000  0.000  0.000  0.000  0.020
  4  0.020  0.000  0.000  0.000  0.000  0.000  0.000  0.000  0.000  0.020
tot  0.081  0.000  0.000  0.000  0.000  0.000  0.000  0.000  0.000  0.081
 
band  10 # energy   13.28263505 # occ.  0.00000000
 
ion      s     py     pz     px    dxy    dyz    dz2    dxz    dx2    tot
  1  0.000  0.032  0.000  0.097  0.000  0.000  0.000  0.000  0.000  0.129
  2  0.000  0.033  0.000  0.100  0.000  0.000  0.000  0.000  0.000  0.134
  3  0.000  0.034  0.000  0.101  0.000  0.000  0.000  0.000  0.000  0.134
  4  0.000  0.032  0.000  0.097  0.000  0.000  0.000  0.000  0.000  0.129
tot  0.000  0.131  0.000  0.394  0.000  0.000  0.000  0.000  0.000  0.526
 
band  11 # energy   13.28268539 # occ.  0.00000000
 
ion      s     py     pz     px    dxy    dyz    dz2    dxz    dx2    tot
  1  0.000  0.097  0.000  0.032  0.000  0.000  0.000  0.000  0.000  0.129
  2  0.000  0.100  0.000  0.033  0.000  0.000  0.000  0.000  0.000  0.134
  3  0.000  0.101  0.000  0.034  0.000  0.000  0.000  0.000  0.000  0.134
  4  0.000  0.097  0.000  0.032  0.000  0.000  0.000  0.000  0.000  0.129
tot  0.000  0.394  0.000  0.131  0.000  0.000  0.000  0.000  0.000  0.526
 
band  12 # energy   13.32070100 # occ.  0.00000000
 
ion      s     py     pz     px    dxy    dyz    dz2    dxz    dx2    tot
  1  0.000  0.034  0.000  0.101  0.000  0.000  0.000  0.000  0.000  0.134
  2  0.000  0.033  0.000  0.098  0.000  0.000  0.000  0.000  0.000  0.131
  3  0.000  0.033  0.000  0.098  0.000  0.000  0.000  0.000  0.000  0.131
  4  0.000  0.034  0.000  0.101  0.000  0.000  0.000  0.000  0.000  0.134
tot  0.000  0.132  0.000  0.397  0.000  0.000  0.000  0.000  0.000  0.530
 
band  13 # energy   13.32075681 # occ.  0.00000000
 
ion      s     py     pz     px    dxy    dyz    dz2    dxz    dx2    tot
  1  0.000  0.101  0.000  0.034  0.000  0.000  0.000  0.000  0.000  0.134
  2  0.000  0.098  0.000  0.033  0.000  0.000  0.000  0.000  0.000  0.131
  3  0.000  0.098  0.000  0.033  0.000  0.000  0.000  0.000  0.000  0.131
  4  0.000  0.101  0.000  0.034  0.000  0.000  0.000  0.000  0.000  0.134
tot  0.000  0.397  0.000  0.132  0.000  0.000  0.000  0.000  0.000  0.530
 
band  14 # energy   15.31079776 # occ.  0.00000000
 
ion      s     py     pz     px    dxy    dyz    dz2    dxz    dx2    tot
  1  0.000  0.000  0.093  0.000  0.000  0.000  0.000  0.000  0.000  0.093
  2  0.000  0.000  0.060  0.000  0.000  0.000  0.000  0.000  0.000  0.060
  3  0.000  0.000  0.060  0.000  0.000  0.000  0.000  0.000  0.000  0.060
  4  0.000  0.000  0.093  0.000  0.000  0.000  0.000  0.000  0.000  0.093
tot  0.000  0.000  0.306  0.000  0.000  0.000  0.000  0.000  0.000  0.306
 

 k-point    2 :    0.16666667 0.00000000 0.00000000     weight = 0.02777778

band   1 # energy  -14.37795284 # occ.  1.00000000
 
ion      s     py     pz     px    dxy    dyz    dz2    dxz    dx2    tot
  1  0.154  0.002  0.000  0.005  0.000  0.000  0.000  0.000  0.000  0.160
  2  0.152  0.002  0.000  0.005  0.000  0.000  0.000  0.000  0.000  0.159
  3  0.152  0.002  0.000  0.005  0.000  0.000  0.000  0.000  0.000  0.159
  4  0.154  0.002  0.000  0.005  0.000  0.000  0.000  0.000  0.000  0.160
tot  0.612  0.007  0.000  0.021  0.000  0.000  0.000  0.000  0.000  0.639
 
band   2 # energy  -14.09198529 # occ.  1.00000000
 
ion      s     py     pz     px    dxy    dyz    dz2    dxz    dx2    tot
  1  0.159  0.002  0.000  0.005  0.000  0.000  0.000  0.000  0.000  0.166
  2  0.157  0.002  0.000  0.005  0.000  0.000  0.000  0.000  0.000  0.165
  3  0.157  0.002  0.000  0.005  0.000  0.000  0.000  0.000  0.000  0.165
  4  0.159  0.002  0.000  0.005  0.000  0.000  0.000  0.000  0.000  0.166
tot  0.632  0.007  0.000  0.021  0.000  0.000  0.000  0.000  0.000  0.661
 
band   3 # energy   -3.06191157 # occ.  1.00000000
 
ion      s     py     pz     px    dxy    dyz    dz2    dxz    dx2    tot
  1  0.000  0.000  0.100  0.000  0.000  0.000  0.000  0.000  0.000  0.100
  2  0.000  0.000  0.097  0.000  0.000  0.000  0.000  0.000  0.000  0.097
  3  0.000  0.000  0.097  0.000  0.000  0.000  0.000  0.000  0.000  0.097
  4  0.000  0.000  0.100  0.000  0.000  0.000  0.000  0.000  0.000  0.100
tot  0.000  0.000  0.395  0.000  0.000  0.000  0.000  0.000  0.000  0.395
 
band   4 # energy   -1.12755919 # occ.  1.00000000
 
ion      s     py     pz     px    dxy    dyz    dz2    dxz    dx2    tot
  1  0.000  0.000  0.131  0.000  0.000  0.000  0.000  0.000  0.000  0.131
  2  0.000  0.000  0.126  0.000  0.000  0.000  0.000  0.000  0.000  0.126
  3  0.000  0.000  0.126  0.000  0.000  0.000  0.000  0.000  0.000  0.126
  4  0.000  0.000  0.131  0.000  0.000  0.000  0.000  0.000  0.000  0.131
tot  0.000  0.000  0.514  0.000  0.000  0.000  0.000  0.000  0.000  0.514
 
band   5 # energy   -0.62654428 # occ.  1.00000000
 
ion      s     py     pz     px    dxy    dyz    dz2    dxz    dx2    tot
  1  0.028  0.042  0.000  0.127  0.000  0.000  0.000  0.000  0.000  0.197
  2  0.028  0.042  0.000  0.126  0.000  0.000  0.000  0.000  0.000  0.196
  3  0.028  0.042  0.000  0.126  0.000  0.000  0.000  0.000  0.000  0.196
  4  0.028  0.042  0.000  0.127  0.000  0.000  0.000  0.000  0.000  0.197
tot  0.112  0.169  0.000  0.507  0.000  0.000  0.000  0.000  0.000  0.788
 
band   6 # energy   -0.57210578 # occ.  1.00000000
 
ion      s     py     pz     px    dxy    dyz    dz2    dxz    dx2    tot
  1  0.027  0.043  0.000  0.128  0.000  0.000  0.000  0.000  0.000  0.198
  2  0.027  0.042  0.000  0.127  0.000  0.000  0.000  0.000  0.000  0.197
  3  0.027  0.042  0.000  0.127  0.000  0.000  0.000  0.000  0.000  0.197
  4  0.027  0.043  0.000  0.128  0.000  0.000  0.000  0.000  0.000  0.198
tot  0.109  0.170  0.000  0.511  0.000  0.000  0.000  0.000  0.000  0.790
 
band   7 # energy    0.54269518 # occ.  1.00000000
 
ion      s     py     pz     px    dxy    dyz    dz2    dxz    dx2    tot
  1  0.000  0.152  0.000  0.051  0.000  0.000  0.000  0.000  0.000  0.203
  2  0.000  0.152  0.000  0.051  0.000  0.000  0.000  0.000  0.000  0.202
  3  0.000  0.152  0.000  0.051  0.000  0.000  0.000  0.000  0.000  0.202
  4  0.000  0.152  0.000  0.051  0.000  0.000  0.000  0.000  0.000  0.203
tot  0.000  0.608  0.000  0.203  0.000  0.000  0.000  0.000  0.000  0.810
 
band   8 # energy    0.60730736 # occ.  1.00000000
 
ion      s     py     pz     px    dxy    dyz    dz2    dxz    dx2    tot
  1  0.000  0.153  0.000  0.051  0.000  0.000  0.000  0.000  0.000  0.204
  2  0.000  0.152  0.000  0.051  0.000  0.000  0.000  0.000  0.000  0.203
  3  0.000  0.152  0.000  0.051  0.000  0.000  0.000  0.000  0.000  0.203
  4  0.000  0.153  0.000  0.051  0.000  0.000  0.000  0.000  0.000  0.204
tot  0.000  0.611  0.000  0.204  0.000  0.000  0.000  0.000  0.000  0.815
 
band   9 # energy    9.78457059 # occ.  0.00000000
 
ion      s     py     pz     px    dxy    dyz    dz2    dxz    dx2    tot
  1  0.017  0.001  0.000  0.003  0.000  0.000  0.000  0.000  0.000  0.021
  2  0.017  0.001  0.000  0.003  0.000  0.000  0.000  0.000  0.000  0.021
  3  0.017  0.001  0.000  0.003  0.000  0.000  0.000  0.000  0.000  0.021
  4  0.017  0.001  0.000  0.003  0.000  0.000  0.000  0.000  0.000  0.021
tot  0.068  0.004  0.000  0.012  0.000  0.000  0.000  0.000  0.000  0.084
 
band  10 # energy   13.10423581 # occ.  0.00000000
 
ion      s     py     pz     px    dxy    dyz    dz2    dxz    dx2    tot
  1  0.031  0.022  0.000  0.065  0.000  0.000  0.000  0.000  0.000  0.117
  2  0.031  0.023  0.000  0.069  0.000  0.000  0.000  0.000  0.000  0.123
  3  0.031  0.023  0.000  0.069  0.000  0.000  0.000  0.000  0.000  0.123
  4  0.031  0.022  0.000  0.065  0.000  0.000  0.000  0.000  0.000  0.117
tot  0.124  0.089  0.000  0.267  0.000  0.000  0.000  0.000  0.000  0.480
 
band  11 # energy   13.28333529 # occ.  0.00000000
 
ion      s     py     pz     px    dxy    dyz    dz2    dxz    dx2    tot
  1  0.032  0.023  0.000  0.069  0.000  0.000  0.000  0.000  0.000  0.124
  2  0.031  0.022  0.000  0.067  0.000  0.000  0.000  0.000  0.000  0.120
  3  0.031  0.022  0.000  0.067  0.000  0.000  0.000  0.000  0.000  0.120
  4  0.032  0.023  0.000  0.069  0.000  0.000  0.000  0.000  0.000  0.124
tot  0.128  0.090  0.000  0.271  0.000  0.000  0.000  0.000  0.000  0.489
 
band  12 # energy   14.05857929 # occ.  0.00000000
 
ion      s     py     pz     px    dxy    dyz    dz2    dxz    dx2    tot
  1  0.000  0.000  0.160  0.000  0.000  0.000  0.000  0.000  0.000  0.160
  2  0.000  0.000  0.176  0.000  0.000  0.000  0.000  0.000  0.000  0.176
  3  0.000  0.000  0.176  0.000  0.000  0.000  0.000  0.000  0.000  0.176
  4  0.000  0.000  0.160  0.000  0.000  0.000  0.000  0.000  0.000  0.160
tot  0.000  0.000  0.672  0.000  0.000  0.000  0.000  0.000  0.000  0.672
 
band  13 # energy   14.44741180 # occ.  0.00000000
 
ion      s     py     pz     px    dxy    dyz    dz2    dxz    dx2    tot
  1  0.000  0.000  0.184  0.000  0.000  0.000  0.000  0.000  0.000  0.184
  2  0.000  0.000  0.171  0.000  0.000  0.000  0.000  0.000  0.000  0.171
  3  0.000  0.000  0.171  0.000  0.000  0.000  0.000  0.000  0.000  0.171
  4  0.000  0.000  0.184  0.000  0.000  0.000  0.000  0.000  0.000  0.184
tot  0.000  0.000  0.709  0.000  0.000  0.000  0.000  0.000  0.000  0.709
 
band  14 # energy   15.84080732 # occ.  0.00000000
 
ion      s     py     pz     px    dxy    dyz    dz2    dxz    dx2    tot
  1  0.000  0.032  0.000  0.010  0.000  0.000  0.000  0.000  0.000  0.042
  2  0.000  0.032  0.000  0.011  0.000  0.000  0.000  0.000  0.000  0.043
  3  0.000  0.181  0.000  0.061  0.000  0.000  0.000  0.000  0.000  0.241
  4  0.000  0.180  0.000  0.060  0.000  0.000  0.000  0.000  0.000  0.239
tot  0.000  0.425  0.000  0.142  0.000  0.000  0.000  0.000  0.000  0.566
 

 k-point    3 :    0.33333333 0.00000000 0.00000000     weight = 0.02777778

band   1 # energy  -12.42107915 # occ.  1.00000000
 
ion      s     py     pz     px    dxy    dyz    dz2    dxz    dx2    tot
  1  0.140  0.007  0.000  0.020  0.000  0.000  0.000  0.000  0.000  0.166
  2  0.138  0.007  0.000  0.020  0.000  0.000  0.000  0.000  0.000  0.164
  3  0.138  0.007  0.000  0.020  0.000  0.000  0.000  0.000  0.000  0.164
  4  0.140  0.007  0.000  0.020  0.000  0.000  0.000  0.000  0.000  0.166
tot  0.556  0.026  0.000  0.079  0.000  0.000  0.000  0.000  0.000  0.660
 
band   2 # energy  -12.16896899 # occ.  1.00000000
 
ion      s     py     pz     px    dxy    dyz    dz2    dxz    dx2    tot
  1  0.143  0.007  0.000  0.020  0.000  0.000  0.000  0.000  0.000  0.170
  2  0.142  0.007  0.000  0.021  0.000  0.000  0.000  0.000  0.000  0.169
  3  0.142  0.007  0.000  0.020  0.000  0.000  0.000  0.000  0.000  0.169
  4  0.143  0.007  0.000  0.020  0.000  0.000  0.000  0.000  0.000  0.170
tot  0.570  0.027  0.000  0.081  0.000  0.000  0.000  0.000  0.000  0.679
 
band   3 # energy   -4.99761263 # occ.  1.00000000
 
ion      s     py     pz     px    dxy    dyz    dz2    dxz    dx2    tot
  1  0.067  0.029  0.000  0.087  0.000  0.000  0.000  0.000  0.000  0.183
  2  0.068  0.029  0.000  0.086  0.000  0.000  0.000  0.000  0.000  0.182
  3  0.068  0.029  0.000  0.086  0.000  0.000  0.000  0.000  0.000  0.182
  4  0.067  0.029  0.000  0.087  0.000  0.000  0.000  0.000  0.000  0.183
tot  0.270  0.115  0.000  0.344  0.000  0.000  0.000  0.000  0.000  0.730
 
band   4 # energy   -4.86440898 # occ.  1.00000000
 
ion      s     py     pz     px    dxy    dyz    dz2    dxz    dx2    tot
  1  0.066  0.029  0.000  0.088  0.000  0.000  0.000  0.000  0.000  0.184
  2  0.067  0.029  0.000  0.087  0.000  0.000  0.000  0.000  0.000  0.184
  3  0.067  0.029  0.000  0.087  0.000  0.000  0.000  0.000  0.000  0.184
  4  0.066  0.029  0.000  0.088  0.000  0.000  0.000  0.000  0.000  0.184
tot  0.267  0.117  0.000  0.350  0.000  0.000  0.000  0.000  0.000  0.734
 
band   5 # energy   -1.08278830 # occ.  1.00000000
 
ion      s     py     pz     px    dxy    dyz    dz2    dxz    dx2    tot
  1  0.000  0.149  0.000  0.050  0.000  0.000  0.000  0.000  0.000  0.199
  2  0.000  0.149  0.000  0.050  0.000  0.000  0.000  0.000  0.000  0.199
  3  0.000  0.149  0.000  0.050  0.000  0.000  0.000  0.000  0.000  0.199
  4  0.000  0.149  0.000  0.050  0.000  0.000  0.000  0.000  0.000  0.199
tot  0.000  0.596  0.000  0.199  0.000  0.000  0.000  0.000  0.000  0.795
 
band   6 # energy   -1.01063387 # occ.  1.00000000
 
ion      s     py     pz     px    dxy    dyz    dz2    dxz    dx2    tot
  1  0.000  0.150  0.000  0.050  0.000  0.000  0.000  0.000  0.000  0.200
  2  0.000  0.150  0.000  0.050  0.000  0.000  0.000  0.000  0.000  0.200
  3  0.000  0.150  0.000  0.050  0.000  0.000  0.000  0.000  0.000  0.200
  4  0.000  0.150  0.000  0.050  0.000  0.000  0.000  0.000  0.000  0.200
tot  0.000  0.600  0.000  0.200  0.000  0.000  0.000  0.000  0.000  0.801
 
band   7 # energy   -0.74132195 # occ.  1.00000000
 
ion      s     py     pz     px    dxy    dyz    dz2    dxz    dx2    tot
  1  0.000  0.000  0.105  0.000  0.000  0.000  0.000  0.000  0.000  0.105
  2  0.000  0.000  0.103  0.000  0.000  0.000  0.000  0.000  0.000  0.103
  3  0.000  0.000  0.103  0.000  0.000  0.000  0.000  0.000  0.000  0.103
  4  0.000  0.000  0.105  0.000  0.000  0.000  0.000  0.000  0.000  0.105
tot  0.000  0.000  0.417  0.000  0.000  0.000  0.000  0.000  0.000  0.417
 
band   8 # energy    0.96504037 # occ.  1.00000000
 
ion      s     py     pz     px    dxy    dyz    dz2    dxz    dx2    tot
  1  0.000  0.000  0.138  0.000  0.000  0.000  0.000  0.000  0.000  0.138
  2  0.000  0.000  0.128  0.000  0.000  0.000  0.000  0.000  0.000  0.128
  3  0.000  0.000  0.128  0.000  0.000  0.000  0.000  0.000  0.000  0.128
  4  0.000  0.000  0.138  0.000  0.000  0.000  0.000  0.000  0.000  0.138
tot  0.000  0.000  0.532  0.000  0.000  0.000  0.000  0.000  0.000  0.532
 
band   9 # energy    9.29201807 # occ.  0.00000000
 
ion      s     py     pz     px    dxy    dyz    dz2    dxz    dx2    tot
  1  0.000  0.000  0.114  0.000  0.000  0.000  0.000  0.000  0.000  0.114
  2  0.000  0.000  0.140  0.000  0.000  0.000  0.000  0.000  0.000  0.140
  3  0.000  0.000  0.140  0.000  0.000  0.000  0.000  0.000  0.000  0.140
  4  0.000  0.000  0.114  0.000  0.000  0.000  0.000  0.000  0.000  0.114
tot  0.000  0.000  0.507  0.000  0.000  0.000  0.000  0.000  0.000  0.507
 
band  10 # energy   10.22507858 # occ.  0.00000000
 
ion      s     py     pz     px    dxy    dyz    dz2    dxz    dx2    tot
  1  0.000  0.000  0.158  0.000  0.000  0.000  0.000  0.000  0.000  0.158
  2  0.000  0.000  0.141  0.000  0.000  0.000  0.000  0.000  0.000  0.141
  3  0.000  0.000  0.141  0.000  0.000  0.000  0.000  0.000  0.000  0.141
  4  0.000  0.000  0.158  0.000  0.000  0.000  0.000  0.000  0.000  0.158
tot  0.000  0.000  0.599  0.000  0.000  0.000  0.000  0.000  0.000  0.599
 
band  11 # energy   12.10701027 # occ.  0.00000000
 
ion      s     py     pz     px    dxy    dyz    dz2    dxz    dx2    tot
  1  0.027  0.008  0.000  0.023  0.000  0.000  0.000  0.000  0.000  0.058
  2  0.007  0.007  0.000  0.022  0.000  0.000  0.000  0.000  0.000  0.036
  3  0.007  0.007  0.000  0.022  0.000  0.000  0.000  0.000  0.000  0.036
  4  0.027  0.008  0.000  0.023  0.000  0.000  0.000  0.000  0.000  0.058
tot  0.069  0.030  0.000  0.089  0.000  0.000  0.000  0.000  0.000  0.188
 
band  12 # energy   12.36542211 # occ.  0.00000000
 
ion      s     py     pz     px    dxy    dyz    dz2    dxz    dx2    tot
  1  0.051  0.007  0.000  0.021  0.000  0.000  0.000  0.000  0.000  0.079
  2  0.087  0.008  0.000  0.024  0.000  0.000  0.000  0.000  0.000  0.118
  3  0.087  0.008  0.000  0.024  0.000  0.000  0.000  0.000  0.000  0.118
  4  0.051  0.007  0.000  0.021  0.000  0.000  0.000  0.000  0.000  0.079
tot  0.276  0.029  0.000  0.088  0.000  0.000  0.000  0.000  0.000  0.393
 
band  13 # energy   12.74899906 # occ.  0.00000000
 
ion      s     py     pz     px    dxy    dyz    dz2    dxz    dx2    tot
  1  0.087  0.005  0.000  0.016  0.000  0.000  0.000  0.000  0.000  0.108
  2  0.072  0.005  0.000  0.015  0.000  0.000  0.000  0.000  0.000  0.092
  3  0.072  0.005  0.000  0.015  0.000  0.000  0.000  0.000  0.000  0.092
  4  0.087  0.005  0.000  0.016  0.000  0.000  0.000  0.000  0.000  0.108
tot  0.320  0.020  0.000  0.061  0.000  0.000  0.000  0.000  0.000  0.401
 
band  14 # energy   17.52875731 # occ.  0.00000000
 
ion      s     py     pz     px    dxy    dyz    dz2    dxz    dx2    tot
  1  0.000  0.000  0.089  0.000  0.000  0.000  0.000  0.000  0.000  0.089
  2  0.000  0.000  0.070  0.000  0.000  0.000  0.000  0.000  0.000  0.070
  3  0.000  0.000  0.070  0.000  0.000  0.000  0.000  0.000  0.000  0.070
  4  0.000  0.000  0.089  0.000  0.000  0.000  0.000  0.000  0.000  0.089
tot  0.000  0.000  0.319  0.000  0.000  0.000  0.000  0.000  0.000  0.319
 

 k-point    4 :    0.50000000 0.00000000 0.00000000     weight = 0.01388889

band   1 # energy   -9.67865446 # occ.  1.00000000
 
ion      s     py     pz     px    dxy    dyz    dz2    dxz    dx2    tot
  1  0.136  0.009  0.000  0.028  0.000  0.000  0.000  0.000  0.000  0.174
  2  0.156  0.007  0.000  0.020  0.000  0.000  0.000  0.000  0.000  0.182
  3  0.156  0.007  0.000  0.020  0.000  0.000  0.000  0.000  0.000  0.182
  4  0.136  0.009  0.000  0.028  0.000  0.000  0.000  0.000  0.000  0.174
tot  0.584  0.032  0.000  0.096  0.000  0.000  0.000  0.000  0.000  0.712
 
band   2 # energy   -9.57682506 # occ.  1.00000000
 
ion      s     py     pz     px    dxy    dyz    dz2    dxz    dx2    tot
  1  0.168  0.005  0.000  0.016  0.000  0.000  0.000  0.000  0.000  0.190
  2  0.127  0.011  0.000  0.033  0.000  0.000  0.000  0.000  0.000  0.171
  3  0.127  0.011  0.000  0.033  0.000  0.000  0.000  0.000  0.000  0.171
  4  0.168  0.005  0.000  0.016  0.000  0.000  0.000  0.000  0.000  0.190
tot  0.590  0.033  0.000  0.099  0.000  0.000  0.000  0.000  0.000  0.721
 
band   3 # energy   -8.58954490 # occ.  1.00000000
 
ion      s     py     pz     px    dxy    dyz    dz2    dxz    dx2    tot
  1  0.045  0.028  0.000  0.083  0.000  0.000  0.000  0.000  0.000  0.156
  2  0.090  0.021  0.000  0.064  0.000  0.000  0.000  0.000  0.000  0.175
  3  0.090  0.021  0.000  0.064  0.000  0.000  0.000  0.000  0.000  0.175
  4  0.045  0.028  0.000  0.083  0.000  0.000  0.000  0.000  0.000  0.156
tot  0.271  0.098  0.000  0.294  0.000  0.000  0.000  0.000  0.000  0.663
 
band   4 # energy   -8.51193787 # occ.  1.00000000
 
ion      s     py     pz     px    dxy    dyz    dz2    dxz    dx2    tot
  1  0.081  0.023  0.000  0.069  0.000  0.000  0.000  0.000  0.000  0.174
  2  0.056  0.027  0.000  0.080  0.000  0.000  0.000  0.000  0.000  0.162
  3  0.056  0.027  0.000  0.080  0.000  0.000  0.000  0.000  0.000  0.162
  4  0.081  0.023  0.000  0.069  0.000  0.000  0.000  0.000  0.000  0.174
tot  0.273  0.100  0.000  0.299  0.000  0.000  0.000  0.000  0.000  0.671
 
band   5 # energy   -1.72977645 # occ.  1.00000000
 
ion      s     py     pz     px    dxy    dyz    dz2    dxz    dx2    tot
  1  0.000  0.149  0.000  0.050  0.000  0.000  0.000  0.000  0.000  0.198
  2  0.000  0.148  0.000  0.049  0.000  0.000  0.000  0.000  0.000  0.198
  3  0.000  0.148  0.000  0.049  0.000  0.000  0.000  0.000  0.000  0.198
  4  0.000  0.149  0.000  0.050  0.000  0.000  0.000  0.000  0.000  0.198
tot  0.000  0.594  0.000  0.198  0.000  0.000  0.000  0.000  0.000  0.792
 
band   6 # energy   -1.63249945 # occ.  1.00000000
 
ion      s     py     pz     px    dxy    dyz    dz2    dxz    dx2    tot
  1  0.000  0.150  0.000  0.050  0.000  0.000  0.000  0.000  0.000  0.200
  2  0.000  0.150  0.000  0.050  0.000  0.000  0.000  0.000  0.000  0.200
  3  0.000  0.150  0.000  0.050  0.000  0.000  0.000  0.000  0.000  0.200
  4  0.000  0.150  0.000  0.050  0.000  0.000  0.000  0.000  0.000  0.200
tot  0.000  0.599  0.000  0.200  0.000  0.000  0.000  0.000  0.000  0.799
 
band   7 # energy    1.94699360 # occ.  1.00000000
 
ion      s     py     pz     px    dxy    dyz    dz2    dxz    dx2    tot
  1  0.000  0.000  0.104  0.000  0.000  0.000  0.000  0.000  0.000  0.104
  2  0.000  0.000  0.139  0.000  0.000  0.000  0.000  0.000  0.000  0.139
  3  0.000  0.000  0.139  0.000  0.000  0.000  0.000  0.000  0.000  0.139
  4  0.000  0.000  0.104  0.000  0.000  0.000  0.000  0.000  0.000  0.104
tot  0.000  0.000  0.486  0.000  0.000  0.000  0.000  0.000  0.000  0.486
 
band   8 # energy    2.59016599 # occ.  1.00000000
 
ion      s     py     pz     px    dxy    dyz    dz2    dxz    dx2    tot
  1  0.000  0.000  0.170  0.000  0.000  0.000  0.000  0.000  0.000  0.170
  2  0.000  0.000  0.092  0.000  0.000  0.000  0.000  0.000  0.000  0.092
  3  0.000  0.000  0.092  0.000  0.000  0.000  0.000  0.000  0.000  0.092
  4  0.000  0.000  0.170  0.000  0.000  0.000  0.000  0.000  0.000  0.170
tot  0.000  0.000  0.523  0.000  0.000  0.000  0.000  0.000  0.000  0.523
 
band   9 # energy    6.25525679 # occ.  0.00000000
 
ion      s     py     pz     px    dxy    dyz    dz2    dxz    dx2    tot
  1  0.000  0.000  0.051  0.000  0.000  0.000  0.000  0.000  0.000  0.051
  2  0.000  0.000  0.176  0.000  0.000  0.000  0.000  0.000  0.000  0.176
  3  0.000  0.000  0.176  0.000  0.000  0.000  0.000  0.000  0.000  0.176
  4  0.000  0.000  0.051  0.000  0.000  0.000  0.000  0.000  0.000  0.051
tot  0.000  0.000  0.453  0.000  0.000  0.000  0.000  0.000  0.000  0.453
 
band  10 # energy    6.89613709 # occ.  0.00000000
 
ion      s     py     pz     px    dxy    dyz    dz2    dxz    dx2    tot
  1  0.000  0.000  0.171  0.000  0.000  0.000  0.000  0.000  0.000  0.171
  2  0.000  0.000  0.084  0.000  0.000  0.000  0.000  0.000  0.000  0.084
  3  0.000  0.000  0.084  0.000  0.000  0.000  0.000  0.000  0.000  0.084
  4  0.000  0.000  0.171  0.000  0.000  0.000  0.000  0.000  0.000  0.171
tot  0.000  0.000  0.510  0.000  0.000  0.000  0.000  0.000  0.000  0.510
 
band  11 # energy   11.93889992 # occ.  0.00000000
 
ion      s     py     pz     px    dxy    dyz    dz2    dxz    dx2    tot
  1  0.086  0.005  0.000  0.015  0.000  0.000  0.000  0.000  0.000  0.106
  2  0.088  0.005  0.000  0.015  0.000  0.000  0.000  0.000  0.000  0.108
  3  0.088  0.005  0.000  0.015  0.000  0.000  0.000  0.000  0.000  0.108
  4  0.086  0.005  0.000  0.015  0.000  0.000  0.000  0.000  0.000  0.106
tot  0.349  0.020  0.000  0.059  0.000  0.000  0.000  0.000  0.000  0.428
 
band  12 # energy   12.33302408 # occ.  0.00000000
 
ion      s     py     pz     px    dxy    dyz    dz2    dxz    dx2    tot
  1  0.093  0.005  0.000  0.015  0.000  0.000  0.000  0.000  0.000  0.113
  2  0.092  0.005  0.000  0.015  0.000  0.000  0.000  0.000  0.000  0.113
  3  0.092  0.005  0.000  0.015  0.000  0.000  0.000  0.000  0.000  0.113
  4  0.093  0.005  0.000  0.015  0.000  0.000  0.000  0.000  0.000  0.113
tot  0.370  0.020  0.000  0.061  0.000  0.000  0.000  0.000  0.000  0.451
 
band  13 # energy   16.07407821 # occ.  0.00000000
 
ion      s     py     pz     px    dxy    dyz    dz2    dxz    dx2    tot
  1  0.002  0.010  0.000  0.031  0.000  0.000  0.000  0.000  0.000  0.043
  2  0.008  0.001  0.000  0.002  0.000  0.000  0.000  0.000  0.000  0.011
  3  0.008  0.001  0.000  0.002  0.000  0.000  0.000  0.000  0.000  0.011
  4  0.002  0.010  0.000  0.031  0.000  0.000  0.000  0.000  0.000  0.043
tot  0.021  0.022  0.000  0.065  0.000  0.000  0.000  0.000  0.000  0.108
 
band  14 # energy   16.15272741 # occ.  0.00000000
 
ion      s     py     pz     px    dxy    dyz    dz2    dxz    dx2    tot
  1  0.006  0.001  0.000  0.003  0.000  0.000  0.000  0.000  0.000  0.011
  2  0.000  0.011  0.000  0.034  0.000  0.000  0.000  0.000  0.000  0.045
  3  0.000  0.011  0.000  0.034  0.000  0.000  0.000  0.000  0.000  0.045
  4  0.006  0.001  0.000  0.003  0.000  0.000  0.000  0.000  0.000  0.011
tot  0.013  0.024  0.000  0.073  0.000  0.000  0.000  0.000  0.000  0.111
 

 k-point    5 :    0.16666667 0.16666667 0.00000000     weight = 0.02777778

band   1 # energy  -13.06532441 # occ.  1.00000000
 
ion      s     py     pz     px    dxy    dyz    dz2    dxz    dx2    tot
  1  0.143  0.015  0.000  0.005  0.000  0.000  0.000  0.000  0.000  0.163
  2  0.142  0.015  0.000  0.005  0.000  0.000  0.000  0.000  0.000  0.162
  3  0.142  0.015  0.000  0.005  0.000  0.000  0.000  0.000  0.000  0.162
  4  0.143  0.015  0.000  0.005  0.000  0.000  0.000  0.000  0.000  0.163
tot  0.570  0.060  0.000  0.020  0.000  0.000  0.000  0.000  0.000  0.650
 
band   2 # energy  -12.80441281 # occ.  1.00000000
 
ion      s     py     pz     px    dxy    dyz    dz2    dxz    dx2    tot
  1  0.147  0.016  0.000  0.005  0.000  0.000  0.000  0.000  0.000  0.168
  2  0.146  0.016  0.000  0.005  0.000  0.000  0.000  0.000  0.000  0.167
  3  0.146  0.016  0.000  0.005  0.000  0.000  0.000  0.000  0.000  0.167
  4  0.147  0.016  0.000  0.005  0.000  0.000  0.000  0.000  0.000  0.168
tot  0.588  0.062  0.000  0.021  0.000  0.000  0.000  0.000  0.000  0.671
 
band   3 # energy   -3.08186921 # occ.  1.00000000
 
ion      s     py     pz     px    dxy    dyz    dz2    dxz    dx2    tot
  1  0.059  0.088  0.000  0.046  0.000  0.000  0.000  0.000  0.000  0.193
  2  0.062  0.090  0.000  0.044  0.000  0.000  0.000  0.000  0.000  0.195
  3  0.062  0.090  0.000  0.044  0.000  0.000  0.000  0.000  0.000  0.195
  4  0.059  0.088  0.000  0.046  0.000  0.000  0.000  0.000  0.000  0.193
tot  0.240  0.355  0.000  0.180  0.000  0.000  0.000  0.000  0.000  0.775
 
band   4 # energy   -3.02791991 # occ.  1.00000000
 