<?xml version="1.0" encoding="ISO-8859-1"?>
<modeling>
 <generator>
  <i name="program" type="string">vasp </i>
  <i name="version" type="string">5.2.12  </i>
  <i name="subversion" type="string">11Nov11 complex                                                      parallel </i>
  <i name="platform" type="string">LinuxIFC </i>
  <i name="date" type="string">2012 10 17 </i>
  <i name="time" type="string">09:53:36 </i>
 </generator>
 <incar>
  <i type="int" name="ISTART">     0</i>
  <i type="string" name="PREC">accurate</i>
  <i type="int" name="ISPIN">     2</i>
  <i name="ENCUT">    300.00000000</i>
  <i type="int" name="NBANDS">    14</i>
  <i type="logical" name="LREAL"> F  </i>
  <i type="int" name="ISMEAR">     1</i>
  <i name="SIGMA">      0.05000000</i>
  <i type="logical" name="LORBIT"> F  </i>
 </incar>
 <kpoints>
  <generation param="Gamma">
   <v type="int" name="divisions">       6        6        6 </v>
   <v name="usershift">      0.00000000       0.00000000       0.00000000 </v>
   <v name="genvec1">      0.16666667       0.00000000       0.00000000 </v>
   <v name="genvec2">      0.00000000       0.16666667       0.00000000 </v>
   <v name="genvec3">      0.00000000       0.00000000       0.16666667 </v>
   <v name="shift">      0.00000000       0.00000000       0.00000000 </v>
  </generation>
  <varray name="kpointlist" >
   <v>       0.00000000       0.00000000       0.00000000 </v>
   <v>       0.16666667       0.00000000       0.00000000 </v>
   <v>       0.33333333       0.00000000       0.00000000 </v>
   <v>       0.50000000       0.00000000       0.00000000 </v>
   <v>       0.16666667       0.16666667       0.00000000 </v>
   <v>       0.33333333       0.16666667       0.00000000 </v>
   <v>       0.33333333       0.33333333       0.00000000 </v>
   <v>       0.00000000       0.00000000       0.16666667 </v>
   <v>       0.16666667       0.00000000       0.16666667 </v>
   <v>       0.33333333       0.00000000       0.16666667 </v>
   <v>       0.50000000       0.00000000       0.16666667 </v>
   <v>       0.16666667       0.16666667       0.16666667 </v>
   <v>       0.33333333       0.16666667       0.16666667 </v>
   <v>       0.33333333       0.33333333       0.16666667 </v>
   <v>       0.00000000       0.00000000       0.33333333 </v>
   <v>       0.16666667       0.00000000       0.33333333 </v>
   <v>       0.33333333       0.00000000       0.33333333 </v>
   <v>       0.50000000       0.00000000       0.33333333 </v>
   <v>       0.16666667       0.16666667       0.33333333 </v>
   <v>       0.33333333       0.16666667       0.33333333 </v>
   <v>       0.33333333       0.33333333       0.33333333 </v>
   <v>       0.00000000       0.00000000       0.50000000 </v>
   <v>       0.16666667       0.00000000       0.50000000 </v>
   <v>       0.33333333       0.00000000       0.50000000 </v>
   <v>       0.50000000       0.00000000       0.50000000 </v>
   <v>       0.16666667       0.16666667       0.50000000 </v>
   <v>       0.33333333       0.16666667       0.50000000 </v>
   <v>       0.33333333       0.33333333       0.50000000 </v>
  </varray>
  <varray name="weights" >
   <v>       0.00462963 </v>
   <v>       0.02777778 </v>
   <v>       0.02777778 </v>
   <v>       0.01388889 </v>
   <v>       0.02777778 </v>
   <v>       0.05555556 </v>
   <v>       0.00925926 </v>
   <v>       0.00925926 </v>
   <v>       0.05555556 </v>
   <v>       0.05555556 </v>
   <v>       0.02777778 </v>
   <v>       0.05555556 </v>
   <v>       0.11111111 </v>
   <v>       0.01851852 </v>
   <v>       0.00925926 </v>
   <v>       0.05555556 </v>
   <v>       0.05555556 </v>
   <v>       0.02777778 </v>
   <v>       0.05555556 </v>
   <v>       0.11111111 </v>
   <v>       0.01851852 </v>
   <v>       0.00462963 </v>
   <v>       0.02777778 </v>
   <v>       0.02777778 </v>
   <v>       0.01388889 </v>
   <v>       0.02777778 </v>
   <v>       0.05555556 </v>
   <v>       0.00925926 </v>
  </varray>
 </kpoints>
 <parameters>
  <separator name="general" >
   <i type="string" name="SYSTEM">unknown system</i>
   <i type="logical" name="LCOMPAT"> F  </i>
  </separator>
  <separator name="electronic" >
   <i type="string" name="PREC">accura</i>
   <i name="ENMAX">    300.00000000</i>
   <i name="ENAUG">    644.87300000</i>
   <i name="EDIFF">      0.00010000</i>
   <i type="int" name="IALGO">    38</i>
   <i type="int" name="IWAVPR">    10</i>
   <i type="int" name="NBANDS">    14</i>
   <i name="NELECT">     16.00000000</i>
   <i type="int" name="TURBO">     0</i>
   <i type="int" name="IRESTART">     0</i>
   <i type="int" name="NREBOOT">     0</i>
   <i type="int" name="NMIN">     0</i>
   <i name="EREF">      0.00000000</i>
   <separator name="electronic smearing" >
    <i type="int" name="ISMEAR">     1</i>
    <i name="SIGMA">      0.05000000</i>
    <i name="KSPACING">      0.50000000</i>
    <i type="logical" name="KGAMMA"> T  </i>
   </separator>
   <separator name="electronic projectors" >
    <i type="logical" name="LREAL"> F  </i>
    <v name="ROPT">      0.00000000</v>
    <i type="int" name="LMAXPAW">  -100</i>
    <i type="int" name="LMAXMIX">     2</i>
    <i type="logical" name="NLSPLINE"> F  </i>
   </separator>
   <separator name="electronic startup" >
    <i type="int" name="ISTART">     0</i>
    <i type="int" name="ICHARG">     2</i>
    <i type="int" name="INIWAV">     1</i>
   </separator>
   <separator name="electronic spin" >
    <i type="int" name="ISPIN">     2</i>
    <i type="logical" name="LNONCOLLINEAR"> F  </i>
    <v name="MAGMOM">      1.00000000      1.00000000      1.00000000      1.00000000</v>
    <i name="NUPDOWN">     -1.00000000</i>
    <i type="logical" name="LSORBIT"> F  </i>
    <v name="SAXIS">      0.00000000      0.00000000      1.00000000</v>
    <i type="logical" name="LSPIRAL"> F  </i>
    <v name="QSPIRAL">      0.00000000      0.00000000      0.00000000</v>
    <i type="logical" name="LZEROZ"> F  </i>
   </separator>
   <separator name="electronic exchange-correlation" >
    <i type="logical" name="LASPH"> F  </i>
    <i type="logical" name="LMETAGGA"> F  </i>
   </separator>
   <separator name="electronic convergence" >
    <i type="int" name="NELM">    60</i>
    <i type="int" name="NELMDL">    -5</i>
    <i type="int" name="NELMIN">     2</i>
    <i name="ENINI">    300.00000000</i>
    <separator name="electronic convergence detail" >
     <i type="logical" name="LDIAG"> T  </i>
     <i type="logical" name="LSUBROT"> T  </i>
     <i name="WEIMIN">      0.00000000</i>
     <i name="EBREAK">      0.00000179</i>
     <i name="DEPER">      0.30000000</i>
     <i type="int" name="NRMM">     4</i>
     <i name="TIME">      0.40000000</i>
    </separator>
   </separator>
   <separator name="electronic mixer" >
    <i name="AMIX">      0.40000000</i>
    <i name="BMIX">      1.00000000</i>
    <i name="AMIN">      0.10000000</i>
    <i name="AMIX_MAG">      1.60000000</i>
    <i name="BMIX_MAG">      1.00000000</i>
    <separator name="electronic mixer details" >
     <i type="int" name="IMIX">     4</i>
     <i type="int" name="MAXMIX">   -45</i>
     <i name="WC">    100.00000000</i>
     <i type="int" name="INIMIX">     1</i>
     <i type="int" name="MIXPRE">     1</i>
     <i type="int" name="MREMOVE">     5</i>
    </separator>
   </separator>
   <separator name="electronic dipolcorrection" >
    <i type="logical" name="LDIPOL"> F  </i>
    <i type="logical" name="LMONO"> F  </i>
    <i type="int" name="IDIPOL">     0</i>
    <i name="EPSILON">      1.00000000</i>
    <v name="DIPOL">   -100.00000000   -100.00000000   -100.00000000</v>
    <i name="EFIELD">      0.00000000</i>
   </separator>
  </separator>
  <separator name="grids" >
   <i type="int" name="NGX">    14</i>
   <i type="int" name="NGY">    14</i>
   <i type="int" name="NGZ">    40</i>
   <i type="int" name="NGXF">    28</i>
   <i type="int" name="NGYF">    28</i>
   <i type="int" name="NGZF">    80</i>
   <i type="logical" name="ADDGRID"> F  </i>
  </separator>
  <separator name="ionic" >
   <i type="int" name="NSW">     0</i>
   <i type="int" name="IBRION">    -1</i>
   <i type="int" name="ISIF">     2</i>
   <i name="PSTRESS">      0.00000000</i>
   <i name="EDIFFG">      0.00100000</i>
   <i type="int" name="NFREE">     0</i>
   <i name="POTIM">      0.50000000</i>
   <i name="SMASS">     -3.00000000</i>
   <i name="SCALEE">      1.00000000</i>
  </separator>
  <separator name="ionic md" >
   <i name="TEBEG">      0.00010000</i>
   <i name="TEEND">      0.00010000</i>
   <i type="int" name="NBLOCK">     1</i>
   <i type="int" name="KBLOCK">     1</i>
   <i type="int" name="NPACO">   256</i>
   <i name="APACO">     16.00000000</i>
  </separator>
  <separator name="symmetry" >
   <i type="int" name="ISYM">     2</i>
   <i name="SYMPREC">      0.00001000</i>
  </separator>
  <separator name="dos" >
   <i type="logical" name="LORBIT"> F  </i>
   <v name="RWIGS">     -1.00000000</v>
   <i type="int" name="NEDOS">   301</i>
   <i name="EMIN">     10.00000000</i>
   <i name="EMAX">    -10.00000000</i>
   <i name="EFERMI">      0.00000000</i>
  </separator>
  <separator name="writing" >
   <i type="int" name="NWRITE">     2</i>
   <i type="logical" name="LWAVE"> T  </i>
   <i type="logical" name="LCHARG"> T  </i>
   <i type="logical" name="LPARD"> F  </i>
   <i type="logical" name="LVTOT"> F  </i>
   <i type="logical" name="LVHAR"> F  </i>
   <i type="logical" name="LELF"> F  </i>
   <i type="logical" name="LOPTICS"> F  </i>
   <v name="STM">      0.00000000      0.00000000      0.00000000      0.00000000      0.00000000      0.00000000      0.00000000</v>
  </separator>
  <separator name="performance" >
   <i type="int" name="NPAR">     1</i>
   <i type="int" name="NSIM">     4</i>
   <i type="int" name="NBLK">    -1</i>
   <i type="logical" name="LPLANE"> T  </i>
   <i type="logical" name="LSCALAPACK"> F  </i>
   <i type="logical" name="LSCAAWARE"> F  </i>
   <i type="logical" name="LSCALU"> F  </i>
   <i type="logical" name="LASYNC"> F  </i>
   <i type="logical" name="LORBITALREAL"> F  </i>
  </separator>
  <separator name="miscellaneous" >
   <i type="int" name="IDIOT">     3</i>
   <i type="logical" name="LMUSIC"> F  </i>
   <v name="POMASS">     12.01100000</v>
   <v name="DARWINR">      0.00000000</v>
   <v name="DARWINV">      1.00000000</v>
   <i type="logical" name="LCORR"> T  </i>
  </separator>
  <i type="logical" name="GGA_COMPAT"> T  </i>
  <i type="logical" name="LBERRY"> F  </i>
  <i type="int" name="ICORELEVEL">     0</i>
  <i type="logical" name="LDAU"> F  </i>
  <i type="int" name="I_CONSTRAINED_M">     0</i>
  <separator name="electronic exchange-correlation" >
   <i type="string" name="GGA">--</i>
   <i type="int" name="VOSKOWN">     0</i>
   <i type="logical" name="LHFCALC"> F  </i>
   <i type="string" name="PRECFOCK"></i>
   <i type="logical" name="LHFONE"> F  </i>
   <i type="logical" name="LRHFCALC"> F  </i>
   <i type="logical" name="LTHOMAS"> F  </i>
   <i type="logical" name="LMODELHF"> F  </i>
   <i name="ENCUT4O">     -1.00000000</i>
   <i type="int" name="EXXOEP">     0</i>
   <i type="int" name="FOURORBIT">     0</i>
   <i name="AEXX">      0.00000000</i>
   <i name="HFALPHA">      0.00000000</i>
   <i name="ALDAX">      1.00000000</i>
   <i name="AGGAX">      1.00000000</i>
   <i name="ALDAC">      1.00000000</i>
   <i name="AGGAC">      1.00000000</i>
   <i type="int" name="NKREDX">     1</i>
   <i type="int" name="NKREDY">     1</i>
   <i type="int" name="NKREDZ">     1</i>
   <i type="logical" name="SHIFTRED"> F  </i>
   <i type="logical" name="ODDONLY"> F  </i>
   <i type="logical" name="EVENONLY"> F  </i>
   <i type="int" name="LMAXFOCK">     0</i>
   <i type="int" name="NMAXFOCKAE">     0</i>
   <i type="logical" name="LFOCKAEDFT"> F  </i>
   <i name="HFSCREEN">      0.00000000</i>
   <i name="HFSCREENC">      0.00000000</i>
  </separator>
  <separator name="vdW DFT" >
   <i type="logical" name="LUSE_VDW"> F  </i>
   <i name="Zab_VDW">     -0.84910000</i>
   <i name="PARAM1">      0.12340000</i>
   <i name="PARAM2">      1.00000000</i>
   <i name="PARAM3">      0.00000000</i>
  </separator>
  <separator name="model GW" >
   <i type="int" name="MODEL_GW">     0</i>
   <i name="MODEL_EPS0">      5.27839982</i>
   <i name="MODEL_ALPHA">      1.00000000</i>
  </separator>
  <separator name="linear response parameters" >
   <i type="logical" name="LEPSILON"> F  </i>
   <i type="logical" name="LRPA"> F  </i>
   <i type="logical" name="LNABLA"> F  </i>
   <i type="logical" name="LVEL"> F  </i>
   <i type="int" name="KINTER">     0</i>
   <i name="CSHIFT">      0.10000000</i>
   <i name="OMEGAMAX">     -1.00000000</i>
  </separator>
  <separator name="orbital magnetization" >
   <i type="logical" name="NUCIND"> F  </i>
   <v name="MAGPOS">      0.00000000      0.00000000      0.00000000</v>
   <i type="logical" name="LNICSALL"> T  </i>
   <i type="logical" name="ORBITALMAG"> F  </i>
   <i type="logical" name="LMAGBLOCH"> F  </i>
   <i type="logical" name="LCHIMAG"> F  </i>
   <i type="logical" name="LGAUGE"> T  </i>
   <i type="int" name="MAGATOM">     0</i>
   <v name="MAGDIPOL">      0.00000000      0.00000000      0.00000000</v>
   <v name="AVECCONST">      0.00000000      0.00000000      0.00000000</v>
  </separator>
  <separator name="response functions" >
   <i type="logical" name="LADDER"> F  </i>
   <i type="logical" name="LHARTREE"> T  </i>
   <i type="int" name="IBSE">     0</i>
   <i type="logical" name="LTCTE"> F  </i>
   <i type="logical" name="LTETE"> F  </i>
   <i type="logical" name="LFXCEPS"> F  </i>
   <i type="logical" name="L2ORDER"> F  </i>
   <i type="logical" name="LUSEW"> F  </i>
   <i name="ENCUTGW">     -2.00000000</i>
   <i name="ENCUTGWSOFT">     -2.00000000</i>
   <i name="ENCUTLF">     -1.00000000</i>
   <i type="int" name="LMAXMP2">    -1</i>
   <i name="SCISSOR">      0.00000000</i>
   <i type="int" name="NOMEGA">     0</i>
   <i type="int" name="NOMEGAR">     0</i>
   <i type="int" name="NBANDSGW">    -1</i>
   <i type="int" name="NBANDSO">    -1</i>
   <i type="int" name="NBANDSV">    -1</i>
   <i name="OPTEMAX">      0.00000000</i>
   <i type="int" name="NELM">     1</i>
   <i type="int" name="DIM">     3</i>
   <i type="int" name="ANTIRES">     0</i>
   <i name="OMEGAMAX">    -30.00000000</i>
   <i name="OMEGATL">   -200.00000000</i>
   <i type="int" name="OMEGAGRID">     0</i>
   <i name="CSHIFT">     -0.10000000</i>
   <i type="logical" name="SELFENERGY"> F  </i>
   <i type="logical" name="LSPECTRAL"> F  </i>
   <i type="logical" name="ODDONLYGW"> F  </i>
   <i type="logical" name="EVENONLYGW"> F  </i>
   <i type="int" name="NKREDLFX">     1</i>
   <i type="int" name="NKREDLFY">     1</i>
   <i type="int" name="NKREDLFZ">     1</i>
   <i type="int" name="MAXMEM">  1800</i>
   <i type="int" name="TELESCOPE">     0</i>
  </separator>
 </parameters>
 <atominfo>
  <atoms>       4 </atoms>
  <types>       1 </types>
  <array name="atoms" >
   <dimension dim="1">ion</dimension>
   <field type="string">element</field>
   <field type="int">atomtype</field>
   <set>
    <rc><c>C </c><c>   1</c></rc>
    <rc><c>C </c><c>   1</c></rc>
    <rc><c>C </c><c>   1</c></rc>
    <rc><c>C </c><c>   1</c></rc>
   </set>
  </array>
  <array name="atomtypes" >
   <dimension dim="1">type</dimension>
   <field type="int">atomspertype</field>
   <field type="string">element</field>
   <field>mass</field>
   <field>valence</field>
   <field type="string">pseudopotential</field>
   <set>
    <rc><c>   4</c><c>C </c><c>     12.01100000</c><c>      4.00000000</c><c> PAW_PBE C 08Apr2002                    </c></rc>
   </set>
  </array>
 </atominfo>
 <structure name="initialpos" >
  <crystal>
   <varray name="basis" >
    <v>       2.46120000       0.00000000       0.00000000 </v>
    <v>      -1.23060000       2.13146172       0.00000000 </v>
    <v>       0.00000000       0.00000000       6.70790000 </v>
   </varray>
   <i name="volume">     35.18933212 </i>
   <varray name="rec_basis" >
    <v>       0.40630587       0.23458080       0.00000000 </v>
    <v>       0.00000000       0.46916160       0.00000000 </v>
    <v>       0.00000000       0.00000000       0.14907795 </v>
   </varray>
  </crystal>
  <varray name="positions" >
   <v>       0.00000000       0.00000000       0.00000000 </v>
   <v>       0.33333333       0.66666667       0.00000000 </v>
   <v>       0.33333333       0.66666667       0.50000000 </v>
   <v>       0.66666667       0.33333333       0.50000000 </v>
  </varray>
 </structure>
 <calculation>
  <scstep>
   <time name="dav">    2.43    2.43</time>
   <time name="total">    2.68    2.68</time>
   <energy>
    <i name="alphaZ">     37.04766603 </i>
    <i name="ewald">   -460.60042082 </i>
    <i name="hartreedc">   -148.78490797 </i>
    <i name="XCdc">     56.10990952 </i>
    <i name="pawpsdc">    150.95130483 </i>
    <i name="pawaedc">   -155.51722924 </i>
    <i name="eentropy">      0.00010248 </i>
    <i name="bandstr">    -50.54713900 </i>
    <i name="atom">    587.59961463 </i>
    <i name="e_fr_energy">     16.25890046 </i>
    <i name="e_wo_entrp">     16.25879798 </i>
    <i name="e_0_energy">     16.25886630 </i>
   </energy>
  </scstep>
  <scstep>
   <time name="dav">    3.07    3.07</time>
   <time name="total">    3.07    3.08</time>
   <energy>
    <i name="e_fr_energy">    -35.67140790 </i>
    <i name="e_wo_entrp">    -35.67145102 </i>
    <i name="e_0_energy">    -35.67142227 </i>
   </energy>
  </scstep>
  <scstep>
   <time name="dav">    2.95    2.95</time>
   <time name="total">    2.96    2.97</time>
   <energy>
    <i name="e_fr_energy">    -37.56211553 </i>
    <i name="e_wo_entrp">    -37.56216259 </i>
    <i name="e_0_energy">    -37.56213122 </i>
   </energy>
  </scstep>
  <scstep>
   <time name="dav">    2.80    2.80</time>
   <time name="total">    2.81    2.82</time>
   <energy>
    <i name="e_fr_energy">    -37.57937012 </i>
    <i name="e_wo_entrp">    -37.57941717 </i>
    <i name="e_0_energy">    -37.57938580 </i>
   </energy>
  </scstep>
  <scstep>
   <time name="dav">    2.95    2.95</time>
   <time name="total">    3.18    3.19</time>
   <energy>
    <i name="e_fr_energy">    -37.57970650 </i>
    <i name="e_wo_entrp">    -37.57975356 </i>
    <i name="e_0_energy">    -37.57972219 </i>
   </energy>
  </scstep>
  <scstep>
   <time name="dav">    2.60    2.60</time>
   <time name="total">    3.05    3.07</time>
   <energy>
    <i name="e_fr_energy">    -37.05411499 </i>
    <i name="e_wo_entrp">    -37.05422942 </i>
    <i name="e_0_energy">    -37.05415313 </i>
   </energy>
  </scstep>
  <scstep>
   <time name="dav">    2.65    2.65</time>
   <time name="total">    3.11    3.12</time>
   <energy>
    <i name="e_fr_energy">    -36.97114600 </i>
    <i name="e_wo_entrp">    -36.97143985 </i>
    <i name="e_0_energy">    -36.97124395 </i>
   </energy>
  </scstep>
  <scstep>
   <time name="dav">    2.64    2.64</time>
   <time name="total">    3.09    3.10</time>
   <energy>
    <i name="e_fr_energy">    -36.91667437 </i>
    <i name="e_wo_entrp">    -36.91682299 </i>
    <i name="e_0_energy">    -36.91672391 </i>
   </energy>
  </scstep>
  <scstep>
   <time name="dav">    2.58    2.58</time>
   <time name="total">    3.03    3.04</time>
   <energy>
    <i name="e_fr_energy">    -36.92884336 </i>
    <i name="e_wo_entrp">    -36.92903574 </i>
    <i name="e_0_energy">    -36.92890749 </i>
   </energy>
  </scstep>
  <scstep>
   <time name="dav">    2.89    2.89</time>
   <time name="total">    3.34    3.36</time>
   <energy>
    <i name="e_fr_energy">    -36.92967664 </i>
    <i name="e_wo_entrp">    -36.92974531 </i>
    <i name="e_0_energy">    -36.92969953 </i>
   </energy>
  </scstep>
  <scstep>
   <time name="dav">    2.60    2.60</time>
   <time name="total">    3.05    3.07</time>
   <energy>
    <i name="e_fr_energy">    -36.93002212 </i>
    <i name="e_wo_entrp">    -36.93014980 </i>
    <i name="e_0_energy">    -36.93006468 </i>
   </energy>
  </scstep>
  <scstep>
   <time name="dav">    2.30    2.30</time>
   <time name="total">    2.54    2.56</time>
   <energy>
    <i name="alphaZ">     37.04766603 </i>
    <i name="ewald">   -460.60042082 </i>
    <i name="hartreedc">   -182.83174392 </i>
    <i name="XCdc">     57.65203588 </i>
    <i name="pawpsdc">    279.19556387 </i>
    <i name="pawaedc">   -284.13586931 </i>
    <i name="eentropy">      0.00013500 </i>
    <i name="bandstr">    -70.85706595 </i>
    <i name="atom">    587.59961463 </i>
    <i name="e_fr_energy">    -36.93008458 </i>
    <i name="e_wo_entrp">    -36.93021958 </i>
    <i name="e_0_energy">    -36.93012958 </i>
   </energy>
  </scstep>
  <parameters_embedded>
   <separator name="dft+d2" >
    <i type="logical" name="LVDW"> F  </i>
   </separator>
  </parameters_embedded>
  <structure>
   <crystal>
    <varray name="basis" >
     <v>       2.46120000       0.00000000       0.00000000 </v>
     <v>      -1.23060000       2.13146172       0.00000000 </v>
     <v>       0.00000000       0.00000000       6.70790000 </v>
    </varray>
    <i name="volume">     35.18933212 </i>
    <varray name="rec_basis" >
     <v>       0.40630587       0.23458080       0.00000000 </v>
     <v>       0.00000000       0.46916160       0.00000000 </v>
     <v>       0.00000000       0.00000000       0.14907795 </v>
    </varray>
   </crystal>
   <varray name="positions" >
    <v>       0.00000000       0.00000000       0.00000000 </v>
    <v>       0.33333333       0.66666667       0.00000000 </v>
    <v>       0.33333333       0.66666667       0.50000000 </v>
    <v>       0.66666667       0.33333333       0.50000000 </v>
   </varray>
  </structure>
  <varray name="forces" >
   <v>       0.00000000       0.00000000       0.00000000 </v>
   <v>       0.00000000       0.00000000       0.00000000 </v>
   <v>       0.00000000       0.00000000       0.00000000 </v>
   <v>       0.00000000       0.00000000       0.00000000 </v>
  </varray>
  <varray name="stress" >
   <v>    -109.54869636       0.00000000       0.00000000 </v>
   <v>       0.00000000    -109.54869636       0.00000000 </v>
   <v>       0.00000000       0.00000000    -168.52015201 </v>
  </varray>
  <energy>
   <i name="e_fr_energy">    -36.93008458 </i>
   <i name="e_wo_entrp">    -36.93012958 </i>
   <i name="e_0_energy">      0.00013500 </i>
  </energy>
  <time name="totalsc">   37.29   37.51</time>
  <eigenvalues>
   <array>
    <dimension dim="1">band</dimension>
    <dimension dim="2">kpoint</dimension>
    <dimension dim="3">spin</dimension>
    <field>eigene</field>
    <field>occ</field>
    <set>
     <set comment="spin 1">
      <set comment="kpoint 1">
       <r>  -15.0397    1.0000 </r>
       <r>  -14.7415    1.0000 </r>
       <r>   -3.8651    1.0000 </r>
       <r>   -1.8486    1.0000 </r>
       <r>    1.6899    1.0000 </r>
       <r>    1.6899    1.0000 </r>
       <r>    1.7394    1.0000 </r>
       <r>    1.7395    1.0000 </r>
       <r>    8.9780    0.0000 </r>
       <r>   13.2826    0.0000 </r>
       <r>   13.2827    0.0000 </r>
       <r>   13.3207    0.0000 </r>
       <r>   13.3208    0.0000 </r>
       <r>   15.3108    0.0000 </r>
      </set>
      <set comment="kpoint 2">
       <r>  -14.3780    1.0000 </r>
       <r>  -14.0920    1.0000 </r>
       <r>   -3.0619    1.0000 </r>
       <r>   -1.1276    1.0000 </r>
       <r>   -0.6265    1.0000 </r>
       <r>   -0.5721    1.0000 </r>
       <r>    0.5427    1.0000 </r>
       <r>    0.6073    1.0000 </r>
       <r>    9.7846    0.0000 </r>
       <r>   13.1042    0.0000 </r>
       <r>   13.2833    0.0000 </r>
       <r>   14.0586    0.0000 </r>
       <r>   14.4474    0.0000 </r>
       <r>   15.8408    0.0000 </r>
      </set>
      <set comment="kpoint 3">
       <r>  -12.4211    1.0000 </r>
       <r>  -12.1690    1.0000 </r>
       <r>   -4.9976    1.0000 </r>
       <r>   -4.8644    1.0000 </r>
       <r>   -1.0828    1.0000 </r>
       <r>   -1.0106    1.0000 </r>
       <r>   -0.7413    1.0000 </r>
       <r>    0.9650    1.0000 </r>
       <r>    9.2920    0.0000 </r>
       <r>   10.2251    0.0000 </r>
       <r>   12.1070    0.0000 </r>
       <r>   12.3654    0.0000 </r>
       <r>   12.7490    0.0000 </r>
       <r>   17.5288    0.0000 </r>
      </set>
      <set comment="kpoint 4">
       <r>   -9.6787    1.0000 </r>
       <r>   -9.5768    1.0000 </r>
       <r>   -8.5895    1.0000 </r>
       <r>   -8.5119    1.0000 </r>
       <r>   -1.7298    1.0000 </r>
       <r>   -1.6325    1.0000 </r>
       <r>    1.9470    1.0000 </r>
       <r>    2.5902    1.0000 </r>
       <r>    6.2553    0.0000 </r>
       <r>    6.8961    0.0000 </r>
       <r>   11.9389    0.0000 </r>
       <r>   12.3330    0.0000 </r>
       <r>   16.0741    0.0000 </r>
       <r>   16.1527    0.0000 </r>
      </set>
      <set comment="kpoint 5">
       <r>  -13.0653    1.0000 </r>
       <r>  -12.8044    1.0000 </r>
       <r>   -3.0819    1.0000 </r>
       <r>   -3.0279    1.0000 </r>
       <r>   -1.7026    1.0000 </r>
       <r>   -1.6665    1.0000 </r>
       <r>   -1.4901    1.0000 </r>
       <r>    0.3059    1.0000 </r>
       <r>   10.9614    0.0000 </r>
       <r>   11.4131    0.0000 </r>
       <r>   11.4635    0.0000 </r>
       <r>   14.7545    0.0000 </r>
       <r>   14.9946    0.0000 </r>
       <r>   16.3791    0.0000 </r>
      </set>
      <set comment="kpoint 6">
       <r>  -10.5431    1.0000 </r>
       <r>  -10.3247    1.0000 </r>
       <r>   -6.7929    1.0000 </r>
       <r>   -6.6415    1.0000 </r>
       <r>   -3.3646    1.0000 </r>
       <r>   -3.2958    1.0000 </r>
       <r>    1.4042    1.0000 </r>
       <r>    2.7292    1.0000 </r>
       <r>    6.9397    0.0000 </r>
       <r>    7.6849    0.0000 </r>
       <r>   14.4943    0.0000 </r>
       <r>   14.6506    0.0000 </r>
       <r>   15.1546    0.0000 </r>
       <r>   17.2148    0.0000 </r>
      </set>
      <set comment="kpoint 7">
       <r>   -7.9964    1.0000 </r>
       <r>   -7.9556    1.0000 </r>
       <r>   -7.9556    1.0000 </r>
       <r>   -7.8066    1.0000 </r>
       <r>   -5.8652    1.0000 </r>
       <r>   -5.8652    1.0000 </r>
       <r>    4.1896    1.0000 </r>
       <r>    4.6017    1.0000 </r>
       <r>    4.6018    1.0000 </r>
       <r>    5.5065    0.0000 </r>
       <r>   15.8618    0.0000 </r>
       <r>   15.8618    0.0000 </r>
       <r>   17.1167    0.0000 </r>
       <r>   17.3315    0.0000 </r>
      </set>
      <set comment="kpoint 8">
       <r>  -15.0208    1.0000 </r>
       <r>  -14.7627    1.0000 </r>
       <r>   -3.7551    1.0000 </r>
       <r>   -2.0162    1.0000 </r>
       <r>    1.6940    1.0000 </r>
       <r>    1.6941    1.0000 </r>
       <r>    1.7452    1.0000 </r>
       <r>    1.7453    1.0000 </r>
       <r>    9.3221    0.0000 </r>
       <r>   13.2866    0.0000 </r>
       <r>   13.2866    0.0000 </r>
       <r>   13.3178    0.0000 </r>
       <r>   13.3178    0.0000 </r>
       <r>   14.6468    0.0000 </r>
      </set>
      <set comment="kpoint 9">
       <r>  -14.3596    1.0000 </r>
       <r>  -14.1123    1.0000 </r>
       <r>   -2.9522    1.0000 </r>
       <r>   -1.2700    1.0000 </r>
       <r>   -0.6214    1.0000 </r>
       <r>   -0.5746    1.0000 </r>
       <r>    0.5463    1.0000 </r>
       <r>    0.6084    1.0000 </r>
       <r>   10.1158    0.0000 </r>
       <r>   13.1075    0.0000 </r>
       <r>   13.2728    0.0000 </r>
       <r>   14.1243    0.0000 </r>
       <r>   14.4323    0.0000 </r>
       <r>   15.3299    0.0000 </r>
      </set>
      <set comment="kpoint 10">
       <r>  -12.4052    1.0000 </r>
       <r>  -12.1857    1.0000 </r>
       <r>   -4.9969    1.0000 </r>
       <r>   -4.8733    1.0000 </r>
       <r>   -1.0732    1.0000 </r>
       <r>   -1.0058    1.0000 </r>
       <r>   -0.6341    1.0000 </r>
       <r>    0.8342    1.0000 </r>
       <r>    9.3334    0.0000 </r>
       <r>   10.1427    0.0000 </r>
       <r>   12.2800    0.0000 </r>
       <r>   12.4395    0.0000 </r>
       <r>   12.8249    0.0000 </r>
       <r>   17.0700    0.0000 </r>
      </set>
      <set comment="kpoint 11">
       <r>   -9.6704    1.0000 </r>
       <r>   -9.5812    1.0000 </r>
       <r>   -8.5866    1.0000 </r>
       <r>   -8.5188    1.0000 </r>
       <r>   -1.7086    1.0000 </r>
       <r>   -1.6330    1.0000 </r>
       <r>    2.0052    1.0000 </r>
       <r>    2.5692    1.0000 </r>
       <r>    6.2607    0.0000 </r>
       <r>    6.8290    0.0000 </r>
       <r>   11.9653    0.0000 </r>
       <r>   12.3075    0.0000 </r>
       <r>   16.3371    0.0000 </r>
       <r>   16.3455    0.0000 </r>
      </set>
      <set comment="kpoint 12">
       <r>  -13.0485    1.0000 </r>
       <r>  -12.8231    1.0000 </r>
       <r>   -3.0807    1.0000 </r>
       <r>   -3.0284    1.0000 </r>
       <r>   -1.7029    1.0000 </r>
       <r>   -1.6748    1.0000 </r>
       <r>   -1.3835    1.0000 </r>
       <r>    0.1744    1.0000 </r>
       <r>   11.0029    0.0000 </r>
       <r>   11.4121    0.0000 </r>
       <r>   11.7268    0.0000 </r>
       <r>   14.7669    0.0000 </r>
       <r>   15.0101    0.0000 </r>
       <r>   16.3609    0.0000 </r>
      </set>
      <set comment="kpoint 13">
       <r>  -10.5297    1.0000 </r>
       <r>  -10.3413    1.0000 </r>
       <r>   -6.7831    1.0000 </r>
       <r>   -6.6527    1.0000 </r>
       <r>   -3.3716    1.0000 </r>
       <r>   -3.3049    1.0000 </r>
       <r>    1.4787    1.0000 </r>
       <r>    2.6256    1.0000 </r>
       <r>    6.9725    0.0000 </r>
       <r>    7.6168    0.0000 </r>
       <r>   14.5933    0.0000 </r>
       <r>   14.7107    0.0000 </r>
       <r>   15.1508    0.0000 </r>
       <r>   16.9231    0.0000 </r>
      </set>
      <set comment="kpoint 14">
       <r>   -7.9833    1.0000 </r>
       <r>   -7.9538    1.0000 </r>
       <r>   -7.9538    1.0000 </r>
       <r>   -7.8183    1.0000 </r>
       <r>   -5.8660    1.0000 </r>
       <r>   -5.8660    1.0000 </r>
       <r>    4.2523    1.0000 </r>
       <r>    4.6176    1.0002 </r>
       <r>    4.6176    1.0002 </r>
       <r>    5.4429    0.0000 </r>
       <r>   15.5114    0.0000 </r>
       <r>   15.5114    0.0000 </r>
       <r>   17.3337    0.0000 </r>
       <r>   17.8645    0.0000 </r>
      </set>
      <set comment="kpoint 15">
       <r>  -14.9691    1.0000 </r>
       <r>  -14.8206    1.0000 </r>
       <r>   -3.4403    1.0000 </r>
       <r>   -2.4594    1.0000 </r>
       <r>    1.6981    1.0000 </r>
       <r>    1.6982    1.0000 </r>
       <r>    1.7417    1.0000 </r>
       <r>    1.7418    1.0000 </r>
       <r>   10.2674    0.0000 </r>
       <r>   13.2035    0.0000 </r>
       <r>   13.2428    0.0000 </r>
       <r>   13.2428    0.0000 </r>
       <r>   13.2899    0.0000 </r>
       <r>   13.2899    0.0000 </r>
      </set>
      <set comment="kpoint 16">
       <r>  -14.3087    1.0000 </r>
       <r>  -14.1661    1.0000 </r>
       <r>   -2.6452    1.0000 </r>
       <r>   -1.6841    1.0000 </r>
       <r>   -0.6182    1.0000 </r>
       <r>   -0.5723    1.0000 </r>
       <r>    0.5607    1.0000 </r>
       <r>    0.5861    1.0000 </r>
       <r>   11.0273    0.0000 </r>
       <r>   13.0988    0.0000 </r>
       <r>   13.2459    0.0000 </r>
       <r>   13.9162    0.0000 </r>
       <r>   14.2097    0.0000 </r>
       <r>   14.4335    0.0000 </r>
      </set>
      <set comment="kpoint 17">
       <r>  -12.3603    1.0000 </r>
       <r>  -12.2338    1.0000 </r>
       <r>   -4.9752    1.0000 </r>
       <r>   -4.9027    1.0000 </r>
       <r>   -1.0748    1.0000 </r>
       <r>   -1.0392    1.0000 </r>
       <r>   -0.3591    1.0000 </r>
       <r>    0.4873    1.0000 </r>
       <r>    9.4559    0.0000 </r>
       <r>    9.9354    0.0000 </r>
       <r>   12.3872    0.0000 </r>
       <r>   12.5252    0.0000 </r>
       <r>   13.4779    0.0000 </r>
       <r>   15.9499    0.0000 </r>
      </set>
      <set comment="kpoint 18">
       <r>   -9.6484    1.0000 </r>
       <r>   -9.5963    1.0000 </r>
       <r>   -8.5755    1.0000 </r>
       <r>   -8.5335    1.0000 </r>
       <r>   -1.6996    1.0000 </r>
       <r>   -1.6647    1.0000 </r>
       <r>    2.1608    1.0000 </r>
       <r>    2.4926    1.0000 </r>
       <r>    6.2853    0.0000 </r>
       <r>    6.6081    0.0000 </r>
       <r>   12.0384    0.0000 </r>
       <r>   12.2335    0.0000 </r>
       <r>   16.8413    0.0000 </r>
       <r>   17.0206    0.0000 </r>
      </set>
      <set comment="kpoint 19">
       <r>  -13.0040    1.0000 </r>
       <r>  -12.8731    1.0000 </r>
       <r>   -3.0621    1.0000 </r>
       <r>   -3.0366    1.0000 </r>
       <r>   -1.7058    1.0000 </r>
       <r>   -1.6888    1.0000 </r>
       <r>   -1.0939    1.0000 </r>
       <r>   -0.1915    1.0000 </r>
       <r>   11.0812    0.0000 </r>
       <r>   11.3130    0.0000 </r>
       <r>   12.5503    0.0000 </r>
       <r>   14.6715    0.0000 </r>
       <r>   14.9979    0.0000 </r>
       <r>   15.2953    0.0000 </r>
      </set>
      <set comment="kpoint 20">
       <r>  -10.4900    1.0000 </r>
       <r>  -10.3816    1.0000 </r>
       <r>   -6.7570    1.0000 </r>
       <r>   -6.6817    1.0000 </r>
       <r>   -3.3529    1.0000 </r>
       <r>   -3.3213    1.0000 </r>
       <r>    1.7166    1.0000 </r>
       <r>    2.3812    1.0000 </r>
       <r>    7.0967    0.0000 </r>
       <r>    7.4627    0.0000 </r>
       <r>   14.6860    0.0000 </r>
       <r>   14.8426    0.0000 </r>
       <r>   15.3755    0.0000 </r>
       <r>   16.4450    0.0000 </r>
      </set>
      <set comment="kpoint 21">
       <r>   -7.9522    1.0000 </r>
       <r>   -7.9522    1.0000 </r>
       <r>   -7.9487    1.0000 </r>
       <r>   -7.8539    1.0000 </r>
       <r>   -5.8707    1.0000 </r>
       <r>   -5.8707    1.0000 </r>
       <r>    4.4906    1.0000 </r>
       <r>    4.6388    1.0014 </r>
       <r>    4.6389    1.0014 </r>
       <r>    5.1648    0.0000 </r>
       <r>   15.0707    0.0000 </r>
       <r>   15.0707    0.0000 </r>
       <r>   17.9019    0.0000 </r>
       <r>   18.7813    0.0000 </r>
      </set>
      <set comment="kpoint 22">
       <r>  -14.8962    1.0000 </r>
       <r>  -14.8962    1.0000 </r>
       <r>   -2.9714    1.0000 </r>
       <r>   -2.9714    1.0000 </r>
       <r>    1.6896    1.0000 </r>
       <r>    1.6896    1.0000 </r>
       <r>    1.6897    1.0000 </r>
       <r>    1.6897    1.0000 </r>
       <r>   11.6350    0.0000 </r>
       <r>   11.6350    0.0000 </r>
       <r>   13.2480    0.0000 </r>
       <r>   13.2480    0.0000 </r>
       <r>   13.2480    0.0000 </r>
       <r>   13.2481    0.0000 </r>
      </set>
      <set comment="kpoint 23">
       <r>  -14.2386    1.0000 </r>
       <r>  -14.2386    1.0000 </r>
       <r>   -2.1785    1.0000 </r>
       <r>   -2.1785    1.0000 </r>
       <r>   -0.5934    1.0000 </r>
       <r>   -0.5934    1.0000 </r>
       <r>    0.5732    1.0000 </r>
       <r>    0.5732    1.0000 </r>
       <r>   12.3180    0.0000 </r>
       <r>   12.3180    0.0000 </r>
       <r>   13.2682    0.0000 </r>
       <r>   13.2682    0.0000 </r>
       <r>   14.2975    0.0000 </r>
       <r>   14.2976    0.0000 </r>
      </set>
      <set comment="kpoint 24">
       <r>  -12.2973    1.0000 </r>
       <r>  -12.2972    1.0000 </r>
       <r>   -4.9342    1.0000 </r>
       <r>   -4.9342    1.0000 </r>
       <r>   -1.0574    1.0000 </r>
       <r>   -1.0574    1.0000 </r>
       <r>    0.0543    1.0000 </r>
       <r>    0.0543    1.0000 </r>
       <r>    9.6898    0.0000 </r>
       <r>    9.6898    0.0000 </r>
       <r>   12.4720    0.0000 </r>
       <r>   12.4720    0.0000 </r>
       <r>   14.6470    0.0000 </r>
       <r>   14.6470    0.0000 </r>
      </set>
      <set comment="kpoint 25">
       <r>   -9.6224    1.0000 </r>
       <r>   -9.6224    1.0000 </r>
       <r>   -8.5610    1.0000 </r>
       <r>   -8.5610    1.0000 </r>
       <r>   -1.6911    1.0000 </r>
       <r>   -1.6911    1.0000 </r>
       <r>    2.3233    1.0000 </r>
       <r>    2.3233    1.0000 </r>
       <r>    6.3879    0.0000 </r>
       <r>    6.3879    0.0000 </r>
       <r>   12.1300    0.0000 </r>
       <r>   12.1300    0.0000 </r>
       <r>   17.3714    0.0000 </r>
       <r>   17.3714    0.0000 </r>
      </set>
      <set comment="kpoint 26">
       <r>  -12.9395    1.0000 </r>
       <r>  -12.9395    1.0000 </r>
       <r>   -3.0484    1.0000 </r>
       <r>   -3.0484    1.0000 </r>
       <r>   -1.6925    1.0000 </r>
       <r>   -1.6925    1.0000 </r>
       <r>   -0.6540    1.0000 </r>
       <r>   -0.6540    1.0000 </r>
       <r>   11.1949    0.0000 </r>
       <r>   11.1949    0.0000 </r>
       <r>   13.7128    0.0000 </r>
       <r>   13.7128    0.0000 </r>
       <r>   14.9923    0.0000 </r>
       <r>   14.9923    0.0000 </r>
      </set>
      <set comment="kpoint 27">
       <r>  -10.4368    1.0000 </r>
       <r>  -10.4368    1.0000 </r>
       <r>   -6.7233    1.0000 </r>
       <r>   -6.7233    1.0000 </r>
       <r>   -3.3338    1.0000 </r>
       <r>   -3.3338    1.0000 </r>
       <r>    2.0443    1.0000 </r>
       <r>    2.0443    1.0000 </r>
       <r>    7.2803    0.0000 </r>
       <r>    7.2803    0.0000 </r>
       <r>   14.7760    0.0000 </r>
       <r>   14.7760    0.0000 </r>
       <r>   15.9063    0.0000 </r>
       <r>   15.9063    0.0000 </r>
      </set>
      <set comment="kpoint 28">
       <r>   -7.9519    1.0000 </r>
       <r>   -7.9518    1.0000 </r>
       <r>   -7.9019    1.0000 </r>
       <r>   -7.9019    1.0000 </r>
       <r>   -5.8724    1.0000 </r>
       <r>   -5.8724    1.0000 </r>
       <r>    4.6456    1.0024 </r>
       <r>    4.6456    1.0024 </r>
       <r>    4.8145   -0.0295 </r>
       <r>    4.8145   -0.0295 </r>
       <r>   14.9030    0.0000 </r>
       <r>   14.9030    0.0000 </r>
       <r>   18.6421    0.0000 </r>
       <r>   18.6421    0.0000 </r>
      </set>
     </set>
     <set comment="spin 2">
      <set comment="kpoint 1">
       <r>  -15.0095    1.0000 </r>
       <r>  -14.7120    1.0000 </r>
       <r>   -3.7974    1.0000 </r>
       <r>   -1.7737    1.0000 </r>
       <r>    1.7024    1.0000 </r>
       <r>    1.7025    1.0000 </r>
       <r>    1.7526    1.0000 </r>
       <r>    1.7527    1.0000 </r>
       <r>    9.0155    0.0000 </r>
       <r>   13.2939    0.0000 </r>
       <r>   13.2940    0.0000 </r>
       <r>   13.3324    0.0000 </r>
       <r>   13.3325    0.0000 </r>
       <r>   15.3743    0.0000 </r>
      </set>
      <set comment="kpoint 2">
       <r>  -14.3480    1.0000 </r>
       <r>  -14.0628    1.0000 </r>
       <r>   -2.9940    1.0000 </r>
       <r>   -1.0509    1.0000 </r>
       <r>   -0.6092    1.0000 </r>
       <r>   -0.5550    1.0000 </r>
       <r>    0.5553    1.0000 </r>
       <r>    0.6200    1.0000 </r>
       <r>    9.8218    0.0000 </r>
       <r>   13.1275    0.0000 </r>
       <r>   13.3011    0.0000 </r>
       <r>   14.1434    0.0000 </r>
       <r>   14.5597    0.0000 </r>
       <r>   15.8421    0.0000 </r>
      </set>
      <set comment="kpoint 3">
       <r>  -12.3920    1.0000 </r>
       <r>  -12.1404    1.0000 </r>
       <r>   -4.9754    1.0000 </r>
       <r>   -4.8426    1.0000 </r>
       <r>   -1.0704    1.0000 </r>
       <r>   -0.9982    1.0000 </r>
       <r>   -0.6725    1.0000 </r>
       <r>    1.0479    1.0000 </r>
       <r>    9.3615    0.0000 </r>
       <r>   10.3279    0.0000 </r>
       <r>   12.1340    0.0000 </r>
       <r>   12.4158    0.0000 </r>
       <r>   12.7757    0.0000 </r>
       <r>   17.6031    0.0000 </r>
      </set>
      <set comment="kpoint 4">
       <r>   -9.6533    1.0000 </r>
       <r>   -9.5370    1.0000 </r>
       <r>   -8.5764    1.0000 </r>
       <r>   -8.4861    1.0000 </r>
       <r>   -1.7175    1.0000 </r>
       <r>   -1.6203    1.0000 </r>
       <r>    1.9885    1.0000 </r>
       <r>    2.7237    1.0000 </r>
       <r>    6.2596    0.0000 </r>
       <r>    7.0332    0.0000 </r>
       <r>   11.9764    0.0000 </r>
       <r>   12.3695    0.0000 </r>
       <r>   16.0650    0.0000 </r>
       <r>   16.2386    0.0000 </r>
      </set>
      <set comment="kpoint 5">
       <r>  -13.0360    1.0000 </r>
       <r>  -12.7757    1.0000 </r>
       <r>   -3.0609    1.0000 </r>
       <r>   -3.0052    1.0000 </r>
       <r>   -1.6900    1.0000 </r>
       <r>   -1.6531    1.0000 </r>
       <r>   -1.4214    1.0000 </r>
       <r>    0.3859    1.0000 </r>
       <r>   11.0458    0.0000 </r>
       <r>   11.4501    0.0000 </r>
       <r>   11.5613    0.0000 </r>
       <r>   14.7806    0.0000 </r>
       <r>   15.0050    0.0000 </r>
       <r>   16.4244    0.0000 </r>
      </set>
      <set comment="kpoint 6">
       <r>  -10.5148    1.0000 </r>
       <r>  -10.2960    1.0000 </r>
       <r>   -6.7693    1.0000 </r>
       <r>   -6.6175    1.0000 </r>
       <r>   -3.3501    1.0000 </r>
       <r>   -3.2812    1.0000 </r>
       <r>    1.4699    1.0000 </r>
       <r>    2.8263    1.0000 </r>
       <r>    7.0051    0.0000 </r>
       <r>    7.7797    0.0000 </r>
       <r>   14.5111    0.0000 </r>
       <r>   14.7101    0.0000 </r>
       <r>   15.1802    0.0000 </r>
       <r>   17.2898    0.0000 </r>
      </set>
      <set comment="kpoint 7">
       <r>   -8.0237    1.0000 </r>
       <r>   -7.8700    1.0000 </r>
       <r>   -7.8700    1.0000 </r>
       <r>   -7.8329    1.0000 </r>
       <r>   -5.8552    1.0000 </r>
       <r>   -5.8551    1.0000 </r>
       <r>    4.0871    1.0000 </r>
       <r>    4.8712   -0.0042 </r>
       <r>    4.8712   -0.0042 </r>
       <r>    5.3957    0.0000 </r>
       <r>   15.9117    0.0000 </r>
       <r>   15.9117    0.0000 </r>
       <r>   17.0691    0.0000 </r>
       <r>   17.4186    0.0000 </r>
      </set>
      <set comment="kpoint 8">
       <r>  -14.9907    1.0000 </r>
       <r>  -14.7331    1.0000 </r>
       <r>   -3.6872    1.0000 </r>
       <r>   -1.9423    1.0000 </r>
       <r>    1.7067    1.0000 </r>
       <r>    1.7067    1.0000 </r>
       <r>    1.7583    1.0000 </r>
       <r>    1.7584    1.0000 </r>
       <r>    9.3609    0.0000 </r>
       <r>   13.2978    0.0000 </r>
       <r>   13.2978    0.0000 </r>
       <r>   13.3295    0.0000 </r>
       <r>   13.3296    0.0000 </r>
       <r>   14.7042    0.0000 </r>
      </set>
      <set comment="kpoint 9">
       <r>  -14.3297    1.0000 </r>
       <r>  -14.0830    1.0000 </r>
       <r>   -2.8838    1.0000 </r>
       <r>   -1.1946    1.0000 </r>
       <r>   -0.6041    1.0000 </r>
       <r>   -0.5574    1.0000 </r>
       <r>    0.5589    1.0000 </r>
       <r>    0.6212    1.0000 </r>
       <r>   10.1547    0.0000 </r>
       <r>   13.1315    0.0000 </r>
       <r>   13.2909    0.0000 </r>
       <r>   14.2054    0.0000 </r>
       <r>   14.5477    0.0000 </r>
       <r>   15.3953    0.0000 </r>
      </set>
      <set comment="kpoint 10">
       <r>  -12.3761    1.0000 </r>
       <r>  -12.1571    1.0000 </r>
       <r>   -4.9748    1.0000 </r>
       <r>   -4.8515    1.0000 </r>
       <r>   -1.0609    1.0000 </r>
       <r>   -0.9933    1.0000 </r>
       <r>   -0.5645    1.0000 </r>
       <r>    0.9152    1.0000 </r>
       <r>    9.4055    0.0000 </r>
       <r>   10.2432    0.0000 </r>
       <r>   12.3032    0.0000 </r>
       <r>   12.4928    0.0000 </r>
       <r>   12.8543    0.0000 </r>
       <r>   17.1387    0.0000 </r>
      </set>
      <set comment="kpoint 11">
       <r>   -9.6443    1.0000 </r>
       <r>   -9.5425    1.0000 </r>
       <r>   -8.5724    1.0000 </r>
       <r>   -8.4937    1.0000 </r>
       <r>   -1.6962    1.0000 </r>
       <r>   -1.6207    1.0000 </r>
       <r>    2.0509    1.0000 </r>
       <r>    2.6948    1.0000 </r>
       <r>    6.2753    0.0000 </r>
       <r>    6.9584    0.0000 </r>
       <r>   12.0030    0.0000 </r>
       <r>   12.3442    0.0000 </r>
       <r>   16.3272    0.0000 </r>
       <r>   16.4343    0.0000 </r>
      </set>
      <set comment="kpoint 12">
       <r>  -13.0192    1.0000 </r>
       <r>  -12.7944    1.0000 </r>
       <r>   -3.0596    1.0000 </r>
       <r>   -3.0057    1.0000 </r>
       <r>   -1.6903    1.0000 </r>
       <r>   -1.6615    1.0000 </r>
       <r>   -1.3141    1.0000 </r>
       <r>    0.2530    1.0000 </r>
       <r>   11.0886    0.0000 </r>
       <r>   11.5154    0.0000 </r>
       <r>   11.7591    0.0000 </r>
       <r>   14.7926    0.0000 </r>
       <r>   15.0220    0.0000 </r>
       <r>   16.3912    0.0000 </r>
      </set>
      <set comment="kpoint 13">
       <r>  -10.5014    1.0000 </r>
       <r>  -10.3126    1.0000 </r>
       <r>   -6.7594    1.0000 </r>
       <r>   -6.6287    1.0000 </r>
       <r>   -3.3570    1.0000 </r>
       <r>   -3.2904    1.0000 </r>
       <r>    1.5457    1.0000 </r>
       <r>    2.7193    1.0000 </r>
       <r>    7.0414    0.0000 </r>
       <r>    7.7101    0.0000 </r>
       <r>   14.6122    0.0000 </r>
       <r>   14.7738    0.0000 </r>
       <r>   15.1747    0.0000 </r>
       <r>   16.9894    0.0000 </r>
      </set>
      <set comment="kpoint 14">
       <r>   -8.0105    1.0000 </r>
       <r>   -7.8682    1.0000 </r>
       <r>   -7.8681    1.0000 </r>
       <r>   -7.8446    1.0000 </r>
       <r>   -5.8559    1.0000 </r>
       <r>   -5.8559    1.0000 </r>
       <r>    4.1493    1.0000 </r>
       <r>    4.8874   -0.0011 </r>
       <r>    4.8874   -0.0011 </r>
       <r>    5.3331    0.0000 </r>
       <r>   15.5657    0.0000 </r>
       <r>   15.5657    0.0000 </r>
       <r>   17.2867    0.0000 </r>
       <r>   17.9445    0.0000 </r>
      </set>
      <set comment="kpoint 15">
       <r>  -14.9390    1.0000 </r>
       <r>  -14.7910    1.0000 </r>
       <r>   -3.3715    1.0000 </r>
       <r>   -2.3875    1.0000 </r>
       <r>    1.7108    1.0000 </r>
       <r>    1.7109    1.0000 </r>
       <r>    1.7548    1.0000 </r>
       <r>    1.7549    1.0000 </r>
       <r>   10.3099    0.0000 </r>
       <r>   13.2541    0.0000 </r>
       <r>   13.2541    0.0000 </r>
       <r>   13.2561    0.0000 </r>
       <r>   13.3015    0.0000 </r>
       <r>   13.3016    0.0000 </r>
      </set>
      <set comment="kpoint 16">
       <r>  -14.2789    1.0000 </r>
       <r>  -14.1367    1.0000 </r>
       <r>   -2.5760    1.0000 </r>
       <r>   -1.6109    1.0000 </r>
       <r>   -0.6009    1.0000 </r>
       <r>   -0.5550    1.0000 </r>
       <r>    0.5734    1.0000 </r>
       <r>    0.5987    1.0000 </r>
       <r>   11.0706    0.0000 </r>
       <r>   13.1278    0.0000 </r>
       <r>   13.2644    0.0000 </r>
       <r>   13.9492    0.0000 </r>
       <r>   14.3315    0.0000 </r>
       <r>   14.5268    0.0000 </r>
      </set>
      <set comment="kpoint 17">
       <r>  -12.3314    1.0000 </r>
       <r>  -12.2051    1.0000 </r>
       <r>   -4.9532    1.0000 </r>
       <r>   -4.8807    1.0000 </r>
       <r>   -1.0626    1.0000 </r>
       <r>   -1.0267    1.0000 </r>
       <r>   -0.2878    1.0000 </r>
       <r>    0.5650    1.0000 </r>
       <r>    9.5349    0.0000 </r>
       <r>   10.0294    0.0000 </r>
       <r>   12.4188    0.0000 </r>
       <r>   12.5629    0.0000 </r>
       <r>   13.5191    0.0000 </r>
       <r>   16.0080    0.0000 </r>
      </set>
      <set comment="kpoint 18">
       <r>   -9.6200    1.0000 </r>
       <r>   -9.5605    1.0000 </r>
       <r>   -8.5587    1.0000 </r>
       <r>   -8.5103    1.0000 </r>
       <r>   -1.6872    1.0000 </r>
       <r>   -1.6525    1.0000 </r>
       <r>    2.2191    1.0000 </r>
       <r>    2.5976    1.0000 </r>
       <r>    6.3272    0.0000 </r>
       <r>    6.7164    0.0000 </r>
       <r>   12.0763    0.0000 </r>
       <r>   12.2710    0.0000 </r>
       <r>   16.9354    0.0000 </r>
       <r>   17.0150    0.0000 </r>
      </set>
      <set comment="kpoint 19">
       <r>  -12.9748    1.0000 </r>
       <r>  -12.8443    1.0000 </r>
       <r>   -3.0407    1.0000 </r>
       <r>   -3.0143    1.0000 </r>
       <r>   -1.6930    1.0000 </r>
       <r>   -1.6756    1.0000 </r>
       <r>   -1.0233    1.0000 </r>
       <r>   -0.1157    1.0000 </r>
       <r>   11.1703    0.0000 </r>
       <r>   11.4124    0.0000 </r>
       <r>   12.5882    0.0000 </r>
       <r>   14.7033    0.0000 </r>
       <r>   15.0136    0.0000 </r>
       <r>   15.3460    0.0000 </r>
      </set>
      <set comment="kpoint 20">
       <r>  -10.4616    1.0000 </r>
       <r>  -10.3530    1.0000 </r>
       <r>   -6.7333    1.0000 </r>
       <r>   -6.6578    1.0000 </r>
       <r>   -3.3383    1.0000 </r>
       <r>   -3.3068    1.0000 </r>
       <r>    1.7876    1.0000 </r>
       <r>    2.4668    1.0000 </r>
       <r>    7.1728    0.0000 </r>
       <r>    7.5529    0.0000 </r>
       <r>   14.7218    0.0000 </r>
       <r>   14.8920    0.0000 </r>
       <r>   15.4076    0.0000 </r>
       <r>   16.5043    0.0000 </r>
      </set>
      <set comment="kpoint 21">
       <r>   -7.9757    1.0000 </r>
       <r>   -7.8804    1.0000 </r>
       <r>   -7.8666    1.0000 </r>
       <r>   -7.8665    1.0000 </r>
       <r>   -5.8606    1.0000 </r>
       <r>   -5.8606    1.0000 </r>
       <r>    4.3866    1.0000 </r>
       <r>    4.9094   -0.0001 </r>
       <r>    4.9095   -0.0001 </r>
       <r>    5.0569    0.0000 </r>
       <r>   15.1258    0.0000 </r>
       <r>   15.1258    0.0000 </r>
       <r>   17.8570    0.0000 </r>
       <r>   18.8554    0.0000 </r>
      </set>
      <set comment="kpoint 22">
       <r>  -14.8663    1.0000 </r>
       <r>  -14.8663    1.0000 </r>
       <r>   -2.9013    1.0000 </r>
       <r>   -2.9013    1.0000 </r>
       <r>    1.7024    1.0000 </r>
       <r>    1.7024    1.0000 </r>
       <r>    1.7025    1.0000 </r>
       <r>    1.7025    1.0000 </r>
       <r>   11.6822    0.0000 </r>
       <r>   11.6822    0.0000 </r>
       <r>   13.2594    0.0000 </r>
       <r>   13.2594    0.0000 </r>
       <r>   13.2595    0.0000 </r>
       <r>   13.2595    0.0000 </r>
      </set>
      <set comment="kpoint 23">
       <r>  -14.2090    1.0000 </r>
       <r>  -14.2090    1.0000 </r>
       <r>   -2.1076    1.0000 </r>
       <r>   -2.1076    1.0000 </r>
       <r>   -0.5761    1.0000 </r>
       <r>   -0.5761    1.0000 </r>
       <r>    0.5859    1.0000 </r>
       <r>    0.5859    1.0000 </r>
       <r>   12.3669    0.0000 </r>
       <r>   12.3669    0.0000 </r>
       <r>   13.2871    0.0000 </r>
       <r>   13.2871    0.0000 </r>
       <r>   14.3986    0.0000 </r>
       <r>   14.3986    0.0000 </r>
      </set>
      <set comment="kpoint 24">
       <r>  -12.2684    1.0000 </r>
       <r>  -12.2684    1.0000 </r>
       <r>   -4.9122    1.0000 </r>
       <r>   -4.9122    1.0000 </r>
       <r>   -1.0450    1.0000 </r>
       <r>   -1.0450    1.0000 </r>
       <r>    0.1283    1.0000 </r>
       <r>    0.1283    1.0000 </r>
       <r>    9.7764    0.0000 </r>
       <r>    9.7764    0.0000 </r>
       <r>   12.5064    0.0000 </r>
       <r>   12.5064    0.0000 </r>
       <r>   14.6956    0.0000 </r>
       <r>   14.6956    0.0000 </r>
      </set>
      <set comment="kpoint 25">
       <r>   -9.5905    1.0000 </r>
       <r>   -9.5905    1.0000 </r>
       <r>   -8.5408    1.0000 </r>
       <r>   -8.5408    1.0000 </r>
       <r>   -1.6789    1.0000 </r>
       <r>   -1.6789    1.0000 </r>
       <r>    2.4028    1.0000 </r>
       <r>    2.4029    1.0000 </r>
       <r>    6.4647    0.0000 </r>
       <r>    6.4647    0.0000 </r>
       <r>   12.1679    0.0000 </r>
       <r>   12.1679    0.0000 </r>
       <r>   17.4455    0.0000 </r>
       <r>   17.4455    0.0000 </r>
      </set>
      <set comment="kpoint 26">
       <r>  -12.9104    1.0000 </r>
       <r>  -12.9104    1.0000 </r>
       <r>   -3.0266    1.0000 </r>
       <r>   -3.0266    1.0000 </r>
       <r>   -1.6795    1.0000 </r>
       <r>   -1.6795    1.0000 </r>
       <r>   -0.5812    1.0000 </r>
       <r>   -0.5812    1.0000 </r>
       <r>   11.2888    0.0000 </r>
       <r>   11.2888    0.0000 </r>
       <r>   13.7581    0.0000 </r>
       <r>   13.7581    0.0000 </r>
       <r>   15.0142    0.0000 </r>
       <r>   15.0142    0.0000 </r>
      </set>
      <set comment="kpoint 27">
       <r>  -10.4083    1.0000 </r>
       <r>  -10.4083    1.0000 </r>
       <r>   -6.6995    1.0000 </r>
       <r>   -6.6994    1.0000 </r>
       <r>   -3.3192    1.0000 </r>
       <r>   -3.3192    1.0000 </r>
       <r>    2.1217    1.0000 </r>
       <r>    2.1217    1.0000 </r>
       <r>    7.3643    0.0000 </r>
       <r>    7.3643    0.0000 </r>
       <r>   14.8178    0.0000 </r>
       <r>   14.8178    0.0000 </r>
       <r>   15.9546    0.0000 </r>
       <r>   15.9546    0.0000 </r>
      </set>
      <set comment="kpoint 28">
       <r>   -7.9287    1.0000 </r>
       <r>   -7.9287    1.0000 </r>
       <r>   -7.8661    1.0000 </r>
       <r>   -7.8661    1.0000 </r>
       <r>   -5.8623    1.0000 </r>
       <r>   -5.8623    1.0000 </r>
       <r>    4.7087    1.0308 </r>
       <r>    4.7087    1.0307 </r>
       <r>    4.9166   -0.0001 </r>
       <r>    4.9166   -0.0001 </r>
       <r>   14.9578    0.0000 </r>
       <r>   14.9578    0.0000 </r>
       <r>   18.6034    0.0000 </r>
       <r>   18.6034    0.0000 </r>
      </set>
     </set>
    </set>
   </array>
  </eigenvalues>
  <separator name="orbital magnetization" >
   <v name="MAGDIPOLOUT">      0.00000000      0.00000000      0.00000000</v>
  </separator>
  <dos>
   <i name="efermi">      4.76203918 </i>
   <total>
    <array>
     <dimension dim="1">gridpoints</dimension>
     <dimension dim="2">spin</dimension>
     <field>energy</field>
     <field>total</field>
     <field>integrated</field>
     <set>
      <set comment="spin 1">
       <r>   -16.7345     0.0000     0.0000 </r>
       <r>   -16.6102     0.0000     0.0000 </r>
       <r>   -16.4859     0.0000     0.0000 </r>
       <r>   -16.3616     0.0000     0.0000 </r>
       <r>   -16.2373     0.0000     0.0000 </r>
       <r>   -16.1131     0.0000     0.0000 </r>
       <r>   -15.9888     0.0000     0.0000 </r>
       <r>   -15.8645     0.0000     0.0000 </r>
       <r>   -15.7402     0.0000     0.0000 </r>
       <r>   -15.6159     0.0000     0.0000 </r>
       <r>   -15.4917     0.0000     0.0000 </r>
       <r>   -15.3674     0.0000     0.0000 </r>
       <r>   -15.2431     0.0000     0.0000 </r>
       <r>   -15.1188    -0.0016    -0.0002 </r>
       <r>   -14.9945     0.1138     0.0139 </r>
       <r>   -14.8702     0.1381     0.0311 </r>
       <r>   -14.7460     0.1599     0.0510 </r>
       <r>   -14.6217     0.0368     0.0556 </r>
       <r>   -14.4974    -0.0007     0.0555 </r>
       <r>   -14.3731     0.2399     0.0853 </r>
       <r>   -14.2488     1.0343     0.2138 </r>
       <r>   -14.1245     0.8849     0.3238 </r>
       <r>   -14.0003     0.5281     0.3894 </r>
       <r>   -13.8760    -0.0045     0.3889 </r>
       <r>   -13.7517     0.0000     0.3889 </r>
       <r>   -13.6274     0.0000     0.3889 </r>
       <r>   -13.5031     0.0000     0.3889 </r>
       <r>   -13.3789     0.0000     0.3889 </r>
       <r>   -13.2546     0.0000     0.3889 </r>
       <r>   -13.1303    -0.0178     0.3867 </r>
       <r>   -13.0060     0.8897     0.4972 </r>
       <r>   -12.8817     0.8470     0.6025 </r>
       <r>   -12.7574     0.9836     0.7248 </r>
       <r>   -12.6332    -0.0204     0.7222 </r>
       <r>   -12.5089    -0.0065     0.7214 </r>
       <r>   -12.3846     0.6429     0.8013 </r>
       <r>   -12.2603     0.9550     0.9200 </r>
       <r>   -12.1360     1.0932     1.0559 </r>
       <r>   -12.0118    -0.0026     1.0556 </r>
       <r>   -11.8875     0.0000     1.0556 </r>
       <r>   -11.7632     0.0000     1.0556 </r>
       <r>   -11.6389     0.0000     1.0556 </r>
       <r>   -11.5146     0.0000     1.0556 </r>
       <r>   -11.3903     0.0000     1.0556 </r>
       <r>   -11.2661     0.0000     1.0556 </r>
       <r>   -11.1418     0.0000     1.0556 </r>
       <r>   -11.0175     0.0000     1.0556 </r>
       <r>   -10.8932     0.0000     1.0556 </r>
       <r>   -10.7689     0.0000     1.0556 </r>
       <r>   -10.6446    -0.0057     1.0548 </r>
       <r>   -10.5204     1.0196     1.1816 </r>
       <r>   -10.3961     2.3158     1.4694 </r>
       <r>   -10.2718     2.0803     1.7279 </r>
       <r>   -10.1475    -0.0458     1.7222 </r>
       <r>   -10.0232     0.0000     1.7222 </r>
       <r>    -9.8990     0.0000     1.7222 </r>
       <r>    -9.7747    -0.0027     1.7219 </r>
       <r>    -9.6504     0.3937     1.7708 </r>
       <r>    -9.5261     0.9700     1.8914 </r>
       <r>    -9.4018    -0.0200     1.8889 </r>
       <r>    -9.2775     0.0000     1.8889 </r>
       <r>    -9.1533     0.0000     1.8889 </r>
       <r>    -9.0290     0.0000     1.8889 </r>
       <r>    -8.9047     0.0000     1.8889 </r>
       <r>    -8.7804     0.0000     1.8889 </r>
       <r>    -8.6561    -0.0188     1.8865 </r>
       <r>    -8.5319     0.9975     2.0105 </r>
       <r>    -8.4076     0.3641     2.0558 </r>
       <r>    -8.2833    -0.0017     2.0556 </r>
       <r>    -8.1590     0.0000     2.0556 </r>
       <r>    -8.0347    -0.0249     2.0525 </r>
       <r>    -7.9104     1.3425     2.2193 </r>
       <r>    -7.7862     0.4527     2.2756 </r>
       <r>    -7.6619     0.0176     2.2778 </r>
       <r>    -7.5376     0.0000     2.2778 </r>
       <r>    -7.4133     0.0000     2.2778 </r>
       <r>    -7.2890     0.0000     2.2778 </r>
       <r>    -7.1648     0.0000     2.2778 </r>
       <r>    -7.0405     0.0000     2.2778 </r>
       <r>    -6.9162    -0.0011     2.2776 </r>
       <r>    -6.7919     0.5516     2.3462 </r>
       <r>    -6.6676     3.5598     2.7886 </r>
       <r>    -6.5433     1.2619     2.9454 </r>
       <r>    -6.4191    -0.0081     2.9444 </r>
       <r>    -6.2948     0.0000     2.9444 </r>
       <r>    -6.1705     0.0000     2.9444 </r>
       <r>    -6.0462     0.0000     2.9444 </r>
       <r>    -5.9219    -0.0268     2.9411 </r>
       <r>    -5.7976     0.9486     3.0590 </r>
       <r>    -5.6734    -0.0277     3.0556 </r>
       <r>    -5.5491     0.0000     3.0556 </r>
       <r>    -5.4248     0.0000     3.0556 </r>
       <r>    -5.3005     0.0000     3.0556 </r>
       <r>    -5.1762     0.0000     3.0556 </r>
       <r>    -5.0520    -0.0344     3.0513 </r>
       <r>    -4.9277     1.4905     3.2365 </r>
       <r>    -4.8034     1.2522     3.3921 </r>
       <r>    -4.6791    -0.0262     3.3889 </r>
       <r>    -4.5548     0.0000     3.3889 </r>
       <r>    -4.4305     0.0000     3.3889 </r>
       <r>    -4.3063     0.0000     3.3889 </r>
       <r>    -4.1820     0.0000     3.3889 </r>
       <r>    -4.0577     0.0000     3.3889 </r>
       <r>    -3.9334    -0.0012     3.3887 </r>
       <r>    -3.8091     0.0374     3.3934 </r>
       <r>    -3.6849     0.0780     3.4031 </r>
       <r>    -3.5606    -0.0025     3.4028 </r>
       <r>    -3.4363    -0.0294     3.3991 </r>
       <r>    -3.3120     4.1570     3.9158 </r>
       <r>    -3.1877     1.3115     4.0787 </r>
       <r>    -3.0634     1.0292     4.2067 </r>
       <r>    -2.9392     2.2816     4.4902 </r>
       <r>    -2.8149     0.1160     4.5046 </r>
       <r>    -2.6906    -0.0058     4.5039 </r>
       <r>    -2.5663     0.4630     4.5615 </r>
       <r>    -2.4420     0.0474     4.5674 </r>
       <r>    -2.3177     0.0166     4.5694 </r>
       <r>    -2.1935     0.1159     4.5838 </r>
       <r>    -2.0692     0.3308     4.6250 </r>
       <r>    -1.9449     0.0768     4.6345 </r>
       <r>    -1.8206     0.0252     4.6376 </r>
       <r>    -1.6963     1.7839     4.8593 </r>
       <r>    -1.5721     2.7165     5.1970 </r>
       <r>    -1.4478     0.1880     5.2203 </r>
       <r>    -1.3235     0.4644     5.2780 </r>
       <r>    -1.1992     0.4480     5.3337 </r>
       <r>    -1.0749     1.2509     5.4892 </r>
       <r>    -0.9506     2.1319     5.7541 </r>
       <r>    -0.8264    -0.0373     5.7495 </r>
       <r>    -0.7021     0.1727     5.7710 </r>
       <r>    -0.5778     2.9049     6.1320 </r>
       <r>    -0.4535     0.7233     6.2219 </r>
       <r>    -0.3292     0.4133     6.2732 </r>
       <r>    -0.2050     0.1623     6.2934 </r>
       <r>    -0.0807     0.3228     6.3335 </r>
       <r>     0.0436     0.1430     6.3513 </r>
       <r>     0.1679     0.4787     6.4108 </r>
       <r>     0.2922     0.3339     6.4523 </r>
       <r>     0.4165     0.1468     6.4705 </r>
       <r>     0.5407     0.8438     6.5754 </r>
       <r>     0.6650     2.3424     6.8665 </r>
       <r>     0.7893    -0.0483     6.8605 </r>
       <r>     0.9136     0.4562     6.9172 </r>
       <r>     1.0379     0.2258     6.9453 </r>
       <r>     1.1621    -0.0066     6.9444 </r>
       <r>     1.2864    -0.0010     6.9443 </r>
       <r>     1.4107     0.2437     6.9746 </r>
       <r>     1.5350     1.1287     7.1149 </r>
       <r>     1.6593    -0.0431     7.1095 </r>
       <r>     1.7836     1.8360     7.3377 </r>
       <r>     1.9078    -0.0361     7.3332 </r>
       <r>     2.0321     0.5818     7.4055 </r>
       <r>     2.1564     0.7464     7.4983 </r>
       <r>     2.2807     0.1184     7.5130 </r>
       <r>     2.4050     0.9973     7.6370 </r>
       <r>     2.5293     0.3337     7.6784 </r>
       <r>     2.6535     1.1538     7.8218 </r>
       <r>     2.7778     0.5495     7.8901 </r>
       <r>     2.9021    -0.0099     7.8889 </r>
       <r>     3.0264     0.0000     7.8889 </r>
       <r>     3.1507     0.0000     7.8889 </r>
       <r>     3.2749     0.0000     7.8889 </r>
       <r>     3.3992     0.0000     7.8889 </r>
       <r>     3.5235     0.0000     7.8889 </r>
       <r>     3.6478     0.0000     7.8889 </r>
       <r>     3.7721     0.0000     7.8889 </r>
       <r>     3.8964     0.0000     7.8889 </r>
       <r>     4.0206     0.0000     7.8889 </r>
       <r>     4.1449    -0.0015     7.8887 </r>
       <r>     4.2692     0.1923     7.9126 </r>
       <r>     4.3935     0.0313     7.9165 </r>
       <r>     4.5178     0.1284     7.9325 </r>
       <r>     4.6420     0.6580     8.0142 </r>
       <r>     4.7663     0.2554     8.0460 </r>
       <r>     4.8906     0.1555     8.0653 </r>
       <r>     5.0149    -0.0040     8.0648 </r>
       <r>     5.1392     0.0183     8.0671 </r>
       <r>     5.2635     0.1320     8.0835 </r>
       <r>     5.3877    -0.0063     8.0827 </r>
       <r>     5.5120     0.2031     8.1079 </r>
       <r>     5.6363     0.0255     8.1111 </r>
       <r>     5.7606    -0.0001     8.1111 </r>
       <r>     5.8849     0.0000     8.1111 </r>
       <r>     6.0092     0.0000     8.1111 </r>
       <r>     6.1334    -0.0004     8.1111 </r>
       <r>     6.2577     0.1843     8.1340 </r>
       <r>     6.3820     0.4671     8.1920 </r>
       <r>     6.5063     0.1301     8.2082 </r>
       <r>     6.6306     0.1889     8.2317 </r>
       <r>     6.7548     0.0293     8.2353 </r>
       <r>     6.8791     0.2346     8.2645 </r>
       <r>     7.0034     1.3894     8.4372 </r>
       <r>     7.1277     0.8885     8.5476 </r>
       <r>     7.2520     0.1493     8.5661 </r>
       <r>     7.3763     0.8025     8.6659 </r>
       <r>     7.5005     0.8786     8.7751 </r>
       <r>     7.6248     0.5729     8.8463 </r>
       <r>     7.7491     0.8060     8.9465 </r>
       <r>     7.8734    -0.0161     8.9444 </r>
       <r>     7.9977     0.0000     8.9444 </r>
       <r>     8.1219     0.0000     8.9444 </r>
       <r>     8.2462     0.0000     8.9444 </r>
       <r>     8.3705     0.0000     8.9444 </r>
       <r>     8.4948     0.0000     8.9444 </r>
       <r>     8.6191     0.0000     8.9444 </r>
       <r>     8.7434     0.0000     8.9444 </r>
       <r>     8.8676    -0.0001     8.9444 </r>
       <r>     8.9919     0.0272     8.9478 </r>
       <r>     9.1162     0.0102     8.9491 </r>
       <r>     9.2405    -0.0134     8.9474 </r>
       <r>     9.3648     0.7288     9.0380 </r>
       <r>     9.4891     0.4527     9.0942 </r>
       <r>     9.6133     0.0122     9.0958 </r>
       <r>     9.7376     0.4638     9.1534 </r>
       <r>     9.8619     0.2112     9.1797 </r>
       <r>     9.9862     0.4659     9.2376 </r>
       <r>    10.1105     0.1984     9.2622 </r>
       <r>    10.2347     0.8425     9.3669 </r>
       <r>    10.3590     0.1406     9.3844 </r>
       <r>    10.4833    -0.0011     9.3843 </r>
       <r>    10.6076     0.0000     9.3843 </r>
       <r>    10.7319     0.0000     9.3843 </r>
       <r>    10.8562    -0.0013     9.3841 </r>
       <r>    10.9804     0.2398     9.4139 </r>
       <r>    11.1047     1.2685     9.5716 </r>
       <r>    11.2290     0.4751     9.6306 </r>
       <r>    11.3533     0.4482     9.6863 </r>
       <r>    11.4776     0.8846     9.7962 </r>
       <r>    11.6018     0.0412     9.8014 </r>
       <r>    11.7261     0.2902     9.8374 </r>
       <r>    11.8504     0.2260     9.8655 </r>
       <r>    11.9747     0.2482     9.8964 </r>
       <r>    12.0990     0.4180     9.9483 </r>
       <r>    12.2233     0.3935     9.9972 </r>
       <r>    12.3475     1.3944    10.1705 </r>
       <r>    12.4718     1.3042    10.3326 </r>
       <r>    12.5961     1.1813    10.4794 </r>
       <r>    12.7204    -0.0026    10.4791 </r>
       <r>    12.8447     0.5683    10.5497 </r>
       <r>    12.9689     0.0836    10.5601 </r>
       <r>    13.0932     0.3731    10.6065 </r>
       <r>    13.2175     0.8276    10.7093 </r>
       <r>    13.3418     2.4708    11.0164 </r>
       <r>    13.4661     0.1163    11.0309 </r>
       <r>    13.5904     0.3112    11.0695 </r>
       <r>    13.7146     0.2365    11.0989 </r>
       <r>    13.8389     0.1987    11.1236 </r>
       <r>    13.9632     0.4635    11.1812 </r>
       <r>    14.0875     0.2098    11.2073 </r>
       <r>    14.2118     0.6936    11.2935 </r>
       <r>    14.3361     0.6385    11.3729 </r>
       <r>    14.4603     0.9975    11.4968 </r>
       <r>    14.5846     0.8603    11.6038 </r>
       <r>    14.7089     3.1862    11.9997 </r>
       <r>    14.8332     2.5545    12.3172 </r>
       <r>    14.9575     0.7091    12.4054 </r>
       <r>    15.0817     1.7375    12.6213 </r>
       <r>    15.2060     1.4797    12.8052 </r>
       <r>    15.3303     0.6403    12.8848 </r>
       <r>    15.4546     1.1623    13.0292 </r>
       <r>    15.5789     0.2962    13.0661 </r>
       <r>    15.7032    -0.0100    13.0648 </r>
       <r>    15.8274     0.0476    13.0707 </r>
       <r>    15.9517     1.4705    13.2535 </r>
       <r>    16.0760     0.2526    13.2849 </r>
       <r>    16.2003     0.1686    13.3058 </r>
       <r>    16.3246     0.1089    13.3194 </r>
       <r>    16.4488     1.5286    13.5093 </r>
       <r>    16.5731     0.3727    13.5557 </r>
       <r>    16.6974    -0.0008    13.5556 </r>
       <r>    16.8217     0.0371    13.5602 </r>
       <r>    16.9460     0.9368    13.6766 </r>
       <r>    17.0703     0.5966    13.7507 </r>
       <r>    17.1945     0.3777    13.7977 </r>
       <r>    17.3188     0.4181    13.8496 </r>
       <r>    17.4431     0.3939    13.8986 </r>
       <r>    17.5674     0.2160    13.9254 </r>
       <r>    17.6917     0.0039    13.9259 </r>
       <r>    17.8160    -0.0059    13.9252 </r>
       <r>    17.9402     0.3051    13.9631 </r>
       <r>    18.0645    -0.0012    13.9630 </r>
       <r>    18.1888     0.0000    13.9630 </r>
       <r>    18.3131     0.0000    13.9630 </r>
       <r>    18.4374     0.0000    13.9630 </r>
       <r>    18.5616    -0.0034    13.9625 </r>
       <r>    18.6859     0.1518    13.9814 </r>
       <r>    18.8102     0.1362    13.9983 </r>
       <r>    18.9345     0.0134    14.0000 </r>
       <r>    19.0588     0.0000    14.0000 </r>
       <r>    19.1831     0.0000    14.0000 </r>
       <r>    19.3073     0.0000    14.0000 </r>
       <r>    19.4316     0.0000    14.0000 </r>
       <r>    19.5559     0.0000    14.0000 </r>
       <r>    19.6802     0.0000    14.0000 </r>
       <r>    19.8045     0.0000    14.0000 </r>
       <r>    19.9287     0.0000    14.0000 </r>
       <r>    20.0530     0.0000    14.0000 </r>
       <r>    20.1773     0.0000    14.0000 </r>
       <r>    20.3016     0.0000    14.0000 </r>
       <r>    20.4259     0.0000    14.0000 </r>
       <r>    20.5502     0.0000    14.0000 </r>
      </set>
      <set comment="spin 2">
       <r>   -16.7345     0.0000     0.0000 </r>
       <r>   -16.6102     0.0000     0.0000 </r>
       <r>   -16.4859     0.0000     0.0000 </r>
       <r>   -16.3616     0.0000     0.0000 </r>
       <r>   -16.2373     0.0000     0.0000 </r>
       <r>   -16.1131     0.0000     0.0000 </r>
       <r>   -15.9888     0.0000     0.0000 </r>
       <r>   -15.8645     0.0000     0.0000 </r>
       <r>   -15.7402     0.0000     0.0000 </r>
       <r>   -15.6159     0.0000     0.0000 </r>
       <r>   -15.4917     0.0000     0.0000 </r>
       <r>   -15.3674     0.0000     0.0000 </r>
       <r>   -15.2431     0.0000     0.0000 </r>
       <r>   -15.1188    -0.0002     0.0000 </r>
       <r>   -14.9945     0.0577     0.0071 </r>
       <r>   -14.8702     0.1619     0.0273 </r>
       <r>   -14.7460     0.1403     0.0447 </r>
       <r>   -14.6217     0.0881     0.0557 </r>
       <r>   -14.4974    -0.0008     0.0556 </r>
       <r>   -14.3731     0.0212     0.0582 </r>
       <r>   -14.2488     1.0761     0.1919 </r>
       <r>   -14.1245     0.7815     0.2891 </r>
       <r>   -14.0003     0.8205     0.3910 </r>
       <r>   -13.8760    -0.0173     0.3889 </r>
       <r>   -13.7517     0.0000     0.3889 </r>
       <r>   -13.6274     0.0000     0.3889 </r>
       <r>   -13.5031     0.0000     0.3889 </r>
       <r>   -13.3789     0.0000     0.3889 </r>
       <r>   -13.2546     0.0000     0.3889 </r>
       <r>   -13.1303    -0.0042     0.3884 </r>
       <r>   -13.0060     0.5554     0.4574 </r>
       <r>   -12.8817     0.9799     0.5792 </r>
       <r>   -12.7574     1.0988     0.7158 </r>
       <r>   -12.6332     0.0521     0.7222 </r>
       <r>   -12.5089    -0.0008     0.7221 </r>
       <r>   -12.3846     0.2857     0.7576 </r>
       <r>   -12.2603     1.1136     0.8960 </r>
       <r>   -12.1360     1.1242     1.0358 </r>
       <r>   -12.0118     0.1596     1.0556 </r>
       <r>   -11.8875    -0.0003     1.0556 </r>
       <r>   -11.7632     0.0000     1.0556 </r>
       <r>   -11.6389     0.0000     1.0556 </r>
       <r>   -11.5146     0.0000     1.0556 </r>
       <r>   -11.3903     0.0000     1.0556 </r>
       <r>   -11.2661     0.0000     1.0556 </r>
       <r>   -11.1418     0.0000     1.0556 </r>
       <r>   -11.0175     0.0000     1.0556 </r>
       <r>   -10.8932     0.0000     1.0556 </r>
       <r>   -10.7689     0.0000     1.0556 </r>
       <r>   -10.6446    -0.0005     1.0555 </r>
       <r>   -10.5204     0.3289     1.0964 </r>
       <r>   -10.3961     2.5437     1.4125 </r>
       <r>   -10.2718     2.4447     1.7163 </r>
       <r>   -10.1475     0.0474     1.7222 </r>
       <r>   -10.0232    -0.0001     1.7222 </r>
       <r>    -9.8990     0.0000     1.7222 </r>
       <r>    -9.7747    -0.0003     1.7222 </r>
       <r>    -9.6504     0.1552     1.7415 </r>
       <r>    -9.5261     1.0982     1.8780 </r>
       <r>    -9.4018     0.0881     1.8889 </r>
       <r>    -9.2775    -0.0001     1.8889 </r>
       <r>    -9.1533     0.0000     1.8889 </r>
       <r>    -9.0290     0.0000     1.8889 </r>
       <r>    -8.9047     0.0000     1.8889 </r>
       <r>    -8.7804     0.0000     1.8889 </r>
       <r>    -8.6561    -0.0097     1.8877 </r>
       <r>    -8.5319     0.7294     1.9783 </r>
       <r>    -8.4076     0.6297     2.0566 </r>
       <r>    -8.2833    -0.0083     2.0556 </r>
       <r>    -8.1590     0.0000     2.0555 </r>
       <r>    -8.0347     0.0384     2.0603 </r>
       <r>    -7.9104     0.4603     2.1175 </r>
       <r>    -7.7862     1.3171     2.2812 </r>
       <r>    -7.6619    -0.0277     2.2778 </r>
       <r>    -7.5376     0.0000     2.2778 </r>
       <r>    -7.4133     0.0000     2.2778 </r>
       <r>    -7.2890     0.0000     2.2778 </r>
       <r>    -7.1648     0.0000     2.2778 </r>
       <r>    -7.0405     0.0000     2.2778 </r>
       <r>    -6.9162    -0.0001     2.2778 </r>
       <r>    -6.7919     0.0799     2.2877 </r>
       <r>    -6.6676     3.3413     2.7030 </r>
       <r>    -6.5433     1.9745     2.9484 </r>
       <r>    -6.4191    -0.0315     2.9444 </r>
       <r>    -6.2948     0.0000     2.9444 </r>
       <r>    -6.1705     0.0000     2.9444 </r>
       <r>    -6.0462     0.0000     2.9444 </r>
       <r>    -5.9219    -0.0311     2.9406 </r>
       <r>    -5.7976     0.9563     3.0594 </r>
       <r>    -5.6734    -0.0312     3.0556 </r>
       <r>    -5.5491     0.0000     3.0556 </r>
       <r>    -5.4248     0.0000     3.0556 </r>
       <r>    -5.3005     0.0000     3.0556 </r>
       <r>    -5.1762     0.0000     3.0556 </r>
       <r>    -5.0520    -0.0213     3.0529 </r>
       <r>    -4.9277     1.1844     3.2001 </r>
       <r>    -4.8034     1.5386     3.3913 </r>
       <r>    -4.6791    -0.0195     3.3889 </r>
       <r>    -4.5548     0.0000     3.3889 </r>
       <r>    -4.4305     0.0000     3.3889 </r>
       <r>    -4.3063     0.0000     3.3889 </r>
       <r>    -4.1820     0.0000     3.3889 </r>
       <r>    -4.0577     0.0000     3.3889 </r>
       <r>    -3.9334     0.0000     3.3889 </r>
       <r>    -3.8091     0.0114     3.3903 </r>
       <r>    -3.6849     0.0662     3.3985 </r>
       <r>    -3.5606     0.0343     3.4028 </r>
       <r>    -3.4363    -0.0427     3.3975 </r>
       <r>    -3.3120     3.3584     3.8149 </r>
       <r>    -3.1877     2.1359     4.0803 </r>
       <r>    -3.0634     0.3252     4.1207 </r>
       <r>    -2.9392     2.6083     4.4449 </r>
       <r>    -2.8149     0.4964     4.5066 </r>
       <r>    -2.6906    -0.0171     4.5045 </r>
       <r>    -2.5663     0.2967     4.5414 </r>
       <r>    -2.4420     0.1494     4.5599 </r>
       <r>    -2.3177     0.0791     4.5697 </r>
       <r>    -2.1935    -0.0103     4.5685 </r>
       <r>    -2.0692     0.4466     4.6240 </r>
       <r>    -1.9449     0.0423     4.6292 </r>
       <r>    -1.8206     0.0378     4.6339 </r>
       <r>    -1.6963     1.0192     4.7606 </r>
       <r>    -1.5721     3.5168     5.1977 </r>
       <r>    -1.4478    -0.0004     5.1976 </r>
       <r>    -1.3235     0.3538     5.2416 </r>
       <r>    -1.1992     0.4804     5.3013 </r>
       <r>    -1.0749     0.6381     5.3806 </r>
       <r>    -0.9506     3.0135     5.7551 </r>
       <r>    -0.8264    -0.0412     5.7500 </r>
       <r>    -0.7021     0.0071     5.7509 </r>
       <r>    -0.5778     1.9738     5.9962 </r>
       <r>    -0.4535     1.8291     6.2235 </r>
       <r>    -0.3292    -0.0091     6.2224 </r>
       <r>    -0.2050     0.4481     6.2781 </r>
       <r>    -0.0807     0.4268     6.3311 </r>
       <r>     0.0436     0.0094     6.3323 </r>
       <r>     0.1679     0.4418     6.3872 </r>
       <r>     0.2922     0.4517     6.4433 </r>
       <r>     0.4165     0.2154     6.4701 </r>
       <r>     0.5407     0.2234     6.4979 </r>
       <r>     0.6650     2.9671     6.8666 </r>
       <r>     0.7893    -0.0448     6.8611 </r>
       <r>     0.9136     0.2113     6.8873 </r>
       <r>     1.0379     0.3112     6.9260 </r>
       <r>     1.1621     0.1490     6.9445 </r>
       <r>     1.2864    -0.0006     6.9444 </r>
       <r>     1.4107    -0.0161     6.9424 </r>
       <r>     1.5350     0.7681     7.0379 </r>
       <r>     1.6593     0.5792     7.1099 </r>
       <r>     1.7836     1.2652     7.2671 </r>
       <r>     1.9078     0.5318     7.3332 </r>
       <r>     2.0321     0.1463     7.3514 </r>
       <r>     2.1564     1.0393     7.4806 </r>
       <r>     2.2807     0.2758     7.5148 </r>
       <r>     2.4050     0.0805     7.5248 </r>
       <r>     2.5293     1.0539     7.6558 </r>
       <r>     2.6535     0.1731     7.6773 </r>
       <r>     2.7778     1.2849     7.8370 </r>
       <r>     2.9021     0.4293     7.8904 </r>
       <r>     3.0264    -0.0120     7.8889 </r>
       <r>     3.1507     0.0000     7.8889 </r>
       <r>     3.2749     0.0000     7.8889 </r>
       <r>     3.3992     0.0000     7.8889 </r>
       <r>     3.5235     0.0000     7.8889 </r>
       <r>     3.6478     0.0000     7.8889 </r>
       <r>     3.7721     0.0000     7.8889 </r>
       <r>     3.8964     0.0000     7.8889 </r>
       <r>     4.0206    -0.0027     7.8886 </r>
       <r>     4.1449     0.1433     7.9064 </r>
       <r>     4.2692     0.0828     7.9167 </r>
       <r>     4.3935     0.0917     7.9281 </r>
       <r>     4.5178     0.0574     7.9352 </r>
       <r>     4.6420    -0.0052     7.9346 </r>
       <r>     4.7663     0.1578     7.9542 </r>
       <r>     4.8906     0.3597     7.9989 </r>
       <r>     5.0149     0.5339     8.0652 </r>
       <r>     5.1392     0.1488     8.0837 </r>
       <r>     5.2635    -0.0079     8.0827 </r>
       <r>     5.3877     0.1860     8.1059 </r>
       <r>     5.5120     0.0425     8.1111 </r>
       <r>     5.6363    -0.0002     8.1111 </r>
       <r>     5.7606     0.0000     8.1111 </r>
       <r>     5.8849     0.0000     8.1111 </r>
       <r>     6.0092     0.0000     8.1111 </r>
       <r>     6.1334    -0.0002     8.1111 </r>
       <r>     6.2577     0.0947     8.1229 </r>
       <r>     6.3820     0.4682     8.1810 </r>
       <r>     6.5063     0.2191     8.2083 </r>
       <r>     6.6306    -0.0035     8.2078 </r>
       <r>     6.7548     0.2234     8.2356 </r>
       <r>     6.8791    -0.0017     8.2354 </r>
       <r>     7.0034     0.4703     8.2938 </r>
       <r>     7.1277     1.2189     8.4453 </r>
       <r>     7.2520     0.9053     8.5578 </r>
       <r>     7.3763     0.6046     8.6330 </r>
       <r>     7.5005     0.2453     8.6634 </r>
       <r>     7.6248     0.9306     8.7791 </r>
       <r>     7.7491     0.9029     8.8913 </r>
       <r>     7.8734     0.4327     8.9451 </r>
       <r>     7.9977    -0.0053     8.9444 </r>
       <r>     8.1219     0.0000     8.9444 </r>
       <r>     8.2462     0.0000     8.9444 </r>
       <r>     8.3705     0.0000     8.9444 </r>
       <r>     8.4948     0.0000     8.9444 </r>
       <r>     8.6191     0.0000     8.9444 </r>
       <r>     8.7434     0.0000     8.9444 </r>
       <r>     8.8676     0.0000     8.9444 </r>
       <r>     8.9919     0.0055     8.9451 </r>
       <r>     9.1162     0.0321     8.9491 </r>
       <r>     9.2405    -0.0008     8.9490 </r>
       <r>     9.3648     0.1695     8.9701 </r>
       <r>     9.4891     0.5789     9.0420 </r>
       <r>     9.6133     0.4551     9.0986 </r>
       <r>     9.7376    -0.0079     9.0976 </r>
       <r>     9.8619     0.6735     9.1813 </r>
       <r>     9.9862    -0.0081     9.1803 </r>
       <r>    10.1105     0.4549     9.2368 </r>
       <r>    10.2347     0.6076     9.3123 </r>
       <r>    10.3590     0.5658     9.3827 </r>
       <r>    10.4833     0.0129     9.3843 </r>
       <r>    10.6076     0.0000     9.3843 </r>
       <r>    10.7319     0.0000     9.3843 </r>
       <r>    10.8562     0.0000     9.3843 </r>
       <r>    10.9804    -0.0162     9.3823 </r>
       <r>    11.1047     0.9971     9.5062 </r>
       <r>    11.2290     0.5836     9.5787 </r>
       <r>    11.3533     0.4447     9.6340 </r>
       <r>    11.4776     0.6704     9.7173 </r>
       <r>    11.6018     0.6774     9.8015 </r>
[...]
       </set>
       <set comment="band 10">
        <r>  0.0000  0.0000  0.2320  0.0000  0.0000  0.0000  0.0000  0.0000  0.0000 </r>
        <r>  0.0000  0.0000  0.2109  0.0000  0.0000  0.0000  0.0000  0.0000  0.0000 </r>
        <r>  0.0001  0.0003  0.0000  0.0008  0.0000  0.0000  0.0000  0.0000  0.0000 </r>
        <r>  0.0018  0.0000  0.0000  0.0000  0.0000  0.0000  0.0000  0.0000  0.0000 </r>
       </set>
       <set comment="band 11">
        <r>  0.0000  0.0000  0.0000  0.0000  0.0000  0.0000  0.0000  0.0000  0.0000 </r>
        <r>  0.0000  0.0000  0.0000  0.0000  0.0000  0.0000  0.0000  0.0000  0.0000 </r>
        <r>  0.1787  0.0101  0.0000  0.0302  0.0000  0.0000  0.0000  0.0000  0.0000 </r>
        <r>  0.1778  0.0101  0.0000  0.0302  0.0000  0.0000  0.0000  0.0000  0.0000 </r>
       </set>
       <set comment="band 12">
        <r>  0.1778  0.0101  0.0000  0.0302  0.0000  0.0000  0.0000  0.0000  0.0000 </r>
        <r>  0.1787  0.0101  0.0000  0.0302  0.0000  0.0000  0.0000  0.0000  0.0000 </r>
        <r>  0.0000  0.0000  0.0000  0.0000  0.0000  0.0000  0.0000  0.0000  0.0000 </r>
        <r>  0.0000  0.0000  0.0000  0.0000  0.0000  0.0000  0.0000  0.0000  0.0000 </r>
       </set>
       <set comment="band 13">
        <r>  0.0094  0.0015  0.0001  0.0046  0.0000  0.0000  0.0000  0.0000  0.0000 </r>
        <r>  0.0009  0.0105  0.0001  0.0314  0.0000  0.0000  0.0000  0.0000  0.0000 </r>
        <r>  0.0000  0.0000  0.0981  0.0000  0.0000  0.0000  0.0000  0.0000  0.0000 </r>
        <r>  0.0000  0.0000  0.0815  0.0000  0.0000  0.0000  0.0000  0.0000  0.0000 </r>
       </set>
       <set comment="band 14">
        <r>  0.0000  0.0000  0.0815  0.0000  0.0000  0.0000  0.0000  0.0000  0.0000 </r>
        <r>  0.0000  0.0000  0.0981  0.0000  0.0000  0.0000  0.0000  0.0000  0.0000 </r>
        <r>  0.0009  0.0105  0.0001  0.0314  0.0000  0.0000  0.0000  0.0000  0.0000 </r>
        <r>  0.0094  0.0015  0.0001  0.0046  0.0000  0.0000  0.0000  0.0000  0.0000 </r>
       </set>
      </set>
      <set comment="kpoint 26">
       <set comment="band 1">
        <r>  0.0000  0.0000  0.0000  0.0000  0.0000  0.0000  0.0000  0.0000  0.0000 </r>
        <r>  0.0000  0.0000  0.0000  0.0000  0.0000  0.0000  0.0000  0.0000  0.0000 </r>
        <r>  0.2912  0.0305  0.0000  0.0102  0.0000  0.0000  0.0000  0.0000  0.0000 </r>
        <r>  0.2876  0.0308  0.0000  0.0103  0.0000  0.0000  0.0000  0.0000  0.0000 </r>
       </set>
       <set comment="band 2">
        <r>  0.2876  0.0308  0.0000  0.0103  0.0000  0.0000  0.0000  0.0000  0.0000 </r>
        <r>  0.2912  0.0305  0.0000  0.0102  0.0000  0.0000  0.0000  0.0000  0.0000 </r>
        <r>  0.0000  0.0000  0.0000  0.0000  0.0000  0.0000  0.0000  0.0000  0.0000 </r>
        <r>  0.0000  0.0000  0.0000  0.0000  0.0000  0.0000  0.0000  0.0000  0.0000 </r>
       </set>
       <set comment="band 3">
        <r>  0.0000  0.0000  0.0000  0.0000  0.0000  0.0000  0.0000  0.0000  0.0000 </r>
        <r>  0.0000  0.0000  0.0000  0.0000  0.0000  0.0000  0.0000  0.0000  0.0000 </r>
        <r>  0.1180  0.1802  0.0000  0.0902  0.0000  0.0000  0.0000  0.0000  0.0000 </r>
        <r>  0.1188  0.1769  0.0000  0.0904  0.0000  0.0000  0.0000  0.0000  0.0000 </r>
       </set>
       <set comment="band 4">
        <r>  0.1188  0.1769  0.0000  0.0904  0.0000  0.0000  0.0000  0.0000  0.0000 </r>
        <r>  0.1180  0.1802  0.0000  0.0902  0.0000  0.0000  0.0000  0.0000  0.0000 </r>
        <r>  0.0000  0.0000  0.0000  0.0000  0.0000  0.0000  0.0000  0.0000  0.0000 </r>
        <r>  0.0000  0.0000  0.0000  0.0000  0.0000  0.0000  0.0000  0.0000  0.0000 </r>
       </set>
       <set comment="band 5">
        <r>  0.0000  0.0000  0.0001  0.0000  0.0000  0.0000  0.0000  0.0000  0.0000 </r>
        <r>  0.0000  0.0000  0.0000  0.0000  0.0000  0.0000  0.0000  0.0000  0.0000 </r>
        <r>  0.0124  0.1215  0.0000  0.2425  0.0000  0.0000  0.0000  0.0000  0.0000 </r>
        <r>  0.0131  0.1222  0.0000  0.2400  0.0000  0.0000  0.0000  0.0000  0.0000 </r>
       </set>
       <set comment="band 6">
        <r>  0.0131  0.1222  0.0000  0.2400  0.0000  0.0000  0.0000  0.0000  0.0000 </r>
        <r>  0.0124  0.1215  0.0000  0.2425  0.0000  0.0000  0.0000  0.0000  0.0000 </r>
        <r>  0.0000  0.0000  0.0000  0.0000  0.0000  0.0000  0.0000  0.0000  0.0000 </r>
        <r>  0.0000  0.0000  0.0001  0.0000  0.0000  0.0000  0.0000  0.0000  0.0000 </r>
       </set>
       <set comment="band 7">
        <r>  0.0009  0.0005  0.0000  0.0002  0.0000  0.0000  0.0000  0.0000  0.0000 </r>
        <r>  0.0015  0.0001  0.0000  0.0001  0.0000  0.0000  0.0000  0.0000  0.0000 </r>
        <r>  0.0000  0.0000  0.2306  0.0000  0.0000  0.0000  0.0000  0.0000  0.0000 </r>
        <r>  0.0000  0.0000  0.2208  0.0000  0.0000  0.0000  0.0000  0.0000  0.0000 </r>
       </set>
       <set comment="band 8">
        <r>  0.0000  0.0000  0.2208  0.0000  0.0000  0.0000  0.0000  0.0000  0.0000 </r>
        <r>  0.0000  0.0000  0.2306  0.0000  0.0000  0.0000  0.0000  0.0000  0.0000 </r>
        <r>  0.0015  0.0001  0.0000  0.0001  0.0000  0.0000  0.0000  0.0000  0.0000 </r>
        <r>  0.0009  0.0005  0.0000  0.0002  0.0000  0.0000  0.0000  0.0000  0.0000 </r>
       </set>
       <set comment="band 9">
        <r>  0.0000  0.0005  0.0000  0.0010  0.0000  0.0000  0.0000  0.0000  0.0000 </r>
        <r>  0.0001  0.0001  0.0000  0.0003  0.0000  0.0000  0.0000  0.0000  0.0000 </r>
        <r>  0.0000  0.0000  0.3014  0.0000  0.0000  0.0000  0.0000  0.0000  0.0000 </r>
        <r>  0.0000  0.0000  0.3063  0.0000  0.0000  0.0000  0.0000  0.0000  0.0000 </r>
       </set>
       <set comment="band 10">
        <r>  0.0000  0.0000  0.3063  0.0000  0.0000  0.0000  0.0000  0.0000  0.0000 </r>
        <r>  0.0000  0.0000  0.3014  0.0000  0.0000  0.0000  0.0000  0.0000  0.0000 </r>
        <r>  0.0001  0.0001  0.0000  0.0003  0.0000  0.0000  0.0000  0.0000  0.0000 </r>
        <r>  0.0000  0.0005  0.0000  0.0010  0.0000  0.0000  0.0000  0.0000  0.0000 </r>
       </set>
       <set comment="band 11">
        <r>  0.0000  0.0000  0.0507  0.0000  0.0000  0.0000  0.0000  0.0000  0.0000 </r>
        <r>  0.0000  0.0000  0.0620  0.0000  0.0000  0.0000  0.0000  0.0000  0.0000 </r>
        <r>  0.0075  0.0223  0.0000  0.0138  0.0000  0.0000  0.0000  0.0000  0.0000 </r>
        <r>  0.0069  0.0196  0.0000  0.0120  0.0000  0.0000  0.0000  0.0000  0.0000 </r>
       </set>
       <set comment="band 12">
        <r>  0.0069  0.0196  0.0000  0.0120  0.0000  0.0000  0.0000  0.0000  0.0000 </r>
        <r>  0.0075  0.0223  0.0000  0.0138  0.0000  0.0000  0.0000  0.0000  0.0000 </r>
        <r>  0.0000  0.0000  0.0620  0.0000  0.0000  0.0000  0.0000  0.0000  0.0000 </r>
        <r>  0.0000  0.0000  0.0507  0.0000  0.0000  0.0000  0.0000  0.0000  0.0000 </r>
       </set>
       <set comment="band 13">
        <r>  0.0000  0.0000  0.0134  0.0000  0.0000  0.0000  0.0000  0.0000  0.0000 </r>
        <r>  0.0000  0.0000  0.0005  0.0000  0.0000  0.0000  0.0000  0.0000  0.0000 </r>
        <r>  0.0534  0.0699  0.0000  0.0894  0.0000  0.0000  0.0000  0.0000  0.0000 </r>
        <r>  0.0510  0.0727  0.0000  0.0925  0.0000  0.0000  0.0000  0.0000  0.0000 </r>
       </set>
       <set comment="band 14">
        <r>  0.0510  0.0727  0.0000  0.0925  0.0000  0.0000  0.0000  0.0000  0.0000 </r>
        <r>  0.0534  0.0699  0.0000  0.0894  0.0000  0.0000  0.0000  0.0000  0.0000 </r>
        <r>  0.0000  0.0000  0.0005  0.0000  0.0000  0.0000  0.0000  0.0000  0.0000 </r>
        <r>  0.0000  0.0000  0.0134  0.0000  0.0000  0.0000  0.0000  0.0000  0.0000 </r>
       </set>
      </set>
      <set comment="kpoint 27">
       <set comment="band 1">
        <r>  0.0000  0.0000  0.0000  0.0000  0.0000  0.0000  0.0000  0.0000  0.0000 </r>
        <r>  0.0000  0.0000  0.0000  0.0000  0.0000  0.0000  0.0000  0.0000  0.0000 </r>
        <r>  0.2615  0.0492  0.0000  0.0364  0.0000  0.0000  0.0000  0.0000  0.0000 </r>
        <r>  0.2541  0.0503  0.0000  0.0376  0.0000  0.0000  0.0000  0.0000  0.0000 </r>
       </set>
       <set comment="band 2">
        <r>  0.2541  0.0503  0.0000  0.0376  0.0000  0.0000  0.0000  0.0000  0.0000 </r>
        <r>  0.2615  0.0492  0.0000  0.0364  0.0000  0.0000  0.0000  0.0000  0.0000 </r>
        <r>  0.0000  0.0000  0.0000  0.0000  0.0000  0.0000  0.0000  0.0000  0.0000 </r>
        <r>  0.0000  0.0000  0.0000  0.0000  0.0000  0.0000  0.0000  0.0000  0.0000 </r>
       </set>
       <set comment="band 3">
        <r>  0.0000  0.0000  0.0000  0.0000  0.0000  0.0000  0.0000  0.0000  0.0000 </r>
        <r>  0.0000  0.0000  0.0000  0.0000  0.0000  0.0000  0.0000  0.0000  0.0000 </r>
        <r>  0.1652  0.0310  0.0000  0.1632  0.0000  0.0000  0.0000  0.0000  0.0000 </r>
        <r>  0.1692  0.0291  0.0000  0.1609  0.0000  0.0000  0.0000  0.0000  0.0000 </r>
       </set>
       <set comment="band 4">
        <r>  0.1692  0.0291  0.0000  0.1609  0.0000  0.0000  0.0000  0.0000  0.0000 </r>
        <r>  0.1652  0.0310  0.0000  0.1632  0.0000  0.0000  0.0000  0.0000  0.0000 </r>
        <r>  0.0000  0.0000  0.0000  0.0000  0.0000  0.0000  0.0000  0.0000  0.0000 </r>
        <r>  0.0000  0.0000  0.0000  0.0000  0.0000  0.0000  0.0000  0.0000  0.0000 </r>
       </set>
       <set comment="band 5">
        <r>  0.0000  0.0000  0.0000  0.0000  0.0000  0.0000  0.0000  0.0000  0.0000 </r>
        <r>  0.0000  0.0000  0.0000  0.0000  0.0000  0.0000  0.0000  0.0000  0.0000 </r>
        <r>  0.0363  0.2408  0.0000  0.0929  0.0000  0.0000  0.0000  0.0000  0.0000 </r>
        <r>  0.0373  0.2398  0.0000  0.0920  0.0000  0.0000  0.0000  0.0000  0.0000 </r>
       </set>
       <set comment="band 6">
        <r>  0.0373  0.2398  0.0000  0.0920  0.0000  0.0000  0.0000  0.0000  0.0000 </r>
        <r>  0.0363  0.2408  0.0000  0.0929  0.0000  0.0000  0.0000  0.0000  0.0000 </r>
        <r>  0.0000  0.0000  0.0000  0.0000  0.0000  0.0000  0.0000  0.0000  0.0000 </r>
        <r>  0.0000  0.0000  0.0000  0.0000  0.0000  0.0000  0.0000  0.0000  0.0000 </r>
       </set>
       <set comment="band 7">
        <r>  0.0004  0.0004  0.0000  0.0004  0.0000  0.0000  0.0000  0.0000  0.0000 </r>
        <r>  0.0009  0.0002  0.0000  0.0001  0.0000  0.0000  0.0000  0.0000  0.0000 </r>
        <r>  0.0000  0.0000  0.2556  0.0000  0.0000  0.0000  0.0000  0.0000  0.0000 </r>
        <r>  0.0000  0.0000  0.2348  0.0000  0.0000  0.0000  0.0000  0.0000  0.0000 </r>
       </set>
       <set comment="band 8">
        <r>  0.0000  0.0000  0.2348  0.0000  0.0000  0.0000  0.0000  0.0000  0.0000 </r>
        <r>  0.0000  0.0000  0.2556  0.0000  0.0000  0.0000  0.0000  0.0000  0.0000 </r>
        <r>  0.0009  0.0002  0.0000  0.0001  0.0000  0.0000  0.0000  0.0000  0.0000 </r>
        <r>  0.0004  0.0004  0.0000  0.0004  0.0000  0.0000  0.0000  0.0000  0.0000 </r>
       </set>
       <set comment="band 9">
        <r>  0.0004  0.0002  0.0000  0.0005  0.0000  0.0000  0.0000  0.0000  0.0000 </r>
        <r>  0.0001  0.0001  0.0000  0.0005  0.0000  0.0000  0.0000  0.0000  0.0000 </r>
        <r>  0.0000  0.0000  0.2513  0.0000  0.0000  0.0000  0.0000  0.0000  0.0000 </r>
        <r>  0.0000  0.0000  0.2684  0.0000  0.0000  0.0000  0.0000  0.0000  0.0000 </r>
       </set>
       <set comment="band 10">
        <r>  0.0000  0.0000  0.2684  0.0000  0.0000  0.0000  0.0000  0.0000  0.0000 </r>
        <r>  0.0000  0.0000  0.2513  0.0000  0.0000  0.0000  0.0000  0.0000  0.0000 </r>
        <r>  0.0001  0.0001  0.0000  0.0005  0.0000  0.0000  0.0000  0.0000  0.0000 </r>
        <r>  0.0004  0.0002  0.0000  0.0005  0.0000  0.0000  0.0000  0.0000  0.0000 </r>
       </set>
       <set comment="band 11">
        <r>  0.0000  0.0000  0.0015  0.0000  0.0000  0.0000  0.0000  0.0000  0.0000 </r>
        <r>  0.0000  0.0000  0.0031  0.0000  0.0000  0.0000  0.0000  0.0000  0.0000 </r>
        <r>  0.1067  0.0622  0.0000  0.0747  0.0000  0.0000  0.0000  0.0000  0.0000 </r>
        <r>  0.0967  0.0503  0.0000  0.0666  0.0000  0.0000  0.0000  0.0000  0.0000 </r>
       </set>
       <set comment="band 12">
        <r>  0.0967  0.0503  0.0000  0.0666  0.0000  0.0000  0.0000  0.0000  0.0000 </r>
        <r>  0.1067  0.0622  0.0000  0.0747  0.0000  0.0000  0.0000  0.0000  0.0000 </r>
        <r>  0.0000  0.0000  0.0031  0.0000  0.0000  0.0000  0.0000  0.0000  0.0000 </r>
        <r>  0.0000  0.0000  0.0015  0.0000  0.0000  0.0000  0.0000  0.0000  0.0000 </r>
       </set>
       <set comment="band 13">
        <r>  0.0291  0.0207  0.0000  0.0044  0.0000  0.0000  0.0000  0.0000  0.0000 </r>
        <r>  0.0146  0.0080  0.0000  0.0032  0.0000  0.0000  0.0000  0.0000  0.0000 </r>
        <r>  0.0000  0.0000  0.0558  0.0000  0.0000  0.0000  0.0000  0.0000  0.0000 </r>
        <r>  0.0000  0.0000  0.0547  0.0000  0.0000  0.0000  0.0000  0.0000  0.0000 </r>
       </set>
       <set comment="band 14">
        <r>  0.0000  0.0000  0.0547  0.0000  0.0000  0.0000  0.0000  0.0000  0.0000 </r>
        <r>  0.0000  0.0000  0.0558  0.0000  0.0000  0.0000  0.0000  0.0000  0.0000 </r>
        <r>  0.0146  0.0080  0.0000  0.0032  0.0000  0.0000  0.0000  0.0000  0.0000 </r>
        <r>  0.0291  0.0207  0.0000  0.0044  0.0000  0.0000  0.0000  0.0000  0.0000 </r>
       </set>
      </set>
      <set comment="kpoint 28">
       <set comment="band 1">
        <r>  0.0000  0.0000  0.0000  0.0000  0.0000  0.0000  0.0000  0.0000  0.0000 </r>
        <r>  0.0000  0.0000  0.0001  0.0000  0.0000  0.0000  0.0000  0.0000  0.0000 </r>
        <r>  0.4904  0.0000  0.0000  0.0000  0.0000  0.0000  0.0000  0.0000  0.0000 </r>
        <r>  0.0000  0.1222  0.0000  0.1222  0.0000  0.0000  0.0000  0.0000  0.0000 </r>
       </set>
       <set comment="band 2">
        <r>  0.0000  0.1222  0.0000  0.1222  0.0000  0.0000  0.0000  0.0000  0.0000 </r>
        <r>  0.4904  0.0000  0.0000  0.0000  0.0000  0.0000  0.0000  0.0000  0.0000 </r>
        <r>  0.0000  0.0000  0.0001  0.0000  0.0000  0.0000  0.0000  0.0000  0.0000 </r>
        <r>  0.0000  0.0000  0.0000  0.0000  0.0000  0.0000  0.0000  0.0000  0.0000 </r>
       </set>
       <set comment="band 3">
        <r>  0.0000  0.0000  0.0000  0.0000  0.0000  0.0000  0.0000  0.0000  0.0000 </r>
        <r>  0.0000  0.0000  0.0000  0.0000  0.0000  0.0000  0.0000  0.0000  0.0000 </r>
        <r>  0.0000  0.1235  0.0000  0.1235  0.0000  0.0000  0.0000  0.0000  0.0000 </r>
        <r>  0.4883  0.0000  0.0000  0.0000  0.0000  0.0000  0.0000  0.0000  0.0000 </r>
       </set>
       <set comment="band 4">
        <r>  0.4883  0.0000  0.0000  0.0000  0.0000  0.0000  0.0000  0.0000  0.0000 </r>
        <r>  0.0000  0.1235  0.0000  0.1235  0.0000  0.0000  0.0000  0.0000  0.0000 </r>
        <r>  0.0000  0.0000  0.0000  0.0000  0.0000  0.0000  0.0000  0.0000  0.0000 </r>
        <r>  0.0000  0.0000  0.0000  0.0000  0.0000  0.0000  0.0000  0.0000  0.0000 </r>
       </set>
       <set comment="band 5">
        <r>  0.0000  0.0000  0.0001  0.0000  0.0000  0.0000  0.0000  0.0000  0.0000 </r>
        <r>  0.0000  0.0000  0.0000  0.0000  0.0000  0.0000  0.0000  0.0000  0.0000 </r>
        <r>  0.0000  0.1625  0.0000  0.1625  0.0000  0.0000  0.0000  0.0000  0.0000 </r>
        <r>  0.0000  0.1619  0.0000  0.1619  0.0000  0.0000  0.0000  0.0000  0.0000 </r>
       </set>
       <set comment="band 6">
        <r>  0.0000  0.1619  0.0000  0.1619  0.0000  0.0000  0.0000  0.0000  0.0000 </r>
        <r>  0.0000  0.1625  0.0000  0.1625  0.0000  0.0000  0.0000  0.0000  0.0000 </r>
        <r>  0.0000  0.0000  0.0000  0.0000  0.0000  0.0000  0.0000  0.0000  0.0000 </r>
        <r>  0.0000  0.0000  0.0001  0.0000  0.0000  0.0000  0.0000  0.0000  0.0000 </r>
       </set>
       <set comment="band 7">
        <r>  0.0000  0.0005  0.0000  0.0005  0.0000  0.0000  0.0000  0.0000  0.0000 </r>
        <r>  0.0008  0.0000  0.0000  0.0000  0.0000  0.0000  0.0000  0.0000  0.0000 </r>
        <r>  0.0000  0.0000  0.5275  0.0000  0.0000  0.0000  0.0000  0.0000  0.0000 </r>
        <r>  0.0000  0.0000  0.0000  0.0000  0.0000  0.0000  0.0000  0.0000  0.0000 </r>
       </set>
       <set comment="band 8">
        <r>  0.0000  0.0000  0.0000  0.0000  0.0000  0.0000  0.0000  0.0000  0.0000 </r>
        <r>  0.0000  0.0000  0.5275  0.0000  0.0000  0.0000  0.0000  0.0000  0.0000 </r>
        <r>  0.0008  0.0000  0.0000  0.0000  0.0000  0.0000  0.0000  0.0000  0.0000 </r>
        <r>  0.0000  0.0005  0.0000  0.0005  0.0000  0.0000  0.0000  0.0000  0.0000 </r>
       </set>
       <set comment="band 9">
        <r>  0.0000  0.0004  0.0000  0.0004  0.0000  0.0000  0.0000  0.0000  0.0000 </r>
        <r>  0.0000  0.0004  0.0000  0.0004  0.0000  0.0000  0.0000  0.0000  0.0000 </r>
        <r>  0.0000  0.0000  0.0000  0.0000  0.0000  0.0000  0.0000  0.0000  0.0000 </r>
        <r>  0.0000  0.0000  0.5249  0.0000  0.0000  0.0000  0.0000  0.0000  0.0000 </r>
       </set>
       <set comment="band 10">
        <r>  0.0000  0.0000  0.5249  0.0000  0.0000  0.0000  0.0000  0.0000  0.0000 </r>
        <r>  0.0000  0.0000  0.0000  0.0000  0.0000  0.0000  0.0000  0.0000  0.0000 </r>
        <r>  0.0000  0.0004  0.0000  0.0004  0.0000  0.0000  0.0000  0.0000  0.0000 </r>
        <r>  0.0000  0.0004  0.0000  0.0004  0.0000  0.0000  0.0000  0.0000  0.0000 </r>
       </set>
       <set comment="band 11">
        <r>  0.0001  0.0000  0.0000  0.0000  0.0000  0.0000  0.0000  0.0000  0.0000 </r>
        <r>  0.0000  0.0201  0.0000  0.0201  0.0000  0.0000  0.0000  0.0000  0.0000 </r>
        <r>  0.0000  0.0000  0.0000  0.0000  0.0000  0.0000  0.0000  0.0000  0.0000 </r>
        <r>  0.0000  0.0000  0.0000  0.0000  0.0000  0.0000  0.0000  0.0000  0.0000 </r>
       </set>
       <set comment="band 12">
        <r>  0.0000  0.0000  0.0000  0.0000  0.0000  0.0000  0.0000  0.0000  0.0000 </r>
        <r>  0.0000  0.0000  0.0000  0.0000  0.0000  0.0000  0.0000  0.0000  0.0000 </r>
        <r>  0.0000  0.0201  0.0000  0.0201  0.0000  0.0000  0.0000  0.0000  0.0000 </r>
        <r>  0.0001  0.0000  0.0000  0.0000  0.0000  0.0000  0.0000  0.0000  0.0000 </r>
       </set>
       <set comment="band 13">
        <r>  0.0000  0.1121  0.0000  0.1121  0.0000  0.0000  0.0000  0.0000  0.0000 </r>
        <r>  0.0320  0.0000  0.0137  0.0000  0.0000  0.0000  0.0000  0.0000  0.0000 </r>
        <r>  0.0230  0.0000  0.0190  0.0000  0.0000  0.0000  0.0000  0.0000  0.0000 </r>
        <r>  0.0000  0.0805  0.0000  0.0806  0.0000  0.0000  0.0000  0.0000  0.0000 </r>
       </set>
       <set comment="band 14">
        <r>  0.0000  0.0806  0.0000  0.0805  0.0000  0.0000  0.0000  0.0000  0.0000 </r>
        <r>  0.0230  0.0000  0.0190  0.0000  0.0000  0.0000  0.0000  0.0000  0.0000 </r>
        <r>  0.0320  0.0000  0.0137  0.0000  0.0000  0.0000  0.0000  0.0000  0.0000 </r>
        <r>  0.0000  0.1122  0.0000  0.1120  0.0000  0.0000  0.0000  0.0000  0.0000 </r>
       </set>
      </set>
     </set>
    </set>
   </array>
  </projected>
 </calculation>
 <structure name="finalpos" >
  <crystal>
   <varray name="basis" >
    <v>       2.46120000       0.00000000       0.00000000 </v>
    <v>      -1.23060000       2.13146172       0.00000000 </v>
    <v>       0.00000000       0.00000000       6.70790000 </v>
   </varray>
   <i name="volume">     35.18933212 </i>
   <varray name="rec_basis" >
    <v>       0.40630587       0.23458080       0.00000000 </v>
    <v>       0.00000000       0.46916160       0.00000000 </v>
    <v>       0.00000000       0.00000000       0.14907795 </v>
   </varray>
  </crystal>
  <varray name="positions" >
   <v>       0.00000000       0.00000000       0.00000000 </v>
   <v>       0.33333333       0.66666667       0.00000000 </v>
   <v>       0.33333333       0.66666667       0.50000000 </v>
   <v>       0.66666667       0.33333333       0.50000000 </v>
  </varray>
 </structure>
</modeling>
