   4   4   1   0
  0.8797333E+01  0.2461200E-09  0.2461200E-09  0.6707900E-09  0.5000000E-15
  1.000000000000000E-004
  CAR 
 unknown system                          
     20.76733205    -16.84709449  301      4.85918035      1.00000000
    -16.847  0.0000E+00  0.0000E+00  0.0000E+00  0.0000E+00
    -16.722  0.0000E+00  0.0000E+00  0.0000E+00  0.0000E+00
    -16.596  0.0000E+00  0.0000E+00  0.0000E+00  0.0000E+00
    -16.471  0.0000E+00  0.0000E+00  0.0000E+00  0.0000E+00
    -16.346  0.0000E+00  0.0000E+00  0.0000E+00  0.0000E+00
    -16.220  0.0000E+00  0.0000E+00  0.0000E+00  0.0000E+00
    -16.095  0.0000E+00  0.0000E+00  0.0000E+00  0.0000E+00
    -15.969  0.0000E+00  0.0000E+00  0.0000E+00  0.0000E+00
    -15.844  0.0000E+00  0.0000E+00  0.0000E+00  0.0000E+00
    -15.719  0.0000E+00  0.0000E+00  0.0000E+00  0.0000E+00
    -15.593 -0.7364E-37 -0.8064E-42 -0.9234E-38 -0.1011E-42
    -15.468 -0.7297E-20 -0.1731E-23 -0.9149E-21 -0.2170E-24
    -15.343 -0.2147E-08 -0.1124E-10 -0.2692E-09 -0.1410E-11
    -15.217 -0.1532E-02 -0.2061E-03 -0.1920E-03 -0.2584E-04
    -15.092  0.1146E+00  0.5821E-01  0.1418E-01  0.7273E-02
    -14.966  0.1382E+00  0.1627E+00  0.3151E-01  0.2768E-01
    -14.841  0.1664E+00  0.1479E+00  0.5238E-01  0.4622E-01
    -14.716  0.2540E-01  0.7491E-01  0.5556E-01  0.5561E-01
    -14.590 -0.6439E-03 -0.4836E-03  0.5548E-01  0.5555E-01
    -14.465  0.2584E+00  0.2752E-01  0.8788E-01  0.5900E-01
    -14.339  0.1039E+01  0.1087E+01  0.2182E+00  0.1953E+00
    -14.214  0.9255E+00  0.8102E+00  0.3342E+00  0.2969E+00
    -14.089  0.4382E+00  0.7462E+00  0.3892E+00  0.3905E+00
    -13.963 -0.2330E-02 -0.1275E-01  0.3889E+00  0.3889E+00
    -13.838 -0.3098E-09 -0.4120E-07  0.3889E+00  0.3889E+00
    -13.713  0.0000E+00  0.0000E+00  0.3889E+00  0.3889E+00
    -13.587 -0.4421E-33 -0.1091E-37  0.3889E+00  0.3889E+00
    -13.462 -0.6188E-17 -0.3016E-20  0.3889E+00  0.3889E+00
    -13.336 -0.2578E-06 -0.2529E-08  0.3889E+00  0.3889E+00
    -13.211 -0.1999E-01 -0.5546E-02  0.3864E+00  0.3882E+00
    -13.086  0.9285E+00  0.6158E+00  0.5028E+00  0.4654E+00
    -12.960  0.8707E+00  0.9576E+00  0.6120E+00  0.5855E+00
    -12.835  0.8991E+00  0.1088E+01  0.7247E+00  0.7218E+00
    -12.710 -0.1974E-01  0.3235E-02  0.7222E+00  0.7222E+00
    -12.584 -0.1229E-01 -0.2200E-02  0.7207E+00  0.7219E+00
    -12.459  0.7897E+00  0.4416E+00  0.8197E+00  0.7773E+00
    -12.333  0.9497E+00  0.1071E+01  0.9388E+00  0.9116E+00
    -12.208  0.9523E+00  0.1137E+01  0.1058E+01  0.1054E+01
    -12.083 -0.2092E-01  0.1093E-01  0.1056E+01  0.1056E+01
    -11.957 -0.4236E-06 -0.1797E-04  0.1056E+01  0.1056E+01
    -11.832  0.0000E+00  0.0000E+00  0.1056E+01  0.1056E+01
    -11.706  0.0000E+00  0.0000E+00  0.1056E+01  0.1056E+01
    -11.581  0.0000E+00  0.0000E+00  0.1056E+01  0.1056E+01
    -11.456  0.0000E+00  0.0000E+00  0.1056E+01  0.1056E+01
    -11.330  0.0000E+00  0.0000E+00  0.1056E+01  0.1056E+01
    -11.205  0.0000E+00  0.0000E+00  0.1056E+01  0.1056E+01
    -11.080 -0.3154E-35 -0.7543E-40  0.1056E+01  0.1056E+01
    -10.954 -0.2388E-18 -0.1015E-21  0.1056E+01  0.1056E+01
    -10.829 -0.5650E-07 -0.4361E-09  0.1056E+01  0.1056E+01
    -10.703 -0.2837E-01 -0.5003E-02  0.1052E+01  0.1055E+01
    -10.578  0.1812E+01  0.1042E+01  0.1279E+01  0.1186E+01
    -10.453  0.2386E+01  0.2454E+01  0.1578E+01  0.1493E+01
    -10.327  0.1156E+01  0.1860E+01  0.1723E+01  0.1727E+01
    -10.202 -0.8880E-02 -0.3471E-01  0.1722E+01  0.1722E+01
    -10.076 -0.3653E-08 -0.3542E-06  0.1722E+01  0.1722E+01
     -9.951 -0.6439E-06 -0.1210E-07  0.1722E+01  0.1722E+01
     -9.826 -0.1791E-01 -0.7657E-02  0.1720E+01  0.1721E+01
     -9.700  0.9357E+00  0.5792E+00  0.1837E+01  0.1794E+01
     -9.575  0.4137E+00  0.7732E+00  0.1889E+01  0.1891E+01
     -9.450 -0.2296E-02 -0.1544E-01  0.1889E+01  0.1889E+01
     -9.324 -0.2943E-09 -0.1536E-06  0.1889E+01  0.1889E+01
     -9.199  0.0000E+00  0.0000E+00  0.1889E+01  0.1889E+01
     -9.073 -0.3040E-32 -0.1714E-34  0.1889E+01  0.1889E+01
     -8.948 -0.2614E-16 -0.6344E-18  0.1889E+01  0.1889E+01
     -8.823 -0.6718E-06 -0.7055E-07  0.1889E+01  0.1889E+01
     -8.697 -0.2789E-01 -0.1670E-01  0.1885E+01  0.1887E+01
     -8.572  0.1276E+01  0.1022E+01  0.2045E+01  0.2015E+01
     -8.447  0.8111E-01  0.3252E+00  0.2056E+01  0.2056E+01
     -8.321 -0.9515E-04 -0.9943E-03  0.2056E+01  0.2056E+01
     -8.196 -0.4697E-03 -0.2571E-02  0.2055E+01  0.2055E+01
     -8.070  0.2103E+00  0.2458E+00  0.2082E+01  0.2086E+01
     -7.945  0.1293E+01  0.1088E+01  0.2244E+01  0.2223E+01
     -7.820  0.2735E+00  0.4418E+00  0.2278E+01  0.2278E+01
     -7.694 -0.3596E-02 -0.1105E-02  0.2278E+01  0.2278E+01
     -7.569 -0.4385E-08 -0.6578E-10  0.2278E+01  0.2278E+01
     -7.443  0.0000E+00  0.0000E+00  0.2278E+01  0.2278E+01
     -7.318 -0.4316E-36 -0.5841E-40  0.2278E+01  0.2278E+01
     -7.193 -0.5243E-19 -0.7850E-22  0.2278E+01  0.2278E+01
     -7.067 -0.1915E-07 -0.3206E-09  0.2278E+01  0.2278E+01
     -6.942 -0.1849E-01 -0.3787E-02  0.2275E+01  0.2277E+01
     -6.817  0.1770E+01  0.9654E+00  0.2497E+01  0.2398E+01
     -6.691  0.3304E+01  0.3445E+01  0.2912E+01  0.2830E+01
     -6.566  0.2610E+00  0.9130E+00  0.2944E+01  0.2945E+01
     -6.440 -0.2710E-03 -0.2778E-02  0.2944E+01  0.2944E+01
     -6.315 -0.6565E-12 -0.8813E-10  0.2944E+01  0.2944E+01
     -6.190 -0.5936E-19 -0.3717E-20  0.2944E+01  0.2944E+01
     -6.064 -0.1963E-07 -0.3524E-08  0.2944E+01  0.2944E+01
     -5.939 -0.1444E-01 -0.8208E-02  0.2943E+01  0.2943E+01
     -5.814  0.8723E+00  0.7904E+00  0.3052E+01  0.3043E+01
     -5.688  0.2838E-01  0.1041E+00  0.3056E+01  0.3056E+01
     -5.563 -0.2354E-04 -0.7820E-04  0.3056E+01  0.3056E+01
     -5.437 -0.2178E-27 -0.9224E-13  0.3056E+01  0.3056E+01
     -5.312 -0.6260E-13 -0.4015E-15  0.3056E+01  0.3056E+01
     -5.187 -0.5541E-04 -0.3554E-05  0.3056E+01  0.3056E+01
     -5.061  0.5566E-01 -0.2930E-01  0.3063E+01  0.3052E+01
     -4.936  0.1543E+01  0.1482E+01  0.3256E+01  0.3238E+01
     -4.810  0.1081E+01  0.1239E+01  0.3392E+01  0.3393E+01
     -4.685 -0.2110E-01 -0.3349E-01  0.3389E+01  0.3389E+01
     -4.560 -0.5521E-07 -0.1519E-05  0.3389E+01  0.3389E+01
     -4.434  0.0000E+00  0.0000E+00  0.3389E+01  0.3389E+01
     -4.309  0.0000E+00  0.0000E+00  0.3389E+01  0.3389E+01
     -4.184 -0.6551E-29 -0.5630E-39  0.3389E+01  0.3389E+01
     -4.058 -0.2699E-14 -0.2102E-21  0.3389E+01  0.3389E+01
     -3.933 -0.2921E-05 -0.2230E-09  0.3389E+01  0.3389E+01
     -3.807  0.4355E-02 -0.4510E-03  0.3389E+01  0.3389E+01
     -3.682  0.4489E-01  0.3407E-01  0.3395E+01  0.3393E+01
     -3.557  0.6201E-01  0.7464E-01  0.3403E+01  0.3402E+01
     -3.431 -0.1705E-01 -0.6402E-02  0.3401E+01  0.3402E+01
     -3.306  0.2039E+01  0.1520E+01  0.3656E+01  0.3592E+01
     -3.181  0.3437E+01  0.3923E+01  0.4087E+01  0.4084E+01
     -3.055  0.5413E+00  0.9693E-01  0.4155E+01  0.4096E+01
     -2.930  0.2363E+01  0.2675E+01  0.4451E+01  0.4432E+01
     -2.804  0.4391E+00  0.3685E+00  0.4506E+01  0.4478E+01
     -2.679 -0.1894E-01  0.2137E+00  0.4504E+01  0.4505E+01
     -2.554  0.4067E+00  0.4311E-02  0.4555E+01  0.4505E+01
     -2.428  0.1133E+00  0.4498E+00  0.4569E+01  0.4562E+01
     -2.303  0.1225E-02  0.6332E-01  0.4569E+01  0.4570E+01
     -2.177  0.1086E+00 -0.8469E-02  0.4583E+01  0.4569E+01
     -2.052  0.3834E+00  0.4399E+00  0.4631E+01  0.4624E+01
     -1.927  0.3135E-01  0.8675E-01  0.4635E+01  0.4635E+01
     -1.801  0.3046E-01  0.3107E-01  0.4639E+01  0.4638E+01
     -1.676  0.2359E+00 -0.3585E-02  0.4668E+01  0.4638E+01
     -1.551  0.3175E+01  0.2923E+01  0.5067E+01  0.5004E+01
     -1.425  0.1203E+01  0.1481E+01  0.5217E+01  0.5190E+01
     -1.300  0.6732E+00  0.2439E+00  0.5302E+01  0.5221E+01
     -1.174  0.2798E+00  0.9195E+00  0.5337E+01  0.5336E+01
     -1.049  0.4046E+00  0.1747E+00  0.5388E+01  0.5358E+01
     -0.924  0.2143E+01  0.2169E+01  0.5656E+01  0.5630E+01
     -0.798  0.7573E+00  0.9762E+00  0.5751E+01  0.5752E+01
     -0.673  0.1220E+00 -0.2665E-01  0.5767E+01  0.5749E+01
     -0.548  0.9154E+00  0.5160E+00  0.5881E+01  0.5814E+01
     -0.422  0.2654E+01  0.2789E+01  0.6214E+01  0.6163E+01
     -0.297  0.3198E+00  0.4556E+00  0.6254E+01  0.6220E+01
     -0.171  0.3768E+00  0.4628E+00  0.6301E+01  0.6278E+01
     -0.046  0.2550E+00  0.4431E+00  0.6333E+01  0.6334E+01
      0.079  0.2368E+00 -0.1899E-01  0.6363E+01  0.6332E+01
      0.205  0.6131E+00  0.4606E+00  0.6440E+01  0.6389E+01
      0.330  0.1318E+00  0.4466E+00  0.6456E+01  0.6445E+01
      0.456  0.1116E+00  0.2135E+00  0.6470E+01  0.6472E+01
      0.581  0.4693E+00  0.1682E+00  0.6529E+01  0.6493E+01
      0.706  0.7804E+00  0.7198E+00  0.6627E+01  0.6583E+01
      0.832  0.1958E+01  0.2243E+01  0.6873E+01  0.6865E+01
      0.957  0.3463E+00  0.3368E+00  0.6916E+01  0.6907E+01
      1.082  0.2341E+00  0.1241E+00  0.6945E+01  0.6923E+01
      1.208 -0.7787E-02  0.1758E+00  0.6944E+01  0.6945E+01
      1.333 -0.7755E-03 -0.1097E-02  0.6944E+01  0.6944E+01
      1.459  0.2320E+00 -0.1605E-01  0.6973E+01  0.6942E+01
      1.584  0.1128E+01  0.7533E+00  0.7115E+01  0.7037E+01
      1.709 -0.5906E-01  0.5927E+00  0.7107E+01  0.7111E+01
      1.835  0.1251E+01  0.4344E+00  0.7264E+01  0.7166E+01
      1.960  0.5153E+00  0.1260E+01  0.7329E+01  0.7324E+01
      2.086  0.7305E+00  0.2229E+00  0.7420E+01  0.7352E+01
      2.211  0.5403E+00  0.1077E+01  0.7488E+01  0.7487E+01
      2.336  0.2490E+00  0.2054E+00  0.7519E+01  0.7512E+01
      2.462  0.8977E+00  0.1803E+00  0.7632E+01  0.7535E+01
      2.587  0.3192E+00  0.9670E+00  0.7672E+01  0.7656E+01
      2.712  0.9436E+00  0.1665E+00  0.7790E+01  0.7677E+01
      2.838  0.7872E+00  0.1228E+01  0.7889E+01  0.7831E+01
      2.963 -0.9029E-03  0.4747E+00  0.7889E+01  0.7891E+01
      3.089 -0.5010E-05 -0.1351E-01  0.7889E+01  0.7889E+01
      3.214  0.0000E+00 -0.8260E-07  0.7889E+01  0.7889E+01
      3.339  0.0000E+00  0.0000E+00  0.7889E+01  0.7889E+01
      3.465  0.0000E+00  0.0000E+00  0.7889E+01  0.7889E+01
      3.590  0.0000E+00 -0.5220E-48  0.7889E+01  0.7889E+01
      3.715 -0.9320E-43 -0.4739E-28  0.7889E+01  0.7889E+01
      3.841 -0.4152E-24 -0.1294E-13  0.7889E+01  0.7889E+01
      3.966 -0.5412E-11 -0.9168E-05  0.7889E+01  0.7889E+01
      4.092 -0.1619E-03  0.1126E-01  0.7889E+01  0.7890E+01
      4.217  0.4266E-01  0.1840E+00  0.7894E+01  0.7913E+01
      4.342  0.1829E+00  0.2602E-01  0.7917E+01  0.7917E+01
      4.468 -0.5987E-02  0.9166E-01  0.7916E+01  0.7928E+01
      4.593  0.1406E+00  0.5641E-01  0.7934E+01  0.7935E+01
      4.719  0.5306E+00 -0.2886E-02  0.8001E+01  0.7935E+01
      4.844  0.3616E+00  0.1476E+00  0.8046E+01  0.7953E+01
      4.969  0.1559E+00  0.4053E+00  0.8065E+01  0.8004E+01
      5.095 -0.4873E-02  0.4823E+00  0.8065E+01  0.8065E+01
      5.220  0.4670E-02  0.1543E+00  0.8065E+01  0.8084E+01
      5.345  0.1453E+00 -0.7717E-02  0.8084E+01  0.8083E+01
      5.471 -0.7451E-02  0.1472E+00  0.8083E+01  0.8101E+01
      5.596  0.1565E+00  0.6431E-01  0.8102E+01  0.8110E+01
      5.722  0.7110E-01  0.1257E-01  0.8111E+01  0.8111E+01
      5.847 -0.8061E-03 -0.9676E-05  0.8111E+01  0.8111E+01
      5.972 -0.6002E-06 -0.1438E-13  0.8111E+01  0.8111E+01
      6.098 -0.9916E-09 -0.6916E-10  0.8111E+01  0.8111E+01
      6.223 -0.2941E-02 -0.1129E-02  0.8111E+01  0.8111E+01
      6.348  0.2943E+00  0.2351E+00  0.8148E+01  0.8140E+01
      6.474  0.3672E+00  0.3121E+00  0.8194E+01  0.8180E+01
      6.599  0.1160E+00  0.2328E+00  0.8208E+01  0.8209E+01
      6.725  0.1782E+00 -0.7385E-02  0.8231E+01  0.8208E+01
      6.850  0.3714E-01  0.2222E+00  0.8235E+01  0.8236E+01
      6.975  0.2243E+00 -0.4011E-02  0.8263E+01  0.8235E+01
      7.101  0.1061E+01  0.3839E+00  0.8396E+01  0.8283E+01
      7.226  0.1195E+01  0.1306E+01  0.8546E+01  0.8447E+01
      7.352  0.5538E-01  0.8856E+00  0.8553E+01  0.8558E+01
      7.477  0.9094E+00  0.3301E+00  0.8667E+01  0.8600E+01
      7.602  0.8855E+00  0.5241E+00  0.8778E+01  0.8665E+01
      7.728  0.2509E+00  0.9133E+00  0.8810E+01  0.8780E+01
      7.853  0.1089E+01  0.8210E+00  0.8946E+01  0.8883E+01
      7.978 -0.1433E-01  0.4947E+00  0.8944E+01  0.8945E+01
      8.104 -0.3791E-07 -0.1992E-02  0.8944E+01  0.8944E+01
      8.229  0.0000E+00 -0.1545E-09  0.8944E+01  0.8944E+01
      8.355  0.0000E+00  0.0000E+00  0.8944E+01  0.8944E+01
      8.480  0.0000E+00  0.0000E+00  0.8944E+01  0.8944E+01
      8.605 -0.9601E-31 -0.6719E-36  0.8944E+01  0.8944E+01
      8.731 -0.1488E-15 -0.3532E-19  0.8944E+01  0.8944E+01
      8.856 -0.6229E-06 -0.5119E-08  0.8944E+01  0.8944E+01
      8.981  0.5422E-03 -0.1065E-02  0.8945E+01  0.8944E+01
      9.107  0.3703E-01  0.3904E-01  0.8949E+01  0.8949E+01
      9.232 -0.6921E-03 -0.1048E-02  0.8949E+01  0.8949E+01
      9.358  0.1978E-01 -0.2165E-04  0.8952E+01  0.8949E+01
      9.483  0.6365E+00  0.1359E+00  0.9031E+01  0.8966E+01
      9.608  0.7520E-01  0.6158E+00  0.9041E+01  0.9043E+01
      9.734  0.4566E+00  0.2161E+00  0.9098E+01  0.9070E+01
      9.859  0.5494E+00  0.2665E+00  0.9167E+01  0.9104E+01
      9.985  0.1220E+00  0.6279E+00  0.9182E+01  0.9183E+01
     10.110  0.4209E+00  0.1717E+00  0.9235E+01  0.9204E+01
     10.235  0.6729E+00  0.6645E+00  0.9319E+01  0.9287E+01
     10.361  0.4992E+00  0.4595E+00  0.9382E+01  0.9345E+01
     10.486  0.1852E-01  0.3194E+00  0.9384E+01  0.9385E+01
     10.611 -0.1350E-04 -0.6483E-02  0.9384E+01  0.9384E+01
     10.737 -0.1583E-22 -0.6935E-06  0.9384E+01  0.9384E+01
     10.862 -0.1075E-09 -0.3219E-13  0.9384E+01  0.9384E+01
     10.988 -0.1629E-02 -0.3493E-04  0.9384E+01  0.9384E+01
     11.113  0.3343E+00  0.5126E-01  0.9426E+01  0.9391E+01
     11.238  0.8444E+00  0.6615E+00  0.9532E+01  0.9474E+01
     11.364  0.6378E+00  0.6939E+00  0.9612E+01  0.9561E+01
     11.489  0.5720E+00  0.6058E+00  0.9684E+01  0.9637E+01
     11.614  0.8420E+00  0.5989E+00  0.9789E+01  0.9712E+01
     11.740  0.1535E+00  0.7461E+00  0.9808E+01  0.9805E+01
     11.865  0.5129E+00  0.4573E+00  0.9873E+01  0.9863E+01
     11.991  0.3809E+00  0.3693E+00  0.9920E+01  0.9909E+01
     12.116  0.3098E+00  0.2952E+00  0.9959E+01  0.9946E+01
     12.241  0.5615E+00  0.5225E+00  0.1003E+02  0.1001E+02
     12.367  0.9522E+00  0.8465E+00  0.1015E+02  0.1012E+02
     12.492  0.1799E+01  0.1464E+01  0.1037E+02  0.1030E+02
     12.618  0.4020E+00  0.9600E+00  0.1043E+02  0.1042E+02
     12.743  0.5882E+00  0.5455E+00  0.1050E+02  0.1049E+02
     12.868  0.5052E+00  0.5338E+00  0.1056E+02  0.1056E+02
     12.994 -0.1574E-01  0.2694E-01  0.1056E+02  0.1056E+02
     13.119 -0.6638E-04 -0.2010E-04  0.1056E+02  0.1056E+02
     13.244  0.9183E-01 -0.3478E-01  0.1057E+02  0.1056E+02
     13.370  0.1456E+01  0.1341E+01  0.1075E+02  0.1072E+02
     13.495  0.2115E+01  0.2354E+01  0.1102E+02  0.1102E+02
     13.621  0.4065E+00  0.4099E+00  0.1107E+02  0.1107E+02
     13.746 -0.1268E-01 -0.8574E-02  0.1107E+02  0.1107E+02
     13.871  0.4120E+00  0.1277E+00  0.1112E+02  0.1109E+02
     13.997  0.2061E-01  0.3101E+00  0.1112E+02  0.1112E+02
     14.122  0.4728E+00  0.4359E+00  0.1118E+02  0.1118E+02
     14.247 -0.2387E-02  0.1188E-01  0.1118E+02  0.1118E+02
     14.373  0.6057E+00  0.1484E+00  0.1126E+02  0.1120E+02
     14.498  0.4774E+00  0.5088E+00  0.1132E+02  0.1126E+02
     14.624  0.9124E+00  0.8440E+00  0.1143E+02  0.1137E+02
     14.749  0.3053E+01  0.1635E+01  0.1182E+02  0.1157E+02
     14.874  0.2063E+01  0.3452E+01  0.1207E+02  0.1201E+02
     15.000  0.2077E+01  0.2279E+01  0.1233E+02  0.1229E+02
     15.125  0.6429E+00  0.8831E+00  0.1241E+02  0.1240E+02
     15.251  0.2738E+01  0.2179E+01  0.1276E+02  0.1268E+02
     15.376  0.3004E+00  0.9894E+00  0.1280E+02  0.1280E+02
     15.501  0.1390E+01  0.1063E+01  0.1297E+02  0.1293E+02
     15.627  0.7416E+00  0.5842E+00  0.1306E+02  0.1301E+02
     15.752 -0.2294E-01  0.4654E+00  0.1306E+02  0.1307E+02
     15.877  0.4841E-02 -0.5008E-02  0.1306E+02  0.1306E+02
     16.003  0.6883E+00  0.1659E+00  0.1315E+02  0.1309E+02
     16.128  0.6743E+00  0.9235E+00  0.1323E+02  0.1320E+02
     16.254  0.5528E+00  0.7358E+00  0.1330E+02  0.1329E+02
     16.379  0.2592E-01  0.1374E+00  0.1330E+02  0.1331E+02
     16.504  0.1130E+01  0.5652E+00  0.1345E+02  0.1338E+02
     16.630  0.8961E+00  0.1248E+01  0.1356E+02  0.1354E+02
     16.755 -0.2135E-01  0.1408E+00  0.1356E+02  0.1356E+02
     16.881 -0.6104E-02 -0.1112E-03  0.1355E+02  0.1356E+02
     17.006  0.3114E+00 -0.9097E-02  0.1359E+02  0.1355E+02
     17.131  0.9595E+00  0.1247E+01  0.1371E+02  0.1371E+02
     17.257  0.4622E+00  0.1579E+00  0.1377E+02  0.1373E+02
     17.382  0.5588E+00  0.5631E+00  0.1384E+02  0.1380E+02
     17.507  0.4086E+00  0.4775E+00  0.1389E+02  0.1386E+02
     17.633  0.3577E-01  0.3030E+00  0.1390E+02  0.1390E+02
     17.758  0.2062E+00 -0.4532E-02  0.1392E+02  0.1390E+02
     17.884  0.1731E-01  0.2214E+00  0.1393E+02  0.1393E+02
     18.009  0.1312E+00  0.1223E+00  0.1394E+02  0.1394E+02
     18.134  0.1652E+00  0.1755E+00  0.1396E+02  0.1396E+02
     18.260 -0.6827E-03 -0.5077E-02  0.1396E+02  0.1396E+02
     18.385 -0.4877E-10 -0.2308E-06  0.1396E+02  0.1396E+02
     18.510 -0.4929E-16 -0.1143E-12  0.1396E+02  0.1396E+02
     18.636 -0.6173E-06 -0.3873E-04  0.1396E+02  0.1396E+02
     18.761 -0.3688E-02  0.3814E-01  0.1396E+02  0.1397E+02
     18.887  0.1526E+00  0.1102E+00  0.1398E+02  0.1398E+02
     19.012  0.1501E+00 -0.2550E-02  0.1400E+02  0.1398E+02
     19.137 -0.3680E-02  0.1531E+00  0.1400E+02  0.1400E+02
     19.263 -0.1040E-07 -0.3436E-02  0.1400E+02  0.1400E+02
     19.388  0.0000E+00 -0.7843E-08  0.1400E+02  0.1400E+02
     19.514  0.0000E+00  0.0000E+00  0.1400E+02  0.1400E+02
     19.639  0.0000E+00  0.0000E+00  0.1400E+02  0.1400E+02
     19.764  0.0000E+00  0.0000E+00  0.1400E+02  0.1400E+02
     19.890  0.0000E+00  0.0000E+00  0.1400E+02  0.1400E+02
     20.015  0.0000E+00  0.0000E+00  0.1400E+02  0.1400E+02
     20.140  0.0000E+00  0.0000E+00  0.1400E+02  0.1400E+02
     20.266  0.0000E+00  0.0000E+00  0.1400E+02  0.1400E+02
     20.391  0.0000E+00  0.0000E+00  0.1400E+02  0.1400E+02
     20.517  0.0000E+00  0.0000E+00  0.1400E+02  0.1400E+02
     20.642  0.0000E+00  0.0000E+00  0.1400E+02  0.1400E+02
     20.767  0.0000E+00  0.0000E+00  0.1400E+02  0.1400E+02
     20.76733205    -16.84709449  301      4.85918035      1.00000000
    -16.847  0.0000E+00  0.0000E+00  0.0000E+00  0.0000E+00  0.0000E+00  0.0000E+00  0.0000E+00  0.0000E+00  0.0000E+00  0.0000E+00  0.0000E+00  0.0000E+00  0.0000E+00  0.0000E+00  0.0000E+00  0.0000E+00  0.0000E+00  0.0000E+00
    -16.722  0.0000E+00  0.0000E+00  0.0000E+00  0.0000E+00  0.0000E+00  0.0000E+00  0.0000E+00  0.0000E+00  0.0000E+00  0.0000E+00  0.0000E+00  0.0000E+00  0.0000E+00  0.0000E+00  0.0000E+00  0.0000E+00  0.0000E+00  0.0000E+00
    -16.596  0.0000E+00  0.0000E+00  0.0000E+00  0.0000E+00  0.0000E+00  0.0000E+00  0.0000E+00  0.0000E+00  0.0000E+00  0.0000E+00  0.0000E+00  0.0000E+00  0.0000E+00  0.0000E+00  0.0000E+00  0.0000E+00  0.0000E+00  0.0000E+00
    -16.471  0.0000E+00  0.0000E+00  0.0000E+00  0.0000E+00  0.0000E+00  0.0000E+00  0.0000E+00  0.0000E+00  0.0000E+00  0.0000E+00  0.0000E+00  0.0000E+00  0.0000E+00  0.0000E+00  0.0000E+00  0.0000E+00  0.0000E+00  0.0000E+00
    -16.346  0.0000E+00  0.0000E+00  0.0000E+00  0.0000E+00  0.0000E+00  0.0000E+00  0.0000E+00  0.0000E+00  0.0000E+00  0.0000E+00  0.0000E+00  0.0000E+00  0.0000E+00  0.0000E+00  0.0000E+00  0.0000E+00  0.0000E+00  0.0000E+00
    -16.220  0.0000E+00  0.0000E+00  0.0000E+00  0.0000E+00  0.0000E+00  0.0000E+00  0.0000E+00  0.0000E+00  0.0000E+00  0.0000E+00  0.0000E+00  0.0000E+00  0.0000E+00  0.0000E+00  0.0000E+00  0.0000E+00  0.0000E+00  0.0000E+00
    -16.095  0.0000E+00  0.0000E+00  0.0000E+00  0.0000E+00  0.0000E+00  0.0000E+00  0.0000E+00  0.0000E+00  0.0000E+00  0.0000E+00  0.0000E+00  0.0000E+00  0.0000E+00  0.0000E+00  0.0000E+00  0.0000E+00  0.0000E+00  0.0000E+00
    -15.969  0.0000E+00  0.0000E+00  0.0000E+00  0.0000E+00  0.0000E+00  0.0000E+00  0.0000E+00  0.0000E+00  0.0000E+00  0.0000E+00  0.0000E+00  0.0000E+00  0.0000E+00  0.0000E+00  0.0000E+00  0.0000E+00  0.0000E+00  0.0000E+00
    -15.844  0.0000E+00  0.0000E+00  0.0000E+00  0.0000E+00  0.0000E+00  0.0000E+00  0.0000E+00  0.0000E+00  0.0000E+00  0.0000E+00  0.0000E+00  0.0000E+00  0.0000E+00  0.0000E+00  0.0000E+00  0.0000E+00  0.0000E+00  0.0000E+00
    -15.719  0.0000E+00  0.0000E+00  0.0000E+00  0.0000E+00  0.0000E+00  0.0000E+00  0.0000E+00  0.0000E+00  0.0000E+00  0.0000E+00  0.0000E+00  0.0000E+00  0.0000E+00  0.0000E+00  0.0000E+00  0.0000E+00  0.0000E+00  0.0000E+00
    -15.593 -0.1150E-37 -0.1249E-42 -0.3404E-52 -0.4905E-57 -0.9559E-45 -0.6650E-50 -0.1258E-51 -0.1151E-56  0.0000E+00  0.0000E+00  0.0000E+00  0.0000E+00  0.0000E+00  0.0000E+00  0.0000E+00  0.0000E+00  0.0000E+00  0.0000E+00
    -15.468 -0.1139E-20 -0.2682E-24 -0.3419E-35 -0.1049E-38 -0.5972E-27 -0.8971E-31 -0.1247E-34 -0.2465E-38  0.0000E+00  0.0000E+00  0.0000E+00  0.0000E+00  0.0000E+00  0.0000E+00  0.0000E+00  0.0000E+00  0.0000E+00  0.0000E+00
    -15.343 -0.3352E-09 -0.1742E-11 -0.1090E-23 -0.6671E-26 -0.1067E-14 -0.3580E-17 -0.3675E-23 -0.1575E-25  0.0000E+00  0.0000E+00  0.0000E+00  0.0000E+00  0.0000E+00  0.0000E+00  0.0000E+00  0.0000E+00  0.0000E+00  0.0000E+00
    -15.217 -0.2392E-03 -0.3194E-04 -0.1069E-17 -0.1087E-18 -0.3949E-08 -0.3489E-09 -0.2644E-17 -0.2641E-18  0.0000E+00  0.0000E+00  0.0000E+00  0.0000E+00  0.0000E+00  0.0000E+00  0.0000E+00  0.0000E+00  0.0000E+00  0.0000E+00
    -15.092  0.1792E-01  0.9022E-02  0.9518E-16  0.2757E-16  0.5501E-06  0.1417E-06  0.1965E-15  0.6878E-16  0.0000E+00  0.0000E+00  0.0000E+00  0.0000E+00  0.0000E+00  0.0000E+00  0.0000E+00  0.0000E+00  0.0000E+00  0.0000E+00
    -14.966  0.2180E-01  0.2537E-01  0.1196E-15  0.3810E-16  0.2848E-05  0.2415E-05  0.2552E-15  0.1141E-15  0.0000E+00  0.0000E+00  0.0000E+00  0.0000E+00  0.0000E+00  0.0000E+00  0.0000E+00  0.0000E+00  0.0000E+00  0.0000E+00
    -14.841  0.2676E-01  0.2353E-01  0.2409E-15  0.3933E-16  0.2087E-05  0.2566E-05  0.5755E-15  0.4991E-16  0.0000E+00  0.0000E+00  0.0000E+00  0.0000E+00  0.0000E+00  0.0000E+00  0.0000E+00  0.0000E+00  0.0000E+00  0.0000E+00
    -14.716  0.4090E-02  0.1197E-01 -0.2276E-13 -0.4367E-16  0.4134E-07  0.2645E-06 -0.6824E-13 -0.9096E-16  0.0000E+00  0.0000E+00  0.0000E+00  0.0000E+00  0.0000E+00  0.0000E+00  0.0000E+00  0.0000E+00  0.0000E+00  0.0000E+00
    -14.590 -0.9755E-04 -0.7701E-04 -0.1032E-05 -0.4952E-07 -0.9342E-09 -0.9622E-09 -0.3095E-05 -0.1486E-06  0.0000E+00  0.0000E+00  0.0000E+00  0.0000E+00  0.0000E+00  0.0000E+00  0.0000E+00  0.0000E+00  0.0000E+00  0.0000E+00
    -14.465  0.3899E-01  0.4108E-02  0.4409E-03  0.4730E-04  0.4648E-06 -0.8709E-07  0.1323E-02  0.1419E-03  0.0000E+00  0.0000E+00  0.0000E+00  0.0000E+00  0.0000E+00  0.0000E+00  0.0000E+00  0.0000E+00  0.0000E+00  0.0000E+00
    -14.339  0.1577E+00  0.1632E+00  0.1785E-02  0.1881E-02  0.1295E-04  0.9219E-05  0.5354E-02  0.5643E-02  0.0000E+00  0.0000E+00  0.0000E+00  0.0000E+00  0.0000E+00  0.0000E+00  0.0000E+00  0.0000E+00  0.0000E+00  0.0000E+00
    -14.214  0.1425E+00  0.1232E+00  0.1615E-02  0.1422E-02  0.1455E-04  0.1557E-04  0.4846E-02  0.4267E-02  0.0000E+00  0.0000E+00  0.0000E+00  0.0000E+00  0.0000E+00  0.0000E+00  0.0000E+00  0.0000E+00  0.0000E+00  0.0000E+00
    -14.089  0.6805E-01  0.1147E+00  0.7724E-03  0.1326E-02  0.1313E-05  0.3777E-05  0.2317E-02  0.3979E-02  0.0000E+00  0.0000E+00  0.0000E+00  0.0000E+00  0.0000E+00  0.0000E+00  0.0000E+00  0.0000E+00  0.0000E+00  0.0000E+00
    -13.963 -0.3622E-03 -0.1963E-02 -0.4110E-05 -0.2269E-04 -0.4436E-08 -0.3542E-07 -0.1233E-04 -0.6807E-04  0.0000E+00  0.0000E+00  0.0000E+00  0.0000E+00  0.0000E+00  0.0000E+00  0.0000E+00  0.0000E+00  0.0000E+00  0.0000E+00
    -13.838 -0.4823E-10 -0.6358E-08 -0.5472E-12 -0.7348E-10 -0.1067E-15 -0.2110E-13 -0.1642E-11 -0.2205E-09  0.0000E+00  0.0000E+00  0.0000E+00  0.0000E+00  0.0000E+00  0.0000E+00  0.0000E+00  0.0000E+00  0.0000E+00  0.0000E+00
    -13.713  0.0000E+00  0.0000E+00  0.0000E+00  0.0000E+00  0.0000E+00  0.0000E+00  0.0000E+00  0.0000E+00  0.0000E+00  0.0000E+00  0.0000E+00  0.0000E+00  0.0000E+00  0.0000E+00  0.0000E+00  0.0000E+00  0.0000E+00  0.0000E+00
    -13.587 -0.6193E-34 -0.1511E-38 -0.6568E-35 -0.1640E-39 -0.9940E-41 -0.1636E-45 -0.2204E-35 -0.5506E-40  0.0000E+00  0.0000E+00  0.0000E+00  0.0000E+00  0.0000E+00  0.0000E+00  0.0000E+00  0.0000E+00  0.0000E+00  0.0000E+00
    -13.462 -0.8668E-18 -0.4176E-21 -0.9194E-19 -0.4535E-22 -0.7237E-24 -0.2353E-27 -0.3085E-19 -0.1522E-22  0.0000E+00  0.0000E+00  0.0000E+00  0.0000E+00  0.0000E+00  0.0000E+00  0.0000E+00  0.0000E+00  0.0000E+00  0.0000E+00
    -13.336 -0.3610E-07 -0.3501E-09 -0.3832E-08 -0.3803E-10 -0.1462E-12 -0.9781E-15 -0.1286E-08 -0.1277E-10  0.0000E+00  0.0000E+00  0.0000E+00  0.0000E+00  0.0000E+00  0.0000E+00  0.0000E+00  0.0000E+00  0.0000E+00  0.0000E+00
    -13.211 -0.2797E-02 -0.7674E-03 -0.2976E-03 -0.8350E-04 -0.5261E-07 -0.9071E-08 -0.9984E-04 -0.2803E-04  0.0000E+00  0.0000E+00  0.0000E+00  0.0000E+00  0.0000E+00  0.0000E+00  0.0000E+00  0.0000E+00  0.0000E+00  0.0000E+00
    -13.086  0.1300E+00  0.8518E-01  0.1384E-01  0.9280E-02  0.4439E-05  0.1817E-05  0.4644E-02  0.3115E-02  0.0000E+00  0.0000E+00  0.0000E+00  0.0000E+00  0.0000E+00  0.0000E+00  0.0000E+00  0.0000E+00  0.0000E+00  0.0000E+00
    -12.960  0.1237E+00  0.1336E+00  0.1317E-01  0.1458E-01  0.1331E-04  0.1244E-04  0.4419E-02  0.4892E-02  0.0000E+00  0.0000E+00  0.0000E+00  0.0000E+00  0.0000E+00  0.0000E+00  0.0000E+00  0.0000E+00  0.0000E+00  0.0000E+00
    -12.835  0.1300E+00  0.1551E+00  0.1381E-01  0.1689E-01  0.4675E-05  0.7473E-05  0.4635E-02  0.5668E-02  0.0000E+00  0.0000E+00  0.0000E+00  0.0000E+00  0.0000E+00  0.0000E+00  0.0000E+00  0.0000E+00  0.0000E+00  0.0000E+00
    -12.710 -0.2857E-02  0.4743E-03 -0.3037E-03  0.5136E-04 -0.5721E-07 -0.9311E-07 -0.1019E-03  0.1726E-04  0.0000E+00  0.0000E+00  0.0000E+00  0.0000E+00  0.0000E+00  0.0000E+00  0.0000E+00  0.0000E+00  0.0000E+00  0.0000E+00
    -12.584 -0.1673E-02 -0.2957E-03 -0.7974E-04 -0.1460E-04 -0.2179E-07 -0.2461E-08 -0.2392E-03 -0.4326E-04  0.0000E+00  0.0000E+00  0.0000E+00  0.0000E+00  0.0000E+00  0.0000E+00  0.0000E+00  0.0000E+00  0.0000E+00  0.0000E+00
    -12.459  0.1075E+00  0.5927E-01  0.5130E-02  0.2908E-02  0.2814E-05  0.8534E-06  0.1539E-01  0.8725E-02  0.0000E+00  0.0000E+00  0.0000E+00  0.0000E+00  0.0000E+00  0.0000E+00  0.0000E+00  0.0000E+00  0.0000E+00  0.0000E+00
    -12.333  0.1310E+00  0.1448E+00  0.6248E-02  0.7112E-02  0.1236E-04  0.1092E-04  0.1874E-01  0.2133E-01  0.0000E+00  0.0000E+00  0.0000E+00  0.0000E+00  0.0000E+00  0.0000E+00  0.0000E+00  0.0000E+00  0.0000E+00  0.0000E+00
    -12.208  0.1344E+00  0.1579E+00  0.6373E-02  0.7712E-02  0.5370E-05  0.8115E-05  0.1912E-01  0.2314E-01  0.0000E+00  0.0000E+00  0.0000E+00  0.0000E+00  0.0000E+00  0.0000E+00  0.0000E+00  0.0000E+00  0.0000E+00  0.0000E+00
    -12.083 -0.2958E-02  0.1540E-02 -0.1402E-03  0.7500E-04 -0.6907E-07 -0.1008E-06 -0.4206E-03  0.2250E-03  0.0000E+00  0.0000E+00  0.0000E+00  0.0000E+00  0.0000E+00  0.0000E+00  0.0000E+00  0.0000E+00  0.0000E+00  0.0000E+00
    -11.957 -0.5999E-07 -0.2510E-05 -0.2843E-08 -0.1224E-06 -0.2644E-12 -0.1548E-10 -0.8529E-08 -0.3673E-06  0.0000E+00  0.0000E+00  0.0000E+00  0.0000E+00  0.0000E+00  0.0000E+00  0.0000E+00  0.0000E+00  0.0000E+00  0.0000E+00
    -11.832  0.0000E+00  0.0000E+00  0.0000E+00  0.0000E+00  0.0000E+00  0.0000E+00  0.0000E+00  0.0000E+00  0.0000E+00  0.0000E+00  0.0000E+00  0.0000E+00  0.0000E+00  0.0000E+00  0.0000E+00  0.0000E+00  0.0000E+00  0.0000E+00
    -11.706  0.0000E+00  0.0000E+00  0.0000E+00  0.0000E+00  0.0000E+00  0.0000E+00  0.0000E+00  0.0000E+00  0.0000E+00  0.0000E+00  0.0000E+00  0.0000E+00  0.0000E+00  0.0000E+00  0.0000E+00  0.0000E+00  0.0000E+00  0.0000E+00
    -11.581  0.0000E+00  0.0000E+00  0.0000E+00  0.0000E+00  0.0000E+00  0.0000E+00  0.0000E+00  0.0000E+00  0.0000E+00  0.0000E+00  0.0000E+00  0.0000E+00  0.0000E+00  0.0000E+00  0.0000E+00  0.0000E+00  0.0000E+00  0.0000E+00
    -11.456  0.0000E+00  0.0000E+00  0.0000E+00  0.0000E+00  0.0000E+00  0.0000E+00  0.0000E+00  0.0000E+00  0.0000E+00  0.0000E+00  0.0000E+00  0.0000E+00  0.0000E+00  0.0000E+00  0.0000E+00  0.0000E+00  0.0000E+00  0.0000E+00
    -11.330  0.0000E+00  0.0000E+00  0.0000E+00  0.0000E+00  0.0000E+00  0.0000E+00  0.0000E+00  0.0000E+00  0.0000E+00  0.0000E+00  0.0000E+00  0.0000E+00  0.0000E+00  0.0000E+00  0.0000E+00  0.0000E+00  0.0000E+00  0.0000E+00
    -11.205  0.0000E+00  0.0000E+00  0.0000E+00  0.0000E+00  0.0000E+00  0.0000E+00  0.0000E+00  0.0000E+00  0.0000E+00  0.0000E+00  0.0000E+00  0.0000E+00  0.0000E+00  0.0000E+00  0.0000E+00  0.0000E+00  0.0000E+00  0.0000E+00
    -11.080 -0.3961E-36 -0.9228E-41 -0.7612E-37 -0.1860E-41 -0.4759E-42 -0.8939E-47 -0.5741E-37 -0.1417E-41  0.0000E+00  0.0000E+00  0.0000E+00  0.0000E+00  0.0000E+00  0.0000E+00  0.0000E+00  0.0000E+00  0.0000E+00  0.0000E+00
    -10.954 -0.3000E-19 -0.1243E-22 -0.5767E-20 -0.2505E-23 -0.9007E-25 -0.3047E-28 -0.4346E-20 -0.1908E-23  0.0000E+00  0.0000E+00  0.0000E+00  0.0000E+00  0.0000E+00  0.0000E+00  0.0000E+00  0.0000E+00  0.0000E+00  0.0000E+00
    -10.829 -0.7102E-08 -0.5340E-10 -0.1365E-08 -0.1076E-10 -0.4812E-13 -0.3035E-15 -0.1028E-08 -0.8189E-11  0.0000E+00  0.0000E+00  0.0000E+00  0.0000E+00  0.0000E+00  0.0000E+00  0.0000E+00  0.0000E+00  0.0000E+00  0.0000E+00
    -10.703 -0.3572E-02 -0.6133E-03 -0.6868E-03 -0.1236E-03 -0.5391E-07 -0.7294E-08 -0.5155E-03 -0.9385E-04  0.0000E+00  0.0000E+00  0.0000E+00  0.0000E+00  0.0000E+00  0.0000E+00  0.0000E+00  0.0000E+00  0.0000E+00  0.0000E+00
    -10.578  0.2285E+00  0.1279E+00  0.4391E-01  0.2578E-01  0.5790E-05  0.2168E-05  0.3291E-01  0.1955E-01  0.0000E+00  0.0000E+00  0.0000E+00  0.0000E+00  0.0000E+00  0.0000E+00  0.0000E+00  0.0000E+00  0.0000E+00  0.0000E+00