    4    4    1    2
  0.8797333E+01  0.2461200E-09  0.2461200E-09  0.6707900E-09  0.5000000E-15
  1.000000000000000E-004
  CAR 
 unknown system                          
   16   28   14
 
  0.0000000E+00  0.0000000E+00  0.0000000E+00  0.4629630E-02
   1      -15.137348    -15.106875
   2      -14.843868    -14.814305
   3       -3.781332     -3.714397
   4       -1.905127     -1.829468
   5        1.828124      1.840783
   6        1.828163      1.840813
   7        1.909690      1.923747
   8        1.909728      1.923777
   9        9.020585      9.055120
  10       13.384102     13.396075
  11       13.384121     13.396088
  12       13.429923     13.441320
  13       13.429942     13.441335
  14       16.172392     15.645044
 
  0.1666667E+00 -0.1387779E-16  0.0000000E+00  0.2777778E-01
   1      -14.471337    -14.441232
   2      -14.190527    -14.161045
   3       -2.998493     -2.931188
   4       -1.148986     -1.071557
   5       -0.464545     -0.446765
   6       -0.454428     -0.436547
   7        0.695582      0.708859
   8        0.778962      0.791436
   9        9.836607      9.870946
  10       13.266905     13.290731
  11       13.427474     13.446143
  12       14.277952     14.359819
  13       14.746854     14.857066
  14       16.165684     16.179868
 
  0.3333333E+00  0.0000000E+00  0.0000000E+00  0.2777778E-01
   1      -12.510631    -12.481375
   2      -12.264688    -12.235731
   3       -5.040163     -5.017655
   4       -4.887598     -4.865127
   5       -1.037865     -1.024949
   6       -0.888625     -0.876351
   7       -0.681299     -0.612152
   8        1.018900      1.100818
   9        9.424250      9.493069
  10       10.332010     10.433984
  11       12.171410     12.194024
  12       12.348796     12.400454
  13       12.720826     12.747479
  14       17.728157     17.797590
 
  0.5000000E+00 -0.2775558E-16  0.0000000E+00  0.1388889E-01
   1       -9.774380     -9.747987
   2       -9.676106     -9.637120
   3       -8.643229     -8.628706
   4       -8.584602     -8.559032
   5       -1.662371     -1.649746
   6       -1.463481     -1.451049
   7        1.995812      2.038934
   8        2.655304      2.786543
   9        6.330229      6.336716
  10        7.009687      7.143193
  11       11.877149     11.914387
  12       12.274669     12.310557
  13       16.141820     16.132981
  14       16.246193     16.326499
 
  0.1666667E+00  0.1666667E+00  0.0000000E+00  0.2777778E-01
   1      -13.150710    -13.121145
   2      -12.894746    -12.865617
   3       -3.055364     -3.033765
   4       -2.988706     -2.965243
   5       -1.570278     -1.557620
   6       -1.555971     -1.542445
   7       -1.448865     -1.380130
   8        0.334210      0.413892
   9       11.139736     11.223125
  10       11.478340     11.512525
  11       11.611032     11.707415
  12       15.027471     15.052318
  13       15.237959     15.248013
  14       16.445006     16.490861
 
  0.3333333E+00  0.1666667E+00  0.0000000E+00  0.5555556E-01
   1      -10.626998    -10.598371
   2      -10.418722    -10.389637
   3       -6.860199     -6.836367
   4       -6.705333     -6.680760
   5       -3.318117     -3.303311
   6       -3.227470     -3.212602
   7        1.453477      1.519444
   8        2.795501      2.891467
   9        7.040505      7.106522
  10        7.776261      7.869220
  11       14.578136     14.592833
  12       14.708837     14.766226
  13       15.217929     15.243509
  14       17.338158     17.407973
 
  0.3333333E+00  0.3333333E+00  0.0000000E+00  0.9259259E-02
   1       -8.082011     -8.107499
   2       -8.043139     -7.958576
   3       -8.043130     -7.958567
   4       -7.900141     -7.924815
   5       -5.843046     -5.832582
   6       -5.843042     -5.832578
   7        4.209170      4.113651
   8        4.695679      4.956364
   9        4.695693      4.956378
  10        5.676698      5.574626
  11       15.911785     15.959506
  12       15.911788     15.959508
  13       17.224939     17.180773
  14       17.491157     17.573719
 
  0.0000000E+00  0.0000000E+00  0.1666667E+00  0.9259259E-02
   1      -15.119014    -15.088598
   2      -14.865101    -14.835472
   3       -3.659879     -3.592540
   4       -2.060250     -1.985457
   5        1.802061      1.814742
   6        1.802101      1.814773
   7        1.900950      1.914876
   8        1.900988      1.914906
   9        9.363582      9.399488
  10       13.389166     13.401074
  11       13.389185     13.401087
  12       13.427011     13.438525
  13       13.427030     13.438539
  14       14.899830     14.949832
 
  0.1666667E+00 -0.1387779E-16  0.1666667E+00  0.5555556E-01
   1      -14.453522    -14.423450
   2      -14.209259    -14.179769
   3       -2.872999     -2.805320
   4       -1.303499     -1.227194
   5       -0.470763     -0.452891
   6       -0.460019     -0.442195
   7        0.704049      0.717310
   8        0.747236      0.759845
   9       10.168160     10.204174
  10       13.279737     13.304129
  11       13.412670     13.431640
  12       14.343204     14.421987
  13       14.664243     14.773789
  14       15.574687     15.639890
 
  0.3333333E+00  0.0000000E+00  0.1666667E+00  0.5555556E-01
   1      -12.491972    -12.462726
   2      -12.282154    -12.253177
   3       -5.031537     -5.009055
   4       -4.887530     -4.865045
   5       -1.017150     -1.004423
   6       -0.886442     -0.874037
   7       -0.581483     -0.511850
   8        0.855197      0.935845
   9        9.464065      9.535829
  10       10.236848     10.335740
  11       12.294438     12.318468
  12       12.452507     12.502248
  13       12.807268     12.836148
  14       17.240148     17.304454
 
  0.5000000E+00 -0.2775558E-16  0.1666667E+00  0.2777778E-01
   1       -9.766278     -9.739105
   2       -9.681604     -9.643654
   3       -8.639717     -8.624261
   4       -8.591354     -8.566442
   5       -1.657346     -1.644733
   6       -1.465591     -1.453145
   7        2.055138      2.102149
   8        2.634528      2.758391
   9        6.318215      6.334429
  10        6.919716      7.045842
  11       11.902276     11.939629
  12       12.248846     12.285105
  13       16.410247     16.400651
  14       16.443091     16.526255
 
  0.1666667E+00  0.1666667E+00  0.1666667E+00  0.5555556E-01
   1      -13.134172    -13.104660
   2      -12.911856    -12.882703
   3       -3.051499     -3.029619
   4       -3.007335     -2.984218
   5       -1.570057     -1.557316
   6       -1.547753     -1.534323
   7       -1.324700     -1.255634
   8        0.175018      0.253755
   9       11.170605     11.255288
  10       11.569639     11.672822
  11       11.802019     11.829867
  12       15.024860     15.050017
  13       15.237437     15.248520
  14       16.457552     16.508398
 
  0.3333333E+00  0.1666667E+00  0.1666667E+00  0.1111111E+00
   1      -10.617097    -10.588488
   2      -10.439867    -10.410831
   3       -6.843061     -6.819011
   4       -6.711133     -6.686662
   5       -3.343390     -3.328670
   6       -3.244112     -3.229186
   7        1.528121      1.595241
   8        2.705711      2.798602
   9        7.097290      7.166193
  10        7.739995      7.832027
  11       14.665017     14.685361
  12       14.782581     14.840044
  13       15.210835     15.234508
  14       17.034916     17.097357
 
  0.3333333E+00  0.3333333E+00  0.1666667E+00  0.1851852E-01
   1       -8.072239     -8.097799
   2       -8.043799     -7.959122
   3       -8.043790     -7.959112
   4       -7.912698     -7.937440
   5       -5.846841     -5.836426
   6       -5.846837     -5.836423
   7        4.292162      4.196328
   8        4.689336      4.950395
   9        4.689350      4.950409
  10        5.533526      5.432175
  11       15.569346     15.620682
  12       15.569349     15.620684
  13       17.436141     17.392262
  14       18.000549     18.077200
 
  0.0000000E+00  0.0000000E+00  0.3333333E+00  0.9259259E-02
   1      -15.067759    -15.037474
   2      -14.922019    -14.892183
   3       -3.399931     -3.331324
   4       -2.466674     -2.394246
   5        1.802408      1.815121
   6        1.802448      1.815152
   7        1.900447      1.914276
   8        1.900485      1.914306
   9       10.313352     10.352707
  10       13.318514     13.357177
  11       13.345799     13.357191
  12       13.345819     13.367225
  13       13.419779     13.431427
  14       13.419799     13.431442
 
  0.1666667E+00 -0.1387779E-16  0.3333333E+00  0.5555556E-01
   1      -14.403991    -14.374019
   2      -14.262976    -14.233354
   3       -2.582596     -2.513767
   4       -1.670865     -1.597087
   5       -0.460012     -0.442218
   6       -0.447772     -0.429704
   7        0.715082      0.728221
   8        0.751505      0.764284
   9       11.098757     11.139088
  10       13.272592     13.301080
  11       13.399121     13.418073
  12       14.053817     14.085359
  13       14.447447     14.564818
  14       14.736171     14.828961
 
  0.3333333E+00  0.0000000E+00  0.3333333E+00  0.5555556E-01
   1      -12.448158    -12.418974
   2      -12.327825    -12.298791
   3       -5.010473     -4.988023
   4       -4.908720     -4.886155
   5       -0.967530     -0.954663
   6       -0.944137     -0.931603
   7       -0.301190     -0.229724
   8        0.511020      0.588117
   9        9.654849      9.732714
  10       10.021116     10.113766
  11       12.383159     12.415269
  12       12.515872     12.552528
  13       13.534972     13.573129
  14       16.117872     16.172011
 
  0.5000000E+00 -0.2775558E-16  0.3333333E+00  0.2777778E-01
   1       -9.746223     -9.716843
   2       -9.697427     -9.662119
   3       -8.625184     -8.607375
   4       -8.596620     -8.573427
   5       -1.634471     -1.621789
   6       -1.601945     -1.589574
   7        2.242133      2.301757
   8        2.572494      2.674883
   9        6.390535      6.434147
  10        6.705367      6.810880
  11       11.992856     12.030101
  12       12.185401     12.222412
  13       16.955871     17.044612
  14       17.120266     17.114103
 
  0.1666667E+00  0.1666667E+00  0.3333333E+00  0.5555556E-01
   1      -13.088490    -13.059043
   2      -12.961363    -12.932150
   3       -3.057280     -3.035262
   4       -3.021622     -2.998609
   5       -1.587200     -1.574401
   6       -1.560874     -1.547475
   7       -1.036091     -0.965420
   8       -0.166855     -0.091188
   9       11.264213     11.352379
  10       11.484905     11.583200
  11       12.649430     12.684008
  12       14.918216     14.951356
  13       15.233340     15.248492
  14       15.445691     15.490891
 
  0.3333333E+00  0.1666667E+00  0.3333333E+00  0.1111111E+00
   1      -10.580553    -10.551884
   2      -10.477118    -10.448147
   3       -6.820072     -6.795966
   4       -6.738565     -6.714111
   5       -3.328530     -3.313882
   6       -3.259051     -3.244053
   7        1.783237      1.854114
   8        2.441478      2.526552
   9        7.196655      7.272239
  10        7.559148      7.648342
  11       14.745168     14.780537
  12       14.928765     14.975880
  13       15.447544     15.477448
  14       16.550850     16.607466
 
  0.3333333E+00  0.3333333E+00  0.3333333E+00  0.1851852E-01
   1       -8.040892     -8.060009
   2       -8.040882     -7.972931
   3       -8.034683     -7.956285
   4       -7.948129     -7.956275
   5       -5.858878     -5.848481
   6       -5.858874     -5.848478
   7        4.557368      4.460659
   8        4.727287      4.989155
   9        4.727301      4.989169
  10        5.256302      5.156718
  11       15.130202     15.182226
  12       15.130205     15.182228
  13       18.024773     17.983109
  14       18.933990     19.057585
 
  0.0000000E+00  0.0000000E+00  0.5000000E+00  0.4629630E-02
   1      -14.995596    -14.965518
   2      -14.995587    -14.965509
   3       -2.965280     -2.895017
   4       -2.965271     -2.895008
   5        1.949846      1.963008
   6        1.949848      1.963011
   7        1.949882      1.963037
   8        1.949885      1.963040
   9       11.694714     11.738343
  10       11.694714     11.738343
  11       13.438841     13.450300
  12       13.438845     13.450304
  13       13.438861     13.450315
  14       13.438864     13.450319
 
  0.1666667E+00 -0.1387779E-16  0.5000000E+00  0.2777778E-01
   1      -14.334512    -14.304710
   2      -14.334503    -14.304701
   3       -2.161568     -2.090526
   4       -2.161559     -2.090517
   5       -0.473478     -0.455549
   6       -0.473473     -0.455545
   7        0.701601      0.714532
   8        0.701604      0.714535
   9       12.418202     12.464503
  10       12.418202     12.464503
  11       13.377734     13.397226
  12       13.377739     13.397231
  13       14.568470     14.666821
  14       14.568482     14.666833
 
  0.3333333E+00  0.0000000E+00  0.5000000E+00  0.2777778E-01
   1      -12.387832    -12.358745
   2      -12.387824    -12.358737
   3       -4.976117     -4.953624
   4       -4.976111     -4.953619
   5       -0.954422     -0.941699
   6       -0.954419     -0.941697
   7        0.076717      0.150734
   8        0.076726      0.150743
   9        9.837300      9.922667
  10        9.837310      9.922677
  11       12.451181     12.485650
  12       12.451188     12.485657
  13       14.738917     14.783570
  14       14.738917     14.783571
 
  0.5000000E+00 -0.2775558E-16  0.5000000E+00  0.1388889E-01
   1       -9.723956     -9.691699
   2       -9.723947     -9.691691
   3       -8.626016     -8.605445
   4       -8.626010     -8.605439
   5       -1.628431     -1.615985
   6       -1.628428     -1.615982
   7        2.354686      2.433783
   8        2.354696      2.433793
   9        6.476669      6.552855
  10        6.476678      6.552864
  11       12.084749     12.122123
  12       12.084757     12.122130
  13       17.480773     17.551400
  14       17.480775     17.551402
 
  0.1666667E+00  0.1666667E+00  0.5000000E+00  0.2777778E-01
   1      -13.025028    -12.995697
   2      -13.025020    -12.995689
   3       -3.032273     -3.009763
   4       -3.032268     -3.009757
   5       -1.571903     -1.558782
   6       -1.571900     -1.558778
   7       -0.628452     -0.555578
   8       -0.628443     -0.555569
   9       11.358323     11.451090
  10       11.358334     11.451101
  11       13.841437     13.884356
  12       13.841437     13.884356
  13       15.214080     15.234285
  14       15.214084     15.234290
 
  0.3333333E+00  0.1666667E+00  0.5000000E+00  0.5555556E-01
   1      -10.530662    -10.501847
   2      -10.530655    -10.501839
   3       -6.784384     -6.760127
   4       -6.784378     -6.760121
   5       -3.277354     -3.262452
   6       -3.277351     -3.262448
   7        2.089857      2.166981
   8        2.089867      2.166991
   9        7.399890      7.483117
  10        7.399900      7.483127
  11       14.871297     14.911727
  12       14.871302     14.911733
  13       15.995997     16.041655
  14       15.995998     16.041657
 
  0.3333333E+00  0.3333333E+00  0.5000000E+00  0.9259259E-02
   1       -8.033499     -8.009595
   2       -8.033490     -8.009590
   3       -7.984435     -7.948746
   4       -7.984429     -7.948737
   5       -5.850395     -5.840055
   6       -5.850392     -5.840052
   7        4.741613      4.803032
   8        4.741627      4.803038
   9        4.901021      5.004155
  10        4.901027      5.004169
  11       14.958358     15.010131
  12       14.958360     15.010133
  13       18.811149     18.776253
  14       18.811155     18.776256
