       N       E                     dE             d eps       ncg     rms          rms(c)
DAV:   1     0.807016267216E+01    0.80702E+01   -0.55470E+03  1630   0.593E+02
DAV:   2    -0.356037843232E+02   -0.43674E+02   -0.40103E+02  2050   0.147E+02
DAV:   3    -0.369806851891E+02   -0.13769E+01   -0.13719E+01  2090   0.246E+01
DAV:   4    -0.369919657085E+02   -0.11281E-01   -0.11278E-01  1898   0.243E+00
DAV:   5    -0.369921692089E+02   -0.20350E-03   -0.20347E-03  2078   0.313E-01    0.118E+01
DAV:   6    -0.366892875365E+02    0.30288E+00   -0.15929E+00  1712   0.774E+00    0.475E+00
DAV:   7    -0.367217254346E+02   -0.32438E-01   -0.95926E-01  1742   0.618E+00    0.196E+00
DAV:   8    -0.366661798375E+02    0.55546E-01   -0.20151E-01  1820   0.308E+00    0.657E-01
DAV:   9    -0.366799581889E+02   -0.13778E-01   -0.15777E-02  1748   0.966E-01    0.300E-01
DAV:  10    -0.366808761057E+02   -0.91792E-03   -0.11780E-03  1904   0.299E-01    0.111E-01
DAV:  11    -0.366811643539E+02   -0.28825E-03   -0.39856E-04  1730   0.162E-01    0.459E-02
DAV:  12    -0.366812193356E+02   -0.54982E-04   -0.99921E-05  1482   0.806E-02
   1 F= -.36681219E+02 E0= -.36681275E+02  d E =0.167646E-03  mag=     0.0926
