 vasp.5.2.12 11Nov11 complex                                                    
  
 executed on             LinuxIFC date 2012.10.17  09:53:35
 running on    1 nodes
 distr:  one band on    1 nodes,    1 groups


--------------------------------------------------------------------------------------------------------


 INCAR:
 POTCAR:   PAW_PBE C 08Apr2002                    
 POTCAR:   PAW_PBE C 08Apr2002                    
   VRHFIN =C: s2p2                                                              
   LEXCH  = PE                                                                  
   EATOM  =   147.1560 eV,   10.8157 Ry                                         
                                                                                
   TITEL  = PAW_PBE C 08Apr2002                                                 
   LULTRA =        F    use ultrasoft PP ?                                      
   IUNSCR =        0    unscreen: 0-lin 1-nonlin 2-no                           
   RPACOR =     .000    partial core radius                                     
   POMASS =   12.011; ZVAL   =    4.000    mass and valenz                      
   RCORE  =    1.500    outmost cutoff radius                                   
   RWIGS  =    1.630; RWIGS  =     .863    wigner-seitz radius (au A)           
   ENMAX  =  400.000; ENMIN  =  300.000 eV                                      
   ICORE  =        2    local potential                                         
   LCOR   =        T    correct aug charges                                     
   LPAW   =        T    paw PP                                                  
   EAUG   =  644.873                                                            
   DEXC   =     .000                                                            
   RMAX   =    2.266    core radius for proj-oper                               
   RAUG   =    1.300    factor for augmentation sphere                          
   RDEP   =    1.501    radius for radial grids                                 
   RDEPT  =    1.300    core radius for aug-charge                              
   QCUT   =   -5.516; QGAM   =   11.032    optimization parameters              
                                                                                
   Description                                                                  
     l     E      TYP  RCUT    TYP  RCUT                                        
     0   .000     23  1.200                                                     
     0   .000     23  1.200                                                     
     1   .000     23  1.500                                                     
     1  2.500     23  1.500                                                     
     2   .000      7  1.500                                                     
  local pseudopotential read in
  atomic valenz-charges read in
  non local Contribution for L=           0  read in
    real space projection operators read in
  non local Contribution for L=           0  read in
    real space projection operators read in
  non local Contribution for L=           1  read in
    real space projection operators read in
  non local Contribution for L=           1  read in
    real space projection operators read in
    PAW grid and wavefunctions read in
 
   number of l-projection  operators is LMAX  =           4
   number of lm-projection operators is LMMAX =           8
 
 PAW_PBE C 08Apr2002                    :
 energy of atom  1       EATOM= -147.1560
 kinetic energy error for atom=    0.6876 (will be added to EATOM!!)
 
 
 POSCAR:  C                                      
  positions in cartesian coordinates
  No initial velocities read in
 exchange correlation table for  LEXCH =        8
   RHO(1)=    0.500       N(1)  =     2000
   RHO(2)=  100.500       N(2)  =     4000
 


--------------------------------------------------------------------------------------------------------


 ion  position               nearest neighbor table
   1  0.000  0.000  0.000-   2 1.42   2 1.42   2 1.42
   2  0.333  0.667  0.000-   1 1.42   1 1.42   1 1.42
   3  0.333  0.667  0.500-   4 1.42   4 1.42   4 1.42
   4  0.667  0.333  0.500-   3 1.42   3 1.42   3 1.42
 
  LATTYP: Found a hexagonal cell.
 ALAT       =     2.4612000000
 C/A-ratio  =     2.7254591256
  
  Lattice vectors:
  
 A1 = (   2.4612000000,   0.0000000000,   0.0000000000)
 A2 = (  -1.2306000000,   2.1314617238,   0.0000000000)
 A3 = (   0.0000000000,   0.0000000000,   6.7079000000)
 Subroutine PRICEL returns:
 Original cell was already a primitive cell.
 

Analysis of symmetry for initial positions (statically):

 Routine SETGRP: Setting up the symmetry group for a 
 hexagonal supercell.


 Subroutine GETGRP returns: Found 24 space group operations
 (whereof 12 operations were pure point group operations)
 out of a pool of 24 trial point group operations.


The static configuration has the point symmetry D_3h.
 The point group associated with its full space group is D_6h.

Analysis of symmetry for dynamics (positions and initial velocities):

 Subroutine DYNSYM returns: Found 24 space group operations
 (whereof 12 operations were pure point group operations)
 out of a pool of 24 trial space group operations
 (whereof 12 operations were pure point group operations)
 and found also     1 'primitive' translations


The dynamic configuration has the point symmetry D_3h.
 The point group associated with its full space group is D_6h.

Analysis of magnetic symmetry:

 Subroutine MAGSYM returns: Found 24 space group operations
 (whereof 12 operations were pure point group operations)
 out of a pool of 24 trial space group operations
 (whereof 12 operations were pure point group operations)
 and found also     1 'primitive' translations


The magnetic configuration has the point symmetry D_3h.
 The point group associated with its full space group is D_6h.
 
 
 KPOINTS: KPOINTS created by Atomic Simulation Env

Automatic generation of k-mesh.
 
 Subroutine IBZKPT returns following result:
 ===========================================
 
 Found     28 irreducible k-points:
 
 Following reciprocal coordinates:
            Coordinates               Weight
  0.000000  0.000000  0.000000      1.000000
  0.166667  0.000000  0.000000      6.000000
  0.333333  0.000000  0.000000      6.000000
  0.500000  0.000000  0.000000      3.000000
  0.166667  0.166667  0.000000      6.000000
  0.333333  0.166667  0.000000     12.000000
  0.333333  0.333333  0.000000      2.000000
  0.000000  0.000000  0.166667      2.000000
  0.166667  0.000000  0.166667     12.000000
  0.333333  0.000000  0.166667     12.000000
  0.500000  0.000000  0.166667      6.000000
  0.166667  0.166667  0.166667     12.000000
  0.333333  0.166667  0.166667     24.000000
  0.333333  0.333333  0.166667      4.000000
  0.000000  0.000000  0.333333      2.000000
  0.166667  0.000000  0.333333     12.000000
  0.333333  0.000000  0.333333     12.000000
  0.500000  0.000000  0.333333      6.000000
  0.166667  0.166667  0.333333     12.000000
  0.333333  0.166667  0.333333     24.000000
  0.333333  0.333333  0.333333      4.000000
  0.000000  0.000000  0.500000      1.000000
  0.166667  0.000000  0.500000      6.000000
  0.333333  0.000000  0.500000      6.000000
  0.500000  0.000000  0.500000      3.000000
  0.166667  0.166667  0.500000      6.000000
  0.333333  0.166667  0.500000     12.000000
  0.333333  0.333333  0.500000      2.000000
 
 Following cartesian coordinates:
            Coordinates               Weight
  0.000000  0.000000  0.000000      1.000000
  0.067718  0.039097  0.000000      6.000000
  0.135435  0.078194  0.000000      6.000000
  0.203153  0.117290  0.000000      3.000000
  0.067718  0.117290  0.000000      6.000000
  0.135435  0.156387  0.000000     12.000000
  0.135435  0.234581  0.000000      2.000000
  0.000000  0.000000  0.024846      2.000000
  0.067718  0.039097  0.024846     12.000000
  0.135435  0.078194  0.024846     12.000000
  0.203153  0.117290  0.024846      6.000000
  0.067718  0.117290  0.024846     12.000000
  0.135435  0.156387  0.024846     24.000000
  0.135435  0.234581  0.024846      4.000000
  0.000000  0.000000  0.049693      2.000000
  0.067718  0.039097  0.049693     12.000000
  0.135435  0.078194  0.049693     12.000000
  0.203153  0.117290  0.049693      6.000000
  0.067718  0.117290  0.049693     12.000000
  0.135435  0.156387  0.049693     24.000000
  0.135435  0.234581  0.049693      4.000000
  0.000000  0.000000  0.074539      1.000000
  0.067718  0.039097  0.074539      6.000000
  0.135435  0.078194  0.074539      6.000000
  0.203153  0.117290  0.074539      3.000000
  0.067718  0.117290  0.074539      6.000000
  0.135435  0.156387  0.074539     12.000000
  0.135435  0.234581  0.074539      2.000000
 


--------------------------------------------------------------------------------------------------------




 Dimension of arrays:
   k-points           NKPTS =     28   k-points in BZ     NKDIM =     28   number of bands    NBANDS=     14
   number of dos      NEDOS =    301   number of ions     NIONS =      4
   non local maximal  LDIM  =      4   non local SUM 2l+1 LMDIM =      8
   total plane-waves  NPLWV =   7056
   max r-space proj   IRMAX =      1   max aug-charges    IRDMAX=   2565
   dimension x,y,z NGX =    14 NGY =   14 NGZ =   36
   dimension x,y,z NGXF=    28 NGYF=   28 NGZF=   72
   support grid    NGXF=    28 NGYF=   28 NGZF=   72
   ions per type =               4
 NGX,Y,Z   is equivalent  to a cutoff of   9.46,  9.46,  8.92 a.u.
 NGXF,Y,Z  is equivalent  to a cutoff of  18.91, 18.91, 17.84 a.u.


 I would recommend the setting:
   dimension x,y,z NGX =    13 NGY =   13 NGZ =   35
 SYSTEM =  unknown system                          
 POSCAR =   C                                      

 Startparameter for this run:
   NWRITE =      2    write-flag & timer
   PREC   = accura    normal or accurate (medium, high low for compatibility)
   ISTART =      0    job   : 0-new  1-cont  2-samecut
   ICHARG =      2    charge: 1-file 2-atom 10-const
   ISPIN  =      2    spin polarized calculation?
   LNONCOLLINEAR =      F non collinear calculations
   LSORBIT =      F    spin-orbit coupling
   INIWAV =      1    electr: 0-lowe 1-rand  2-diag
   LASPH  =      F    aspherical Exc in radial PAW
   METAGGA=      F    non-selfconsistent MetaGGA calc.

 Electronic Relaxation 1
   ENCUT  =  250.0 eV  18.37 Ry    4.29 a.u.   3.17  3.17  8.65*2*pi/ulx,y,z
   ENINI  =  250.0     initial cutoff
   ENAUG  =  644.9 eV  augmentation charge cutoff
   NELM   =     60;   NELMIN=  2; NELMDL= -5     # of ELM steps 
   EDIFF  = 0.1E-03   stopping-criterion for ELM
   LREAL  =      F    real-space projection
   NLSPLINE    = F    spline interpolate recip. space projectors
   LCOMPAT=      F    compatible to vasp.4.4
   GGA_COMPAT  = T    GGA compatible to vasp.4.4-vasp.4.6
   LMAXPAW     = -100 max onsite density
   LMAXMIX     =    2 max onsite mixed and CHGCAR
   VOSKOWN=      0    Vosko Wilk Nusair interpolation
   ROPT   =    0.00000
 Ionic relaxation
   EDIFFG = 0.1E-02   stopping-criterion for IOM
   NSW    =      0    number of steps for IOM
   NBLOCK =      1;   KBLOCK =      1    inner block; outer block 
   IBRION =     -1    ionic relax: 0-MD 1-quasi-New 2-CG
   NFREE  =      0    steps in history (QN), initial steepest desc. (CG)
   ISIF   =      2    stress and relaxation
   IWAVPR =     10    prediction:  0-non 1-charg 2-wave 3-comb
   ISYM   =      2    0-nonsym 1-usesym 2-fastsym
   LCORR  =      T    Harris-Foulkes like correction to forces

   POTIM  = 0.5000    time-step for ionic-motion
   TEIN   =    0.0    initial temperature
   TEBEG  =    0.0;   TEEND  =   0.0 temperature during run
   SMASS  =  -3.00    Nose mass-parameter (am)
   estimated Nose-frequenzy (Omega)   =  0.10E-29 period in steps =****** mass=  -0.138E-27a.u.
   SCALEE = 1.0000    scale energy and forces
   NPACO  =    256;   APACO  = 16.0  distance and # of slots for P.C.
   PSTRESS=    0.0 pullay stress

  Mass of Ions in am
   POMASS =  12.01
  Ionic Valenz
   ZVAL   =   4.00
  Atomic Wigner-Seitz radii
   RWIGS  =  -1.00
  virtual crystal weights 
   VCA    =   1.00
   NELECT =      16.0000    total number of electrons
   NUPDOWN=      -1.0000    fix difference up-down

 DOS related values:
   EMIN   =  10.00;   EMAX   =-10.00  energy-range for DOS
   EFERMI =   0.00
   ISMEAR =     1;   SIGMA  =   0.05  broadening in eV -4-tet -1-fermi 0-gaus

 Electronic relaxation 2 (details)
   IALGO  =     38    algorithm
   LDIAG  =      T    sub-space diagonalisation (order eigenvalues)
   LSUBROT=      T    optimize rotation matrix (better conditioning)
   TURBO    =      0    0=normal 1=particle mesh
   IRESTART =      0    0=no restart 2=restart with 2 vectors
   NREBOOT  =      0    no. of reboots
   NMIN     =      0    reboot dimension
   EREF     =   0.00    reference energy to select bands
   IMIX   =      4    mixing-type and parameters
     AMIX     =   0.40;   BMIX     =  1.00
     AMIX_MAG =   1.60;   BMIX_MAG =  1.00
     AMIN     =   0.10
     WC   =   100.;   INIMIX=   1;  MIXPRE=   1

 Intra band minimization:
   WEIMIN = 0.0000     energy-eigenvalue tresh-hold
   EBREAK =  0.18E-05  absolut break condition
   DEPER  =   0.30     relativ break condition  

   TIME   =   0.40     timestep for ELM

  volume/ion in A,a.u.               =       8.80        59.37
  Fermi-wavevector in a.u.,A,eV,Ry     =   1.258861  2.378903 21.561578  1.584731
  Thomas-Fermi vector in A             =   2.392450
 
 Write flags
   LWAVE  =      T    write WAVECAR
   LCHARG =      T    write CHGCAR
   LVTOT  =      F    write LOCPOT, total local potential
   LVHAR  =      F    write LOCPOT, Hartree potential only
   LELF   =      F    write electronic localiz. function (ELF)
   LORBIT =     11    0 simple, 1 ext, 2 COOP (PROOUT)


 Dipole corrections
   LMONO  =      F    monopole corrections only (constant potential shift)
   LDIPOL =      F    correct potential (dipole corrections)
   IDIPOL =      0    1-x, 2-y, 3-z, 4-all directions 
   EPSILON=  1.0000000 bulk dielectric constant

 Exchange correlation treatment:
   GGA     =    --    GGA type
   LEXCH   =     8    internal setting for exchange type
   VOSKOWN=      0    Vosko Wilk Nusair interpolation
   LHFCALC =     F    Hartree Fock is set to
   LHFONE  =     F    Hartree Fock one center treatment
   AEXX    =    0.0000 exact exchange contribution

 Linear response parameters
   LEPSILON=     F    determine dielectric tensor
   LRPA    =     F    only Hartree local field effects (RPA)
   LNABLA  =     F    use nabla operator in PAW spheres
   LVEL    =     F    velocity operator in full k-point grid
   LINTERFAST=   F  fast interpolation
   KINTER  =     0    interpolate to denser k-point grid
   CSHIFT  =0.1000    complex shift for real part using Kramers Kronig
   OMEGAMAX=  -1.0    maximum frequency
   RTIME   =    0.100 relaxation time in fs

 Orbital magnetization related:
   ORBITALMAG=     F  switch on orbital magnetization
   LCHIMAG   =     F  perturbation theory with respect to B field
   DQ        =  0.001000  dq finite difference perturbation B field



--------------------------------------------------------------------------------------------------------


 Static calculation
 charge density and potential will be updated during run
 spin polarized calculation
 Variant of blocked Davidson
 Davidson routine will perform the subspace rotation
 perform sub-space diagonalisation
    after iterative eigenvector-optimisation
 modified Broyden-mixing scheme, WC =      100.0
 initial mixing is a Kerker type mixing with AMIX =  0.4000 and BMIX =      1.0000
 Hartree-type preconditioning will be used
 using additional bands            6
 reciprocal scheme for non local part
 calculate Harris-corrections to forces 
   (improved forces if not selfconsistent)
 use gradient corrections 
 use of overlap-Matrix (Vanderbilt PP)
 Methfessel and Paxton  Order N= 1 SIGMA  =   0.05


--------------------------------------------------------------------------------------------------------


  energy-cutoff  :      250.00
  volume of cell :       35.19
      direct lattice vectors                 reciprocal lattice vectors
     2.461200000  0.000000000  0.000000000     0.406305867  0.234580802  0.000000000
    -1.230600000  2.131461724  0.000000000     0.000000000  0.469161603  0.000000000
     0.000000000  0.000000000  6.707900000     0.000000000  0.000000000  0.149077953

  length of vectors
     2.461200000  2.461200000  6.707900000     0.469161603  0.469161603  0.149077953


 
 k-points in units of 2pi/SCALE and weight: KPOINTS created by Atomic Simulation Env
   0.00000000  0.00000000  0.00000000       0.005
   0.06771764  0.03909680  0.00000000       0.028
   0.13543529  0.07819360  0.00000000       0.028
   0.20315293  0.11729040  0.00000000       0.014
   0.06771764  0.11729040  0.00000000       0.028
   0.13543529  0.15638720  0.00000000       0.056
   0.13543529  0.23458080  0.00000000       0.009
   0.00000000  0.00000000  0.02484633       0.009
   0.06771764  0.03909680  0.02484633       0.056
   0.13543529  0.07819360  0.02484633       0.056
   0.20315293  0.11729040  0.02484633       0.028
   0.06771764  0.11729040  0.02484633       0.056
   0.13543529  0.15638720  0.02484633       0.111
   0.13543529  0.23458080  0.02484633       0.019
   0.00000000  0.00000000  0.04969265       0.009
   0.06771764  0.03909680  0.04969265       0.056
   0.13543529  0.07819360  0.04969265       0.056
   0.20315293  0.11729040  0.04969265       0.028
   0.06771764  0.11729040  0.04969265       0.056
   0.13543529  0.15638720  0.04969265       0.111
   0.13543529  0.23458080  0.04969265       0.019
   0.00000000  0.00000000  0.07453898       0.005
   0.06771764  0.03909680  0.07453898       0.028
   0.13543529  0.07819360  0.07453898       0.028
   0.20315293  0.11729040  0.07453898       0.014
   0.06771764  0.11729040  0.07453898       0.028
   0.13543529  0.15638720  0.07453898       0.056
   0.13543529  0.23458080  0.07453898       0.009
 
 k-points in reciprocal lattice and weights: KPOINTS created by Atomic Simulation Env
   0.00000000  0.00000000  0.00000000       0.005
   0.16666667  0.00000000  0.00000000       0.028
   0.33333333  0.00000000  0.00000000       0.028
   0.50000000  0.00000000  0.00000000       0.014
   0.16666667  0.16666667  0.00000000       0.028
   0.33333333  0.16666667  0.00000000       0.056
   0.33333333  0.33333333  0.00000000       0.009
   0.00000000  0.00000000  0.16666667       0.009
   0.16666667  0.00000000  0.16666667       0.056
   0.33333333  0.00000000  0.16666667       0.056
   0.50000000  0.00000000  0.16666667       0.028
   0.16666667  0.16666667  0.16666667       0.056
   0.33333333  0.16666667  0.16666667       0.111
   0.33333333  0.33333333  0.16666667       0.019
   0.00000000  0.00000000  0.33333333       0.009
   0.16666667  0.00000000  0.33333333       0.056
   0.33333333  0.00000000  0.33333333       0.056
   0.50000000  0.00000000  0.33333333       0.028
   0.16666667  0.16666667  0.33333333       0.056
   0.33333333  0.16666667  0.33333333       0.111
   0.33333333  0.33333333  0.33333333       0.019
   0.00000000  0.00000000  0.50000000       0.005
   0.16666667  0.00000000  0.50000000       0.028
   0.33333333  0.00000000  0.50000000       0.028
   0.50000000  0.00000000  0.50000000       0.014
   0.16666667  0.16666667  0.50000000       0.028
   0.33333333  0.16666667  0.50000000       0.056
   0.33333333  0.33333333  0.50000000       0.009
 
 position of ions in fractional coordinates (direct lattice) 
   0.00000000  0.00000000  0.00000000
   0.33333333  0.66666667  0.00000000
   0.33333333  0.66666667  0.50000000
   0.66666667  0.33333333  0.50000000
 
 position of ions in cartesian coordinates  (Angst):
   0.00000000  0.00000000  0.00000000
   0.00000000  1.42097448  0.00000000
   0.00000000  1.42097448  3.35395000
   1.23060000  0.71048724  3.35395000
 


--------------------------------------------------------------------------------------------------------


 k-point  1 :  0.00000.00000.0000  plane waves:     323
 k-point  2 :  0.16670.00000.0000  plane waves:     311
 k-point  3 :  0.33330.00000.0000  plane waves:     318
 k-point  4 :  0.50000.00000.0000  plane waves:     314
 k-point  5 :  0.16670.16670.0000  plane waves:     309
 k-point  6 :  0.33330.16670.0000  plane waves:     318
 k-point  7 :  0.33330.33330.0000  plane waves:     321
 k-point  8 :  0.00000.00000.1667  plane waves:     323
 k-point  9 :  0.16670.00000.1667  plane waves:     311
 k-point 10 :  0.33330.00000.1667  plane waves:     318
 k-point 11 :  0.50000.00000.1667  plane waves:     314
 k-point 12 :  0.16670.16670.1667  plane waves:     308
 k-point 13 :  0.33330.16670.1667  plane waves:     319
 k-point 14 :  0.33330.33330.1667  plane waves:     324
 k-point 15 :  0.00000.00000.3333  plane waves:     329
 k-point 16 :  0.16670.00000.3333  plane waves:     308
 k-point 17 :  0.33330.00000.3333  plane waves:     316
 k-point 18 :  0.50000.00000.3333  plane waves:     312
 k-point 19 :  0.16670.16670.3333  plane waves:     308
 k-point 20 :  0.33330.16670.3333  plane waves:     319
 k-point 21 :  0.33330.33330.3333  plane waves:     321
 k-point 22 :  0.00000.00000.5000  plane waves:     318
 k-point 23 :  0.16670.00000.5000  plane waves:     312
 k-point 24 :  0.33330.00000.5000  plane waves:     318
 k-point 25 :  0.50000.00000.5000  plane waves:     324
 k-point 26 :  0.16670.16670.5000  plane waves:     308
 k-point 27 :  0.33330.16670.5000  plane waves:     318
 k-point 28 :  0.33330.33330.5000  plane waves:     318

 maximum and minimum number of plane-waves per node :       329      308

 maximum number of plane-waves:       329
 maximum index in each direction: 
   IXMAX=    3   IYMAX=    3   IZMAX=    8
   IXMIN=   -3   IYMIN=   -3   IZMIN=   -9

 NGX is ok and might be reduce to  14
 NGY is ok and might be reduce to  14
 NGZ is ok and might be reduce to  36

 serial   3D FFT for wavefunctions
 parallel 3D FFT for charge:
    minimum data exchange during FFTs selected (reduces bandwidth)


 total amount of memory used by VASP on root node    41856. kBytes
========================================================================

   base      :      30000. kBytes
   nonl-proj :        610. kBytes
   fftplans  :       1972. kBytes
   grid      :       4722. kBytes
   one-center:         24. kBytes
   wavefun   :       4528. kBytes
 
 Broyden mixing: mesh for mixing (old mesh)
   NGX =  7   NGY =  7   NGZ = 17
  (NGX  = 28   NGY  = 28   NGZ  = 72)
  gives a total of    833 points

 initial charge density was supplied:
 charge density of overlapping atoms calculated
 number of electron      16.0000000 magnetization       4.0000000
 keeping initial charge density in first step


--------------------------------------------------------------------------------------------------------


 Maximum index for augmentation-charges         2313 (set IRDMAX)


--------------------------------------------------------------------------------------------------------


 First call to EWALD:  gamma=   0.541
 Maximum number of real-space cells 4x 4x 2
 Maximum number of reciprocal cells 2x 2x 5

    FEWALD:  cpu time    0.00: real time    0.00


----------------------------------------- Iteration    1(   1)  ---------------------------------------


    POTLOK:  cpu time    0.18: real time    0.18
    SETDIJ:  cpu time    0.04: real time    0.04
     EDDAV:  cpu time    2.13: real time    2.13
       DOS:  cpu time    0.00: real time    0.01
    --------------------------------------------
      LOOP:  cpu time    2.35: real time    2.36

 eigenvalue-minimisations  :  1630
 total energy-change (2. order) : 0.8070163E+01  (-0.5547040E+03)
 number of electron      16.0000000 magnetization       4.0000000
 augmentation part       16.0000000 magnetization       4.0000000

 Free energy of the ion-electron system (eV)
  ---------------------------------------------------
  alpha Z        PSCENC =        37.04766603
  Ewald energy   TEWEN  =      -460.60042082
  -1/2 Hartree   DENC   =      -148.78490797
  -exchange  EXHF       =         0.00000000
  -V(xc)+E(xc)   XCENC  =        56.10991001
  PAW double counting   =       150.95130483     -155.51722924
  entropy T*S    EENTRO =        -0.00094470
  eigenvalues    EBANDS =       -57.00896352
  atomic energy  EATOM  =       585.87374805
  ---------------------------------------------------
  free energy    TOTEN  =         8.07016267 eV

  energy without entropy =        8.07110738  energy(sigma->0) =        8.07047757


--------------------------------------------------------------------------------------------------------




----------------------------------------- Iteration    1(   2)  ---------------------------------------


     EDDAV:  cpu time    2.49: real time    2.49
       DOS:  cpu time    0.00: real time    0.01
    --------------------------------------------
      LOOP:  cpu time    2.50: real time    2.50

 eigenvalue-minimisations  :  2050
 total energy-change (2. order) :-0.4367395E+02  (-0.4010301E+02)
 number of electron      16.0000000 magnetization       4.0000000
 augmentation part       16.0000000 magnetization       4.0000000

 Free energy of the ion-electron system (eV)
  ---------------------------------------------------
  alpha Z        PSCENC =        37.04766603
  Ewald energy   TEWEN  =      -460.60042082
  -1/2 Hartree   DENC   =      -148.78490797
  -exchange  EXHF       =         0.00000000
  -V(xc)+E(xc)   XCENC  =        56.10991001
  PAW double counting   =       150.95130483     -155.51722924
  entropy T*S    EENTRO =         0.00001347
  eigenvalues    EBANDS =      -100.68386868
  atomic energy  EATOM  =       585.87374805
  ---------------------------------------------------
  free energy    TOTEN  =       -35.60378432 eV

  energy without entropy =      -35.60379779  energy(sigma->0) =      -35.60378881


--------------------------------------------------------------------------------------------------------




----------------------------------------- Iteration    1(   3)  ---------------------------------------


     EDDAV:  cpu time    2.53: real time    2.53
       DOS:  cpu time    0.00: real time    0.00
    --------------------------------------------
      LOOP:  cpu time    2.54: real time    2.55

 eigenvalue-minimisations  :  2090
 total energy-change (2. order) :-0.1376901E+01  (-0.1371873E+01)
 number of electron      16.0000000 magnetization       4.0000000
 augmentation part       16.0000000 magnetization       4.0000000

 Free energy of the ion-electron system (eV)
  ---------------------------------------------------
  alpha Z        PSCENC =        37.04766603
  Ewald energy   TEWEN  =      -460.60042082
  -1/2 Hartree   DENC   =      -148.78490797
  -exchange  EXHF       =         0.00000000
  -V(xc)+E(xc)   XCENC  =        56.10991001
  PAW double counting   =       150.95130483     -155.51722924
  entropy T*S    EENTRO =         0.00001346
  eigenvalues    EBANDS =      -102.06076955
  atomic energy  EATOM  =       585.87374805
  ---------------------------------------------------
  free energy    TOTEN  =       -36.98068519 eV

  energy without entropy =      -36.98069865  energy(sigma->0) =      -36.98068968


--------------------------------------------------------------------------------------------------------




----------------------------------------- Iteration    1(   4)  ---------------------------------------


     EDDAV:  cpu time    2.35: real time    2.35
       DOS:  cpu time    0.00: real time    0.00
    --------------------------------------------
      LOOP:  cpu time    2.35: real time    2.36

 eigenvalue-minimisations  :  1898
 total energy-change (2. order) :-0.1128052E-01  (-0.1127791E-01)
 number of electron      16.0000000 magnetization       4.0000000
 augmentation part       16.0000000 magnetization       4.0000000

 Free energy of the ion-electron system (eV)
  ---------------------------------------------------
  alpha Z        PSCENC =        37.04766603
  Ewald energy   TEWEN  =      -460.60042082
  -1/2 Hartree   DENC   =      -148.78490797
  -exchange  EXHF       =         0.00000000
  -V(xc)+E(xc)   XCENC  =        56.10991001
  PAW double counting   =       150.95130483     -155.51722924
  entropy T*S    EENTRO =         0.00001346
  eigenvalues    EBANDS =      -102.07205006
  atomic energy  EATOM  =       585.87374805
  ---------------------------------------------------
  free energy    TOTEN  =       -36.99196571 eV

  energy without entropy =      -36.99197917  energy(sigma->0) =      -36.99197020


--------------------------------------------------------------------------------------------------------




----------------------------------------- Iteration    1(   5)  ---------------------------------------


     EDDAV:  cpu time    2.52: real time    2.53
       DOS:  cpu time    0.00: real time    0.01
    CHARGE:  cpu time    0.18: real time    0.18
    MIXING:  cpu time    0.00: real time    0.00
    --------------------------------------------
      LOOP:  cpu time    2.72: real time    2.73

 eigenvalue-minimisations  :  2078
 total energy-change (2. order) :-0.2035005E-03  (-0.2034734E-03)
 number of electron      15.9999998 magnetization       1.1751765
 augmentation part        0.3385363 magnetization       0.9680952

 Broyden mixing:
  rms(total) = 0.11763E+01    rms(broyden)= 0.11746E+01
  rms(prec ) = 0.14864E+01
  weight for this iteration     100.00

 Free energy of the ion-electron system (eV)
  ---------------------------------------------------
  alpha Z        PSCENC =        37.04766603
  Ewald energy   TEWEN  =      -460.60042082
  -1/2 Hartree   DENC   =      -148.78490797
  -exchange  EXHF       =         0.00000000
  -V(xc)+E(xc)   XCENC  =        56.10991001
  PAW double counting   =       150.95130483     -155.51722924
  entropy T*S    EENTRO =         0.00001346
  eigenvalues    EBANDS =      -102.07225357
  atomic energy  EATOM  =       585.87374805
  ---------------------------------------------------
  free energy    TOTEN  =       -36.99216921 eV

  energy without entropy =      -36.99218267  energy(sigma->0) =      -36.99217370


--------------------------------------------------------------------------------------------------------




----------------------------------------- Iteration    1(   6)  ---------------------------------------


    POTLOK:  cpu time    0.17: real time    0.17
    SETDIJ:  cpu time    0.04: real time    0.04
     EDDAV:  cpu time    2.17: real time    2.17
       DOS:  cpu time    0.00: real time    0.01
    CHARGE:  cpu time    0.18: real time    0.18
    MIXING:  cpu time    0.00: real time    0.00
    --------------------------------------------
      LOOP:  cpu time    2.58: real time    2.59

 eigenvalue-minimisations  :  1712
 total energy-change (2. order) : 0.3028817E+00  (-0.1592891E+00)
 number of electron      15.9999998 magnetization       0.1711415
 augmentation part        0.3269071 magnetization       0.0437965

 Broyden mixing:
  rms(total) = 0.47515E+00    rms(broyden)= 0.47477E+00
  rms(prec ) = 0.67778E+00
  weight for this iteration     100.00

 eigenvalues of (default mixing * dielectric matrix)
  average eigenvalue GAMMA=   0.9635
  0.9635

 Free energy of the ion-electron system (eV)
  ---------------------------------------------------
  alpha Z        PSCENC =        37.04766603
  Ewald energy   TEWEN  =      -460.60042082
  -1/2 Hartree   DENC   =      -163.66286451
  -exchange  EXHF       =         0.00000000
  -V(xc)+E(xc)   XCENC  =        56.68361836
  PAW double counting   =       202.54465444     -207.22850542
  entropy T*S    EENTRO =         0.00008090
  eigenvalues    EBANDS =       -87.34726457
  atomic energy  EATOM  =       585.87374805
  ---------------------------------------------------
  free energy    TOTEN  =       -36.68928754 eV

  energy without entropy =      -36.68936843  energy(sigma->0) =      -36.68931450


--------------------------------------------------------------------------------------------------------




----------------------------------------- Iteration    1(   7)  ---------------------------------------


    POTLOK:  cpu time    0.17: real time    0.17
    SETDIJ:  cpu time    0.04: real time    0.04
     EDDAV:  cpu time    2.20: real time    2.20
       DOS:  cpu time    0.01: real time    0.01
    CHARGE:  cpu time    0.18: real time    0.18
    MIXING:  cpu time    0.00: real time    0.00
    --------------------------------------------
      LOOP:  cpu time    2.60: real time    2.62

 eigenvalue-minimisations  :  1742
 total energy-change (2. order) :-0.3243790E-01  (-0.9592633E-01)
 number of electron      15.9999998 magnetization      -0.0714073
 augmentation part        0.3181099 magnetization      -0.1614836

 Broyden mixing:
  rms(total) = 0.19588E+00    rms(broyden)= 0.19573E+00
  rms(prec ) = 0.27454E+00
  weight for this iteration     100.00

 eigenvalues of (default mixing * dielectric matrix)
  average eigenvalue GAMMA=   1.2109
  0.8314  1.5904

 Free energy of the ion-electron system (eV)
  ---------------------------------------------------
  alpha Z        PSCENC =        37.04766603
  Ewald energy   TEWEN  =      -460.60042082
  -1/2 Hartree   DENC   =      -174.23703016
  -exchange  EXHF       =         0.00000000
  -V(xc)+E(xc)   XCENC  =        57.07784118
  PAW double counting   =       242.67442214     -247.37947946
  entropy T*S    EENTRO =         0.00030769
  eigenvalues    EBANDS =       -77.17878008
  atomic energy  EATOM  =       585.87374805
  ---------------------------------------------------
  free energy    TOTEN  =       -36.72172543 eV

  energy without entropy =      -36.72203312  energy(sigma->0) =      -36.72182800


--------------------------------------------------------------------------------------------------------




----------------------------------------- Iteration    1(   8)  ---------------------------------------


    POTLOK:  cpu time    0.17: real time    0.17
    SETDIJ:  cpu time    0.04: real time    0.04
     EDDAV:  cpu time    2.27: real time    2.27
       DOS:  cpu time    0.01: real time    0.01
    CHARGE:  cpu time    0.18: real time    0.18
    MIXING:  cpu time    0.00: real time    0.00
    --------------------------------------------
      LOOP:  cpu time    2.67: real time    2.69

 eigenvalue-minimisations  :  1820
 total energy-change (2. order) : 0.5554560E-01  (-0.2015053E-01)
 number of electron      15.9999998 magnetization       0.0584821
 augmentation part        0.3130591 magnetization      -0.0324638

 Broyden mixing:
  rms(total) = 0.65699E-01    rms(broyden)= 0.65583E-01
  rms(prec ) = 0.77037E-01
  weight for this iteration     100.00

 eigenvalues of (default mixing * dielectric matrix)
  average eigenvalue GAMMA=   1.2070
  1.8679  0.9888  0.7645

 Free energy of the ion-electron system (eV)
  ---------------------------------------------------
  alpha Z        PSCENC =        37.04766603
  Ewald energy   TEWEN  =      -460.60042082
  -1/2 Hartree   DENC   =      -180.25598917
  -exchange  EXHF       =         0.00000000
  -V(xc)+E(xc)   XCENC  =        57.48493430
  PAW double counting   =       267.54094280     -272.23159812
  entropy T*S    EENTRO =         0.00018815
  eigenvalues    EBANDS =       -71.52565106
  atomic energy  EATOM  =       585.87374805
  ---------------------------------------------------
  free energy    TOTEN  =       -36.66617984 eV

  energy without entropy =      -36.66636798  energy(sigma->0) =      -36.66624255


--------------------------------------------------------------------------------------------------------




----------------------------------------- Iteration    1(   9)  ---------------------------------------


    POTLOK:  cpu time    0.17: real time    0.17
    SETDIJ:  cpu time    0.04: real time    0.04
     EDDAV:  cpu time    2.21: real time    2.21
       DOS:  cpu time    0.01: real time    0.01
    CHARGE:  cpu time    0.18: real time    0.18
    MIXING:  cpu time    0.00: real time    0.00
    --------------------------------------------
      LOOP:  cpu time    2.61: real time    2.63

 eigenvalue-minimisations  :  1748
 total energy-change (2. order) :-0.1377835E-01  (-0.1577717E-02)
 number of electron      15.9999998 magnetization       0.1116871
 augmentation part        0.3120032 magnetization       0.0207120

 Broyden mixing:
  rms(total) = 0.29964E-01    rms(broyden)= 0.29950E-01
  rms(prec ) = 0.35702E-01
  weight for this iteration     100.00

 eigenvalues of (default mixing * dielectric matrix)
  average eigenvalue GAMMA=   1.2922
  2.2187  1.3746  0.8917  0.6836

 Free energy of the ion-electron system (eV)
  ---------------------------------------------------
  alpha Z        PSCENC =        37.04766603
  Ewald energy   TEWEN  =      -460.60042082
  -1/2 Hartree   DENC   =      -180.98095700
  -exchange  EXHF       =         0.00000000
  -V(xc)+E(xc)   XCENC  =        57.52723231
  PAW double counting   =       271.74285604     -276.40523413
  entropy T*S    EENTRO =         0.00020302
  eigenvalues    EBANDS =       -70.88505169
  atomic energy  EATOM  =       585.87374805
  ---------------------------------------------------
  free energy    TOTEN  =       -36.67995819 eV

  energy without entropy =      -36.68016121  energy(sigma->0) =      -36.68002586


--------------------------------------------------------------------------------------------------------




----------------------------------------- Iteration    1(  10)  ---------------------------------------


    POTLOK:  cpu time    0.17: real time    0.17
    SETDIJ:  cpu time    0.04: real time    0.04
     EDDAV:  cpu time    2.35: real time    2.35
       DOS:  cpu time    0.00: real time    0.01
    CHARGE:  cpu time    0.18: real time    0.18
    MIXING:  cpu time    0.00: real time    0.00
    --------------------------------------------
      LOOP:  cpu time    2.75: real time    2.79

 eigenvalue-minimisations  :  1904
 total energy-change (2. order) :-0.9179168E-03  (-0.1177953E-03)
 number of electron      15.9999998 magnetization       0.0993224
 augmentation part        0.3118925 magnetization       0.0106863

 Broyden mixing:
  rms(total) = 0.11099E-01    rms(broyden)= 0.11094E-01
  rms(prec ) = 0.13811E-01
  weight for this iteration     100.00

 eigenvalues of (default mixing * dielectric matrix)
  average eigenvalue GAMMA=   1.2515
  2.3469  1.4613  0.9799  0.8136  0.6558

 Free energy of the ion-electron system (eV)
  ---------------------------------------------------
  alpha Z        PSCENC =        37.04766603
  Ewald energy   TEWEN  =      -460.60042082
  -1/2 Hartree   DENC   =      -181.19943394
  -exchange  EXHF       =         0.00000000
  -V(xc)+E(xc)   XCENC  =        57.54489657
  PAW double counting   =       273.44243140     -278.08399272
  entropy T*S    EENTRO =         0.00009091
  eigenvalues    EBANDS =       -70.70586159
  atomic energy  EATOM  =       585.87374805
  ---------------------------------------------------
  free energy    TOTEN  =       -36.68087611 eV

  energy without entropy =      -36.68096701  energy(sigma->0) =      -36.68090641


--------------------------------------------------------------------------------------------------------




----------------------------------------- Iteration    1(  11)  ---------------------------------------


    POTLOK:  cpu time    0.17: real time    0.17
    SETDIJ:  cpu time    0.04: real time    0.04
     EDDAV:  cpu time    2.18: real time    2.19
       DOS:  cpu time    0.01: real time    0.01
    CHARGE:  cpu time    0.18: real time    0.18
    MIXING:  cpu time    0.00: real time    0.00
    --------------------------------------------
      LOOP:  cpu time    2.59: real time    2.60

 eigenvalue-minimisations  :  1730
 total energy-change (2. order) :-0.2882482E-03  (-0.3985605E-04)
 number of electron      15.9999998 magnetization       0.0908540
 augmentation part        0.3119001 magnetization       0.0027486

 Broyden mixing:
  rms(total) = 0.45860E-02    rms(broyden)= 0.45849E-02
  rms(prec ) = 0.57050E-02
  weight for this iteration     100.00

 eigenvalues of (default mixing * dielectric matrix)
  average eigenvalue GAMMA=   1.3628
  2.5175  1.9687  1.3849  0.9129  0.7585  0.6340

 Free energy of the ion-electron system (eV)
  ---------------------------------------------------
  alpha Z        PSCENC =        37.04766603
  Ewald energy   TEWEN  =      -460.60042082
  -1/2 Hartree   DENC   =      -181.22575893
  -exchange  EXHF       =         0.00000000
  -V(xc)+E(xc)   XCENC  =        57.54803097
  PAW double counting   =       273.74951964     -278.38149834
  entropy T*S    EENTRO =         0.00015429
  eigenvalues    EBANDS =       -70.69260523
  atomic energy  EATOM  =       585.87374805
  ---------------------------------------------------
  free energy    TOTEN  =       -36.68116435 eV

  energy without entropy =      -36.68131864  energy(sigma->0) =      -36.68121578


--------------------------------------------------------------------------------------------------------




----------------------------------------- Iteration    1(  12)  ---------------------------------------


    POTLOK:  cpu time    0.17: real time    0.17
    SETDIJ:  cpu time    0.04: real time    0.04
     EDDAV:  cpu time    1.98: real time    1.98
       DOS:  cpu time    0.00: real time    0.00
    --------------------------------------------
      LOOP:  cpu time    2.20: real time    2.21

 eigenvalue-minimisations  :  1482
 total energy-change (2. order) :-0.5498171E-04  (-0.9992063E-05)
 number of electron      15.9999998 magnetization       0.0908540
 augmentation part        0.3119001 magnetization       0.0027486

 Free energy of the ion-electron system (eV)
  ---------------------------------------------------
  alpha Z        PSCENC =        37.04766603
  Ewald energy   TEWEN  =      -460.60042082
  -1/2 Hartree   DENC   =      -181.22536641
  -exchange  EXHF       =         0.00000000
  -V(xc)+E(xc)   XCENC  =        57.54877278
  PAW double counting   =       273.74930179     -278.37679734
  entropy T*S    EENTRO =         0.00016765
  eigenvalues    EBANDS =       -70.69829107
  atomic energy  EATOM  =       585.87374805
  ---------------------------------------------------
  free energy    TOTEN  =       -36.68121934 eV

  energy without entropy =      -36.68138698  energy(sigma->0) =      -36.68127522


--------------------------------------------------------------------------------------------------------




 average (electrostatic) potential at core
  the test charge radii are     0.6991
  (the norm of the test charge is              1.0000)
       1 -51.2480       2 -51.2747       3 -51.2747       4 -51.2480
 
 
 
 E-fermi :   4.8592     XC(G=0): -10.3281     alpha+bet :-11.4114


 spin component 1

 k-point   1 :       0.0000    0.0000    0.0000
  band No.  band energies     occupation 
      1     -15.1373      1.00000
      2     -14.8439      1.00000
      3      -3.7813      1.00000
      4      -1.9051      1.00000
      5       1.8281      1.00000
      6       1.8282      1.00000
      7       1.9097      1.00000
      8       1.9097      1.00000
      9       9.0206      0.00000
     10      13.3841      0.00000
     11      13.3841      0.00000
     12      13.4299      0.00000
     13      13.4299      0.00000
     14      16.1724      0.00000

 k-point   2 :       0.1667    0.0000    0.0000
  band No.  band energies     occupation 
      1     -14.4713      1.00000
      2     -14.1905      1.00000
      3      -2.9985      1.00000
      4      -1.1490      1.00000
      5      -0.4645      1.00000
      6      -0.4544      1.00000
      7       0.6956      1.00000
      8       0.7790      1.00000
      9       9.8366      0.00000
     10      13.2669      0.00000
     11      13.4275      0.00000
     12      14.2780      0.00000
     13      14.7469      0.00000
     14      16.1657      0.00000

 k-point   3 :       0.3333    0.0000    0.0000
  band No.  band energies     occupation 
      1     -12.5106      1.00000
      2     -12.2647      1.00000
      3      -5.0402      1.00000
      4      -4.8876      1.00000
      5      -1.0379      1.00000
      6      -0.8886      1.00000
      7      -0.6813      1.00000
      8       1.0189      1.00000
      9       9.4242      0.00000
     10      10.3320      0.00000
     11      12.1714      0.00000
     12      12.3488      0.00000
     13      12.7208      0.00000
     14      17.7282      0.00000

 k-point   4 :       0.5000    0.0000    0.0000
  band No.  band energies     occupation 
      1      -9.7744      1.00000
      2      -9.6761      1.00000
      3      -8.6432      1.00000
      4      -8.5846      1.00000
      5      -1.6624      1.00000
      6      -1.4635      1.00000
      7       1.9958      1.00000
      8       2.6553      1.00000
      9       6.3302      0.00000
     10       7.0097      0.00000
     11      11.8771      0.00000
     12      12.2747      0.00000
     13      16.1418      0.00000
     14      16.2462      0.00000

 k-point   5 :       0.1667    0.1667    0.0000
  band No.  band energies     occupation 
      1     -13.1507      1.00000
      2     -12.8947      1.00000
      3      -3.0554      1.00000
      4      -2.9887      1.00000
      5      -1.5703      1.00000
      6      -1.5560      1.00000
      7      -1.4489      1.00000
      8       0.3342      1.00000
      9      11.1397      0.00000
     10      11.4783      0.00000
     11      11.6110      0.00000
     12      15.0275      0.00000
     13      15.2380      0.00000
     14      16.4450      0.00000

 k-point   6 :       0.3333    0.1667    0.0000
  band No.  band energies     occupation 
      1     -10.6270      1.00000
      2     -10.4187      1.00000
      3      -6.8602      1.00000
      4      -6.7053      1.00000
      5      -3.3181      1.00000
      6      -3.2275      1.00000
      7       1.4535      1.00000
      8       2.7955      1.00000
      9       7.0405      0.00000
     10       7.7763      0.00000
     11      14.5781      0.00000
     12      14.7088      0.00000
     13      15.2179      0.00000
     14      17.3382      0.00000

 k-point   7 :       0.3333    0.3333    0.0000
  band No.  band energies     occupation 
      1      -8.0820      1.00000
      2      -8.0431      1.00000
      3      -8.0431      1.00000
      4      -7.9001      1.00000
      5      -5.8430      1.00000
      6      -5.8430      1.00000
      7       4.2092      1.00000
      8       4.6957      1.00002
      9       4.6957      1.00002
     10       5.6767      0.00000
     11      15.9118      0.00000
     12      15.9118      0.00000
     13      17.2249      0.00000
     14      17.4912      0.00000

 k-point   8 :       0.0000    0.0000    0.1667
  band No.  band energies     occupation 
      1     -15.1190      1.00000
      2     -14.8651      1.00000
      3      -3.6599      1.00000
      4      -2.0602      1.00000
      5       1.8021      1.00000
      6       1.8021      1.00000
      7       1.9010      1.00000
      8       1.9010      1.00000
      9       9.3636      0.00000
     10      13.3892      0.00000
     11      13.3892      0.00000
     12      13.4270      0.00000
     13      13.4270      0.00000
     14      14.8998      0.00000

 k-point   9 :       0.1667    0.0000    0.1667
  band No.  band energies     occupation 
      1     -14.4535      1.00000
      2     -14.2093      1.00000
      3      -2.8730      1.00000
      4      -1.3035      1.00000
      5      -0.4708      1.00000
      6      -0.4600      1.00000
      7       0.7040      1.00000
      8       0.7472      1.00000
      9      10.1682      0.00000
     10      13.2797      0.00000
     11      13.4127      0.00000
     12      14.3432      0.00000
     13      14.6642      0.00000
     14      15.5747      0.00000

 k-point  10 :       0.3333    0.0000    0.1667
  band No.  band energies     occupation 
      1     -12.4920      1.00000
      2     -12.2822      1.00000
      3      -5.0315      1.00000
      4      -4.8875      1.00000
      5      -1.0171      1.00000
      6      -0.8864      1.00000
      7      -0.5815      1.00000
      8       0.8552      1.00000
      9       9.4641      0.00000
     10      10.2368      0.00000
     11      12.2944      0.00000
     12      12.4525      0.00000
     13      12.8073      0.00000
     14      17.2401      0.00000

 k-point  11 :       0.5000    0.0000    0.1667
  band No.  band energies     occupation 
      1      -9.7663      1.00000
      2      -9.6816      1.00000
      3      -8.6397      1.00000
      4      -8.5914      1.00000
      5      -1.6573      1.00000
      6      -1.4656      1.00000
      7       2.0551      1.00000
      8       2.6345      1.00000
      9       6.3182      0.00000
     10       6.9197      0.00000
     11      11.9023      0.00000
     12      12.2488      0.00000
     13      16.4102      0.00000
     14      16.4431      0.00000

 k-point  12 :       0.1667    0.1667    0.1667
  band No.  band energies     occupation 
      1     -13.1342      1.00000
      2     -12.9119      1.00000
      3      -3.0515      1.00000
      4      -3.0073      1.00000
      5      -1.5701      1.00000
      6      -1.5478      1.00000
      7      -1.3247      1.00000
      8       0.1750      1.00000
      9      11.1706      0.00000
     10      11.5696      0.00000
     11      11.8020      0.00000
     12      15.0249      0.00000
     13      15.2374      0.00000
     14      16.4576      0.00000

 k-point  13 :       0.3333    0.1667    0.1667
  band No.  band energies     occupation 
      1     -10.6171      1.00000
      2     -10.4399      1.00000
      3      -6.8431      1.00000
      4      -6.7111      1.00000
      5      -3.3434      1.00000
      6      -3.2441      1.00000
      7       1.5281      1.00000
      8       2.7057      1.00000
      9       7.0973      0.00000
     10       7.7400      0.00000
     11      14.6650      0.00000
     12      14.7826      0.00000
     13      15.2108      0.00000
     14      17.0349      0.00000

 k-point  14 :       0.3333    0.3333    0.1667
  band No.  band energies     occupation 
      1      -8.0722      1.00000
      2      -8.0438      1.00000
      3      -8.0438      1.00000
      4      -7.9127      1.00000
      5      -5.8468      1.00000
      6      -5.8468      1.00000
      7       4.2922      1.00000
      8       4.6893      1.00001
      9       4.6893      1.00001
     10       5.5335      0.00000
     11      15.5693      0.00000
     12      15.5693      0.00000
     13      17.4361      0.00000
     14      18.0005      0.00000

 k-point  15 :       0.0000    0.0000    0.3333
  band No.  band energies     occupation 
      1     -15.0678      1.00000
      2     -14.9220      1.00000
      3      -3.3999      1.00000
      4      -2.4667      1.00000
      5       1.8024      1.00000
      6       1.8024      1.00000
      7       1.9004      1.00000
      8       1.9005      1.00000
      9      10.3134      0.00000
     10      13.3185      0.00000
     11      13.3458      0.00000
     12      13.3458      0.00000
     13      13.4198      0.00000
     14      13.4198      0.00000

 k-point  16 :       0.1667    0.0000    0.3333
  band No.  band energies     occupation 
      1     -14.4040      1.00000
      2     -14.2630      1.00000
      3      -2.5826      1.00000
      4      -1.6709      1.00000
      5      -0.4600      1.00000
      6      -0.4478      1.00000
      7       0.7151      1.00000
      8       0.7515      1.00000
      9      11.0988      0.00000
     10      13.2726      0.00000
     11      13.3991      0.00000
     12      14.0538      0.00000
     13      14.4474      0.00000
     14      14.7362      0.00000

 k-point  17 :       0.3333    0.0000    0.3333
  band No.  band energies     occupation 
      1     -12.4482      1.00000
      2     -12.3278      1.00000
      3      -5.0105      1.00000
      4      -4.9087      1.00000
      5      -0.9675      1.00000
      6      -0.9441      1.00000
      7      -0.3012      1.00000
      8       0.5110      1.00000
      9       9.6548      0.00000
     10      10.0211      0.00000
     11      12.3832      0.00000
     12      12.5159      0.00000
     13      13.5350      0.00000
     14      16.1179      0.00000

 k-point  18 :       0.5000    0.0000    0.3333
  band No.  band energies     occupation 
      1      -9.7462      1.00000
      2      -9.6974      1.00000
      3      -8.6252      1.00000
      4      -8.5966      1.00000
      5      -1.6345      1.00000
      6      -1.6019      1.00000
      7       2.2421      1.00000
      8       2.5725      1.00000
      9       6.3905      0.00000
     10       6.7054      0.00000
     11      11.9929      0.00000
     12      12.1854      0.00000
     13      16.9559      0.00000
     14      17.1203      0.00000

 k-point  19 :       0.1667    0.1667    0.3333
  band No.  band energies     occupation 
      1     -13.0885      1.00000
      2     -12.9614      1.00000
      3      -3.0573      1.00000
      4      -3.0216      1.00000
      5      -1.5872      1.00000
      6      -1.5609      1.00000
      7      -1.0361      1.00000
      8      -0.1669      1.00000
      9      11.2642      0.00000
     10      11.4849      0.00000
     11      12.6494      0.00000
     12      14.9182      0.00000
     13      15.2333      0.00000
     14      15.4457      0.00000

 k-point  20 :       0.3333    0.1667    0.3333
  band No.  band energies     occupation 
      1     -10.5806      1.00000
      2     -10.4771      1.00000
      3      -6.8201      1.00000
      4      -6.7386      1.00000
      5      -3.3285      1.00000
      6      -3.2591      1.00000
      7       1.7832      1.00000
      8       2.4415      1.00000
      9       7.1967      0.00000
     10       7.5591      0.00000
     11      14.7452      0.00000
     12      14.9288      0.00000
     13      15.4475      0.00000
     14      16.5509      0.00000

 k-point  21 :       0.3333    0.3333    0.3333
  band No.  band energies     occupation 
      1      -8.0409      1.00000
      2      -8.0409      1.00000
      3      -8.0347      1.00000
      4      -7.9481      1.00000
      5      -5.8589      1.00000
      6      -5.8589      1.00000
      7       4.5574      1.00000
      8       4.7273      1.00061
      9       4.7273      1.00061
     10       5.2563      0.00000
     11      15.1302      0.00000
     12      15.1302      0.00000
     13      18.0248      0.00000
     14      18.9340      0.00000

 k-point  22 :       0.0000    0.0000    0.5000
  band No.  band energies     occupation 
      1     -14.9956      1.00000
      2     -14.9956      1.00000
      3      -2.9653      1.00000
      4      -2.9653      1.00000
      5       1.9498      1.00000
      6       1.9498      1.00000
      7       1.9499      1.00000
      8       1.9499      1.00000
      9      11.6947      0.00000
     10      11.6947      0.00000
     11      13.4388      0.00000
     12      13.4388      0.00000
     13      13.4389      0.00000
     14      13.4389      0.00000

 k-point  23 :       0.1667    0.0000    0.5000
  band No.  band energies     occupation 
      1     -14.3345      1.00000
      2     -14.3345      1.00000
      3      -2.1616      1.00000
      4      -2.1616      1.00000
      5      -0.4735      1.00000
      6      -0.4735      1.00000
      7       0.7016      1.00000
      8       0.7016      1.00000
      9      12.4182      0.00000
     10      12.4182      0.00000
     11      13.3777      0.00000
     12      13.3777      0.00000
     13      14.5685      0.00000
     14      14.5685      0.00000

 k-point  24 :       0.3333    0.0000    0.5000
  band No.  band energies     occupation 
      1     -12.3878      1.00000
      2     -12.3878      1.00000
      3      -4.9761      1.00000
      4      -4.9761      1.00000
      5      -0.9544      1.00000
      6      -0.9544      1.00000
      7       0.0767      1.00000
      8       0.0767      1.00000
      9       9.8373      0.00000
     10       9.8373      0.00000
     11      12.4512      0.00000
     12      12.4512      0.00000
     13      14.7389      0.00000
     14      14.7389      0.00000

 k-point  25 :       0.5000    0.0000    0.5000
  band No.  band energies     occupation 
      1      -9.7240      1.00000
      2      -9.7239      1.00000
      3      -8.6260      1.00000
      4      -8.6260      1.00000
      5      -1.6284      1.00000
      6      -1.6284      1.00000
      7       2.3547      1.00000
      8       2.3547      1.00000
      9       6.4767      0.00000
     10       6.4767      0.00000
     11      12.0847      0.00000
     12      12.0848      0.00000
     13      17.4808      0.00000
     14      17.4808      0.00000

 k-point  26 :       0.1667    0.1667    0.5000
  band No.  band energies     occupation 
      1     -13.0250      1.00000
      2     -13.0250      1.00000
      3      -3.0323      1.00000
      4      -3.0323      1.00000
      5      -1.5719      1.00000
      6      -1.5719      1.00000
      7      -0.6285      1.00000
      8      -0.6284      1.00000
      9      11.3583      0.00000
     10      11.3583      0.00000
     11      13.8414      0.00000
     12      13.8414      0.00000
     13      15.2141      0.00000
     14      15.2141      0.00000

 k-point  27 :       0.3333    0.1667    0.5000
  band No.  band energies     occupation 
      1     -10.5307      1.00000
      2     -10.5307      1.00000
      3      -6.7844      1.00000
      4      -6.7844      1.00000
      5      -3.2774      1.00000
      6      -3.2774      1.00000
      7       2.0899      1.00000
      8       2.0899      1.00000
      9       7.3999      0.00000
     10       7.3999      0.00000
     11      14.8713      0.00000
     12      14.8713      0.00000
     13      15.9960      0.00000
     14      15.9960      0.00000

 k-point  28 :       0.3333    0.3333    0.5000
  band No.  band energies     occupation 
      1      -8.0335      1.00000
      2      -8.0335      1.00000
      3      -7.9844      1.00000
      4      -7.9844      1.00000
      5      -5.8504      1.00000
      6      -5.8504      1.00000
      7       4.7416      1.00219
      8       4.7416      1.00219
      9       4.9010      0.00112
     10       4.9010      0.00110
     11      14.9584      0.00000
     12      14.9584      0.00000
     13      18.8111      0.00000
     14      18.8112      0.00000

 spin component 2

 k-point   1 :       0.0000    0.0000    0.0000
  band No.  band energies     occupation 
      1     -15.1069      1.00000
      2     -14.8143      1.00000
      3      -3.7144      1.00000
      4      -1.8295      1.00000
      5       1.8408      1.00000
      6       1.8408      1.00000
      7       1.9237      1.00000
      8       1.9238      1.00000
      9       9.0551      0.00000
     10      13.3961      0.00000
     11      13.3961      0.00000
     12      13.4413      0.00000
     13      13.4413      0.00000
     14      15.6450      0.00000

 k-point   2 :       0.1667    0.0000    0.0000
  band No.  band energies     occupation 
      1     -14.4412      1.00000
      2     -14.1610      1.00000
      3      -2.9312      1.00000
      4      -1.0716      1.00000
      5      -0.4468      1.00000
      6      -0.4365      1.00000
      7       0.7089      1.00000
      8       0.7914      1.00000
      9       9.8709      0.00000
     10      13.2907      0.00000
     11      13.4461      0.00000
     12      14.3598      0.00000
     13      14.8571      0.00000
     14      16.1799      0.00000

 k-point   3 :       0.3333    0.0000    0.0000
  band No.  band energies     occupation 
      1     -12.4814      1.00000
      2     -12.2357      1.00000
      3      -5.0177      1.00000
      4      -4.8651      1.00000
      5      -1.0249      1.00000
      6      -0.8764      1.00000
      7      -0.6122      1.00000
      8       1.1008      1.00000
      9       9.4931      0.00000
     10      10.4340      0.00000
     11      12.1940      0.00000
     12      12.4005      0.00000
     13      12.7475      0.00000
     14      17.7976      0.00000

 k-point   4 :       0.5000    0.0000    0.0000
  band No.  band energies     occupation 
      1      -9.7480      1.00000
      2      -9.6371      1.00000
      3      -8.6287      1.00000
      4      -8.5590      1.00000
      5      -1.6497      1.00000
      6      -1.4510      1.00000
      7       2.0389      1.00000
      8       2.7865      1.00000
      9       6.3367      0.00000
     10       7.1432      0.00000
     11      11.9144      0.00000
     12      12.3106      0.00000
     13      16.1330      0.00000
     14      16.3265      0.00000

 k-point   5 :       0.1667    0.1667    0.0000
  band No.  band energies     occupation 
      1     -13.1211      1.00000
      2     -12.8656      1.00000
      3      -3.0338      1.00000
      4      -2.9652      1.00000
      5      -1.5576      1.00000
      6      -1.5424      1.00000
      7      -1.3801      1.00000
      8       0.4139      1.00000
      9      11.2231      0.00000
     10      11.5125      0.00000
     11      11.7074      0.00000
     12      15.0523      0.00000
     13      15.2480      0.00000
     14      16.4909      0.00000

 k-point   6 :       0.3333    0.1667    0.0000
  band No.  band energies     occupation 
      1     -10.5984      1.00000
      2     -10.3896      1.00000
      3      -6.8364      1.00000
      4      -6.6808      1.00000
      5      -3.3033      1.00000
      6      -3.2126      1.00000
      7       1.5194      1.00000
      8       2.8915      1.00000
      9       7.1065      0.00000
     10       7.8692      0.00000
     11      14.5928      0.00000
     12      14.7662      0.00000
     13      15.2435      0.00000
     14      17.4080      0.00000

 k-point   7 :       0.3333    0.3333    0.0000
  band No.  band energies     occupation 
      1      -8.1075      1.00000
      2      -7.9586      1.00000
      3      -7.9586      1.00000
      4      -7.9248      1.00000
      5      -5.8326      1.00000
      6      -5.8326      1.00000
      7       4.1137      1.00000
      8       4.9564     -0.00955
      9       4.9564     -0.00954
     10       5.5746      0.00000
     11      15.9595      0.00000
     12      15.9595      0.00000
     13      17.1808      0.00000
     14      17.5737      0.00000

 k-point   8 :       0.0000    0.0000    0.1667
  band No.  band energies     occupation 
      1     -15.0886      1.00000
      2     -14.8355      1.00000
      3      -3.5925      1.00000
      4      -1.9855      1.00000
      5       1.8147      1.00000
      6       1.8148      1.00000
      7       1.9149      1.00000
      8       1.9149      1.00000
      9       9.3995      0.00000
     10      13.4011      0.00000
     11      13.4011      0.00000
     12      13.4385      0.00000
     13      13.4385      0.00000
     14      14.9498      0.00000

 k-point   9 :       0.1667    0.0000    0.1667
  band No.  band energies     occupation 
      1     -14.4234      1.00000
      2     -14.1798      1.00000
      3      -2.8053      1.00000
      4      -1.2272      1.00000
      5      -0.4529      1.00000
      6      -0.4422      1.00000
      7       0.7173      1.00000
      8       0.7598      1.00000
      9      10.2042      0.00000
     10      13.3041      0.00000
     11      13.4316      0.00000
     12      14.4220      0.00000
     13      14.7738      0.00000
     14      15.6399      0.00000

 k-point  10 :       0.3333    0.0000    0.1667
  band No.  band energies     occupation 
      1     -12.4627      1.00000
      2     -12.2532      1.00000
      3      -5.0091      1.00000
      4      -4.8650      1.00000
      5      -1.0044      1.00000
      6      -0.8740      1.00000
      7      -0.5118      1.00000
      8       0.9358      1.00000
      9       9.5358      0.00000
     10      10.3357      0.00000
     11      12.3185      0.00000
     12      12.5022      0.00000
     13      12.8361      0.00000
     14      17.3045      0.00000

 k-point  11 :       0.5000    0.0000    0.1667
  band No.  band energies     occupation 
      1      -9.7391      1.00000
      2      -9.6437      1.00000
      3      -8.6243      1.00000
      4      -8.5664      1.00000
      5      -1.6447      1.00000
      6      -1.4531      1.00000
      7       2.1021      1.00000
      8       2.7584      1.00000
      9       6.3344      0.00000
     10       7.0458      0.00000
     11      11.9396      0.00000
     12      12.2851      0.00000
     13      16.4007      0.00000
     14      16.5263      0.00000

 k-point  12 :       0.1667    0.1667    0.1667
  band No.  band energies     occupation 
      1     -13.1047      1.00000
      2     -12.8827      1.00000
      3      -3.0296      1.00000
      4      -2.9842      1.00000
      5      -1.5573      1.00000
      6      -1.5343      1.00000
      7      -1.2556      1.00000
      8       0.2538      1.00000
      9      11.2553      0.00000
     10      11.6728      0.00000
     11      11.8299      0.00000
     12      15.0500      0.00000
     13      15.2485      0.00000
     14      16.5084      0.00000

 k-point  13 :       0.3333    0.1667    0.1667
  band No.  band energies     occupation 
      1     -10.5885      1.00000
      2     -10.4108      1.00000
      3      -6.8190      1.00000
      4      -6.6867      1.00000
      5      -3.3287      1.00000
      6      -3.2292      1.00000
      7       1.5952      1.00000
      8       2.7986      1.00000
      9       7.1662      0.00000
     10       7.8320      0.00000
     11      14.6854      0.00000
     12      14.8400      0.00000
     13      15.2345      0.00000
     14      17.0974      0.00000

 k-point  14 :       0.3333    0.3333    0.1667
  band No.  band energies     occupation 
      1      -8.0978      1.00000
      2      -7.9591      1.00000
      3      -7.9591      1.00000
      4      -7.9374      1.00000
      5      -5.8364      1.00000
      6      -5.8364      1.00000
      7       4.1963      1.00000
      8       4.9504     -0.01352
      9       4.9504     -0.01350
     10       5.4322      0.00000
     11      15.6207      0.00000
     12      15.6207      0.00000
     13      17.3923      0.00000
     14      18.0772      0.00000

 k-point  15 :       0.0000    0.0000    0.3333
  band No.  band energies     occupation 
      1     -15.0375      1.00000
      2     -14.8922      1.00000
      3      -3.3313      1.00000
      4      -2.3942      1.00000
      5       1.8151      1.00000
      6       1.8152      1.00000
      7       1.9143      1.00000
      8       1.9143      1.00000
      9      10.3527      0.00000
     10      13.3572      0.00000
     11      13.3572      0.00000
     12      13.3672      0.00000
     13      13.4314      0.00000
     14      13.4314      0.00000

 k-point  16 :       0.1667    0.0000    0.3333
  band No.  band energies     occupation 
      1     -14.3740      1.00000
      2     -14.2334      1.00000
      3      -2.5138      1.00000
      4      -1.5971      1.00000
      5      -0.4422      1.00000
      6      -0.4297      1.00000
      7       0.7282      1.00000
      8       0.7643      1.00000
      9      11.1391      0.00000
     10      13.3011      0.00000
     11      13.4181      0.00000
     12      14.0854      0.00000
     13      14.5648      0.00000
     14      14.8290      0.00000

 k-point  17 :       0.3333    0.0000    0.3333
  band No.  band energies     occupation 
      1     -12.4190      1.00000
      2     -12.2988      1.00000
      3      -4.9880      1.00000
      4      -4.8862      1.00000
      5      -0.9547      1.00000
      6      -0.9316      1.00000
      7      -0.2297      1.00000
      8       0.5881      1.00000
      9       9.7327      0.00000
     10      10.1138      0.00000
     11      12.4153      0.00000
     12      12.5525      0.00000
     13      13.5731      0.00000
     14      16.1720      0.00000

 k-point  18 :       0.5000    0.0000    0.3333
  band No.  band energies     occupation 
      1      -9.7168      1.00000
      2      -9.6621      1.00000
      3      -8.6074      1.00000
      4      -8.5734      1.00000
      5      -1.6218      1.00000
      6      -1.5896      1.00000
      7       2.3018      1.00000
      8       2.6749      1.00000
      9       6.4341      0.00000
     10       6.8109      0.00000
     11      12.0301      0.00000
     12      12.2224      0.00000
     13      17.0446      0.00000
     14      17.1141      0.00000

 k-point  19 :       0.1667    0.1667    0.3333
  band No.  band energies     occupation 
      1     -13.0590      1.00000
      2     -12.9322      1.00000
      3      -3.0353      1.00000
      4      -2.9986      1.00000
      5      -1.5744      1.00000
      6      -1.5475      1.00000
      7      -0.9654      1.00000
      8      -0.0912      1.00000
      9      11.3524      0.00000
     10      11.5832      0.00000
     11      12.6840      0.00000
     12      14.9514      0.00000
     13      15.2485      0.00000
     14      15.4909      0.00000

 k-point  20 :       0.3333    0.1667    0.3333
  band No.  band energies     occupation 
      1     -10.5519      1.00000
      2     -10.4481      1.00000
      3      -6.7960      1.00000
      4      -6.7141      1.00000
      5      -3.3139      1.00000
      6      -3.2441      1.00000
      7       1.8541      1.00000
      8       2.5266      1.00000
      9       7.2722      0.00000
     10       7.6483      0.00000
     11      14.7805      0.00000
     12      14.9759      0.00000
     13      15.4774      0.00000
     14      16.6075      0.00000

 k-point  21 :       0.3333    0.3333    0.3333
  band No.  band energies     occupation 
      1      -8.0600      1.00000
      2      -7.9729      1.00000
      3      -7.9563      1.00000
      4      -7.9563      1.00000
      5      -5.8485      1.00000
      6      -5.8485      1.00000
      7       4.4607      1.00000
      8       4.9892     -0.00073
      9       4.9892     -0.00073
     10       5.1567      0.00000
     11      15.1822      0.00000
     12      15.1822      0.00000
     13      17.9831      0.00000
     14      19.0576      0.00000

 k-point  22 :       0.0000    0.0000    0.5000
  band No.  band energies     occupation 
      1     -14.9655      1.00000
      2     -14.9655      1.00000
      3      -2.8950      1.00000
      4      -2.8950      1.00000
      5       1.9630      1.00000
      6       1.9630      1.00000
      7       1.9630      1.00000
      8       1.9630      1.00000
      9      11.7383      0.00000
     10      11.7383      0.00000
     11      13.4503      0.00000
     12      13.4503      0.00000
     13      13.4503      0.00000
     14      13.4503      0.00000

 k-point  23 :       0.1667    0.0000    0.5000
  band No.  band energies     occupation 
      1     -14.3047      1.00000
      2     -14.3047      1.00000
      3      -2.0905      1.00000
      4      -2.0905      1.00000
      5      -0.4555      1.00000
      6      -0.4555      1.00000
      7       0.7145      1.00000
      8       0.7145      1.00000
      9      12.4645      0.00000
     10      12.4645      0.00000
     11      13.3972      0.00000
     12      13.3972      0.00000
     13      14.6668      0.00000
     14      14.6668      0.00000

 k-point  24 :       0.3333    0.0000    0.5000
  band No.  band energies     occupation 
      1     -12.3587      1.00000
      2     -12.3587      1.00000
      3      -4.9536      1.00000
      4      -4.9536      1.00000
      5      -0.9417      1.00000
      6      -0.9417      1.00000
      7       0.1507      1.00000
      8       0.1507      1.00000
      9       9.9227      0.00000
     10       9.9227      0.00000
     11      12.4856      0.00000
     12      12.4857      0.00000
     13      14.7836      0.00000
     14      14.7836      0.00000

 k-point  25 :       0.5000    0.0000    0.5000
  band No.  band energies     occupation 
      1      -9.6917      1.00000
      2      -9.6917      1.00000
      3      -8.6054      1.00000
      4      -8.6054      1.00000
      5      -1.6160      1.00000
      6      -1.6160      1.00000
      7       2.4338      1.00000
      8       2.4338      1.00000
      9       6.5529      0.00000
     10       6.5529      0.00000
     11      12.1221      0.00000
     12      12.1221      0.00000
     13      17.5514      0.00000
     14      17.5514      0.00000

 k-point  26 :       0.1667    0.1667    0.5000
  band No.  band energies     occupation 
      1     -12.9957      1.00000
      2     -12.9957      1.00000
      3      -3.0098      1.00000
      4      -3.0098      1.00000
      5      -1.5588      1.00000
      6      -1.5588      1.00000
      7      -0.5556      1.00000
      8      -0.5556      1.00000
      9      11.4511      0.00000
     10      11.4511      0.00000
     11      13.8844      0.00000
     12      13.8844      0.00000
     13      15.2343      0.00000
     14      15.2343      0.00000

 k-point  27 :       0.3333    0.1667    0.5000
  band No.  band energies     occupation 
      1     -10.5018      1.00000
      2     -10.5018      1.00000
      3      -6.7601      1.00000
      4      -6.7601      1.00000
      5      -3.2625      1.00000
      6      -3.2624      1.00000
      7       2.1670      1.00000
      8       2.1670      1.00000
      9       7.4831      0.00000
     10       7.4831      0.00000
     11      14.9117      0.00000
     12      14.9117      0.00000
     13      16.0417      0.00000
     14      16.0417      0.00000

 k-point  28 :       0.3333    0.3333    0.5000
  band No.  band energies     occupation 
      1      -8.0096      1.00000
      2      -8.0096      1.00000
      3      -7.9487      1.00000
      4      -7.9487      1.00000
      5      -5.8401      1.00000
      6      -5.8401      1.00000
      7       4.8030      1.03363
      8       4.8030      1.03363
      9       5.0042     -0.00016
     10       5.0042     -0.00016
     11      15.0101      0.00000
     12      15.0101      0.00000
     13      18.7763      0.00000
     14      18.7763      0.00000


--------------------------------------------------------------------------------------------------------


 soft charge-density along one line, spin component           1
         0         1         2         3         4         5         6         7         8         9
 total charge-density along one line
 
 soft charge-density along one line, spin component           2
         0         1         2         3         4         5         6         7         8         9
 total charge-density along one line
 
 pseudopotential strength for first ion, spin component:           1
  9.772   0.006   0.000   0.000   0.000   0.000   0.000   0.000
  0.006  -0.002   0.000   0.000   0.000   0.000   0.000   0.000
  0.000   0.000  -3.992   0.000   0.000  -0.012   0.000   0.000
  0.000   0.000   0.000  -3.991   0.000   0.000  -0.010   0.000
  0.000   0.000   0.000   0.000  -3.992   0.000   0.000  -0.012
  0.000   0.000  -0.012   0.000   0.000  -0.765   0.000   0.000
  0.000   0.000   0.000  -0.010   0.000   0.000  -0.765   0.000
  0.000   0.000   0.000   0.000  -0.012   0.000   0.000  -0.765
 pseudopotential strength for first ion, spin component:           2
  9.756   0.006   0.000   0.000   0.000   0.000   0.000   0.000
  0.006  -0.002   0.000   0.000   0.000   0.000   0.000   0.000
  0.000   0.000  -3.992   0.000   0.000  -0.010   0.000   0.000
  0.000   0.000   0.000  -3.978   0.000   0.000  -0.006   0.000
  0.000   0.000   0.000   0.000  -3.992   0.000   0.000  -0.010
  0.000   0.000  -0.010   0.000   0.000  -0.765   0.000   0.000
  0.000   0.000   0.000  -0.006   0.000   0.000  -0.765   0.000
  0.000   0.000   0.000   0.000  -0.010   0.000   0.000  -0.765
 total augmentation occupancy for first ion, spin component:           1
  1.491  -0.504   0.000   0.000   0.000   0.000   0.000   0.000
 -0.504   0.675   0.000   0.000   0.000   0.000   0.000   0.000
  0.000   0.000   1.127   0.000   0.000   0.340   0.000   0.000
  0.000   0.000   0.000   0.855   0.000   0.000   0.201   0.000
  0.000   0.000   0.000   0.000   1.127   0.000   0.000   0.340
  0.000   0.000   0.340   0.000   0.000   0.106   0.000   0.000
  0.000   0.000   0.000   0.201   0.000   0.000   0.048   0.000
  0.000   0.000   0.000   0.000   0.340   0.000   0.000   0.106
 total augmentation occupancy for first ion, spin component:           2
  0.005   0.001   0.000   0.000   0.000   0.000   0.000   0.000
  0.001   0.000   0.000   0.000   0.000   0.000   0.000   0.000
  0.000   0.000   0.002   0.000   0.000   0.000   0.000   0.000
  0.000   0.000   0.000   0.079   0.000   0.000   0.013   0.000
  0.000   0.000   0.000   0.000   0.002   0.000   0.000   0.000
  0.000   0.000   0.000   0.000   0.000   0.000   0.000   0.000
  0.000   0.000   0.000   0.013   0.000   0.000   0.002   0.000
  0.000   0.000   0.000   0.000   0.000   0.000   0.000   0.000


------------------------ aborting loop because EDIFF is reached ----------------------------------------


 


 total charge     
 
# of ion     s       p       d       tot
----------------------------------------
  1        0.829   1.817   0.000   2.646
  2        0.830   1.813   0.000   2.643
  3        0.830   1.813   0.000   2.643
  4        0.829   1.817   0.000   2.646
------------------------------------------------
tot        3.318   7.260   0.000  10.578
 


 magnetization (x)
 
# of ion     s       p       d       tot
----------------------------------------
  1        0.003   0.045   0.000   0.047
  2       -0.002  -0.021   0.000  -0.023
  3       -0.002  -0.021   0.000  -0.023
  4        0.003   0.045   0.000   0.047
------------------------------------------------
tot        0.001   0.048   0.000   0.050
 
    CHARGE:  cpu time    0.18: real time    0.18
    FORLOC:  cpu time    0.01: real time    0.01
    FORNL :  cpu time    0.21: real time    0.21
    STRESS:  cpu time    0.25: real time    0.25
    FORHAR:  cpu time    0.02: real time    0.02
    MIXING:  cpu time    0.00: real time    0.00

  FORCE on cell =-STRESS in cart. coord.  units (eV):
  Direction    XX          YY          ZZ          XY          YZ          ZX
  --------------------------------------------------------------------------------------
  Alpha Z    37.04767    37.04767    37.04767
  Ewald      78.34827    78.34827  -617.29730     0.00000     0.00000     0.00000
  Hartree   159.47093   159.47093  -137.68461     0.00000     0.00000     0.00000
  E(xc)     -58.39044   -58.39044   -60.56384     0.00000     0.00000     0.00000
  Local    -447.61751  -447.61758   510.10040    -0.00007     0.00000     0.00000
  n-local   -12.78602   -13.51812   -11.56661    -0.54506     0.03154     0.03743
  augment    -1.21427    -1.21420    -1.13297     0.00006     0.00000     0.00000
  Kinetic   234.84986   241.75550   272.93486     5.46791    -0.33674    -0.37673
  Fock        0.00000     0.00000     0.00000     0.00000     0.00000     0.00000
  -------------------------------------------------------------------------------------
  Total      -7.20474    -7.20474    -8.16240     0.00000     0.00000     0.00000
  in kB    -328.03344  -328.03344  -371.63577     0.00000     0.00000     0.00000
  external pressure =     -342.57 kB  Pullay stress =        0.00 kB


 VOLUME and BASIS-vectors are now :
 -----------------------------------------------------------------------------
  energy-cutoff  :      250.00
  volume of cell :       35.19
      direct lattice vectors                 reciprocal lattice vectors
     2.461200000  0.000000000  0.000000000     0.406305867  0.234580802  0.000000000
    -1.230600000  2.131461724  0.000000000     0.000000000  0.469161603  0.000000000
     0.000000000  0.000000000  6.707900000     0.000000000  0.000000000  0.149077953

  length of vectors
     2.461200000  2.461200000  6.707900000     0.469161603  0.469161603  0.149077953


 FORCES acting on ions
    electron-ion (+dipol)            ewald-force                    non-local-force                 convergence-correction
 -----------------------------------------------------------------------------------------------
   0.169E-05 -.975E-06 0.137E-13   0.624E-11 -.358E-11 -.182E-13   0.833E-16 -.555E-16 0.000E+00   -.727E-06 0.420E-06 -.113E-12
   -.191E-05 0.110E-05 -.420E-12   -.624E-11 0.358E-11 -.182E-13   0.694E-16 0.555E-16 0.000E+00   0.708E-06 -.409E-06 -.114E-12
   -.255E-05 0.147E-05 -.399E-12   -.126E-10 0.731E-11 0.182E-13   -.416E-16 -.555E-16 0.000E+00   -.708E-06 0.409E-06 0.131E-12
   0.255E-05 -.147E-05 -.202E-11   0.126E-10 -.731E-11 0.182E-13   -.416E-16 0.555E-16 0.000E+00   0.727E-06 -.420E-06 0.130E-12
 -----------------------------------------------------------------------------------------------
   -.210E-06 0.121E-06 -.282E-11   0.658E-14 -.737E-15 0.316E-29   0.694E-16 0.000E+00 0.000E+00   -.231E-10 0.133E-10 0.349E-13
 
 
 POSITION                                       TOTAL-FORCE (eV/Angst)
 -----------------------------------------------------------------------------------
      0.00000      0.00000      0.00000         0.000000      0.000000      0.000000
      0.00000      1.42097      0.00000         0.000000      0.000000      0.000000
      0.00000      1.42097      3.35395         0.000000      0.000000      0.000000
      1.23060      0.71049      3.35395         0.000000      0.000000      0.000000
 -----------------------------------------------------------------------------------
    total drift:                                0.000000      0.000000      0.000000


--------------------------------------------------------------------------------------------------------



  FREE ENERGIE OF THE ION-ELECTRON SYSTEM (eV)
  ---------------------------------------------------
  free  energy   TOTEN  =       -36.681219 eV

  energy  without entropy=      -36.681387  energy(sigma->0) =      -36.681275
 


--------------------------------------------------------------------------------------------------------


    POTLOK:  cpu time    0.21: real time    0.21


--------------------------------------------------------------------------------------------------------


 writing wavefunctions
     LOOP+:  cpu time   31.63: real time   31.88
    4ORBIT:  cpu time    0.00: real time    0.00
 


 total charge     
 
# of ion     s       p       d       tot
----------------------------------------
  1        0.829   1.817   0.000   2.646
  2        0.830   1.813   0.000   2.643
  3        0.830   1.813   0.000   2.643
  4        0.829   1.817   0.000   2.646
------------------------------------------------
tot        3.318   7.260   0.000  10.578
 


 magnetization (x)
 
# of ion     s       p       d       tot
----------------------------------------
  1        0.003   0.045   0.000   0.047
  2       -0.002  -0.021   0.000  -0.023
  3       -0.002  -0.021   0.000  -0.023
  4        0.003   0.045   0.000   0.047
------------------------------------------------
tot        0.001   0.048   0.000   0.050
 

 total amount of memory used by VASP on root node    41856. kBytes
========================================================================

   base      :      30000. kBytes
   nonl-proj :        610. kBytes
   fftplans  :       1972. kBytes
   grid      :       4722. kBytes
   one-center:         24. kBytes
   wavefun   :       4528. kBytes
 
  
  
 General timing and accounting informations for this job:
 ========================================================
  
                  Total CPU time used (sec):       32.443
                            User time (sec):       32.144
                          System time (sec):        0.299
                         Elapsed time (sec):       32.779
  
                   Maximum memory used (kb):           0.
                   Average memory used (kb):           0.
  
                          Minor page faults:        19011
                          Major page faults:            0
                 Voluntary context switches:         7712
