PROCAR lm decomposed
# of k-points:   28         # of bands:  14         # of ions:   4

 k-point    1 :    0.00000000 0.00000000 0.00000000     weight = 0.00462963

band   1 # energy  -15.13734783 # occ.  1.00000000
 
ion      s     py     pz     px    dxy    dyz    dz2    dxz    dx2    tot
  1  0.156  0.000  0.000  0.000  0.000  0.000  0.000  0.000  0.000  0.156
  2  0.155  0.000  0.000  0.000  0.000  0.000  0.000  0.000  0.000  0.155
  3  0.155  0.000  0.000  0.000  0.000  0.000  0.000  0.000  0.000  0.155
  4  0.156  0.000  0.000  0.000  0.000  0.000  0.000  0.000  0.000  0.156
tot  0.623  0.000  0.000  0.000  0.000  0.000  0.000  0.000  0.000  0.623
 
band   2 # energy  -14.84386799 # occ.  1.00000000
 
ion      s     py     pz     px    dxy    dyz    dz2    dxz    dx2    tot
  1  0.161  0.000  0.000  0.000  0.000  0.000  0.000  0.000  0.000  0.161
  2  0.160  0.000  0.000  0.000  0.000  0.000  0.000  0.000  0.000  0.160
  3  0.160  0.000  0.000  0.000  0.000  0.000  0.000  0.000  0.000  0.160
  4  0.161  0.000  0.000  0.000  0.000  0.000  0.000  0.000  0.000  0.161
tot  0.641  0.000  0.000  0.000  0.000  0.000  0.000  0.000  0.000  0.641
 
band   3 # energy   -3.78133165 # occ.  1.00000000
 
ion      s     py     pz     px    dxy    dyz    dz2    dxz    dx2    tot
  1  0.000  0.000  0.098  0.000  0.000  0.000  0.000  0.000  0.000  0.098
  2  0.000  0.000  0.096  0.000  0.000  0.000  0.000  0.000  0.000  0.096
  3  0.000  0.000  0.096  0.000  0.000  0.000  0.000  0.000  0.000  0.096
  4  0.000  0.000  0.098  0.000  0.000  0.000  0.000  0.000  0.000  0.098
tot  0.000  0.000  0.388  0.000  0.000  0.000  0.000  0.000  0.000  0.388
 
band   4 # energy   -1.90512725 # occ.  1.00000000
 
ion      s     py     pz     px    dxy    dyz    dz2    dxz    dx2    tot
  1  0.000  0.000  0.130  0.000  0.000  0.000  0.000  0.000  0.000  0.130
  2  0.000  0.000  0.126  0.000  0.000  0.000  0.000  0.000  0.000  0.126
  3  0.000  0.000  0.126  0.000  0.000  0.000  0.000  0.000  0.000  0.126
  4  0.000  0.000  0.130  0.000  0.000  0.000  0.000  0.000  0.000  0.130
tot  0.000  0.000  0.512  0.000  0.000  0.000  0.000  0.000  0.000  0.512
 
band   5 # energy    1.82812366 # occ.  1.00000000
 
ion      s     py     pz     px    dxy    dyz    dz2    dxz    dx2    tot
  1  0.000  0.052  0.000  0.156  0.000  0.000  0.000  0.000  0.000  0.208
  2  0.000  0.053  0.000  0.158  0.000  0.000  0.000  0.000  0.000  0.211
  3  0.000  0.053  0.000  0.158  0.000  0.000  0.000  0.000  0.000  0.211
  4  0.000  0.052  0.000  0.156  0.000  0.000  0.000  0.000  0.000  0.208
tot  0.000  0.210  0.000  0.630  0.000  0.000  0.000  0.000  0.000  0.839
 
band   6 # energy    1.82816312 # occ.  1.00000000
 
ion      s     py     pz     px    dxy    dyz    dz2    dxz    dx2    tot
  1  0.000  0.156  0.000  0.052  0.000  0.000  0.000  0.000  0.000  0.208
  2  0.000  0.158  0.000  0.053  0.000  0.000  0.000  0.000  0.000  0.211
  3  0.000  0.158  0.000  0.053  0.000  0.000  0.000  0.000  0.000  0.211
  4  0.000  0.156  0.000  0.052  0.000  0.000  0.000  0.000  0.000  0.208
tot  0.000  0.630  0.000  0.210  0.000  0.000  0.000  0.000  0.000  0.839
 
band   7 # energy    1.90968959 # occ.  1.00000000
 
ion      s     py     pz     px    dxy    dyz    dz2    dxz    dx2    tot
  1  0.000  0.053  0.000  0.160  0.000  0.000  0.000  0.000  0.000  0.213
  2  0.000  0.052  0.000  0.156  0.000  0.000  0.000  0.000  0.000  0.208
  3  0.000  0.052  0.000  0.156  0.000  0.000  0.000  0.000  0.000  0.208
  4  0.000  0.053  0.000  0.160  0.000  0.000  0.000  0.000  0.000  0.213
tot  0.000  0.211  0.000  0.632  0.000  0.000  0.000  0.000  0.000  0.842
 
band   8 # energy    1.90972753 # occ.  1.00000000
 
ion      s     py     pz     px    dxy    dyz    dz2    dxz    dx2    tot
  1  0.000  0.160  0.000  0.053  0.000  0.000  0.000  0.000  0.000  0.213
  2  0.000  0.156  0.000  0.052  0.000  0.000  0.000  0.000  0.000  0.208
  3  0.000  0.156  0.000  0.052  0.000  0.000  0.000  0.000  0.000  0.208
  4  0.000  0.160  0.000  0.053  0.000  0.000  0.000  0.000  0.000  0.213
tot  0.000  0.632  0.000  0.211  0.000  0.000  0.000  0.000  0.000  0.842
 
band   9 # energy    9.02058490 # occ.  0.00000000
 
ion      s     py     pz     px    dxy    dyz    dz2    dxz    dx2    tot
  1  0.019  0.000  0.000  0.000  0.000  0.000  0.000  0.000  0.000  0.019
  2  0.019  0.000  0.000  0.000  0.000  0.000  0.000  0.000  0.000  0.019
  3  0.019  0.000  0.000  0.000  0.000  0.000  0.000  0.000  0.000  0.019
  4  0.019  0.000  0.000  0.000  0.000  0.000  0.000  0.000  0.000  0.019
tot  0.078  0.000  0.000  0.000  0.000  0.000  0.000  0.000  0.000  0.078
 
band  10 # energy   13.38410174 # occ.  0.00000000
 
ion      s     py     pz     px    dxy    dyz    dz2    dxz    dx2    tot
  1  0.000  0.032  0.000  0.096  0.000  0.000  0.000  0.000  0.000  0.127
  2  0.000  0.034  0.000  0.101  0.000  0.000  0.000  0.000  0.000  0.134
  3  0.000  0.034  0.000  0.101  0.000  0.000  0.000  0.000  0.000  0.134
  4  0.000  0.032  0.000  0.096  0.000  0.000  0.000  0.000  0.000  0.127
tot  0.000  0.131  0.000  0.393  0.000  0.000  0.000  0.000  0.000  0.524
 
band  11 # energy   13.38412094 # occ.  0.00000000
 
ion      s     py     pz     px    dxy    dyz    dz2    dxz    dx2    tot
  1  0.000  0.096  0.000  0.032  0.000  0.000  0.000  0.000  0.000  0.127
  2  0.000  0.101  0.000  0.034  0.000  0.000  0.000  0.000  0.000  0.134
  3  0.000  0.101  0.000  0.034  0.000  0.000  0.000  0.000  0.000  0.134
  4  0.000  0.096  0.000  0.032  0.000  0.000  0.000  0.000  0.000  0.127
tot  0.000  0.393  0.000  0.131  0.000  0.000  0.000  0.000  0.000  0.524
 
band  12 # energy   13.42992278 # occ.  0.00000000
 
ion      s     py     pz     px    dxy    dyz    dz2    dxz    dx2    tot
  1  0.000  0.034  0.000  0.101  0.000  0.000  0.000  0.000  0.000  0.135
  2  0.000  0.032  0.000  0.097  0.000  0.000  0.000  0.000  0.000  0.130
  3  0.000  0.032  0.000  0.097  0.000  0.000  0.000  0.000  0.000  0.130
  4  0.000  0.034  0.000  0.101  0.000  0.000  0.000  0.000  0.000  0.135
tot  0.000  0.132  0.000  0.397  0.000  0.000  0.000  0.000  0.000  0.529
 
band  13 # energy   13.42994227 # occ.  0.00000000
 
ion      s     py     pz     px    dxy    dyz    dz2    dxz    dx2    tot
  1  0.000  0.101  0.000  0.034  0.000  0.000  0.000  0.000  0.000  0.135
  2  0.000  0.097  0.000  0.032  0.000  0.000  0.000  0.000  0.000  0.130
  3  0.000  0.097  0.000  0.032  0.000  0.000  0.000  0.000  0.000  0.130
  4  0.000  0.101  0.000  0.034  0.000  0.000  0.000  0.000  0.000  0.135
tot  0.000  0.397  0.000  0.132  0.000  0.000  0.000  0.000  0.000  0.529
 
band  14 # energy   16.17239159 # occ.  0.00000000
 
ion      s     py     pz     px    dxy    dyz    dz2    dxz    dx2    tot
  1  0.000  0.000  0.029  0.000  0.000  0.000  0.000  0.000  0.000  0.029
  2  0.000  0.000  0.228  0.000  0.000  0.000  0.000  0.000  0.000  0.228
  3  0.000  0.000  0.218  0.000  0.000  0.000  0.000  0.000  0.000  0.218
  4  0.000  0.000  0.029  0.000  0.000  0.000  0.000  0.000  0.000  0.029
tot  0.001  0.000  0.504  0.000  0.000  0.000  0.000  0.000  0.000  0.505
 

 k-point    2 :    0.16666667 0.00000000 0.00000000     weight = 0.02777778

band   1 # energy  -14.47133659 # occ.  1.00000000
 
ion      s     py     pz     px    dxy    dyz    dz2    dxz    dx2    tot
  1  0.151  0.002  0.000  0.005  0.000  0.000  0.000  0.000  0.000  0.158
  2  0.150  0.002  0.000  0.005  0.000  0.000  0.000  0.000  0.000  0.156
  3  0.150  0.002  0.000  0.005  0.000  0.000  0.000  0.000  0.000  0.156
  4  0.151  0.002  0.000  0.005  0.000  0.000  0.000  0.000  0.000  0.158
tot  0.601  0.007  0.000  0.020  0.000  0.000  0.000  0.000  0.000  0.628
 
band   2 # energy  -14.19052653 # occ.  1.00000000
 
ion      s     py     pz     px    dxy    dyz    dz2    dxz    dx2    tot
  1  0.156  0.002  0.000  0.005  0.000  0.000  0.000  0.000  0.000  0.163
  2  0.155  0.002  0.000  0.005  0.000  0.000  0.000  0.000  0.000  0.162
  3  0.155  0.002  0.000  0.005  0.000  0.000  0.000  0.000  0.000  0.162
  4  0.156  0.002  0.000  0.005  0.000  0.000  0.000  0.000  0.000  0.163
tot  0.621  0.007  0.000  0.021  0.000  0.000  0.000  0.000  0.000  0.649
 
band   3 # energy   -2.99849314 # occ.  1.00000000
 
ion      s     py     pz     px    dxy    dyz    dz2    dxz    dx2    tot
  1  0.000  0.000  0.099  0.000  0.000  0.000  0.000  0.000  0.000  0.099
  2  0.000  0.000  0.098  0.000  0.000  0.000  0.000  0.000  0.000  0.098
  3  0.000  0.000  0.098  0.000  0.000  0.000  0.000  0.000  0.000  0.098
  4  0.000  0.000  0.099  0.000  0.000  0.000  0.000  0.000  0.000  0.099
tot  0.000  0.000  0.395  0.000  0.000  0.000  0.000  0.000  0.000  0.395
 
band   4 # energy   -1.14898638 # occ.  1.00000000
 
ion      s     py     pz     px    dxy    dyz    dz2    dxz    dx2    tot
  1  0.000  0.000  0.132  0.000  0.000  0.000  0.000  0.000  0.000  0.132
  2  0.000  0.000  0.126  0.000  0.000  0.000  0.000  0.000  0.000  0.126
  3  0.000  0.000  0.126  0.000  0.000  0.000  0.000  0.000  0.000  0.126
  4  0.000  0.000  0.132  0.000  0.000  0.000  0.000  0.000  0.000  0.132
tot  0.000  0.000  0.517  0.000  0.000  0.000  0.000  0.000  0.000  0.517
 
band   5 # energy   -0.46454482 # occ.  1.00000000
 
ion      s     py     pz     px    dxy    dyz    dz2    dxz    dx2    tot
  1  0.025  0.043  0.000  0.128  0.000  0.000  0.000  0.000  0.000  0.196
  2  0.026  0.043  0.000  0.128  0.000  0.000  0.000  0.000  0.000  0.196
  3  0.026  0.043  0.000  0.128  0.000  0.000  0.000  0.000  0.000  0.196
  4  0.025  0.043  0.000  0.128  0.000  0.000  0.000  0.000  0.000  0.196
tot  0.101  0.170  0.000  0.511  0.000  0.000  0.000  0.000  0.000  0.783
 
band   6 # energy   -0.45442817 # occ.  1.00000000
 
ion      s     py     pz     px    dxy    dyz    dz2    dxz    dx2    tot
  1  0.025  0.042  0.000  0.127  0.000  0.000  0.000  0.000  0.000  0.195
  2  0.025  0.042  0.000  0.127  0.000  0.000  0.000  0.000  0.000  0.193
  3  0.025  0.042  0.000  0.126  0.000  0.000  0.000  0.000  0.000  0.193
  4  0.025  0.042  0.000  0.127  0.000  0.000  0.000  0.000  0.000  0.195
tot  0.099  0.169  0.000  0.508  0.000  0.000  0.000  0.000  0.000  0.776
 
band   7 # energy    0.69558194 # occ.  1.00000000
 
ion      s     py     pz     px    dxy    dyz    dz2    dxz    dx2    tot
  1  0.000  0.154  0.000  0.051  0.000  0.000  0.000  0.000  0.000  0.205
  2  0.000  0.153  0.000  0.051  0.000  0.000  0.000  0.000  0.000  0.203
  3  0.000  0.153  0.000  0.051  0.000  0.000  0.000  0.000  0.000  0.203
  4  0.000  0.154  0.000  0.051  0.000  0.000  0.000  0.000  0.000  0.205
tot  0.000  0.612  0.000  0.204  0.000  0.000  0.000  0.000  0.000  0.816
 
band   8 # energy    0.77896199 # occ.  1.00000000
 
ion      s     py     pz     px    dxy    dyz    dz2    dxz    dx2    tot
  1  0.000  0.154  0.000  0.051  0.000  0.000  0.000  0.000  0.000  0.205
  2  0.000  0.154  0.000  0.051  0.000  0.000  0.000  0.000  0.000  0.205
  3  0.000  0.154  0.000  0.051  0.000  0.000  0.000  0.000  0.000  0.205
  4  0.000  0.154  0.000  0.051  0.000  0.000  0.000  0.000  0.000  0.205
tot  0.000  0.615  0.000  0.205  0.000  0.000  0.000  0.000  0.000  0.820
 
band   9 # energy    9.83660658 # occ.  0.00000000
 
ion      s     py     pz     px    dxy    dyz    dz2    dxz    dx2    tot
  1  0.016  0.001  0.000  0.003  0.000  0.000  0.000  0.000  0.000  0.020
  2  0.016  0.001  0.000  0.003  0.000  0.000  0.000  0.000  0.000  0.020
  3  0.016  0.001  0.000  0.003  0.000  0.000  0.000  0.000  0.000  0.020
  4  0.016  0.001  0.000  0.003  0.000  0.000  0.000  0.000  0.000  0.020
tot  0.065  0.004  0.000  0.011  0.000  0.000  0.000  0.000  0.000  0.079
 
band  10 # energy   13.26690489 # occ.  0.00000000
 
ion      s     py     pz     px    dxy    dyz    dz2    dxz    dx2    tot
  1  0.031  0.021  0.000  0.062  0.000  0.000  0.000  0.000  0.000  0.114
  2  0.033  0.022  0.000  0.065  0.000  0.000  0.000  0.000  0.000  0.120
  3  0.033  0.022  0.000  0.065  0.000  0.000  0.000  0.000  0.000  0.120
  4  0.031  0.021  0.000  0.062  0.000  0.000  0.000  0.000  0.000  0.114
tot  0.128  0.085  0.000  0.255  0.000  0.000  0.000  0.000  0.000  0.469
 
band  11 # energy   13.42747409 # occ.  0.00000000
 
ion      s     py     pz     px    dxy    dyz    dz2    dxz    dx2    tot
  1  0.035  0.022  0.000  0.066  0.000  0.000  0.000  0.000  0.000  0.123
  2  0.032  0.022  0.000  0.065  0.000  0.000  0.000  0.000  0.000  0.119
  3  0.032  0.022  0.000  0.065  0.000  0.000  0.000  0.000  0.000  0.119
  4  0.035  0.022  0.000  0.066  0.000  0.000  0.000  0.000  0.000  0.123
tot  0.134  0.088  0.000  0.263  0.000  0.000  0.000  0.000  0.000  0.485
 
band  12 # energy   14.27795215 # occ.  0.00000000
 
ion      s     py     pz     px    dxy    dyz    dz2    dxz    dx2    tot
  1  0.000  0.000  0.157  0.000  0.000  0.000  0.000  0.000  0.000  0.157
  2  0.000  0.000  0.178  0.000  0.000  0.000  0.000  0.000  0.000  0.178
  3  0.000  0.000  0.178  0.000  0.000  0.000  0.000  0.000  0.000  0.178
  4  0.000  0.000  0.157  0.000  0.000  0.000  0.000  0.000  0.000  0.157
tot  0.000  0.000  0.670  0.000  0.000  0.000  0.000  0.000  0.000  0.670
 
band  13 # energy   14.74685352 # occ.  0.00000000
 
ion      s     py     pz     px    dxy    dyz    dz2    dxz    dx2    tot
  1  0.000  0.000  0.184  0.000  0.000  0.000  0.000  0.000  0.000  0.184
  2  0.000  0.000  0.169  0.000  0.000  0.000  0.000  0.000  0.000  0.169
  3  0.000  0.000  0.169  0.000  0.000  0.000  0.000  0.000  0.000  0.169
  4  0.000  0.000  0.184  0.000  0.000  0.000  0.000  0.000  0.000  0.184
tot  0.000  0.000  0.705  0.000  0.000  0.000  0.000  0.000  0.000  0.705
 
band  14 # energy   16.16568386 # occ.  0.00000000
 
ion      s     py     pz     px    dxy    dyz    dz2    dxz    dx2    tot
  1  0.000  0.119  0.000  0.040  0.000  0.000  0.000  0.000  0.000  0.159
  2  0.000  0.118  0.000  0.039  0.000  0.000  0.000  0.000  0.000  0.157
  3  0.000  0.093  0.000  0.031  0.000  0.000  0.000  0.000  0.000  0.124
  4  0.000  0.094  0.000  0.031  0.000  0.000  0.000  0.000  0.000  0.126
tot  0.000  0.424  0.000  0.141  0.000  0.000  0.000  0.000  0.000  0.566
 

 k-point    3 :    0.33333333 0.00000000 0.00000000     weight = 0.02777778

band   1 # energy  -12.51063117 # occ.  1.00000000
 
ion      s     py     pz     px    dxy    dyz    dz2    dxz    dx2    tot
  1  0.136  0.006  0.000  0.019  0.000  0.000  0.000  0.000  0.000  0.162
  2  0.136  0.007  0.000  0.020  0.000  0.000  0.000  0.000  0.000  0.163
  3  0.136  0.007  0.000  0.020  0.000  0.000  0.000  0.000  0.000  0.163
  4  0.136  0.006  0.000  0.019  0.000  0.000  0.000  0.000  0.000  0.162
tot  0.546  0.026  0.000  0.078  0.000  0.000  0.000  0.000  0.000  0.650
 
band   2 # energy  -12.26468772 # occ.  1.00000000
 
ion      s     py     pz     px    dxy    dyz    dz2    dxz    dx2    tot
  1  0.142  0.007  0.000  0.020  0.000  0.000  0.000  0.000  0.000  0.169
  2  0.138  0.007  0.000  0.020  0.000  0.000  0.000  0.000  0.000  0.166
  3  0.138  0.007  0.000  0.020  0.000  0.000  0.000  0.000  0.000  0.166
  4  0.142  0.007  0.000  0.020  0.000  0.000  0.000  0.000  0.000  0.169
tot  0.560  0.027  0.000  0.081  0.000  0.000  0.000  0.000  0.000  0.668
 
band   3 # energy   -5.04016328 # occ.  1.00000000
 
ion      s     py     pz     px    dxy    dyz    dz2    dxz    dx2    tot
  1  0.062  0.029  0.000  0.087  0.000  0.000  0.000  0.000  0.000  0.178
  2  0.062  0.029  0.000  0.086  0.000  0.000  0.000  0.000  0.000  0.177
  3  0.062  0.029  0.000  0.086  0.000  0.000  0.000  0.000  0.000  0.177
  4  0.062  0.029  0.000  0.087  0.000  0.000  0.000  0.000  0.000  0.178
tot  0.249  0.115  0.000  0.345  0.000  0.000  0.000  0.000  0.000  0.710
 
band   4 # energy   -4.88759820 # occ.  1.00000000
 
ion      s     py     pz     px    dxy    dyz    dz2    dxz    dx2    tot
  1  0.064  0.029  0.000  0.088  0.000  0.000  0.000  0.000  0.000  0.182
  2  0.066  0.029  0.000  0.087  0.000  0.000  0.000  0.000  0.000  0.182
  3  0.066  0.029  0.000  0.087  0.000  0.000  0.000  0.000  0.000  0.182
  4  0.064  0.029  0.000  0.088  0.000  0.000  0.000  0.000  0.000  0.182
tot  0.260  0.117  0.000  0.351  0.000  0.000  0.000  0.000  0.000  0.728
 
band   5 # energy   -1.03786464 # occ.  1.00000000
 
ion      s     py     pz     px    dxy    dyz    dz2    dxz    dx2    tot
  1  0.000  0.150  0.000  0.050  0.000  0.000  0.000  0.000  0.000  0.201
  2  0.000  0.150  0.000  0.050  0.000  0.000  0.000  0.000  0.000  0.200
  3  0.000  0.150  0.000  0.050  0.000  0.000  0.000  0.000  0.000  0.200
  4  0.000  0.151  0.000  0.050  0.000  0.000  0.000  0.000  0.000  0.201
tot  0.000  0.601  0.000  0.200  0.000  0.000  0.000  0.000  0.000  0.801
 
band   6 # energy   -0.88862476 # occ.  1.00000000
 
ion      s     py     pz     px    dxy    dyz    dz2    dxz    dx2    tot
  1  0.000  0.151  0.000  0.050  0.000  0.000  0.000  0.000  0.000  0.202
  2  0.000  0.151  0.000  0.050  0.000  0.000  0.000  0.000  0.000  0.201
  3  0.000  0.151  0.000  0.050  0.000  0.000  0.000  0.000  0.000  0.201
  4  0.000  0.151  0.000  0.050  0.000  0.000  0.000  0.000  0.000  0.202
tot  0.000  0.604  0.000  0.201  0.000  0.000  0.000  0.000  0.000  0.806
 
band   7 # energy   -0.68129860 # occ.  1.00000000
 
ion      s     py     pz     px    dxy    dyz    dz2    dxz    dx2    tot
  1  0.000  0.000  0.105  0.000  0.000  0.000  0.000  0.000  0.000  0.105
  2  0.000  0.000  0.104  0.000  0.000  0.000  0.000  0.000  0.000  0.104
  3  0.000  0.000  0.104  0.000  0.000  0.000  0.000  0.000  0.000  0.104
  4  0.000  0.000  0.105  0.000  0.000  0.000  0.000  0.000  0.000  0.105
tot  0.000  0.000  0.418  0.000  0.000  0.000  0.000  0.000  0.000  0.418
 
band   8 # energy    1.01889954 # occ.  1.00000000
 
ion      s     py     pz     px    dxy    dyz    dz2    dxz    dx2    tot
  1  0.000  0.000  0.138  0.000  0.000  0.000  0.000  0.000  0.000  0.138
  2  0.000  0.000  0.128  0.000  0.000  0.000  0.000  0.000  0.000  0.128
  3  0.000  0.000  0.128  0.000  0.000  0.000  0.000  0.000  0.000  0.128
  4  0.000  0.000  0.138  0.000  0.000  0.000  0.000  0.000  0.000  0.138
tot  0.000  0.000  0.533  0.000  0.000  0.000  0.000  0.000  0.000  0.533
 
band   9 # energy    9.42424999 # occ.  0.00000000
 
ion      s     py     pz     px    dxy    dyz    dz2    dxz    dx2    tot
  1  0.000  0.000  0.113  0.000  0.000  0.000  0.000  0.000  0.000  0.113
  2  0.000  0.000  0.139  0.000  0.000  0.000  0.000  0.000  0.000  0.139
  3  0.000  0.000  0.139  0.000  0.000  0.000  0.000  0.000  0.000  0.139
  4  0.000  0.000  0.113  0.000  0.000  0.000  0.000  0.000  0.000  0.113
tot  0.000  0.000  0.504  0.000  0.000  0.000  0.000  0.000  0.000  0.504
 
band  10 # energy   10.33201016 # occ.  0.00000000
 
ion      s     py     pz     px    dxy    dyz    dz2    dxz    dx2    tot
  1  0.000  0.000  0.159  0.000  0.000  0.000  0.000  0.000  0.000  0.159
  2  0.000  0.000  0.140  0.000  0.000  0.000  0.000  0.000  0.000  0.140
  3  0.000  0.000  0.140  0.000  0.000  0.000  0.000  0.000  0.000  0.140
  4  0.000  0.000  0.159  0.000  0.000  0.000  0.000  0.000  0.000  0.159
tot  0.000  0.000  0.597  0.000  0.000  0.000  0.000  0.000  0.000  0.597
 
band  11 # energy   12.17141016 # occ.  0.00000000
 
ion      s     py     pz     px    dxy    dyz    dz2    dxz    dx2    tot
  1  0.035  0.008  0.000  0.024  0.000  0.000  0.000  0.000  0.000  0.067
  2  0.008  0.008  0.000  0.023  0.000  0.000  0.000  0.000  0.000  0.039
  3  0.008  0.008  0.000  0.023  0.000  0.000  0.000  0.000  0.000  0.039
  4  0.035  0.008  0.000  0.024  0.000  0.000  0.000  0.000  0.000  0.067
tot  0.086  0.031  0.000  0.094  0.000  0.000  0.000  0.000  0.000  0.212
 
band  12 # energy   12.34879641 # occ.  0.00000000
 
ion      s     py     pz     px    dxy    dyz    dz2    dxz    dx2    tot
  1  0.041  0.006  0.000  0.019  0.000  0.000  0.000  0.000  0.000  0.067
  2  0.085  0.007  0.000  0.022  0.000  0.000  0.000  0.000  0.000  0.115
  3  0.085  0.007  0.000  0.022  0.000  0.000  0.000  0.000  0.000  0.115
  4  0.041  0.006  0.000  0.019  0.000  0.000  0.000  0.000  0.000  0.067
tot  0.253  0.028  0.000  0.083  0.000  0.000  0.000  0.000  0.000  0.364
 
band  13 # energy   12.72082606 # occ.  0.00000000
 
ion      s     py     pz     px    dxy    dyz    dz2    dxz    dx2    tot
  1  0.087  0.005  0.000  0.015  0.000  0.000  0.000  0.000  0.000  0.107
  2  0.070  0.005  0.000  0.014  0.000  0.000  0.000  0.000  0.000  0.089
  3  0.070  0.005  0.000  0.014  0.000  0.000  0.000  0.000  0.000  0.089
  4  0.087  0.005  0.000  0.015  0.000  0.000  0.000  0.000  0.000  0.107
tot  0.314  0.020  0.000  0.059  0.000  0.000  0.000  0.000  0.000  0.392
 
band  14 # energy   17.72815695 # occ.  0.00000000
 
ion      s     py     pz     px    dxy    dyz    dz2    dxz    dx2    tot
  1  0.000  0.000  0.089  0.000  0.000  0.000  0.000  0.000  0.000  0.089
  2  0.000  0.000  0.071  0.000  0.000  0.000  0.000  0.000  0.000  0.071
  3  0.000  0.000  0.071  0.000  0.000  0.000  0.000  0.000  0.000  0.071
  4  0.000  0.000  0.089  0.000  0.000  0.000  0.000  0.000  0.000  0.089
tot  0.000  0.000  0.321  0.000  0.000  0.000  0.000  0.000  0.000  0.321
 

 k-point    4 :    0.50000000 0.00000000 0.00000000     weight = 0.01388889

band   1 # energy   -9.77437991 # occ.  1.00000000
 
ion      s     py     pz     px    dxy    dyz    dz2    dxz    dx2    tot
  1  0.134  0.009  0.000  0.028  0.000  0.000  0.000  0.000  0.000  0.171
  2  0.150  0.007  0.000  0.020  0.000  0.000  0.000  0.000  0.000  0.177
  3  0.150  0.007  0.000  0.020  0.000  0.000  0.000  0.000  0.000  0.177
  4  0.134  0.009  0.000  0.028  0.000  0.000  0.000  0.000  0.000  0.171
tot  0.568  0.032  0.000  0.096  0.000  0.000  0.000  0.000  0.000  0.696
 
band   2 # energy   -9.67610627 # occ.  1.00000000
 
ion      s     py     pz     px    dxy    dyz    dz2    dxz    dx2    tot
  1  0.161  0.006  0.000  0.017  0.000  0.000  0.000  0.000  0.000  0.184
  2  0.125  0.011  0.000  0.032  0.000  0.000  0.000  0.000  0.000  0.168
  3  0.125  0.011  0.000  0.032  0.000  0.000  0.000  0.000  0.000  0.168
  4  0.161  0.006  0.000  0.017  0.000  0.000  0.000  0.000  0.000  0.184
tot  0.573  0.033  0.000  0.098  0.000  0.000  0.000  0.000  0.000  0.704
 
band   3 # energy   -8.64322900 # occ.  1.00000000
 
ion      s     py     pz     px    dxy    dyz    dz2    dxz    dx2    tot
  1  0.046  0.028  0.000  0.083  0.000  0.000  0.000  0.000  0.000  0.156
  2  0.085  0.022  0.000  0.065  0.000  0.000  0.000  0.000  0.000  0.171
  3  0.085  0.022  0.000  0.065  0.000  0.000  0.000  0.000  0.000  0.171
  4  0.046  0.028  0.000  0.083  0.000  0.000  0.000  0.000  0.000  0.156
tot  0.262  0.098  0.000  0.295  0.000  0.000  0.000  0.000  0.000  0.654
 
band   4 # energy   -8.58460211 # occ.  1.00000000
 
ion      s     py     pz     px    dxy    dyz    dz2    dxz    dx2    tot
  1  0.077  0.023  0.000  0.070  0.000  0.000  0.000  0.000  0.000  0.171
  2  0.055  0.027  0.000  0.080  0.000  0.000  0.000  0.000  0.000  0.161
  3  0.055  0.027  0.000  0.080  0.000  0.000  0.000  0.000  0.000  0.161
  4  0.077  0.023  0.000  0.070  0.000  0.000  0.000  0.000  0.000  0.171
tot  0.265  0.100  0.000  0.299  0.000  0.000  0.000  0.000  0.000  0.664
 
band   5 # energy   -1.66237097 # occ.  1.00000000
 
ion      s     py     pz     px    dxy    dyz    dz2    dxz    dx2    tot
  1  0.000  0.150  0.000  0.050  0.000  0.000  0.000  0.000  0.000  0.200
  2  0.000  0.150  0.000  0.050  0.000  0.000  0.000  0.000  0.000  0.200
  3  0.000  0.150  0.000  0.050  0.000  0.000  0.000  0.000  0.000  0.200
  4  0.000  0.150  0.000  0.050  0.000  0.000  0.000  0.000  0.000  0.200
tot  0.000  0.599  0.000  0.200  0.000  0.000  0.000  0.000  0.000  0.799
 
band   6 # energy   -1.46348132 # occ.  1.00000000
 
ion      s     py     pz     px    dxy    dyz    dz2    dxz    dx2    tot
  1  0.000  0.151  0.000  0.050  0.000  0.000  0.000  0.000  0.000  0.201
  2  0.000  0.150  0.000  0.050  0.000  0.000  0.000  0.000  0.000  0.201
  3  0.000  0.150  0.000  0.050  0.000  0.000  0.000  0.000  0.000  0.201
  4  0.000  0.151  0.000  0.050  0.000  0.000  0.000  0.000  0.000  0.201
tot  0.000  0.603  0.000  0.201  0.000  0.000  0.000  0.000  0.000  0.804
 
band   7 # energy    1.99581223 # occ.  1.00000000
 
ion      s     py     pz     px    dxy    dyz    dz2    dxz    dx2    tot
  1  0.000  0.000  0.104  0.000  0.000  0.000  0.000  0.000  0.000  0.104
  2  0.000  0.000  0.140  0.000  0.000  0.000  0.000  0.000  0.000  0.140
  3  0.000  0.000  0.140  0.000  0.000  0.000  0.000  0.000  0.000  0.140
  4  0.000  0.000  0.104  0.000  0.000  0.000  0.000  0.000  0.000  0.104
tot  0.000  0.000  0.487  0.000  0.000  0.000  0.000  0.000  0.000  0.487
 
band   8 # energy    2.65530370 # occ.  1.00000000
 
ion      s     py     pz     px    dxy    dyz    dz2    dxz    dx2    tot
  1  0.000  0.000  0.170  0.000  0.000  0.000  0.000  0.000  0.000  0.170
  2  0.000  0.000  0.092  0.000  0.000  0.000  0.000  0.000  0.000  0.092
  3  0.000  0.000  0.092  0.000  0.000  0.000  0.000  0.000  0.000  0.092
  4  0.000  0.000  0.170  0.000  0.000  0.000  0.000  0.000  0.000  0.170
tot  0.000  0.000  0.523  0.000  0.000  0.000  0.000  0.000  0.000  0.523
 
band   9 # energy    6.33022864 # occ.  0.00000000
 
ion      s     py     pz     px    dxy    dyz    dz2    dxz    dx2    tot
  1  0.000  0.000  0.050  0.000  0.000  0.000  0.000  0.000  0.000  0.050
  2  0.000  0.000  0.176  0.000  0.000  0.000  0.000  0.000  0.000  0.176
  3  0.000  0.000  0.176  0.000  0.000  0.000  0.000  0.000  0.000  0.176
  4  0.000  0.000  0.050  0.000  0.000  0.000  0.000  0.000  0.000  0.050
tot  0.000  0.000  0.452  0.000  0.000  0.000  0.000  0.000  0.000  0.452
 
band  10 # energy    7.00968749 # occ.  0.00000000
 
ion      s     py     pz     px    dxy    dyz    dz2    dxz    dx2    tot
  1  0.000  0.000  0.170  0.000  0.000  0.000  0.000  0.000  0.000  0.170
  2  0.000  0.000  0.083  0.000  0.000  0.000  0.000  0.000  0.000  0.083
  3  0.000  0.000  0.083  0.000  0.000  0.000  0.000  0.000  0.000  0.083
  4  0.000  0.000  0.170  0.000  0.000  0.000  0.000  0.000  0.000  0.170
tot  0.000  0.000  0.507  0.000  0.000  0.000  0.000  0.000  0.000  0.507
 
band  11 # energy   11.87714914 # occ.  0.00000000
 
ion      s     py     pz     px    dxy    dyz    dz2    dxz    dx2    tot
  1  0.086  0.005  0.000  0.015  0.000  0.000  0.000  0.000  0.000  0.106
  2  0.087  0.005  0.000  0.015  0.000  0.000  0.000  0.000  0.000  0.107
  3  0.087  0.005  0.000  0.015  0.000  0.000  0.000  0.000  0.000  0.107
  4  0.086  0.005  0.000  0.015  0.000  0.000  0.000  0.000  0.000  0.106
tot  0.346  0.020  0.000  0.060  0.000  0.000  0.000  0.000  0.000  0.426
 
band  12 # energy   12.27466913 # occ.  0.00000000
 
ion      s     py     pz     px    dxy    dyz    dz2    dxz    dx2    tot
  1  0.091  0.005  0.000  0.015  0.000  0.000  0.000  0.000  0.000  0.112
  2  0.092  0.005  0.000  0.015  0.000  0.000  0.000  0.000  0.000  0.112
  3  0.092  0.005  0.000  0.015  0.000  0.000  0.000  0.000  0.000  0.112
  4  0.091  0.005  0.000  0.015  0.000  0.000  0.000  0.000  0.000  0.112
tot  0.366  0.020  0.000  0.061  0.000  0.000  0.000  0.000  0.000  0.448
 
band  13 # energy   16.14181963 # occ.  0.00000000
 
ion      s     py     pz     px    dxy    dyz    dz2    dxz    dx2    tot
  1  0.002  0.010  0.000  0.030  0.000  0.000  0.000  0.000  0.000  0.042
  2  0.008  0.000  0.000  0.001  0.000  0.000  0.000  0.000  0.000  0.010
  3  0.008  0.000  0.000  0.001  0.000  0.000  0.000  0.000  0.000  0.010
  4  0.002  0.010  0.000  0.030  0.000  0.000  0.000  0.000  0.000  0.042
tot  0.020  0.021  0.000  0.063  0.000  0.000  0.000  0.000  0.000  0.104
 
band  14 # energy   16.24619254 # occ.  0.00000000
 
ion      s     py     pz     px    dxy    dyz    dz2    dxz    dx2    tot
  1  0.006  0.001  0.000  0.003  0.000  0.000  0.000  0.000  0.000  0.010
  2  0.000  0.011  0.000  0.033  0.000  0.000  0.000  0.000  0.000  0.044
  3  0.000  0.011  0.000  0.033  0.000  0.000  0.000  0.000  0.000  0.044
  4  0.006  0.001  0.000  0.003  0.000  0.000  0.000  0.000  0.000  0.010
tot  0.011  0.024  0.000  0.073  0.000  0.000  0.000  0.000  0.000  0.109
 

 k-point    5 :    0.16666667 0.16666667 0.00000000     weight = 0.02777778

band   1 # energy  -13.15071048 # occ.  1.00000000
 
ion      s     py     pz     px    dxy    dyz    dz2    dxz    dx2    tot
  1  0.140  0.015  0.000  0.005  0.000  0.000  0.000  0.000  0.000  0.160
  2  0.139  0.015  0.000  0.005  0.000  0.000  0.000  0.000  0.000  0.159
  3  0.139  0.015  0.000  0.005  0.000  0.000  0.000  0.000  0.000  0.159
  4  0.140  0.015  0.000  0.005  0.000  0.000  0.000  0.000  0.000  0.160
tot  0.558  0.060  0.000  0.020  0.000  0.000  0.000  0.000  0.000  0.638
 
band   2 # energy  -12.89474583 # occ.  1.00000000
 
ion      s     py     pz     px    dxy    dyz    dz2    dxz    dx2    tot
  1  0.145  0.015  0.000  0.005  0.000  0.000  0.000  0.000  0.000  0.166
  2  0.143  0.016  0.000  0.005  0.000  0.000  0.000  0.000  0.000  0.164
  3  0.143  0.016  0.000  0.005  0.000  0.000  0.000  0.000  0.000  0.164
  4  0.145  0.015  0.000  0.005  0.000  0.000  0.000  0.000  0.000  0.166
tot  0.577  0.062  0.000  0.021  0.000  0.000  0.000  0.000  0.000  0.659
 
band   3 # energy   -3.05536433 # occ.  1.00000000
 
ion      s     py     pz     px    dxy    dyz    dz2    dxz    dx2    tot
  1  0.054  0.088  0.000  0.046  0.000  0.000  0.000  0.000  0.000  0.188
  2  0.056  0.090  0.000  0.044  0.000  0.000  0.000  0.000  0.000  0.190
  3  0.056  0.090  0.000  0.044  0.000  0.000  0.000  0.000  0.000  0.190
  4  0.054  0.088  0.000  0.046  0.000  0.000  0.000  0.000  0.000  0.188
tot  0.221  0.355  0.000  0.180  0.000  0.000  0.000  0.000  0.000  0.756
 
band   4 # energy   -2.98870585 # occ.  1.00000000
 