<?xml version="1.0" encoding="ISO-8859-1"?>
<modeling>
 <generator>
  <i name="program" type="string">vasp </i>
  <i name="version" type="string">5.2.12  </i>
  <i name="subversion" type="string">11Nov11 complex                                                      parallel </i>
  <i name="platform" type="string">LinuxIFC </i>
  <i name="date" type="string">2012 10 17 </i>
  <i name="time" type="string">09:53:35 </i>
 </generator>
 <incar>
  <i type="int" name="ISTART">     0</i>
  <i type="string" name="PREC">accurate</i>
  <i type="int" name="ISPIN">     2</i>
  <i name="ENCUT">    250.00000000</i>
  <i type="int" name="NBANDS">    14</i>
  <i type="logical" name="LREAL"> F  </i>
  <i type="int" name="ISMEAR">     1</i>
  <i name="SIGMA">      0.05000000</i>
  <i type="logical" name="LORBIT"> F  </i>
 </incar>
 <kpoints>
  <generation param="Gamma">
   <v type="int" name="divisions">       6        6        6 </v>
   <v name="usershift">      0.00000000       0.00000000       0.00000000 </v>
   <v name="genvec1">      0.16666667       0.00000000       0.00000000 </v>
   <v name="genvec2">      0.00000000       0.16666667       0.00000000 </v>
   <v name="genvec3">      0.00000000       0.00000000       0.16666667 </v>
   <v name="shift">      0.00000000       0.00000000       0.00000000 </v>
  </generation>
  <varray name="kpointlist" >
   <v>       0.00000000       0.00000000       0.00000000 </v>
   <v>       0.16666667       0.00000000       0.00000000 </v>
   <v>       0.33333333       0.00000000       0.00000000 </v>
   <v>       0.50000000       0.00000000       0.00000000 </v>
   <v>       0.16666667       0.16666667       0.00000000 </v>
   <v>       0.33333333       0.16666667       0.00000000 </v>
   <v>       0.33333333       0.33333333       0.00000000 </v>
   <v>       0.00000000       0.00000000       0.16666667 </v>
   <v>       0.16666667       0.00000000       0.16666667 </v>
   <v>       0.33333333       0.00000000       0.16666667 </v>
   <v>       0.50000000       0.00000000       0.16666667 </v>
   <v>       0.16666667       0.16666667       0.16666667 </v>
   <v>       0.33333333       0.16666667       0.16666667 </v>
   <v>       0.33333333       0.33333333       0.16666667 </v>
   <v>       0.00000000       0.00000000       0.33333333 </v>
   <v>       0.16666667       0.00000000       0.33333333 </v>
   <v>       0.33333333       0.00000000       0.33333333 </v>
   <v>       0.50000000       0.00000000       0.33333333 </v>
   <v>       0.16666667       0.16666667       0.33333333 </v>
   <v>       0.33333333       0.16666667       0.33333333 </v>
   <v>       0.33333333       0.33333333       0.33333333 </v>
   <v>       0.00000000       0.00000000       0.50000000 </v>
   <v>       0.16666667       0.00000000       0.50000000 </v>
   <v>       0.33333333       0.00000000       0.50000000 </v>
   <v>       0.50000000       0.00000000       0.50000000 </v>
   <v>       0.16666667       0.16666667       0.50000000 </v>
   <v>       0.33333333       0.16666667       0.50000000 </v>
   <v>       0.33333333       0.33333333       0.50000000 </v>
  </varray>
  <varray name="weights" >
   <v>       0.00462963 </v>
   <v>       0.02777778 </v>
   <v>       0.02777778 </v>
   <v>       0.01388889 </v>
   <v>       0.02777778 </v>
   <v>       0.05555556 </v>
   <v>       0.00925926 </v>
   <v>       0.00925926 </v>
   <v>       0.05555556 </v>
   <v>       0.05555556 </v>
   <v>       0.02777778 </v>
   <v>       0.05555556 </v>
   <v>       0.11111111 </v>
   <v>       0.01851852 </v>
   <v>       0.00925926 </v>
   <v>       0.05555556 </v>
   <v>       0.05555556 </v>
   <v>       0.02777778 </v>
   <v>       0.05555556 </v>
   <v>       0.11111111 </v>
   <v>       0.01851852 </v>
   <v>       0.00462963 </v>
   <v>       0.02777778 </v>
   <v>       0.02777778 </v>
   <v>       0.01388889 </v>
   <v>       0.02777778 </v>
   <v>       0.05555556 </v>
   <v>       0.00925926 </v>
  </varray>
 </kpoints>
 <parameters>
  <separator name="general" >
   <i type="string" name="SYSTEM">unknown system</i>
   <i type="logical" name="LCOMPAT"> F  </i>
  </separator>
  <separator name="electronic" >
   <i type="string" name="PREC">accura</i>
   <i name="ENMAX">    250.00000000</i>
   <i name="ENAUG">    644.87300000</i>
   <i name="EDIFF">      0.00010000</i>
   <i type="int" name="IALGO">    38</i>
   <i type="int" name="IWAVPR">    10</i>
   <i type="int" name="NBANDS">    14</i>
   <i name="NELECT">     16.00000000</i>
   <i type="int" name="TURBO">     0</i>
   <i type="int" name="IRESTART">     0</i>
   <i type="int" name="NREBOOT">     0</i>
   <i type="int" name="NMIN">     0</i>
   <i name="EREF">      0.00000000</i>
   <separator name="electronic smearing" >
    <i type="int" name="ISMEAR">     1</i>
    <i name="SIGMA">      0.05000000</i>
    <i name="KSPACING">      0.50000000</i>
    <i type="logical" name="KGAMMA"> T  </i>
   </separator>
   <separator name="electronic projectors" >
    <i type="logical" name="LREAL"> F  </i>
    <v name="ROPT">      0.00000000</v>
    <i type="int" name="LMAXPAW">  -100</i>
    <i type="int" name="LMAXMIX">     2</i>
    <i type="logical" name="NLSPLINE"> F  </i>
   </separator>
   <separator name="electronic startup" >
    <i type="int" name="ISTART">     0</i>
    <i type="int" name="ICHARG">     2</i>
    <i type="int" name="INIWAV">     1</i>
   </separator>
   <separator name="electronic spin" >
    <i type="int" name="ISPIN">     2</i>
    <i type="logical" name="LNONCOLLINEAR"> F  </i>
    <v name="MAGMOM">      1.00000000      1.00000000      1.00000000      1.00000000</v>
    <i name="NUPDOWN">     -1.00000000</i>
    <i type="logical" name="LSORBIT"> F  </i>
    <v name="SAXIS">      0.00000000      0.00000000      1.00000000</v>
    <i type="logical" name="LSPIRAL"> F  </i>
    <v name="QSPIRAL">      0.00000000      0.00000000      0.00000000</v>
    <i type="logical" name="LZEROZ"> F  </i>
   </separator>
   <separator name="electronic exchange-correlation" >
    <i type="logical" name="LASPH"> F  </i>
    <i type="logical" name="LMETAGGA"> F  </i>
   </separator>
   <separator name="electronic convergence" >
    <i type="int" name="NELM">    60</i>
    <i type="int" name="NELMDL">    -5</i>
    <i type="int" name="NELMIN">     2</i>
    <i name="ENINI">    250.00000000</i>
    <separator name="electronic convergence detail" >
     <i type="logical" name="LDIAG"> T  </i>
     <i type="logical" name="LSUBROT"> T  </i>
     <i name="WEIMIN">      0.00000000</i>
     <i name="EBREAK">      0.00000179</i>
     <i name="DEPER">      0.30000000</i>
     <i type="int" name="NRMM">     4</i>
     <i name="TIME">      0.40000000</i>
    </separator>
   </separator>
   <separator name="electronic mixer" >
    <i name="AMIX">      0.40000000</i>
    <i name="BMIX">      1.00000000</i>
    <i name="AMIN">      0.10000000</i>
    <i name="AMIX_MAG">      1.60000000</i>
    <i name="BMIX_MAG">      1.00000000</i>
    <separator name="electronic mixer details" >
     <i type="int" name="IMIX">     4</i>
     <i type="int" name="MAXMIX">   -45</i>
     <i name="WC">    100.00000000</i>
     <i type="int" name="INIMIX">     1</i>
     <i type="int" name="MIXPRE">     1</i>
     <i type="int" name="MREMOVE">     5</i>
    </separator>
   </separator>
   <separator name="electronic dipolcorrection" >
    <i type="logical" name="LDIPOL"> F  </i>
    <i type="logical" name="LMONO"> F  </i>
    <i type="int" name="IDIPOL">     0</i>
    <i name="EPSILON">      1.00000000</i>
    <v name="DIPOL">   -100.00000000   -100.00000000   -100.00000000</v>
    <i name="EFIELD">      0.00000000</i>
   </separator>
  </separator>
  <separator name="grids" >
   <i type="int" name="NGX">    14</i>
   <i type="int" name="NGY">    14</i>
   <i type="int" name="NGZ">    36</i>
   <i type="int" name="NGXF">    28</i>
   <i type="int" name="NGYF">    28</i>
   <i type="int" name="NGZF">    72</i>
   <i type="logical" name="ADDGRID"> F  </i>
  </separator>
  <separator name="ionic" >
   <i type="int" name="NSW">     0</i>
   <i type="int" name="IBRION">    -1</i>
   <i type="int" name="ISIF">     2</i>
   <i name="PSTRESS">      0.00000000</i>
   <i name="EDIFFG">      0.00100000</i>
   <i type="int" name="NFREE">     0</i>
   <i name="POTIM">      0.50000000</i>
   <i name="SMASS">     -3.00000000</i>
   <i name="SCALEE">      1.00000000</i>
  </separator>
  <separator name="ionic md" >
   <i name="TEBEG">      0.00010000</i>
   <i name="TEEND">      0.00010000</i>
   <i type="int" name="NBLOCK">     1</i>
   <i type="int" name="KBLOCK">     1</i>
   <i type="int" name="NPACO">   256</i>
   <i name="APACO">     16.00000000</i>
  </separator>
  <separator name="symmetry" >
   <i type="int" name="ISYM">     2</i>
   <i name="SYMPREC">      0.00001000</i>
  </separator>
  <separator name="dos" >
   <i type="logical" name="LORBIT"> F  </i>
   <v name="RWIGS">     -1.00000000</v>
   <i type="int" name="NEDOS">   301</i>
   <i name="EMIN">     10.00000000</i>
   <i name="EMAX">    -10.00000000</i>
   <i name="EFERMI">      0.00000000</i>
  </separator>
  <separator name="writing" >
   <i type="int" name="NWRITE">     2</i>
   <i type="logical" name="LWAVE"> T  </i>
   <i type="logical" name="LCHARG"> T  </i>
   <i type="logical" name="LPARD"> F  </i>
   <i type="logical" name="LVTOT"> F  </i>
   <i type="logical" name="LVHAR"> F  </i>
   <i type="logical" name="LELF"> F  </i>
   <i type="logical" name="LOPTICS"> F  </i>
   <v name="STM">      0.00000000      0.00000000      0.00000000      0.00000000      0.00000000      0.00000000      0.00000000</v>
  </separator>
  <separator name="performance" >
   <i type="int" name="NPAR">     1</i>
   <i type="int" name="NSIM">     4</i>
   <i type="int" name="NBLK">    -1</i>
   <i type="logical" name="LPLANE"> T  </i>
   <i type="logical" name="LSCALAPACK"> F  </i>
   <i type="logical" name="LSCAAWARE"> F  </i>
   <i type="logical" name="LSCALU"> F  </i>
   <i type="logical" name="LASYNC"> F  </i>
   <i type="logical" name="LORBITALREAL"> F  </i>
  </separator>
  <separator name="miscellaneous" >
   <i type="int" name="IDIOT">     3</i>
   <i type="logical" name="LMUSIC"> F  </i>
   <v name="POMASS">     12.01100000</v>
   <v name="DARWINR">      0.00000000</v>
   <v name="DARWINV">      1.00000000</v>
   <i type="logical" name="LCORR"> T  </i>
  </separator>
  <i type="logical" name="GGA_COMPAT"> T  </i>
  <i type="logical" name="LBERRY"> F  </i>
  <i type="int" name="ICORELEVEL">     0</i>
  <i type="logical" name="LDAU"> F  </i>
  <i type="int" name="I_CONSTRAINED_M">     0</i>
  <separator name="electronic exchange-correlation" >
   <i type="string" name="GGA">--</i>
   <i type="int" name="VOSKOWN">     0</i>
   <i type="logical" name="LHFCALC"> F  </i>
   <i type="string" name="PRECFOCK"></i>
   <i type="logical" name="LHFONE"> F  </i>
   <i type="logical" name="LRHFCALC"> F  </i>
   <i type="logical" name="LTHOMAS"> F  </i>
   <i type="logical" name="LMODELHF"> F  </i>
   <i name="ENCUT4O">     -1.00000000</i>
   <i type="int" name="EXXOEP">     0</i>
   <i type="int" name="FOURORBIT">     0</i>
   <i name="AEXX">      0.00000000</i>
   <i name="HFALPHA">      0.00000000</i>
   <i name="ALDAX">      1.00000000</i>
   <i name="AGGAX">      1.00000000</i>
   <i name="ALDAC">      1.00000000</i>
   <i name="AGGAC">      1.00000000</i>
   <i type="int" name="NKREDX">     1</i>
   <i type="int" name="NKREDY">     1</i>
   <i type="int" name="NKREDZ">     1</i>
   <i type="logical" name="SHIFTRED"> F  </i>
   <i type="logical" name="ODDONLY"> F  </i>
   <i type="logical" name="EVENONLY"> F  </i>
   <i type="int" name="LMAXFOCK">     0</i>
   <i type="int" name="NMAXFOCKAE">     0</i>
   <i type="logical" name="LFOCKAEDFT"> F  </i>
   <i name="HFSCREEN">      0.00000000</i>
   <i name="HFSCREENC">      0.00000000</i>
  </separator>
  <separator name="vdW DFT" >
   <i type="logical" name="LUSE_VDW"> F  </i>
   <i name="Zab_VDW">     -0.84910000</i>
   <i name="PARAM1">      0.12340000</i>
   <i name="PARAM2">      1.00000000</i>
   <i name="PARAM3">      0.00000000</i>
  </separator>
  <separator name="model GW" >
   <i type="int" name="MODEL_GW">     0</i>
   <i name="MODEL_EPS0">      5.27839982</i>
   <i name="MODEL_ALPHA">      1.00000000</i>
  </separator>
  <separator name="linear response parameters" >
   <i type="logical" name="LEPSILON"> F  </i>
   <i type="logical" name="LRPA"> F  </i>
   <i type="logical" name="LNABLA"> F  </i>
   <i type="logical" name="LVEL"> F  </i>
   <i type="int" name="KINTER">     0</i>
   <i name="CSHIFT">      0.10000000</i>
   <i name="OMEGAMAX">     -1.00000000</i>
  </separator>
  <separator name="orbital magnetization" >
   <i type="logical" name="NUCIND"> F  </i>
   <v name="MAGPOS">      0.00000000      0.00000000      0.00000000</v>
   <i type="logical" name="LNICSALL"> T  </i>
   <i type="logical" name="ORBITALMAG"> F  </i>
   <i type="logical" name="LMAGBLOCH"> F  </i>
   <i type="logical" name="LCHIMAG"> F  </i>
   <i type="logical" name="LGAUGE"> T  </i>
   <i type="int" name="MAGATOM">     0</i>
   <v name="MAGDIPOL">      0.00000000      0.00000000      0.00000000</v>
   <v name="AVECCONST">      0.00000000      0.00000000      0.00000000</v>
  </separator>
  <separator name="response functions" >
   <i type="logical" name="LADDER"> F  </i>
   <i type="logical" name="LHARTREE"> T  </i>
   <i type="int" name="IBSE">     0</i>
   <i type="logical" name="LTCTE"> F  </i>
   <i type="logical" name="LTETE"> F  </i>
   <i type="logical" name="LFXCEPS"> F  </i>
   <i type="logical" name="L2ORDER"> F  </i>
   <i type="logical" name="LUSEW"> F  </i>
   <i name="ENCUTGW">     -2.00000000</i>
   <i name="ENCUTGWSOFT">     -2.00000000</i>
   <i name="ENCUTLF">     -1.00000000</i>
   <i type="int" name="LMAXMP2">    -1</i>
   <i name="SCISSOR">      0.00000000</i>
   <i type="int" name="NOMEGA">     0</i>
   <i type="int" name="NOMEGAR">     0</i>
   <i type="int" name="NBANDSGW">    -1</i>
   <i type="int" name="NBANDSO">    -1</i>
   <i type="int" name="NBANDSV">    -1</i>
   <i name="OPTEMAX">      0.00000000</i>
   <i type="int" name="NELM">     1</i>
   <i type="int" name="DIM">     3</i>
   <i type="int" name="ANTIRES">     0</i>
   <i name="OMEGAMAX">    -30.00000000</i>
   <i name="OMEGATL">   -200.00000000</i>
   <i type="int" name="OMEGAGRID">     0</i>
   <i name="CSHIFT">     -0.10000000</i>
   <i type="logical" name="SELFENERGY"> F  </i>
   <i type="logical" name="LSPECTRAL"> F  </i>
   <i type="logical" name="ODDONLYGW"> F  </i>
   <i type="logical" name="EVENONLYGW"> F  </i>
   <i type="int" name="NKREDLFX">     1</i>
   <i type="int" name="NKREDLFY">     1</i>
   <i type="int" name="NKREDLFZ">     1</i>
   <i type="int" name="MAXMEM">  1800</i>
   <i type="int" name="TELESCOPE">     0</i>
  </separator>
 </parameters>
 <atominfo>
  <atoms>       4 </atoms>
  <types>       1 </types>
  <array name="atoms" >
   <dimension dim="1">ion</dimension>
   <field type="string">element</field>
   <field type="int">atomtype</field>
   <set>
    <rc><c>C </c><c>   1</c></rc>
    <rc><c>C </c><c>   1</c></rc>
    <rc><c>C </c><c>   1</c></rc>
    <rc><c>C </c><c>   1</c></rc>
   </set>
  </array>
  <array name="atomtypes" >
   <dimension dim="1">type</dimension>
   <field type="int">atomspertype</field>
   <field type="string">element</field>
   <field>mass</field>
   <field>valence</field>
   <field type="string">pseudopotential</field>
   <set>
    <rc><c>   4</c><c>C </c><c>     12.01100000</c><c>      4.00000000</c><c> PAW_PBE C 08Apr2002                    </c></rc>
   </set>
  </array>
 </atominfo>
 <structure name="initialpos" >
  <crystal>
   <varray name="basis" >
    <v>       2.46120000       0.00000000       0.00000000 </v>
    <v>      -1.23060000       2.13146172       0.00000000 </v>
    <v>       0.00000000       0.00000000       6.70790000 </v>
   </varray>
   <i name="volume">     35.18933212 </i>
   <varray name="rec_basis" >
    <v>       0.40630587       0.23458080       0.00000000 </v>
    <v>       0.00000000       0.46916160       0.00000000 </v>
    <v>       0.00000000       0.00000000       0.14907795 </v>
   </varray>
  </crystal>
  <varray name="positions" >
   <v>       0.00000000       0.00000000       0.00000000 </v>
   <v>       0.33333333       0.66666667       0.00000000 </v>
   <v>       0.33333333       0.66666667       0.50000000 </v>
   <v>       0.66666667       0.33333333       0.50000000 </v>
  </varray>
 </structure>
 <calculation>
  <scstep>
   <time name="dav">    2.13    2.13</time>
   <time name="total">    2.35    2.36</time>
   <energy>
    <i name="alphaZ">     37.04766603 </i>
    <i name="ewald">   -460.60042082 </i>
    <i name="hartreedc">   -148.78490797 </i>
    <i name="XCdc">     56.10991001 </i>
    <i name="pawpsdc">    150.95130483 </i>
    <i name="pawaedc">   -155.51722924 </i>
    <i name="eentropy">     -0.00094470 </i>
    <i name="bandstr">    -57.00896352 </i>
    <i name="atom">    585.87374805 </i>
    <i name="e_fr_energy">      8.07016267 </i>
    <i name="e_wo_entrp">      8.07110738 </i>
    <i name="e_0_energy">      8.07047757 </i>
   </energy>
  </scstep>
  <scstep>
   <time name="dav">    2.49    2.49</time>
   <time name="total">    2.50    2.50</time>
   <energy>
    <i name="e_fr_energy">    -35.60378432 </i>
    <i name="e_wo_entrp">    -35.60379779 </i>
    <i name="e_0_energy">    -35.60378881 </i>
   </energy>
  </scstep>
  <scstep>
   <time name="dav">    2.53    2.53</time>
   <time name="total">    2.54    2.55</time>
   <energy>
    <i name="e_fr_energy">    -36.98068519 </i>
    <i name="e_wo_entrp">    -36.98069865 </i>
    <i name="e_0_energy">    -36.98068968 </i>
   </energy>
  </scstep>
  <scstep>
   <time name="dav">    2.35    2.35</time>
   <time name="total">    2.35    2.36</time>
   <energy>
    <i name="e_fr_energy">    -36.99196571 </i>
    <i name="e_wo_entrp">    -36.99197917 </i>
    <i name="e_0_energy">    -36.99197020 </i>
   </energy>
  </scstep>
  <scstep>
   <time name="dav">    2.52    2.53</time>
   <time name="total">    2.72    2.73</time>
   <energy>
    <i name="e_fr_energy">    -36.99216921 </i>
    <i name="e_wo_entrp">    -36.99218267 </i>
    <i name="e_0_energy">    -36.99217370 </i>
   </energy>
  </scstep>
  <scstep>
   <time name="dav">    2.17    2.17</time>
   <time name="total">    2.58    2.59</time>
   <energy>
    <i name="e_fr_energy">    -36.68928754 </i>
    <i name="e_wo_entrp">    -36.68936843 </i>
    <i name="e_0_energy">    -36.68931450 </i>
   </energy>
  </scstep>
  <scstep>
   <time name="dav">    2.20    2.20</time>
   <time name="total">    2.60    2.62</time>
   <energy>
    <i name="e_fr_energy">    -36.72172543 </i>
    <i name="e_wo_entrp">    -36.72203312 </i>
    <i name="e_0_energy">    -36.72182800 </i>
   </energy>
  </scstep>
  <scstep>
   <time name="dav">    2.27    2.27</time>
   <time name="total">    2.67    2.69</time>
   <energy>
    <i name="e_fr_energy">    -36.66617984 </i>
    <i name="e_wo_entrp">    -36.66636798 </i>
    <i name="e_0_energy">    -36.66624255 </i>
   </energy>
  </scstep>
  <scstep>
   <time name="dav">    2.21    2.21</time>
   <time name="total">    2.61    2.63</time>
   <energy>
    <i name="e_fr_energy">    -36.67995819 </i>
    <i name="e_wo_entrp">    -36.68016121 </i>
    <i name="e_0_energy">    -36.68002586 </i>
   </energy>
  </scstep>
  <scstep>
   <time name="dav">    2.35    2.35</time>
   <time name="total">    2.75    2.79</time>
   <energy>
    <i name="e_fr_energy">    -36.68087611 </i>
    <i name="e_wo_entrp">    -36.68096701 </i>
    <i name="e_0_energy">    -36.68090641 </i>
   </energy>
  </scstep>
  <scstep>
   <time name="dav">    2.18    2.19</time>
   <time name="total">    2.59    2.60</time>
   <energy>
    <i name="e_fr_energy">    -36.68116435 </i>
    <i name="e_wo_entrp">    -36.68131864 </i>
    <i name="e_0_energy">    -36.68121578 </i>
   </energy>
  </scstep>
  <scstep>
   <time name="dav">    1.98    1.98</time>
   <time name="total">    2.20    2.21</time>
   <energy>
    <i name="alphaZ">     37.04766603 </i>
    <i name="ewald">   -460.60042082 </i>
    <i name="hartreedc">   -181.22536641 </i>
    <i name="XCdc">     57.54877278 </i>
    <i name="pawpsdc">    273.74930179 </i>
    <i name="pawaedc">   -278.37679734 </i>
    <i name="eentropy">      0.00016765 </i>
    <i name="bandstr">    -70.69829107 </i>
    <i name="atom">    585.87374805 </i>
    <i name="e_fr_energy">    -36.68121934 </i>
    <i name="e_wo_entrp">    -36.68138698 </i>
    <i name="e_0_energy">    -36.68127522 </i>
   </energy>
  </scstep>
  <parameters_embedded>
   <separator name="dft+d2" >
    <i type="logical" name="LVDW"> F  </i>
   </separator>
  </parameters_embedded>
  <structure>
   <crystal>
    <varray name="basis" >
     <v>       2.46120000       0.00000000       0.00000000 </v>
     <v>      -1.23060000       2.13146172       0.00000000 </v>
     <v>       0.00000000       0.00000000       6.70790000 </v>
    </varray>
    <i name="volume">     35.18933212 </i>
    <varray name="rec_basis" >
     <v>       0.40630587       0.23458080       0.00000000 </v>
     <v>       0.00000000       0.46916160       0.00000000 </v>
     <v>       0.00000000       0.00000000       0.14907795 </v>
    </varray>
   </crystal>
   <varray name="positions" >
    <v>       0.00000000       0.00000000       0.00000000 </v>
    <v>       0.33333333       0.66666667       0.00000000 </v>
    <v>       0.33333333       0.66666667       0.50000000 </v>
    <v>       0.66666667       0.33333333       0.50000000 </v>
   </varray>
  </structure>
  <varray name="forces" >
   <v>       0.00000000       0.00000000       0.00000000 </v>
   <v>       0.00000000       0.00000000       0.00000000 </v>
   <v>       0.00000000       0.00000000       0.00000000 </v>
   <v>       0.00000000       0.00000000       0.00000000 </v>
  </varray>
  <varray name="stress" >
   <v>    -328.03343732       0.00000000       0.00000000 </v>
   <v>       0.00000000    -328.03343732       0.00000000 </v>
   <v>       0.00000000       0.00000000    -371.63576516 </v>
  </varray>
  <energy>
   <i name="e_fr_energy">    -36.68121934 </i>
   <i name="e_wo_entrp">    -36.68127522 </i>
   <i name="e_0_energy">      0.00016765 </i>
  </energy>
  <time name="totalsc">   31.63   31.88</time>
  <eigenvalues>
   <array>
    <dimension dim="1">band</dimension>
    <dimension dim="2">kpoint</dimension>
    <dimension dim="3">spin</dimension>
    <field>eigene</field>
    <field>occ</field>
    <set>
     <set comment="spin 1">
      <set comment="kpoint 1">
       <r>  -15.1373    1.0000 </r>
       <r>  -14.8439    1.0000 </r>
       <r>   -3.7813    1.0000 </r>
       <r>   -1.9051    1.0000 </r>
       <r>    1.8281    1.0000 </r>
       <r>    1.8282    1.0000 </r>
       <r>    1.9097    1.0000 </r>
       <r>    1.9097    1.0000 </r>
       <r>    9.0206    0.0000 </r>
       <r>   13.3841    0.0000 </r>
       <r>   13.3841    0.0000 </r>
       <r>   13.4299    0.0000 </r>
       <r>   13.4299    0.0000 </r>
       <r>   16.1724    0.0000 </r>
      </set>
      <set comment="kpoint 2">
       <r>  -14.4713    1.0000 </r>
       <r>  -14.1905    1.0000 </r>
       <r>   -2.9985    1.0000 </r>
       <r>   -1.1490    1.0000 </r>
       <r>   -0.4645    1.0000 </r>
       <r>   -0.4544    1.0000 </r>
       <r>    0.6956    1.0000 </r>
       <r>    0.7790    1.0000 </r>
       <r>    9.8366    0.0000 </r>
       <r>   13.2669    0.0000 </r>
       <r>   13.4275    0.0000 </r>
       <r>   14.2780    0.0000 </r>
       <r>   14.7469    0.0000 </r>
       <r>   16.1657    0.0000 </r>
      </set>
      <set comment="kpoint 3">
       <r>  -12.5106    1.0000 </r>
       <r>  -12.2647    1.0000 </r>
       <r>   -5.0402    1.0000 </r>
       <r>   -4.8876    1.0000 </r>
       <r>   -1.0379    1.0000 </r>
       <r>   -0.8886    1.0000 </r>
       <r>   -0.6813    1.0000 </r>
       <r>    1.0189    1.0000 </r>
       <r>    9.4242    0.0000 </r>
       <r>   10.3320    0.0000 </r>
       <r>   12.1714    0.0000 </r>
       <r>   12.3488    0.0000 </r>
       <r>   12.7208    0.0000 </r>
       <r>   17.7282    0.0000 </r>
      </set>
      <set comment="kpoint 4">
       <r>   -9.7744    1.0000 </r>
       <r>   -9.6761    1.0000 </r>
       <r>   -8.6432    1.0000 </r>
       <r>   -8.5846    1.0000 </r>
       <r>   -1.6624    1.0000 </r>
       <r>   -1.4635    1.0000 </r>
       <r>    1.9958    1.0000 </r>
       <r>    2.6553    1.0000 </r>
       <r>    6.3302    0.0000 </r>
       <r>    7.0097    0.0000 </r>
       <r>   11.8771    0.0000 </r>
       <r>   12.2747    0.0000 </r>
       <r>   16.1418    0.0000 </r>
       <r>   16.2462    0.0000 </r>
      </set>
      <set comment="kpoint 5">
       <r>  -13.1507    1.0000 </r>
       <r>  -12.8947    1.0000 </r>
       <r>   -3.0554    1.0000 </r>
       <r>   -2.9887    1.0000 </r>
       <r>   -1.5703    1.0000 </r>
       <r>   -1.5560    1.0000 </r>
       <r>   -1.4489    1.0000 </r>
       <r>    0.3342    1.0000 </r>
       <r>   11.1397    0.0000 </r>
       <r>   11.4783    0.0000 </r>
       <r>   11.6110    0.0000 </r>
       <r>   15.0275    0.0000 </r>
       <r>   15.2380    0.0000 </r>
       <r>   16.4450    0.0000 </r>
      </set>
      <set comment="kpoint 6">
       <r>  -10.6270    1.0000 </r>
       <r>  -10.4187    1.0000 </r>
       <r>   -6.8602    1.0000 </r>
       <r>   -6.7053    1.0000 </r>
       <r>   -3.3181    1.0000 </r>
       <r>   -3.2275    1.0000 </r>
       <r>    1.4535    1.0000 </r>
       <r>    2.7955    1.0000 </r>
       <r>    7.0405    0.0000 </r>
       <r>    7.7763    0.0000 </r>
       <r>   14.5781    0.0000 </r>
       <r>   14.7088    0.0000 </r>
       <r>   15.2179    0.0000 </r>
       <r>   17.3382    0.0000 </r>
      </set>
      <set comment="kpoint 7">
       <r>   -8.0820    1.0000 </r>
       <r>   -8.0431    1.0000 </r>
       <r>   -8.0431    1.0000 </r>
       <r>   -7.9001    1.0000 </r>
       <r>   -5.8430    1.0000 </r>
       <r>   -5.8430    1.0000 </r>
       <r>    4.2092    1.0000 </r>
       <r>    4.6957    1.0000 </r>
       <r>    4.6957    1.0000 </r>
       <r>    5.6767    0.0000 </r>
       <r>   15.9118    0.0000 </r>
       <r>   15.9118    0.0000 </r>
       <r>   17.2249    0.0000 </r>
       <r>   17.4912    0.0000 </r>
      </set>
      <set comment="kpoint 8">
       <r>  -15.1190    1.0000 </r>
       <r>  -14.8651    1.0000 </r>
       <r>   -3.6599    1.0000 </r>
       <r>   -2.0602    1.0000 </r>
       <r>    1.8021    1.0000 </r>
       <r>    1.8021    1.0000 </r>
       <r>    1.9010    1.0000 </r>
       <r>    1.9010    1.0000 </r>
       <r>    9.3636    0.0000 </r>
       <r>   13.3892    0.0000 </r>
       <r>   13.3892    0.0000 </r>
       <r>   13.4270    0.0000 </r>
       <r>   13.4270    0.0000 </r>
       <r>   14.8998    0.0000 </r>
      </set>
      <set comment="kpoint 9">
       <r>  -14.4535    1.0000 </r>
       <r>  -14.2093    1.0000 </r>
       <r>   -2.8730    1.0000 </r>
       <r>   -1.3035    1.0000 </r>
       <r>   -0.4708    1.0000 </r>
       <r>   -0.4600    1.0000 </r>
       <r>    0.7040    1.0000 </r>
       <r>    0.7472    1.0000 </r>
       <r>   10.1682    0.0000 </r>
       <r>   13.2797    0.0000 </r>
       <r>   13.4127    0.0000 </r>
       <r>   14.3432    0.0000 </r>
       <r>   14.6642    0.0000 </r>
       <r>   15.5747    0.0000 </r>
      </set>
      <set comment="kpoint 10">
       <r>  -12.4920    1.0000 </r>
       <r>  -12.2822    1.0000 </r>
       <r>   -5.0315    1.0000 </r>
       <r>   -4.8875    1.0000 </r>
       <r>   -1.0171    1.0000 </r>
       <r>   -0.8864    1.0000 </r>
       <r>   -0.5815    1.0000 </r>
       <r>    0.8552    1.0000 </r>
       <r>    9.4641    0.0000 </r>
       <r>   10.2368    0.0000 </r>
       <r>   12.2944    0.0000 </r>
       <r>   12.4525    0.0000 </r>
       <r>   12.8073    0.0000 </r>
       <r>   17.2401    0.0000 </r>
      </set>
      <set comment="kpoint 11">
       <r>   -9.7663    1.0000 </r>
       <r>   -9.6816    1.0000 </r>
       <r>   -8.6397    1.0000 </r>
       <r>   -8.5914    1.0000 </r>
       <r>   -1.6573    1.0000 </r>
       <r>   -1.4656    1.0000 </r>
       <r>    2.0551    1.0000 </r>
       <r>    2.6345    1.0000 </r>
       <r>    6.3182    0.0000 </r>
       <r>    6.9197    0.0000 </r>
       <r>   11.9023    0.0000 </r>
       <r>   12.2488    0.0000 </r>
       <r>   16.4102    0.0000 </r>
       <r>   16.4431    0.0000 </r>
      </set>
      <set comment="kpoint 12">
       <r>  -13.1342    1.0000 </r>
       <r>  -12.9119    1.0000 </r>
       <r>   -3.0515    1.0000 </r>
       <r>   -3.0073    1.0000 </r>
       <r>   -1.5701    1.0000 </r>
       <r>   -1.5478    1.0000 </r>
       <r>   -1.3247    1.0000 </r>
       <r>    0.1750    1.0000 </r>
       <r>   11.1706    0.0000 </r>
       <r>   11.5696    0.0000 </r>
       <r>   11.8020    0.0000 </r>
       <r>   15.0249    0.0000 </r>
       <r>   15.2374    0.0000 </r>
       <r>   16.4576    0.0000 </r>
      </set>
      <set comment="kpoint 13">
       <r>  -10.6171    1.0000 </r>
       <r>  -10.4399    1.0000 </r>
       <r>   -6.8431    1.0000 </r>
       <r>   -6.7111    1.0000 </r>
       <r>   -3.3434    1.0000 </r>
       <r>   -3.2441    1.0000 </r>
       <r>    1.5281    1.0000 </r>
       <r>    2.7057    1.0000 </r>
       <r>    7.0973    0.0000 </r>
       <r>    7.7400    0.0000 </r>
       <r>   14.6650    0.0000 </r>
       <r>   14.7826    0.0000 </r>
       <r>   15.2108    0.0000 </r>
       <r>   17.0349    0.0000 </r>
      </set>
      <set comment="kpoint 14">
       <r>   -8.0722    1.0000 </r>
       <r>   -8.0438    1.0000 </r>
       <r>   -8.0438    1.0000 </r>
       <r>   -7.9127    1.0000 </r>
       <r>   -5.8468    1.0000 </r>
       <r>   -5.8468    1.0000 </r>
       <r>    4.2922    1.0000 </r>
       <r>    4.6893    1.0000 </r>
       <r>    4.6893    1.0000 </r>
       <r>    5.5335    0.0000 </r>
       <r>   15.5693    0.0000 </r>
       <r>   15.5693    0.0000 </r>
       <r>   17.4361    0.0000 </r>
       <r>   18.0005    0.0000 </r>
      </set>
      <set comment="kpoint 15">
       <r>  -15.0678    1.0000 </r>
       <r>  -14.9220    1.0000 </r>
       <r>   -3.3999    1.0000 </r>
       <r>   -2.4667    1.0000 </r>
       <r>    1.8024    1.0000 </r>
       <r>    1.8024    1.0000 </r>
       <r>    1.9004    1.0000 </r>
       <r>    1.9005    1.0000 </r>
       <r>   10.3134    0.0000 </r>
       <r>   13.3185    0.0000 </r>
       <r>   13.3458    0.0000 </r>
       <r>   13.3458    0.0000 </r>
       <r>   13.4198    0.0000 </r>
       <r>   13.4198    0.0000 </r>
      </set>
      <set comment="kpoint 16">
       <r>  -14.4040    1.0000 </r>
       <r>  -14.2630    1.0000 </r>
       <r>   -2.5826    1.0000 </r>
       <r>   -1.6709    1.0000 </r>
       <r>   -0.4600    1.0000 </r>
       <r>   -0.4478    1.0000 </r>
       <r>    0.7151    1.0000 </r>
       <r>    0.7515    1.0000 </r>
       <r>   11.0988    0.0000 </r>
       <r>   13.2726    0.0000 </r>
       <r>   13.3991    0.0000 </r>
       <r>   14.0538    0.0000 </r>
       <r>   14.4474    0.0000 </r>
       <r>   14.7362    0.0000 </r>
      </set>
      <set comment="kpoint 17">
       <r>  -12.4482    1.0000 </r>
       <r>  -12.3278    1.0000 </r>
       <r>   -5.0105    1.0000 </r>
       <r>   -4.9087    1.0000 </r>
       <r>   -0.9675    1.0000 </r>
       <r>   -0.9441    1.0000 </r>
       <r>   -0.3012    1.0000 </r>
       <r>    0.5110    1.0000 </r>
       <r>    9.6548    0.0000 </r>
       <r>   10.0211    0.0000 </r>
       <r>   12.3832    0.0000 </r>
       <r>   12.5159    0.0000 </r>
       <r>   13.5350    0.0000 </r>
       <r>   16.1179    0.0000 </r>
      </set>
      <set comment="kpoint 18">
       <r>   -9.7462    1.0000 </r>
       <r>   -9.6974    1.0000 </r>
       <r>   -8.6252    1.0000 </r>
       <r>   -8.5966    1.0000 </r>
       <r>   -1.6345    1.0000 </r>
       <r>   -1.6019    1.0000 </r>
       <r>    2.2421    1.0000 </r>
       <r>    2.5725    1.0000 </r>
       <r>    6.3905    0.0000 </r>
       <r>    6.7054    0.0000 </r>
       <r>   11.9929    0.0000 </r>
       <r>   12.1854    0.0000 </r>
       <r>   16.9559    0.0000 </r>
       <r>   17.1203    0.0000 </r>
      </set>
      <set comment="kpoint 19">
       <r>  -13.0885    1.0000 </r>
       <r>  -12.9614    1.0000 </r>
       <r>   -3.0573    1.0000 </r>
       <r>   -3.0216    1.0000 </r>
       <r>   -1.5872    1.0000 </r>
       <r>   -1.5609    1.0000 </r>
       <r>   -1.0361    1.0000 </r>
       <r>   -0.1669    1.0000 </r>
       <r>   11.2642    0.0000 </r>
       <r>   11.4849    0.0000 </r>
       <r>   12.6494    0.0000 </r>
       <r>   14.9182    0.0000 </r>
       <r>   15.2333    0.0000 </r>
       <r>   15.4457    0.0000 </r>
      </set>
      <set comment="kpoint 20">
       <r>  -10.5806    1.0000 </r>
       <r>  -10.4771    1.0000 </r>
       <r>   -6.8201    1.0000 </r>
       <r>   -6.7386    1.0000 </r>
       <r>   -3.3285    1.0000 </r>
       <r>   -3.2591    1.0000 </r>
       <r>    1.7832    1.0000 </r>
       <r>    2.4415    1.0000 </r>
       <r>    7.1967    0.0000 </r>
       <r>    7.5591    0.0000 </r>
       <r>   14.7452    0.0000 </r>
       <r>   14.9288    0.0000 </r>
       <r>   15.4475    0.0000 </r>
       <r>   16.5509    0.0000 </r>
      </set>
      <set comment="kpoint 21">
       <r>   -8.0409    1.0000 </r>
       <r>   -8.0409    1.0000 </r>
       <r>   -8.0347    1.0000 </r>
       <r>   -7.9481    1.0000 </r>
       <r>   -5.8589    1.0000 </r>
       <r>   -5.8589    1.0000 </r>
       <r>    4.5574    1.0000 </r>
       <r>    4.7273    1.0006 </r>
       <r>    4.7273    1.0006 </r>
       <r>    5.2563    0.0000 </r>
       <r>   15.1302    0.0000 </r>
       <r>   15.1302    0.0000 </r>
       <r>   18.0248    0.0000 </r>
       <r>   18.9340    0.0000 </r>
      </set>
      <set comment="kpoint 22">
       <r>  -14.9956    1.0000 </r>
       <r>  -14.9956    1.0000 </r>
       <r>   -2.9653    1.0000 </r>
       <r>   -2.9653    1.0000 </r>
       <r>    1.9498    1.0000 </r>
       <r>    1.9498    1.0000 </r>
       <r>    1.9499    1.0000 </r>
       <r>    1.9499    1.0000 </r>
       <r>   11.6947    0.0000 </r>
       <r>   11.6947    0.0000 </r>
       <r>   13.4388    0.0000 </r>
       <r>   13.4388    0.0000 </r>
       <r>   13.4389    0.0000 </r>
       <r>   13.4389    0.0000 </r>
      </set>
      <set comment="kpoint 23">
       <r>  -14.3345    1.0000 </r>
       <r>  -14.3345    1.0000 </r>
       <r>   -2.1616    1.0000 </r>
       <r>   -2.1616    1.0000 </r>
       <r>   -0.4735    1.0000 </r>
       <r>   -0.4735    1.0000 </r>
       <r>    0.7016    1.0000 </r>
       <r>    0.7016    1.0000 </r>
       <r>   12.4182    0.0000 </r>
       <r>   12.4182    0.0000 </r>
       <r>   13.3777    0.0000 </r>
       <r>   13.3777    0.0000 </r>
       <r>   14.5685    0.0000 </r>
       <r>   14.5685    0.0000 </r>
      </set>
      <set comment="kpoint 24">
       <r>  -12.3878    1.0000 </r>
       <r>  -12.3878    1.0000 </r>
       <r>   -4.9761    1.0000 </r>
       <r>   -4.9761    1.0000 </r>
       <r>   -0.9544    1.0000 </r>
       <r>   -0.9544    1.0000 </r>
       <r>    0.0767    1.0000 </r>
       <r>    0.0767    1.0000 </r>
       <r>    9.8373    0.0000 </r>
       <r>    9.8373    0.0000 </r>
       <r>   12.4512    0.0000 </r>
       <r>   12.4512    0.0000 </r>
       <r>   14.7389    0.0000 </r>
       <r>   14.7389    0.0000 </r>
      </set>
      <set comment="kpoint 25">
       <r>   -9.7240    1.0000 </r>
       <r>   -9.7239    1.0000 </r>
       <r>   -8.6260    1.0000 </r>
       <r>   -8.6260    1.0000 </r>
       <r>   -1.6284    1.0000 </r>
       <r>   -1.6284    1.0000 </r>
       <r>    2.3547    1.0000 </r>
       <r>    2.3547    1.0000 </r>
       <r>    6.4767    0.0000 </r>
       <r>    6.4767    0.0000 </r>
       <r>   12.0847    0.0000 </r>
       <r>   12.0848    0.0000 </r>
       <r>   17.4808    0.0000 </r>
       <r>   17.4808    0.0000 </r>
      </set>
      <set comment="kpoint 26">
       <r>  -13.0250    1.0000 </r>
       <r>  -13.0250    1.0000 </r>
       <r>   -3.0323    1.0000 </r>
       <r>   -3.0323    1.0000 </r>
       <r>   -1.5719    1.0000 </r>
       <r>   -1.5719    1.0000 </r>
       <r>   -0.6285    1.0000 </r>
       <r>   -0.6284    1.0000 </r>
       <r>   11.3583    0.0000 </r>
       <r>   11.3583    0.0000 </r>
       <r>   13.8414    0.0000 </r>
       <r>   13.8414    0.0000 </r>
       <r>   15.2141    0.0000 </r>
       <r>   15.2141    0.0000 </r>
      </set>
      <set comment="kpoint 27">
       <r>  -10.5307    1.0000 </r>
       <r>  -10.5307    1.0000 </r>
       <r>   -6.7844    1.0000 </r>
       <r>   -6.7844    1.0000 </r>
       <r>   -3.2774    1.0000 </r>
       <r>   -3.2774    1.0000 </r>
       <r>    2.0899    1.0000 </r>
       <r>    2.0899    1.0000 </r>
       <r>    7.3999    0.0000 </r>
       <r>    7.3999    0.0000 </r>
       <r>   14.8713    0.0000 </r>
       <r>   14.8713    0.0000 </r>
       <r>   15.9960    0.0000 </r>
       <r>   15.9960    0.0000 </r>
      </set>
      <set comment="kpoint 28">
       <r>   -8.0335    1.0000 </r>
       <r>   -8.0335    1.0000 </r>
       <r>   -7.9844    1.0000 </r>
       <r>   -7.9844    1.0000 </r>
       <r>   -5.8504    1.0000 </r>
       <r>   -5.8504    1.0000 </r>
       <r>    4.7416    1.0022 </r>
       <r>    4.7416    1.0022 </r>
       <r>    4.9010    0.0011 </r>
       <r>    4.9010    0.0011 </r>
       <r>   14.9584    0.0000 </r>
       <r>   14.9584    0.0000 </r>
       <r>   18.8111    0.0000 </r>
       <r>   18.8112    0.0000 </r>
      </set>
     </set>
     <set comment="spin 2">
      <set comment="kpoint 1">
       <r>  -15.1069    1.0000 </r>
       <r>  -14.8143    1.0000 </r>
       <r>   -3.7144    1.0000 </r>
       <r>   -1.8295    1.0000 </r>
       <r>    1.8408    1.0000 </r>
       <r>    1.8408    1.0000 </r>
       <r>    1.9237    1.0000 </r>
       <r>    1.9238    1.0000 </r>
       <r>    9.0551    0.0000 </r>
       <r>   13.3961    0.0000 </r>
       <r>   13.3961    0.0000 </r>
       <r>   13.4413    0.0000 </r>
       <r>   13.4413    0.0000 </r>
       <r>   15.6450    0.0000 </r>
      </set>
      <set comment="kpoint 2">
       <r>  -14.4412    1.0000 </r>
       <r>  -14.1610    1.0000 </r>
       <r>   -2.9312    1.0000 </r>
       <r>   -1.0716    1.0000 </r>
       <r>   -0.4468    1.0000 </r>
       <r>   -0.4365    1.0000 </r>
       <r>    0.7089    1.0000 </r>
       <r>    0.7914    1.0000 </r>
       <r>    9.8709    0.0000 </r>
       <r>   13.2907    0.0000 </r>
       <r>   13.4461    0.0000 </r>
       <r>   14.3598    0.0000 </r>
       <r>   14.8571    0.0000 </r>
       <r>   16.1799    0.0000 </r>
      </set>
      <set comment="kpoint 3">
       <r>  -12.4814    1.0000 </r>
       <r>  -12.2357    1.0000 </r>
       <r>   -5.0177    1.0000 </r>
       <r>   -4.8651    1.0000 </r>
       <r>   -1.0249    1.0000 </r>
       <r>   -0.8764    1.0000 </r>
       <r>   -0.6122    1.0000 </r>
       <r>    1.1008    1.0000 </r>
       <r>    9.4931    0.0000 </r>
       <r>   10.4340    0.0000 </r>
       <r>   12.1940    0.0000 </r>
       <r>   12.4005    0.0000 </r>
       <r>   12.7475    0.0000 </r>
       <r>   17.7976    0.0000 </r>
      </set>
      <set comment="kpoint 4">
       <r>   -9.7480    1.0000 </r>
       <r>   -9.6371    1.0000 </r>
       <r>   -8.6287    1.0000 </r>
       <r>   -8.5590    1.0000 </r>
       <r>   -1.6497    1.0000 </r>
       <r>   -1.4510    1.0000 </r>
       <r>    2.0389    1.0000 </r>
       <r>    2.7865    1.0000 </r>
       <r>    6.3367    0.0000 </r>
       <r>    7.1432    0.0000 </r>
       <r>   11.9144    0.0000 </r>
       <r>   12.3106    0.0000 </r>
       <r>   16.1330    0.0000 </r>
       <r>   16.3265    0.0000 </r>
      </set>
      <set comment="kpoint 5">
       <r>  -13.1211    1.0000 </r>
       <r>  -12.8656    1.0000 </r>
       <r>   -3.0338    1.0000 </r>
       <r>   -2.9652    1.0000 </r>
       <r>   -1.5576    1.0000 </r>
       <r>   -1.5424    1.0000 </r>
       <r>   -1.3801    1.0000 </r>
       <r>    0.4139    1.0000 </r>
       <r>   11.2231    0.0000 </r>
       <r>   11.5125    0.0000 </r>
       <r>   11.7074    0.0000 </r>
       <r>   15.0523    0.0000 </r>
       <r>   15.2480    0.0000 </r>
       <r>   16.4909    0.0000 </r>
      </set>
      <set comment="kpoint 6">
       <r>  -10.5984    1.0000 </r>
       <r>  -10.3896    1.0000 </r>
       <r>   -6.8364    1.0000 </r>
       <r>   -6.6808    1.0000 </r>
       <r>   -3.3033    1.0000 </r>
       <r>   -3.2126    1.0000 </r>
       <r>    1.5194    1.0000 </r>
       <r>    2.8915    1.0000 </r>
       <r>    7.1065    0.0000 </r>
       <r>    7.8692    0.0000 </r>
       <r>   14.5928    0.0000 </r>
       <r>   14.7662    0.0000 </r>
       <r>   15.2435    0.0000 </r>
       <r>   17.4080    0.0000 </r>
      </set>
      <set comment="kpoint 7">
       <r>   -8.1075    1.0000 </r>
       <r>   -7.9586    1.0000 </r>
       <r>   -7.9586    1.0000 </r>
       <r>   -7.9248    1.0000 </r>
       <r>   -5.8326    1.0000 </r>
       <r>   -5.8326    1.0000 </r>
       <r>    4.1137    1.0000 </r>
       <r>    4.9564   -0.0095 </r>
       <r>    4.9564   -0.0095 </r>
       <r>    5.5746    0.0000 </r>
       <r>   15.9595    0.0000 </r>
       <r>   15.9595    0.0000 </r>
       <r>   17.1808    0.0000 </r>
       <r>   17.5737    0.0000 </r>
      </set>
      <set comment="kpoint 8">
       <r>  -15.0886    1.0000 </r>
       <r>  -14.8355    1.0000 </r>
       <r>   -3.5925    1.0000 </r>
       <r>   -1.9855    1.0000 </r>
       <r>    1.8147    1.0000 </r>
       <r>    1.8148    1.0000 </r>
       <r>    1.9149    1.0000 </r>
       <r>    1.9149    1.0000 </r>
       <r>    9.3995    0.0000 </r>
       <r>   13.4011    0.0000 </r>
       <r>   13.4011    0.0000 </r>
       <r>   13.4385    0.0000 </r>
       <r>   13.4385    0.0000 </r>
       <r>   14.9498    0.0000 </r>
      </set>
      <set comment="kpoint 9">
       <r>  -14.4234    1.0000 </r>
       <r>  -14.1798    1.0000 </r>
       <r>   -2.8053    1.0000 </r>
       <r>   -1.2272    1.0000 </r>
       <r>   -0.4529    1.0000 </r>
       <r>   -0.4422    1.0000 </r>
       <r>    0.7173    1.0000 </r>
       <r>    0.7598    1.0000 </r>
       <r>   10.2042    0.0000 </r>
       <r>   13.3041    0.0000 </r>
       <r>   13.4316    0.0000 </r>
       <r>   14.4220    0.0000 </r>
       <r>   14.7738    0.0000 </r>
       <r>   15.6399    0.0000 </r>
      </set>
      <set comment="kpoint 10">
       <r>  -12.4627    1.0000 </r>
       <r>  -12.2532    1.0000 </r>
       <r>   -5.0091    1.0000 </r>
       <r>   -4.8650    1.0000 </r>
       <r>   -1.0044    1.0000 </r>
       <r>   -0.8740    1.0000 </r>
       <r>   -0.5118    1.0000 </r>
       <r>    0.9358    1.0000 </r>
       <r>    9.5358    0.0000 </r>
       <r>   10.3357    0.0000 </r>
       <r>   12.3185    0.0000 </r>
       <r>   12.5022    0.0000 </r>
       <r>   12.8361    0.0000 </r>
       <r>   17.3045    0.0000 </r>
      </set>
      <set comment="kpoint 11">
       <r>   -9.7391    1.0000 </r>
       <r>   -9.6437    1.0000 </r>
       <r>   -8.6243    1.0000 </r>
       <r>   -8.5664    1.0000 </r>
       <r>   -1.6447    1.0000 </r>
       <r>   -1.4531    1.0000 </r>
       <r>    2.1021    1.0000 </r>
       <r>    2.7584    1.0000 </r>
       <r>    6.3344    0.0000 </r>
       <r>    7.0458    0.0000 </r>
       <r>   11.9396    0.0000 </r>
       <r>   12.2851    0.0000 </r>
       <r>   16.4007    0.0000 </r>
       <r>   16.5263    0.0000 </r>
      </set>
      <set comment="kpoint 12">
       <r>  -13.1047    1.0000 </r>
       <r>  -12.8827    1.0000 </r>
       <r>   -3.0296    1.0000 </r>
       <r>   -2.9842    1.0000 </r>
       <r>   -1.5573    1.0000 </r>
       <r>   -1.5343    1.0000 </r>
       <r>   -1.2556    1.0000 </r>
       <r>    0.2538    1.0000 </r>
       <r>   11.2553    0.0000 </r>
       <r>   11.6728    0.0000 </r>
       <r>   11.8299    0.0000 </r>
       <r>   15.0500    0.0000 </r>
       <r>   15.2485    0.0000 </r>
       <r>   16.5084    0.0000 </r>
      </set>
      <set comment="kpoint 13">
       <r>  -10.5885    1.0000 </r>
       <r>  -10.4108    1.0000 </r>
       <r>   -6.8190    1.0000 </r>
       <r>   -6.6867    1.0000 </r>
       <r>   -3.3287    1.0000 </r>
       <r>   -3.2292    1.0000 </r>
       <r>    1.5952    1.0000 </r>
       <r>    2.7986    1.0000 </r>
       <r>    7.1662    0.0000 </r>
       <r>    7.8320    0.0000 </r>
       <r>   14.6854    0.0000 </r>
       <r>   14.8400    0.0000 </r>
       <r>   15.2345    0.0000 </r>
       <r>   17.0974    0.0000 </r>
      </set>
      <set comment="kpoint 14">
       <r>   -8.0978    1.0000 </r>
       <r>   -7.9591    1.0000 </r>
       <r>   -7.9591    1.0000 </r>
       <r>   -7.9374    1.0000 </r>
       <r>   -5.8364    1.0000 </r>
       <r>   -5.8364    1.0000 </r>
       <r>    4.1963    1.0000 </r>
       <r>    4.9504   -0.0135 </r>
       <r>    4.9504   -0.0135 </r>
       <r>    5.4322    0.0000 </r>
       <r>   15.6207    0.0000 </r>
       <r>   15.6207    0.0000 </r>
       <r>   17.3923    0.0000 </r>
       <r>   18.0772    0.0000 </r>
      </set>
      <set comment="kpoint 15">
       <r>  -15.0375    1.0000 </r>
       <r>  -14.8922    1.0000 </r>
       <r>   -3.3313    1.0000 </r>
       <r>   -2.3942    1.0000 </r>
       <r>    1.8151    1.0000 </r>
       <r>    1.8152    1.0000 </r>
       <r>    1.9143    1.0000 </r>
       <r>    1.9143    1.0000 </r>
       <r>   10.3527    0.0000 </r>
       <r>   13.3572    0.0000 </r>
       <r>   13.3572    0.0000 </r>
       <r>   13.3672    0.0000 </r>
       <r>   13.4314    0.0000 </r>
       <r>   13.4314    0.0000 </r>
      </set>
      <set comment="kpoint 16">
       <r>  -14.3740    1.0000 </r>
       <r>  -14.2334    1.0000 </r>
       <r>   -2.5138    1.0000 </r>
       <r>   -1.5971    1.0000 </r>
       <r>   -0.4422    1.0000 </r>
       <r>   -0.4297    1.0000 </r>
       <r>    0.7282    1.0000 </r>
       <r>    0.7643    1.0000 </r>
       <r>   11.1391    0.0000 </r>
       <r>   13.3011    0.0000 </r>
       <r>   13.4181    0.0000 </r>
       <r>   14.0854    0.0000 </r>
       <r>   14.5648    0.0000 </r>
       <r>   14.8290    0.0000 </r>
      </set>
      <set comment="kpoint 17">
       <r>  -12.4190    1.0000 </r>
       <r>  -12.2988    1.0000 </r>
       <r>   -4.9880    1.0000 </r>
       <r>   -4.8862    1.0000 </r>
       <r>   -0.9547    1.0000 </r>
       <r>   -0.9316    1.0000 </r>
       <r>   -0.2297    1.0000 </r>
       <r>    0.5881    1.0000 </r>
       <r>    9.7327    0.0000 </r>
       <r>   10.1138    0.0000 </r>
       <r>   12.4153    0.0000 </r>
       <r>   12.5525    0.0000 </r>
       <r>   13.5731    0.0000 </r>
       <r>   16.1720    0.0000 </r>
      </set>
      <set comment="kpoint 18">
       <r>   -9.7168    1.0000 </r>
       <r>   -9.6621    1.0000 </r>
       <r>   -8.6074    1.0000 </r>
       <r>   -8.5734    1.0000 </r>
       <r>   -1.6218    1.0000 </r>
       <r>   -1.5896    1.0000 </r>
       <r>    2.3018    1.0000 </r>
       <r>    2.6749    1.0000 </r>
       <r>    6.4341    0.0000 </r>
       <r>    6.8109    0.0000 </r>
       <r>   12.0301    0.0000 </r>
       <r>   12.2224    0.0000 </r>
       <r>   17.0446    0.0000 </r>
       <r>   17.1141    0.0000 </r>
      </set>
      <set comment="kpoint 19">
       <r>  -13.0590    1.0000 </r>
       <r>  -12.9322    1.0000 </r>
       <r>   -3.0353    1.0000 </r>
       <r>   -2.9986    1.0000 </r>
       <r>   -1.5744    1.0000 </r>
       <r>   -1.5475    1.0000 </r>
       <r>   -0.9654    1.0000 </r>
       <r>   -0.0912    1.0000 </r>
       <r>   11.3524    0.0000 </r>
       <r>   11.5832    0.0000 </r>
       <r>   12.6840    0.0000 </r>
       <r>   14.9514    0.0000 </r>
       <r>   15.2485    0.0000 </r>
       <r>   15.4909    0.0000 </r>
      </set>
      <set comment="kpoint 20">
       <r>  -10.5519    1.0000 </r>
       <r>  -10.4481    1.0000 </r>
       <r>   -6.7960    1.0000 </r>
       <r>   -6.7141    1.0000 </r>
       <r>   -3.3139    1.0000 </r>
       <r>   -3.2441    1.0000 </r>
       <r>    1.8541    1.0000 </r>
       <r>    2.5266    1.0000 </r>
       <r>    7.2722    0.0000 </r>
       <r>    7.6483    0.0000 </r>
       <r>   14.7805    0.0000 </r>
       <r>   14.9759    0.0000 </r>
       <r>   15.4774    0.0000 </r>
       <r>   16.6075    0.0000 </r>
      </set>
      <set comment="kpoint 21">
       <r>   -8.0600    1.0000 </r>
       <r>   -7.9729    1.0000 </r>
       <r>   -7.9563    1.0000 </r>
       <r>   -7.9563    1.0000 </r>
       <r>   -5.8485    1.0000 </r>
       <r>   -5.8485    1.0000 </r>
       <r>    4.4607    1.0000 </r>
       <r>    4.9892   -0.0007 </r>
       <r>    4.9892   -0.0007 </r>
       <r>    5.1567    0.0000 </r>
       <r>   15.1822    0.0000 </r>
       <r>   15.1822    0.0000 </r>
       <r>   17.9831    0.0000 </r>
       <r>   19.0576    0.0000 </r>
      </set>
      <set comment="kpoint 22">
       <r>  -14.9655    1.0000 </r>
       <r>  -14.9655    1.0000 </r>
       <r>   -2.8950    1.0000 </r>
       <r>   -2.8950    1.0000 </r>
       <r>    1.9630    1.0000 </r>
       <r>    1.9630    1.0000 </r>
       <r>    1.9630    1.0000 </r>
       <r>    1.9630    1.0000 </r>
       <r>   11.7383    0.0000 </r>
       <r>   11.7383    0.0000 </r>
       <r>   13.4503    0.0000 </r>
       <r>   13.4503    0.0000 </r>
       <r>   13.4503    0.0000 </r>
       <r>   13.4503    0.0000 </r>
      </set>
      <set comment="kpoint 23">
       <r>  -14.3047    1.0000 </r>
       <r>  -14.3047    1.0000 </r>
       <r>   -2.0905    1.0000 </r>
       <r>   -2.0905    1.0000 </r>
       <r>   -0.4555    1.0000 </r>
       <r>   -0.4555    1.0000 </r>
       <r>    0.7145    1.0000 </r>
       <r>    0.7145    1.0000 </r>
       <r>   12.4645    0.0000 </r>
       <r>   12.4645    0.0000 </r>
       <r>   13.3972    0.0000 </r>
       <r>   13.3972    0.0000 </r>
       <r>   14.6668    0.0000 </r>
       <r>   14.6668    0.0000 </r>
      </set>
      <set comment="kpoint 24">
       <r>  -12.3587    1.0000 </r>
       <r>  -12.3587    1.0000 </r>
       <r>   -4.9536    1.0000 </r>
       <r>   -4.9536    1.0000 </r>
       <r>   -0.9417    1.0000 </r>
       <r>   -0.9417    1.0000 </r>
       <r>    0.1507    1.0000 </r>
       <r>    0.1507    1.0000 </r>
       <r>    9.9227    0.0000 </r>
       <r>    9.9227    0.0000 </r>
       <r>   12.4856    0.0000 </r>
       <r>   12.4857    0.0000 </r>
       <r>   14.7836    0.0000 </r>
       <r>   14.7836    0.0000 </r>
      </set>
      <set comment="kpoint 25">
       <r>   -9.6917    1.0000 </r>
       <r>   -9.6917    1.0000 </r>
       <r>   -8.6054    1.0000 </r>
       <r>   -8.6054    1.0000 </r>
       <r>   -1.6160    1.0000 </r>
       <r>   -1.6160    1.0000 </r>
       <r>    2.4338    1.0000 </r>
       <r>    2.4338    1.0000 </r>
       <r>    6.5529    0.0000 </r>
       <r>    6.5529    0.0000 </r>
       <r>   12.1221    0.0000 </r>
       <r>   12.1221    0.0000 </r>
       <r>   17.5514    0.0000 </r>
       <r>   17.5514    0.0000 </r>
      </set>
      <set comment="kpoint 26">
       <r>  -12.9957    1.0000 </r>
       <r>  -12.9957    1.0000 </r>
       <r>   -3.0098    1.0000 </r>
       <r>   -3.0098    1.0000 </r>
       <r>   -1.5588    1.0000 </r>
       <r>   -1.5588    1.0000 </r>
       <r>   -0.5556    1.0000 </r>
       <r>   -0.5556    1.0000 </r>
       <r>   11.4511    0.0000 </r>
       <r>   11.4511    0.0000 </r>
       <r>   13.8844    0.0000 </r>
       <r>   13.8844    0.0000 </r>
       <r>   15.2343    0.0000 </r>
       <r>   15.2343    0.0000 </r>
      </set>
      <set comment="kpoint 27">
       <r>  -10.5018    1.0000 </r>
       <r>  -10.5018    1.0000 </r>
       <r>   -6.7601    1.0000 </r>
       <r>   -6.7601    1.0000 </r>
       <r>   -3.2625    1.0000 </r>
       <r>   -3.2624    1.0000 </r>
       <r>    2.1670    1.0000 </r>
       <r>    2.1670    1.0000 </r>
       <r>    7.4831    0.0000 </r>
       <r>    7.4831    0.0000 </r>
       <r>   14.9117    0.0000 </r>
       <r>   14.9117    0.0000 </r>
       <r>   16.0417    0.0000 </r>
       <r>   16.0417    0.0000 </r>
      </set>
      <set comment="kpoint 28">
       <r>   -8.0096    1.0000 </r>
       <r>   -8.0096    1.0000 </r>
       <r>   -7.9487    1.0000 </r>
       <r>   -7.9487    1.0000 </r>
       <r>   -5.8401    1.0000 </r>
       <r>   -5.8401    1.0000 </r>
       <r>    4.8030    1.0336 </r>
       <r>    4.8030    1.0336 </r>
       <r>    5.0042   -0.0002 </r>
       <r>    5.0042   -0.0002 </r>
       <r>   15.0101    0.0000 </r>
       <r>   15.0101    0.0000 </r>
       <r>   18.7763    0.0000 </r>
       <r>   18.7763    0.0000 </r>
      </set>
     </set>
    </set>
   </array>
  </eigenvalues>
  <separator name="orbital magnetization" >
   <v name="MAGDIPOLOUT">      0.00000000      0.00000000      0.00000000</v>
  </separator>
  <dos>
   <i name="efermi">      4.85918035 </i>
   <total>
    <array>
     <dimension dim="1">gridpoints</dimension>
     <dimension dim="2">spin</dimension>
     <field>energy</field>
     <field>total</field>
     <field>integrated</field>
     <set>
      <set comment="spin 1">
       <r>   -16.8471     0.0000     0.0000 </r>
       <r>   -16.7217     0.0000     0.0000 </r>
       <r>   -16.5963     0.0000     0.0000 </r>
       <r>   -16.4710     0.0000     0.0000 </r>
       <r>   -16.3456     0.0000     0.0000 </r>
       <r>   -16.2202     0.0000     0.0000 </r>
       <r>   -16.0948     0.0000     0.0000 </r>
       <r>   -15.9694     0.0000     0.0000 </r>
       <r>   -15.8440     0.0000     0.0000 </r>
       <r>   -15.7187     0.0000     0.0000 </r>
       <r>   -15.5933     0.0000     0.0000 </r>
       <r>   -15.4679     0.0000     0.0000 </r>
       <r>   -15.3425     0.0000     0.0000 </r>
       <r>   -15.2171    -0.0015    -0.0002 </r>
       <r>   -15.0918     0.1146     0.0142 </r>
       <r>   -14.9664     0.1382     0.0315 </r>
       <r>   -14.8410     0.1664     0.0524 </r>
       <r>   -14.7156     0.0254     0.0556 </r>
       <r>   -14.5902    -0.0006     0.0555 </r>
       <r>   -14.4648     0.2584     0.0879 </r>
       <r>   -14.3395     1.0393     0.2182 </r>
       <r>   -14.2141     0.9255     0.3342 </r>
       <r>   -14.0887     0.4382     0.3892 </r>
       <r>   -13.9633    -0.0023     0.3889 </r>
       <r>   -13.8379     0.0000     0.3889 </r>
       <r>   -13.7126     0.0000     0.3889 </r>
       <r>   -13.5872     0.0000     0.3889 </r>
       <r>   -13.4618     0.0000     0.3889 </r>
       <r>   -13.3364     0.0000     0.3889 </r>
       <r>   -13.2110    -0.0200     0.3864 </r>
       <r>   -13.0857     0.9285     0.5028 </r>
       <r>   -12.9603     0.8707     0.6120 </r>
       <r>   -12.8349     0.8991     0.7247 </r>
       <r>   -12.7095    -0.0197     0.7222 </r>
       <r>   -12.5841    -0.0123     0.7207 </r>
       <r>   -12.4587     0.7897     0.8197 </r>
       <r>   -12.3334     0.9497     0.9388 </r>
       <r>   -12.2080     0.9523     1.0582 </r>
       <r>   -12.0826    -0.0209     1.0556 </r>
       <r>   -11.9572     0.0000     1.0556 </r>
       <r>   -11.8318     0.0000     1.0556 </r>
       <r>   -11.7065     0.0000     1.0556 </r>
       <r>   -11.5811     0.0000     1.0556 </r>
       <r>   -11.4557     0.0000     1.0556 </r>
       <r>   -11.3303     0.0000     1.0556 </r>
       <r>   -11.2049     0.0000     1.0556 </r>
       <r>   -11.0795     0.0000     1.0556 </r>
       <r>   -10.9542     0.0000     1.0556 </r>
       <r>   -10.8288     0.0000     1.0556 </r>
       <r>   -10.7034    -0.0284     1.0520 </r>
       <r>   -10.5780     1.8120     1.2792 </r>
       <r>   -10.4526     2.3863     1.5784 </r>
       <r>   -10.3273     1.1561     1.7233 </r>
       <r>   -10.2019    -0.0089     1.7222 </r>
       <r>   -10.0765     0.0000     1.7222 </r>
       <r>    -9.9511     0.0000     1.7222 </r>
       <r>    -9.8257    -0.0179     1.7200 </r>
       <r>    -9.7004     0.9357     1.8373 </r>
       <r>    -9.5750     0.4137     1.8892 </r>
       <r>    -9.4496    -0.0023     1.8889 </r>
       <r>    -9.3242     0.0000     1.8889 </r>
       <r>    -9.1988     0.0000     1.8889 </r>
       <r>    -9.0734     0.0000     1.8889 </r>
       <r>    -8.9481     0.0000     1.8889 </r>
       <r>    -8.8227     0.0000     1.8889 </r>
       <r>    -8.6973    -0.0279     1.8854 </r>
       <r>    -8.5719     1.2762     2.0454 </r>
       <r>    -8.4465     0.0811     2.0556 </r>
       <r>    -8.3212    -0.0001     2.0556 </r>
       <r>    -8.1958    -0.0005     2.0555 </r>
       <r>    -8.0704     0.2103     2.0819 </r>
       <r>    -7.9450     1.2927     2.2439 </r>
       <r>    -7.8196     0.2735     2.2782 </r>
       <r>    -7.6943    -0.0036     2.2778 </r>
       <r>    -7.5689     0.0000     2.2778 </r>
       <r>    -7.4435     0.0000     2.2778 </r>
       <r>    -7.3181     0.0000     2.2778 </r>
       <r>    -7.1927     0.0000     2.2778 </r>
       <r>    -7.0673     0.0000     2.2778 </r>
       <r>    -6.9420    -0.0185     2.2755 </r>
       <r>    -6.8166     1.7705     2.4974 </r>
       <r>    -6.6912     3.3044     2.9117 </r>
       <r>    -6.5658     0.2610     2.9445 </r>
       <r>    -6.4404    -0.0003     2.9444 </r>
       <r>    -6.3151     0.0000     2.9444 </r>
       <r>    -6.1897     0.0000     2.9444 </r>
       <r>    -6.0643     0.0000     2.9444 </r>
       <r>    -5.9389    -0.0144     2.9426 </r>
       <r>    -5.8135     0.8723     3.0520 </r>
       <r>    -5.6881     0.0284     3.0556 </r>
       <r>    -5.5628     0.0000     3.0556 </r>
       <r>    -5.4374     0.0000     3.0556 </r>
       <r>    -5.3120     0.0000     3.0556 </r>
       <r>    -5.1866    -0.0001     3.0555 </r>
       <r>    -5.0612     0.0557     3.0625 </r>
       <r>    -4.9359     1.5432     3.2560 </r>
       <r>    -4.8105     1.0809     3.3915 </r>
       <r>    -4.6851    -0.0211     3.3889 </r>
       <r>    -4.5597     0.0000     3.3889 </r>
       <r>    -4.4343     0.0000     3.3889 </r>
       <r>    -4.3090     0.0000     3.3889 </r>
       <r>    -4.1836     0.0000     3.3889 </r>
       <r>    -4.0582     0.0000     3.3889 </r>
       <r>    -3.9328     0.0000     3.3889 </r>
       <r>    -3.8074     0.0044     3.3894 </r>
       <r>    -3.6820     0.0449     3.3951 </r>
       <r>    -3.5567     0.0620     3.4028 </r>
       <r>    -3.4313    -0.0171     3.4007 </r>
       <r>    -3.3059     2.0387     3.6563 </r>
       <r>    -3.1805     3.4371     4.0873 </r>
       <r>    -3.0551     0.5413     4.1551 </r>
       <r>    -2.9298     2.3630     4.4514 </r>
       <r>    -2.8044     0.4391     4.5064 </r>
       <r>    -2.6790    -0.0189     4.5041 </r>
       <r>    -2.5536     0.4067     4.5551 </r>
       <r>    -2.4282     0.1133     4.5693 </r>
       <r>    -2.3028     0.0012     4.5694 </r>
       <r>    -2.1775     0.1086     4.5831 </r>
       <r>    -2.0521     0.3834     4.6311 </r>
       <r>    -1.9267     0.0314     4.6351 </r>
       <r>    -1.8013     0.0305     4.6389 </r>
       <r>    -1.6759     0.2359     4.6684 </r>
       <r>    -1.5506     3.1752     5.0666 </r>
       <r>    -1.4252     1.2026     5.2173 </r>
       <r>    -1.2998     0.6732     5.3017 </r>
       <r>    -1.1744     0.2798     5.3368 </r>
       <r>    -1.0490     0.4046     5.3876 </r>
       <r>    -0.9237     2.1431     5.6563 </r>
       <r>    -0.7983     0.7573     5.7512 </r>
       <r>    -0.6729     0.1220     5.7665 </r>
       <r>    -0.5475     0.9154     5.8813 </r>
       <r>    -0.4221     2.6539     6.2140 </r>
       <r>    -0.2967     0.3198     6.2541 </r>
       <r>    -0.1714     0.3768     6.3014 </r>
       <r>    -0.0460     0.2550     6.3333 </r>
       <r>     0.0794     0.2368     6.3630 </r>
       <r>     0.2048     0.6131     6.4399 </r>
       <r>     0.3302     0.1318     6.4564 </r>
       <r>     0.4555     0.1116     6.4704 </r>
       <r>     0.5809     0.4693     6.5293 </r>
       <r>     0.7063     0.7804     6.6271 </r>
       <r>     0.8317     1.9584     6.8727 </r>
       <r>     0.9571     0.3463     6.9161 </r>
       <r>     1.0824     0.2341     6.9454 </r>
       <r>     1.2078    -0.0078     6.9444 </r>
       <r>     1.3332    -0.0008     6.9443 </r>
       <r>     1.4586     0.2320     6.9734 </r>
       <r>     1.5840     1.1279     7.1149 </r>
       <r>     1.7094    -0.0591     7.1075 </r>
       <r>     1.8347     1.2506     7.2643 </r>
       <r>     1.9601     0.5153     7.3289 </r>
       <r>     2.0855     0.7305     7.4205 </r>
       <r>     2.2109     0.5403     7.4882 </r>
       <r>     2.3363     0.2490     7.5194 </r>
       <r>     2.4616     0.8977     7.6320 </r>
       <r>     2.5870     0.3192     7.6720 </r>
       <r>     2.7124     0.9436     7.7903 </r>
       <r>     2.8378     0.7872     7.8890 </r>
       <r>     2.9632    -0.0009     7.8889 </r>
       <r>     3.0886     0.0000     7.8889 </r>
       <r>     3.2139     0.0000     7.8889 </r>
       <r>     3.3393     0.0000     7.8889 </r>
       <r>     3.4647     0.0000     7.8889 </r>
       <r>     3.5901     0.0000     7.8889 </r>
       <r>     3.7155     0.0000     7.8889 </r>
       <r>     3.8408     0.0000     7.8889 </r>
       <r>     3.9662     0.0000     7.8889 </r>
       <r>     4.0916    -0.0002     7.8889 </r>
       <r>     4.2170     0.0427     7.8942 </r>
       <r>     4.3424     0.1829     7.9171 </r>
       <r>     4.4677    -0.0060     7.9164 </r>
       <r>     4.5931     0.1406     7.9340 </r>
       <r>     4.7185     0.5306     8.0005 </r>
       <r>     4.8439     0.3616     8.0459 </r>
       <r>     4.9693     0.1559     8.0654 </r>
       <r>     5.0947    -0.0049     8.0648 </r>
       <r>     5.2200     0.0047     8.0654 </r>
       <r>     5.3454     0.1453     8.0836 </r>
       <r>     5.4708    -0.0075     8.0827 </r>
       <r>     5.5962     0.1565     8.1023 </r>
       <r>     5.7216     0.0711     8.1112 </r>
       <r>     5.8469    -0.0008     8.1111 </r>
       <r>     5.9723     0.0000     8.1111 </r>
       <r>     6.0977     0.0000     8.1111 </r>
       <r>     6.2231    -0.0029     8.1107 </r>
       <r>     6.3485     0.2943     8.1476 </r>
       <r>     6.4738     0.3672     8.1937 </r>
       <r>     6.5992     0.1160     8.2082 </r>
       <r>     6.7246     0.1782     8.2306 </r>
       <r>     6.8500     0.0371     8.2352 </r>
       <r>     6.9754     0.2243     8.2633 </r>
       <r>     7.1008     1.0612     8.3964 </r>
       <r>     7.2261     1.1951     8.5462 </r>
       <r>     7.3515     0.0554     8.5532 </r>
       <r>     7.4769     0.9094     8.6672 </r>
       <r>     7.6023     0.8855     8.7782 </r>
       <r>     7.7277     0.2509     8.8097 </r>
       <r>     7.8530     1.0891     8.9462 </r>
       <r>     7.9784    -0.0143     8.9444 </r>
       <r>     8.1038     0.0000     8.9444 </r>
       <r>     8.2292     0.0000     8.9444 </r>
       <r>     8.3546     0.0000     8.9444 </r>
       <r>     8.4800     0.0000     8.9444 </r>
       <r>     8.6053     0.0000     8.9444 </r>
       <r>     8.7307     0.0000     8.9444 </r>
       <r>     8.8561     0.0000     8.9444 </r>
       <r>     8.9815     0.0005     8.9445 </r>
       <r>     9.1069     0.0370     8.9492 </r>
       <r>     9.2322    -0.0007     8.9491 </r>
       <r>     9.3576     0.0198     8.9515 </r>
       <r>     9.4830     0.6365     9.0314 </r>
       <r>     9.6084     0.0752     9.0408 </r>
       <r>     9.7338     0.4566     9.0980 </r>
       <r>     9.8591     0.5494     9.1669 </r>
       <r>     9.9845     0.1220     9.1822 </r>
       <r>    10.1099     0.4209     9.2350 </r>
       <r>    10.2353     0.6729     9.3193 </r>
       <r>    10.3607     0.4992     9.3819 </r>
       <r>    10.4861     0.0185     9.3843 </r>
       <r>    10.6114     0.0000     9.3843 </r>
       <r>    10.7368     0.0000     9.3843 </r>
       <r>    10.8622     0.0000     9.3843 </r>
       <r>    10.9876    -0.0016     9.3841 </r>
       <r>    11.1130     0.3343     9.4260 </r>
       <r>    11.2383     0.8444     9.5319 </r>
       <r>    11.3637     0.6378     9.6118 </r>
       <r>    11.4891     0.5720     9.6835 </r>
       <r>    11.6145     0.8420     9.7891 </r>
       <r>    11.7399     0.1535     9.8083 </r>
       <r>    11.8653     0.5129     9.8726 </r>
       <r>    11.9906     0.3809     9.9204 </r>
       <r>    12.1160     0.3098     9.9593 </r>
       <r>    12.2414     0.5615    10.0297 </r>
       <r>    12.3668     0.9522    10.1491 </r>
       <r>    12.4922     1.7993    10.3747 </r>
       <r>    12.6175     0.4020    10.4251 </r>
       <r>    12.7429     0.5882    10.4988 </r>
       <r>    12.8683     0.5052    10.5622 </r>
       <r>    12.9937    -0.0157    10.5602 </r>
       <r>    13.1191    -0.0001    10.5602 </r>
       <r>    13.2444     0.0918    10.5717 </r>
       <r>    13.3698     1.4560    10.7542 </r>
       <r>    13.4952     2.1154    11.0195 </r>
       <r>    13.6206     0.4065    11.0704 </r>
       <r>    13.7460    -0.0127    11.0689 </r>
       <r>    13.8714     0.4120    11.1205 </r>
       <r>    13.9967     0.0206    11.1231 </r>
       <r>    14.1221     0.4728    11.1824 </r>
       <r>    14.2475    -0.0024    11.1821 </r>
       <r>    14.3729     0.6057    11.2580 </r>
       <r>    14.4983     0.4774    11.3179 </r>
       <r>    14.6236     0.9124    11.4323 </r>
       <r>    14.7490     3.0534    11.8151 </r>
       <r>    14.8744     2.0625    12.0737 </r>
       <r>    14.9998     2.0773    12.3342 </r>
       <r>    15.1252     0.6429    12.4148 </r>
       <r>    15.2505     2.7384    12.7581 </r>
       <r>    15.3759     0.3004    12.7958 </r>
       <r>    15.5013     1.3899    12.9701 </r>
       <r>    15.6267     0.7416    13.0631 </r>
       <r>    15.7521    -0.0229    13.0602 </r>
       <r>    15.8775     0.0048    13.0608 </r>
       <r>    16.0028     0.6883    13.1471 </r>
       <r>    16.1282     0.6743    13.2316 </r>
       <r>    16.2536     0.5528    13.3010 </r>
       <r>    16.3790     0.0259    13.3042 </r>
       <r>    16.5044     1.1300    13.4459 </r>
       <r>    16.6297     0.8961    13.5582 </r>
       <r>    16.7551    -0.0214    13.5556 </r>
       <r>    16.8805    -0.0061    13.5548 </r>
       <r>    17.0059     0.3114    13.5938 </r>
       <r>    17.1313     0.9595    13.7141 </r>
       <r>    17.2567     0.4622    13.7721 </r>
       <r>    17.3820     0.5588    13.8421 </r>
       <r>    17.5074     0.4086    13.8934 </r>
       <r>    17.6328     0.0358    13.8979 </r>
       <r>    17.7582     0.2062    13.9237 </r>
       <r>    17.8836     0.0173    13.9259 </r>
       <r>    18.0089     0.1312    13.9423 </r>
       <r>    18.1343     0.1652    13.9630 </r>
       <r>    18.2597    -0.0007    13.9630 </r>
       <r>    18.3851     0.0000    13.9630 </r>
       <r>    18.5105     0.0000    13.9630 </r>
       <r>    18.6358     0.0000    13.9630 </r>
       <r>    18.7612    -0.0037    13.9625 </r>
       <r>    18.8866     0.1526    13.9816 </r>
       <r>    19.0120     0.1501    14.0005 </r>
       <r>    19.1374    -0.0037    14.0000 </r>
       <r>    19.2628     0.0000    14.0000 </r>
       <r>    19.3881     0.0000    14.0000 </r>
       <r>    19.5135     0.0000    14.0000 </r>
       <r>    19.6389     0.0000    14.0000 </r>
       <r>    19.7643     0.0000    14.0000 </r>
       <r>    19.8897     0.0000    14.0000 </r>
       <r>    20.0150     0.0000    14.0000 </r>
       <r>    20.1404     0.0000    14.0000 </r>
       <r>    20.2658     0.0000    14.0000 </r>
       <r>    20.3912     0.0000    14.0000 </r>
       <r>    20.5166     0.0000    14.0000 </r>
       <r>    20.6420     0.0000    14.0000 </r>
       <r>    20.7673     0.0000    14.0000 </r>
      </set>
      <set comment="spin 2">
       <r>   -16.8471     0.0000     0.0000 </r>
       <r>   -16.7217     0.0000     0.0000 </r>
       <r>   -16.5963     0.0000     0.0000 </r>
       <r>   -16.4710     0.0000     0.0000 </r>
       <r>   -16.3456     0.0000     0.0000 </r>
       <r>   -16.2202     0.0000     0.0000 </r>
       <r>   -16.0948     0.0000     0.0000 </r>
       <r>   -15.9694     0.0000     0.0000 </r>
       <r>   -15.8440     0.0000     0.0000 </r>
       <r>   -15.7187     0.0000     0.0000 </r>
       <r>   -15.5933     0.0000     0.0000 </r>
       <r>   -15.4679     0.0000     0.0000 </r>
       <r>   -15.3425     0.0000     0.0000 </r>
       <r>   -15.2171    -0.0002     0.0000 </r>
       <r>   -15.0918     0.0582     0.0073 </r>
       <r>   -14.9664     0.1627     0.0277 </r>
       <r>   -14.8410     0.1479     0.0462 </r>
       <r>   -14.7156     0.0749     0.0556 </r>
       <r>   -14.5902    -0.0005     0.0556 </r>
       <r>   -14.4648     0.0275     0.0590 </r>
       <r>   -14.3395     1.0874     0.1953 </r>
       <r>   -14.2141     0.8102     0.2969 </r>
       <r>   -14.0887     0.7462     0.3905 </r>
       <r>   -13.9633    -0.0127     0.3889 </r>
       <r>   -13.8379     0.0000     0.3889 </r>
       <r>   -13.7126     0.0000     0.3889 </r>
       <r>   -13.5872     0.0000     0.3889 </r>
       <r>   -13.4618     0.0000     0.3889 </r>
       <r>   -13.3364     0.0000     0.3889 </r>
       <r>   -13.2110    -0.0055     0.3882 </r>
       <r>   -13.0857     0.6158     0.4654 </r>
       <r>   -12.9603     0.9576     0.5855 </r>
       <r>   -12.8349     1.0875     0.7218 </r>
       <r>   -12.7095     0.0032     0.7222 </r>
       <r>   -12.5841    -0.0022     0.7219 </r>
       <r>   -12.4587     0.4416     0.7773 </r>
       <r>   -12.3334     1.0709     0.9116 </r>
       <r>   -12.2080     1.1373     1.0542 </r>
       <r>   -12.0826     0.0109     1.0556 </r>
       <r>   -11.9572     0.0000     1.0556 </r>
       <r>   -11.8318     0.0000     1.0556 </r>
       <r>   -11.7065     0.0000     1.0556 </r>
       <r>   -11.5811     0.0000     1.0556 </r>
       <r>   -11.4557     0.0000     1.0556 </r>
       <r>   -11.3303     0.0000     1.0556 </r>
       <r>   -11.2049     0.0000     1.0556 </r>
       <r>   -11.0795     0.0000     1.0556 </r>
       <r>   -10.9542     0.0000     1.0556 </r>
       <r>   -10.8288     0.0000     1.0556 </r>
       <r>   -10.7034    -0.0050     1.0549 </r>
       <r>   -10.5780     1.0424     1.1856 </r>
       <r>   -10.4526     2.4543     1.4934 </r>
       <r>   -10.3273     1.8601     1.7266 </r>
       <r>   -10.2019    -0.0347     1.7222 </r>
       <r>   -10.0765     0.0000     1.7222 </r>
       <r>    -9.9511     0.0000     1.7222 </r>
       <r>    -9.8257    -0.0077     1.7213 </r>
       <r>    -9.7004     0.5792     1.7939 </r>
       <r>    -9.5750     0.7732     1.8908 </r>
       <r>    -9.4496    -0.0154     1.8889 </r>
       <r>    -9.3242     0.0000     1.8889 </r>
       <r>    -9.1988     0.0000     1.8889 </r>
       <r>    -9.0734     0.0000     1.8889 </r>
       <r>    -8.9481     0.0000     1.8889 </r>
       <r>    -8.8227     0.0000     1.8889 </r>
       <r>    -8.6973    -0.0167     1.8868 </r>
       <r>    -8.5719     1.0218     2.0149 </r>
       <r>    -8.4465     0.3252     2.0557 </r>
       <r>    -8.3212    -0.0010     2.0556 </r>
       <r>    -8.1958    -0.0026     2.0552 </r>
       <r>    -8.0704     0.2458     2.0861 </r>
       <r>    -7.9450     1.0884     2.2225 </r>
       <r>    -7.8196     0.4418     2.2779 </r>
       <r>    -7.6943    -0.0011     2.2778 </r>
       <r>    -7.5689     0.0000     2.2778 </r>
       <r>    -7.4435     0.0000     2.2778 </r>
       <r>    -7.3181     0.0000     2.2778 </r>
       <r>    -7.1927     0.0000     2.2778 </r>
       <r>    -7.0673     0.0000     2.2778 </r>
       <r>    -6.9420    -0.0038     2.2773 </r>
       <r>    -6.8166     0.9654     2.3983 </r>
       <r>    -6.6912     3.4454     2.8303 </r>
       <r>    -6.5658     0.9130     2.9448 </r>
       <r>    -6.4404    -0.0028     2.9444 </r>
       <r>    -6.3151     0.0000     2.9444 </r>
       <r>    -6.1897     0.0000     2.9444 </r>
       <r>    -6.0643     0.0000     2.9444 </r>
       <r>    -5.9389    -0.0082     2.9434 </r>
       <r>    -5.8135     0.7904     3.0425 </r>
       <r>    -5.6881     0.1041     3.0556 </r>
       <r>    -5.5628    -0.0001     3.0556 </r>
       <r>    -5.4374     0.0000     3.0556 </r>
       <r>    -5.3120     0.0000     3.0556 </r>
       <r>    -5.1866     0.0000     3.0556 </r>
       <r>    -5.0612    -0.0293     3.0519 </r>
       <r>    -4.9359     1.4819     3.2377 </r>
       <r>    -4.8105     1.2394     3.3931 </r>
       <r>    -4.6851    -0.0335     3.3889 </r>
       <r>    -4.5597     0.0000     3.3889 </r>
       <r>    -4.4343     0.0000     3.3889 </r>
       <r>    -4.3090     0.0000     3.3889 </r>
       <r>    -4.1836     0.0000     3.3889 </r>
       <r>    -4.0582     0.0000     3.3889 </r>
       <r>    -3.9328     0.0000     3.3889 </r>
       <r>    -3.8074    -0.0005     3.3888 </r>
       <r>    -3.6820     0.0341     3.3931 </r>
       <r>    -3.5567     0.0746     3.4025 </r>
       <r>    -3.4313    -0.0064     3.4017 </r>
       <r>    -3.3059     1.5204     3.5923 </r>
       <r>    -3.1805     3.9226     4.0841 </r>
       <r>    -3.0551     0.0969     4.0963 </r>
       <r>    -2.9298     2.6753     4.4317 </r>
       <r>    -2.8044     0.3685     4.4779 </r>
       <r>    -2.6790     0.2137     4.5047 </r>
       <r>    -2.5536     0.0043     4.5052 </r>
       <r>    -2.4282     0.4498     4.5616 </r>
       <r>    -2.3028     0.0633     4.5696 </r>
       <r>    -2.1775    -0.0085     4.5685 </r>
       <r>    -2.0521     0.4399     4.6237 </r>
       <r>    -1.9267     0.0868     4.6345 </r>
       <r>    -1.8013     0.0311     4.6384 </r>
       <r>    -1.6759    -0.0036     4.6380 </r>
       <r>    -1.5506     2.9226     5.0044 </r>
       <r>    -1.4252     1.4814     5.1902 </r>
       <r>    -1.2998     0.2439     5.2207 </r>
       <r>    -1.1744     0.9195     5.3360 </r>
       <r>    -1.0490     0.1747     5.3579 </r>
       <r>    -0.9237     2.1686     5.6298 </r>
       <r>    -0.7983     0.9762     5.7522 </r>
       <r>    -0.6729    -0.0267     5.7489 </r>
       <r>    -0.5475     0.5160     5.8136 </r>
       <r>    -0.4221     2.7892     6.1633 </r>
       <r>    -0.2967     0.4556     6.2204 </r>
       <r>    -0.1714     0.4628     6.2784 </r>
       <r>    -0.0460     0.4431     6.3340 </r>
       <r>     0.0794    -0.0190     6.3316 </r>
       <r>     0.2048     0.4606     6.3894 </r>
       <r>     0.3302     0.4466     6.4454 </r>
       <r>     0.4555     0.2135     6.4721 </r>
       <r>     0.5809     0.1682     6.4932 </r>
       <r>     0.7063     0.7198     6.5835 </r>
       <r>     0.8317     2.2434     6.8648 </r>
       <r>     0.9571     0.3368     6.9070 </r>
       <r>     1.0824     0.1241     6.9225 </r>
       <r>     1.2078     0.1758     6.9446 </r>
       <r>     1.3332    -0.0011     6.9444 </r>
       <r>     1.4586    -0.0160     6.9424 </r>
       <r>     1.5840     0.7533     7.0369 </r>
       <r>     1.7094     0.5927     7.1112 </r>
       <r>     1.8347     0.4344     7.1657 </r>
       <r>     1.9601     1.2599     7.3236 </r>
       <r>     2.0855     0.2229     7.3516 </r>
       <r>     2.2109     1.0774     7.4867 </r>
       <r>     2.3363     0.2054     7.5124 </r>
       <r>     2.4616     0.1803     7.5350 </r>
       <r>     2.5870     0.9670     7.6563 </r>
       <r>     2.7124     0.1665     7.6771 </r>
       <r>     2.8378     1.2275     7.8311 </r>
       <r>     2.9632     0.4747     7.8906 </r>
       <r>     3.0886    -0.0135     7.8889 </r>
       <r>     3.2139     0.0000     7.8889 </r>
       <r>     3.3393     0.0000     7.8889 </r>
       <r>     3.4647     0.0000     7.8889 </r>
       <r>     3.5901     0.0000     7.8889 </r>
       <r>     3.7155     0.0000     7.8889 </r>
       <r>     3.8408     0.0000     7.8889 </r>
       <r>     3.9662     0.0000     7.8889 </r>
       <r>     4.0916     0.0113     7.8903 </r>
       <r>     4.2170     0.1840     7.9134 </r>
       <r>     4.3424     0.0260     7.9166 </r>
       <r>     4.4677     0.0917     7.9281 </r>
       <r>     4.5931     0.0564     7.9352 </r>
       <r>     4.7185    -0.0029     7.9348 </r>
       <r>     4.8439     0.1476     7.9533 </r>
       <r>     4.9693     0.4053     8.0042 </r>
       <r>     5.0947     0.4823     8.0646 </r>
       <r>     5.2200     0.1543     8.0840 </r>
       <r>     5.3454    -0.0077     8.0830 </r>
       <r>     5.4708     0.1472     8.1015 </r>
       <r>     5.5962     0.0643     8.1095 </r>
       <r>     5.7216     0.0126     8.1111 </r>
       <r>     5.8469     0.0000     8.1111 </r>
       <r>     5.9723     0.0000     8.1111 </r>
       <r>     6.0977     0.0000     8.1111 </r>
       <r>     6.2231    -0.0011     8.1110 </r>
       <r>     6.3485     0.2351     8.1404 </r>
       <r>     6.4738     0.3121     8.1796 </r>
       <r>     6.5992     0.2328     8.2088 </r>
       <r>     6.7246    -0.0074     8.2078 </r>
       <r>     6.8500     0.2222     8.2357 </r>
       <r>     6.9754    -0.0040     8.2352 </r>
       <r>     7.1008     0.3839     8.2833 </r>
       <r>     7.2261     1.3060     8.4471 </r>
       <r>     7.3515     0.8856     8.5581 </r>
       <r>     7.4769     0.3301     8.5995 </r>
       <r>     7.6023     0.5241     8.6652 </r>
       <r>     7.7277     0.9133     8.7797 </r>
       <r>     7.8530     0.8210     8.8827 </r>
       <r>     7.9784     0.4947     8.9447 </r>
       <r>     8.1038    -0.0020     8.9444 </r>
       <r>     8.2292     0.0000     8.9444 </r>
       <r>     8.3546     0.0000     8.9444 </r>
       <r>     8.4800     0.0000     8.9444 </r>
       <r>     8.6053     0.0000     8.9444 </r>
       <r>     8.7307     0.0000     8.9444 </r>
       <r>     8.8561     0.0000     8.9444 </r>
       <r>     8.9815    -0.0011     8.9443 </r>
       <r>     9.1069     0.0390     8.9492 </r>
       <r>     9.2322    -0.0010     8.9491 </r>
       <r>     9.3576     0.0000     8.9491 </r>
       <r>     9.4830     0.1359     8.9661 </r>
       <r>     9.6084     0.6158     9.0433 </r>
       <r>     9.7338     0.2161     9.0704 </r>
       <r>     9.8591     0.2665     9.1038 </r>
       <r>     9.9845     0.6279     9.1826 </r>
       <r>    10.1099     0.1717     9.2041 </r>
       <r>    10.2353     0.6645     9.2874 </r>
       <r>    10.3607     0.4595     9.3450 </r>
       <r>    10.4861     0.3194     9.3851 </r>
       <r>    10.6114    -0.0065     9.3843 </r>
       <r>    10.7368     0.0000     9.3843 </r>
       <r>    10.8622     0.0000     9.3843 </r>
       <r>    10.9876     0.0000     9.3843 </r>
       <r>    11.1130     0.0513     9.3907 </r>
       <r>    11.2383     0.6615     9.4736 </r>
       <r>    11.3637     0.6939     9.5606 </r>
       <r>    11.4891     0.6058     9.6366 </r>
       <r>    11.6145     0.5989     9.7117 </r>
       <r>    11.7399     0.7461     9.8052 </r>
[...]
       </set>
       <set comment="band 10">
        <r>  0.0000  0.0000  0.2306  0.0000  0.0000  0.0000  0.0000  0.0000  0.0000 </r>
        <r>  0.0000  0.0000  0.2101  0.0000  0.0000  0.0000  0.0000  0.0000  0.0000 </r>
        <r>  0.0002  0.0002  0.0000  0.0007  0.0000  0.0000  0.0000  0.0000  0.0000 </r>
        <r>  0.0016  0.0000  0.0000  0.0000  0.0000  0.0000  0.0000  0.0000  0.0000 </r>
       </set>
       <set comment="band 11">
        <r>  0.0000  0.0000  0.0001  0.0000  0.0000  0.0000  0.0000  0.0000  0.0000 </r>
        <r>  0.0000  0.0000  0.0000  0.0000  0.0000  0.0000  0.0000  0.0000  0.0000 </r>
        <r>  0.1758  0.0101  0.0000  0.0303  0.0000  0.0000  0.0000  0.0000  0.0000 </r>
        <r>  0.1750  0.0101  0.0000  0.0303  0.0000  0.0000  0.0000  0.0000  0.0000 </r>
       </set>
       <set comment="band 12">
        <r>  0.1750  0.0101  0.0000  0.0303  0.0000  0.0000  0.0000  0.0000  0.0000 </r>
        <r>  0.1758  0.0101  0.0000  0.0303  0.0000  0.0000  0.0000  0.0000  0.0000 </r>
        <r>  0.0000  0.0000  0.0000  0.0000  0.0000  0.0000  0.0000  0.0000  0.0000 </r>
        <r>  0.0000  0.0000  0.0001  0.0000  0.0000  0.0000  0.0000  0.0000  0.0000 </r>
       </set>
       <set comment="band 13">
        <r>  0.0092  0.0015  0.0000  0.0046  0.0000  0.0000  0.0000  0.0000  0.0000 </r>
        <r>  0.0008  0.0107  0.0000  0.0322  0.0000  0.0000  0.0000  0.0000  0.0000 </r>
        <r>  0.0000  0.0000  0.0982  0.0000  0.0000  0.0000  0.0000  0.0000  0.0000 </r>
        <r>  0.0000  0.0000  0.0819  0.0000  0.0000  0.0000  0.0000  0.0000  0.0000 </r>
       </set>
       <set comment="band 14">
        <r>  0.0000  0.0000  0.0819  0.0000  0.0000  0.0000  0.0000  0.0000  0.0000 </r>
        <r>  0.0000  0.0000  0.0982  0.0000  0.0000  0.0000  0.0000  0.0000  0.0000 </r>
        <r>  0.0008  0.0107  0.0000  0.0321  0.0000  0.0000  0.0000  0.0000  0.0000 </r>
        <r>  0.0092  0.0015  0.0000  0.0046  0.0000  0.0000  0.0000  0.0000  0.0000 </r>
       </set>
      </set>
      <set comment="kpoint 26">
       <set comment="band 1">
        <r>  0.0000  0.0000  0.0000  0.0000  0.0000  0.0000  0.0000  0.0000  0.0000 </r>
        <r>  0.0000  0.0000  0.0000  0.0000  0.0000  0.0000  0.0000  0.0000  0.0000 </r>
        <r>  0.2841  0.0303  0.0000  0.0102  0.0000  0.0000  0.0000  0.0000  0.0000 </r>
        <r>  0.2806  0.0306  0.0000  0.0103  0.0000  0.0000  0.0000  0.0000  0.0000 </r>
       </set>
       <set comment="band 2">
        <r>  0.2806  0.0306  0.0000  0.0103  0.0000  0.0000  0.0000  0.0000  0.0000 </r>
        <r>  0.2841  0.0303  0.0000  0.0102  0.0000  0.0000  0.0000  0.0000  0.0000 </r>
        <r>  0.0000  0.0000  0.0000  0.0000  0.0000  0.0000  0.0000  0.0000  0.0000 </r>
        <r>  0.0000  0.0000  0.0000  0.0000  0.0000  0.0000  0.0000  0.0000  0.0000 </r>
       </set>
       <set comment="band 3">
        <r>  0.0000  0.0000  0.0000  0.0000  0.0000  0.0000  0.0000  0.0000  0.0000 </r>
        <r>  0.0000  0.0000  0.0000  0.0000  0.0000  0.0000  0.0000  0.0000  0.0000 </r>
        <r>  0.1112  0.1801  0.0000  0.0901  0.0000  0.0000  0.0000  0.0000  0.0000 </r>
        <r>  0.1118  0.1770  0.0000  0.0902  0.0000  0.0000  0.0000  0.0000  0.0000 </r>
       </set>
       <set comment="band 4">
        <r>  0.1118  0.1770  0.0000  0.0902  0.0000  0.0000  0.0000  0.0000  0.0000 </r>
        <r>  0.1112  0.1801  0.0000  0.0901  0.0000  0.0000  0.0000  0.0000  0.0000 </r>
        <r>  0.0000  0.0000  0.0000  0.0000  0.0000  0.0000  0.0000  0.0000  0.0000 </r>
        <r>  0.0000  0.0000  0.0000  0.0000  0.0000  0.0000  0.0000  0.0000  0.0000 </r>
       </set>
       <set comment="band 5">
        <r>  0.0000  0.0000  0.0001  0.0000  0.0000  0.0000  0.0000  0.0000  0.0000 </r>
        <r>  0.0000  0.0000  0.0000  0.0000  0.0000  0.0000  0.0000  0.0000  0.0000 </r>
        <r>  0.0121  0.1226  0.0000  0.2432  0.0000  0.0000  0.0000  0.0000  0.0000 </r>
        <r>  0.0127  0.1233  0.0000  0.2407  0.0000  0.0000  0.0000  0.0000  0.0000 </r>
       </set>
       <set comment="band 6">
        <r>  0.0127  0.1233  0.0000  0.2407  0.0000  0.0000  0.0000  0.0000  0.0000 </r>
        <r>  0.0121  0.1226  0.0000  0.2432  0.0000  0.0000  0.0000  0.0000  0.0000 </r>
        <r>  0.0000  0.0000  0.0000  0.0000  0.0000  0.0000  0.0000  0.0000  0.0000 </r>
        <r>  0.0000  0.0000  0.0001  0.0000  0.0000  0.0000  0.0000  0.0000  0.0000 </r>
       </set>
       <set comment="band 7">
        <r>  0.0014  0.0003  0.0000  0.0002  0.0000  0.0000  0.0000  0.0000  0.0000 </r>
        <r>  0.0013  0.0001  0.0000  0.0000  0.0000  0.0000  0.0000  0.0000  0.0000 </r>
        <r>  0.0000  0.0000  0.2308  0.0000  0.0000  0.0000  0.0000  0.0000  0.0000 </r>
        <r>  0.0000  0.0000  0.2215  0.0000  0.0000  0.0000  0.0000  0.0000  0.0000 </r>
       </set>
       <set comment="band 8">
        <r>  0.0000  0.0000  0.2215  0.0000  0.0000  0.0000  0.0000  0.0000  0.0000 </r>
        <r>  0.0000  0.0000  0.2308  0.0000  0.0000  0.0000  0.0000  0.0000  0.0000 </r>
        <r>  0.0013  0.0001  0.0000  0.0000  0.0000  0.0000  0.0000  0.0000  0.0000 </r>
        <r>  0.0014  0.0003  0.0000  0.0002  0.0000  0.0000  0.0000  0.0000  0.0000 </r>
       </set>
       <set comment="band 9">
        <r>  0.0000  0.0008  0.0000  0.0013  0.0000  0.0000  0.0000  0.0000  0.0000 </r>
        <r>  0.0006  0.0001  0.0000  0.0003  0.0000  0.0000  0.0000  0.0000  0.0000 </r>
        <r>  0.0000  0.0000  0.2987  0.0000  0.0000  0.0000  0.0000  0.0000  0.0000 </r>
        <r>  0.0000  0.0000  0.3050  0.0000  0.0000  0.0000  0.0000  0.0000  0.0000 </r>
       </set>
       <set comment="band 10">
        <r>  0.0000  0.0000  0.3050  0.0000  0.0000  0.0000  0.0000  0.0000  0.0000 </r>
        <r>  0.0000  0.0000  0.2987  0.0000  0.0000  0.0000  0.0000  0.0000  0.0000 </r>
        <r>  0.0006  0.0001  0.0000  0.0003  0.0000  0.0000  0.0000  0.0000  0.0000 </r>
        <r>  0.0000  0.0008  0.0000  0.0013  0.0000  0.0000  0.0000  0.0000  0.0000 </r>
       </set>
       <set comment="band 11">
        <r>  0.0073  0.0144  0.0000  0.0078  0.0000  0.0000  0.0000  0.0000  0.0000 </r>
        <r>  0.0100  0.0175  0.0000  0.0101  0.0000  0.0000  0.0000  0.0000  0.0000 </r>
        <r>  0.0000  0.0000  0.0637  0.0000  0.0000  0.0000  0.0000  0.0000  0.0000 </r>
        <r>  0.0000  0.0000  0.0520  0.0000  0.0000  0.0000  0.0000  0.0000  0.0000 </r>
       </set>
       <set comment="band 12">
        <r>  0.0000  0.0000  0.0520  0.0000  0.0000  0.0000  0.0000  0.0000  0.0000 </r>
        <r>  0.0000  0.0000  0.0637  0.0000  0.0000  0.0000  0.0000  0.0000  0.0000 </r>
        <r>  0.0100  0.0175  0.0000  0.0101  0.0000  0.0000  0.0000  0.0000  0.0000 </r>
        <r>  0.0073  0.0144  0.0000  0.0078  0.0000  0.0000  0.0000  0.0000  0.0000 </r>
       </set>
       <set comment="band 13">
        <r>  0.0000  0.0000  0.0113  0.0000  0.0000  0.0000  0.0000  0.0000  0.0000 </r>
        <r>  0.0000  0.0000  0.0000  0.0000  0.0000  0.0000  0.0000  0.0000  0.0000 </r>
        <r>  0.0515  0.0730  0.0000  0.0945  0.0000  0.0000  0.0000  0.0000  0.0000 </r>
        <r>  0.0499  0.0747  0.0000  0.0964  0.0000  0.0000  0.0000  0.0000  0.0000 </r>
       </set>
       <set comment="band 14">
        <r>  0.0499  0.0747  0.0000  0.0964  0.0000  0.0000  0.0000  0.0000  0.0000 </r>
        <r>  0.0514  0.0730  0.0000  0.0946  0.0000  0.0000  0.0000  0.0000  0.0000 </r>
        <r>  0.0000  0.0000  0.0000  0.0000  0.0000  0.0000  0.0000  0.0000  0.0000 </r>
        <r>  0.0000  0.0000  0.0112  0.0000  0.0000  0.0000  0.0000  0.0000  0.0000 </r>
       </set>
      </set>
      <set comment="kpoint 27">
       <set comment="band 1">
        <r>  0.0000  0.0000  0.0000  0.0000  0.0000  0.0000  0.0000  0.0000  0.0000 </r>
        <r>  0.0000  0.0000  0.0000  0.0000  0.0000  0.0000  0.0000  0.0000  0.0000 </r>
        <r>  0.2581  0.0490  0.0000  0.0363  0.0000  0.0000  0.0000  0.0000  0.0000 </r>
        <r>  0.2511  0.0500  0.0000  0.0375  0.0000  0.0000  0.0000  0.0000  0.0000 </r>
       </set>
       <set comment="band 2">
        <r>  0.2511  0.0500  0.0000  0.0375  0.0000  0.0000  0.0000  0.0000  0.0000 </r>
        <r>  0.2581  0.0490  0.0000  0.0363  0.0000  0.0000  0.0000  0.0000  0.0000 </r>
        <r>  0.0000  0.0000  0.0000  0.0000  0.0000  0.0000  0.0000  0.0000  0.0000 </r>
        <r>  0.0000  0.0000  0.0000  0.0000  0.0000  0.0000  0.0000  0.0000  0.0000 </r>
       </set>
       <set comment="band 3">
        <r>  0.0000  0.0000  0.0000  0.0000  0.0000  0.0000  0.0000  0.0000  0.0000 </r>
        <r>  0.0000  0.0000  0.0000  0.0000  0.0000  0.0000  0.0000  0.0000  0.0000 </r>
        <r>  0.1594  0.0316  0.0000  0.1627  0.0000  0.0000  0.0000  0.0000  0.0000 </r>
        <r>  0.1633  0.0298  0.0000  0.1605  0.0000  0.0000  0.0000  0.0000  0.0000 </r>
       </set>
       <set comment="band 4">
        <r>  0.1633  0.0298  0.0000  0.1605  0.0000  0.0000  0.0000  0.0000  0.0000 </r>
        <r>  0.1594  0.0316  0.0000  0.1627  0.0000  0.0000  0.0000  0.0000  0.0000 </r>
        <r>  0.0000  0.0000  0.0000  0.0000  0.0000  0.0000  0.0000  0.0000  0.0000 </r>
        <r>  0.0000  0.0000  0.0000  0.0000  0.0000  0.0000  0.0000  0.0000  0.0000 </r>
       </set>
       <set comment="band 5">
        <r>  0.0000  0.0000  0.0000  0.0000  0.0000  0.0000  0.0000  0.0000  0.0000 </r>
        <r>  0.0000  0.0000  0.0000  0.0000  0.0000  0.0000  0.0000  0.0000  0.0000 </r>
        <r>  0.0333  0.2410  0.0000  0.0939  0.0000  0.0000  0.0000  0.0000  0.0000 </r>
        <r>  0.0342  0.2400  0.0000  0.0930  0.0000  0.0000  0.0000  0.0000  0.0000 </r>
       </set>
       <set comment="band 6">
        <r>  0.0342  0.2400  0.0000  0.0930  0.0000  0.0000  0.0000  0.0000  0.0000 </r>
        <r>  0.0333  0.2410  0.0000  0.0939  0.0000  0.0000  0.0000  0.0000  0.0000 </r>
        <r>  0.0000  0.0000  0.0000  0.0000  0.0000  0.0000  0.0000  0.0000  0.0000 </r>
        <r>  0.0000  0.0000  0.0000  0.0000  0.0000  0.0000  0.0000  0.0000  0.0000 </r>
       </set>
       <set comment="band 7">
        <r>  0.0004  0.0004  0.0000  0.0004  0.0000  0.0000  0.0000  0.0000  0.0000 </r>
        <r>  0.0008  0.0002  0.0000  0.0001  0.0000  0.0000  0.0000  0.0000  0.0000 </r>
        <r>  0.0000  0.0000  0.2554  0.0000  0.0000  0.0000  0.0000  0.0000  0.0000 </r>
        <r>  0.0000  0.0000  0.2357  0.0000  0.0000  0.0000  0.0000  0.0000  0.0000 </r>
       </set>
       <set comment="band 8">
        <r>  0.0000  0.0000  0.2357  0.0000  0.0000  0.0000  0.0000  0.0000  0.0000 </r>
        <r>  0.0000  0.0000  0.2554  0.0000  0.0000  0.0000  0.0000  0.0000  0.0000 </r>
        <r>  0.0008  0.0002  0.0000  0.0001  0.0000  0.0000  0.0000  0.0000  0.0000 </r>
        <r>  0.0004  0.0004  0.0000  0.0004  0.0000  0.0000  0.0000  0.0000  0.0000 </r>
       </set>
       <set comment="band 9">
        <r>  0.0004  0.0002  0.0000  0.0005  0.0000  0.0000  0.0000  0.0000  0.0000 </r>
        <r>  0.0001  0.0001  0.0000  0.0006  0.0000  0.0000  0.0000  0.0000  0.0000 </r>
        <r>  0.0000  0.0000  0.2499  0.0000  0.0000  0.0000  0.0000  0.0000  0.0000 </r>
        <r>  0.0000  0.0000  0.2666  0.0000  0.0000  0.0000  0.0000  0.0000  0.0000 </r>
       </set>
       <set comment="band 10">
        <r>  0.0000  0.0000  0.2666  0.0000  0.0000  0.0000  0.0000  0.0000  0.0000 </r>
        <r>  0.0000  0.0000  0.2499  0.0000  0.0000  0.0000  0.0000  0.0000  0.0000 </r>
        <r>  0.0001  0.0001  0.0000  0.0006  0.0000  0.0000  0.0000  0.0000  0.0000 </r>
        <r>  0.0004  0.0002  0.0000  0.0005  0.0000  0.0000  0.0000  0.0000  0.0000 </r>
       </set>
       <set comment="band 11">
        <r>  0.0000  0.0000  0.0012  0.0000  0.0000  0.0000  0.0000  0.0000  0.0000 </r>
        <r>  0.0000  0.0000  0.0028  0.0000  0.0000  0.0000  0.0000  0.0000  0.0000 </r>
        <r>  0.1091  0.0637  0.0000  0.0748  0.0000  0.0000  0.0000  0.0000  0.0000 </r>
        <r>  0.0995  0.0521  0.0000  0.0670  0.0000  0.0000  0.0000  0.0000  0.0000 </r>
       </set>
       <set comment="band 12">
        <r>  0.0995  0.0521  0.0000  0.0670  0.0000  0.0000  0.0000  0.0000  0.0000 </r>
        <r>  0.1091  0.0637  0.0000  0.0748  0.0000  0.0000  0.0000  0.0000  0.0000 </r>
        <r>  0.0000  0.0000  0.0028  0.0000  0.0000  0.0000  0.0000  0.0000  0.0000 </r>
        <r>  0.0000  0.0000  0.0012  0.0000  0.0000  0.0000  0.0000  0.0000  0.0000 </r>
       </set>
       <set comment="band 13">
        <r>  0.0277  0.0198  0.0000  0.0041  0.0000  0.0000  0.0000  0.0000  0.0000 </r>
        <r>  0.0135  0.0078  0.0000  0.0034  0.0000  0.0000  0.0000  0.0000  0.0000 </r>
        <r>  0.0000  0.0000  0.0563  0.0000  0.0000  0.0000  0.0000  0.0000  0.0000 </r>
        <r>  0.0000  0.0000  0.0549  0.0000  0.0000  0.0000  0.0000  0.0000  0.0000 </r>
       </set>
       <set comment="band 14">
        <r>  0.0000  0.0000  0.0549  0.0000  0.0000  0.0000  0.0000  0.0000  0.0000 </r>
        <r>  0.0000  0.0000  0.0563  0.0000  0.0000  0.0000  0.0000  0.0000  0.0000 </r>
        <r>  0.0135  0.0078  0.0000  0.0034  0.0000  0.0000  0.0000  0.0000  0.0000 </r>
        <r>  0.0277  0.0198  0.0000  0.0041  0.0000  0.0000  0.0000  0.0000  0.0000 </r>
       </set>
      </set>
      <set comment="kpoint 28">
       <set comment="band 1">
        <r>  0.0000  0.0000  0.0000  0.0000  0.0000  0.0000  0.0000  0.0000  0.0000 </r>
        <r>  0.0000  0.0000  0.0000  0.0000  0.0000  0.0000  0.0000  0.0000  0.0000 </r>
        <r>  0.4751  0.0000  0.0000  0.0000  0.0000  0.0000  0.0000  0.0000  0.0000 </r>
        <r>  0.0000  0.1219  0.0000  0.1219  0.0000  0.0000  0.0000  0.0000  0.0000 </r>
       </set>
       <set comment="band 2">
        <r>  0.0000  0.1219  0.0000  0.1219  0.0000  0.0000  0.0000  0.0000  0.0000 </r>
        <r>  0.4751  0.0000  0.0000  0.0000  0.0000  0.0000  0.0000  0.0000  0.0000 </r>
        <r>  0.0000  0.0000  0.0000  0.0000  0.0000  0.0000  0.0000  0.0000  0.0000 </r>
        <r>  0.0000  0.0000  0.0000  0.0000  0.0000  0.0000  0.0000  0.0000  0.0000 </r>
       </set>
       <set comment="band 3">
        <r>  0.0000  0.0000  0.0000  0.0000  0.0000  0.0000  0.0000  0.0000  0.0000 </r>
        <r>  0.0000  0.0000  0.0000  0.0000  0.0000  0.0000  0.0000  0.0000  0.0000 </r>
        <r>  0.0000  0.1232  0.0000  0.1232  0.0000  0.0000  0.0000  0.0000  0.0000 </r>
        <r>  0.4731  0.0000  0.0000  0.0000  0.0000  0.0000  0.0000  0.0000  0.0000 </r>
       </set>
       <set comment="band 4">
        <r>  0.4731  0.0000  0.0000  0.0000  0.0000  0.0000  0.0000  0.0000  0.0000 </r>
        <r>  0.0000  0.1232  0.0000  0.1232  0.0000  0.0000  0.0000  0.0000  0.0000 </r>
        <r>  0.0000  0.0000  0.0000  0.0000  0.0000  0.0000  0.0000  0.0000  0.0000 </r>
        <r>  0.0000  0.0000  0.0000  0.0000  0.0000  0.0000  0.0000  0.0000  0.0000 </r>
       </set>
       <set comment="band 5">
        <r>  0.0000  0.0000  0.0000  0.0000  0.0000  0.0000  0.0000  0.0000  0.0000 </r>
        <r>  0.0000  0.0000  0.0000  0.0000  0.0000  0.0000  0.0000  0.0000  0.0000 </r>
        <r>  0.0000  0.1633  0.0000  0.1633  0.0000  0.0000  0.0000  0.0000  0.0000 </r>
        <r>  0.0000  0.1627  0.0000  0.1627  0.0000  0.0000  0.0000  0.0000  0.0000 </r>
       </set>
       <set comment="band 6">
        <r>  0.0000  0.1627  0.0000  0.1627  0.0000  0.0000  0.0000  0.0000  0.0000 </r>
        <r>  0.0000  0.1633  0.0000  0.1633  0.0000  0.0000  0.0000  0.0000  0.0000 </r>
        <r>  0.0000  0.0000  0.0000  0.0000  0.0000  0.0000  0.0000  0.0000  0.0000 </r>
        <r>  0.0000  0.0000  0.0000  0.0000  0.0000  0.0000  0.0000  0.0000  0.0000 </r>
       </set>
       <set comment="band 7">
        <r>  0.0000  0.0006  0.0000  0.0006  0.0000  0.0000  0.0000  0.0000  0.0000 </r>
        <r>  0.0005  0.0000  0.0000  0.0000  0.0000  0.0000  0.0000  0.0000  0.0000 </r>
        <r>  0.0000  0.0000  0.5260  0.0000  0.0000  0.0000  0.0000  0.0000  0.0000 </r>
        <r>  0.0000  0.0000  0.0000  0.0000  0.0000  0.0000  0.0000  0.0000  0.0000 </r>
       </set>
       <set comment="band 8">
        <r>  0.0000  0.0000  0.0000  0.0000  0.0000  0.0000  0.0000  0.0000  0.0000 </r>
        <r>  0.0000  0.0000  0.5260  0.0000  0.0000  0.0000  0.0000  0.0000  0.0000 </r>
        <r>  0.0005  0.0000  0.0000  0.0000  0.0000  0.0000  0.0000  0.0000  0.0000 </r>
        <r>  0.0000  0.0006  0.0000  0.0006  0.0000  0.0000  0.0000  0.0000  0.0000 </r>
       </set>
       <set comment="band 9">
        <r>  0.0000  0.0004  0.0000  0.0004  0.0000  0.0000  0.0000  0.0000  0.0000 </r>
        <r>  0.0000  0.0004  0.0000  0.0004  0.0000  0.0000  0.0000  0.0000  0.0000 </r>
        <r>  0.0000  0.0000  0.0000  0.0000  0.0000  0.0000  0.0000  0.0000  0.0000 </r>
        <r>  0.0000  0.0000  0.5238  0.0000  0.0000  0.0000  0.0000  0.0000  0.0000 </r>
       </set>
       <set comment="band 10">
        <r>  0.0000  0.0000  0.5238  0.0000  0.0000  0.0000  0.0000  0.0000  0.0000 </r>
        <r>  0.0000  0.0000  0.0000  0.0000  0.0000  0.0000  0.0000  0.0000  0.0000 </r>
        <r>  0.0000  0.0004  0.0000  0.0004  0.0000  0.0000  0.0000  0.0000  0.0000 </r>
        <r>  0.0000  0.0004  0.0000  0.0004  0.0000  0.0000  0.0000  0.0000  0.0000 </r>
       </set>
       <set comment="band 11">
        <r>  0.0001  0.0000  0.0000  0.0000  0.0000  0.0000  0.0000  0.0000  0.0000 </r>
        <r>  0.0000  0.0190  0.0000  0.0190  0.0000  0.0000  0.0000  0.0000  0.0000 </r>
        <r>  0.0000  0.0000  0.0000  0.0000  0.0000  0.0000  0.0000  0.0000  0.0000 </r>
        <r>  0.0000  0.0000  0.0000  0.0000  0.0000  0.0000  0.0000  0.0000  0.0000 </r>
       </set>
       <set comment="band 12">
        <r>  0.0000  0.0000  0.0000  0.0000  0.0000  0.0000  0.0000  0.0000  0.0000 </r>
        <r>  0.0000  0.0000  0.0000  0.0000  0.0000  0.0000  0.0000  0.0000  0.0000 </r>
        <r>  0.0000  0.0190  0.0000  0.0190  0.0000  0.0000  0.0000  0.0000  0.0000 </r>
        <r>  0.0001  0.0000  0.0000  0.0000  0.0000  0.0000  0.0000  0.0000  0.0000 </r>
       </set>
       <set comment="band 13">
        <r>  0.0000  0.0800  0.0000  0.0800  0.0000  0.0000  0.0000  0.0000  0.0000 </r>
        <r>  0.0244  0.0000  0.0192  0.0000  0.0000  0.0000  0.0000  0.0000  0.0000 </r>
        <r>  0.0345  0.0000  0.0135  0.0000  0.0000  0.0000  0.0000  0.0000  0.0000 </r>
        <r>  0.0000  0.1133  0.0000  0.1134  0.0000  0.0000  0.0000  0.0000  0.0000 </r>
       </set>
       <set comment="band 14">
        <r>  0.0000  0.1133  0.0000  0.1135  0.0000  0.0000  0.0000  0.0000  0.0000 </r>
        <r>  0.0345  0.0000  0.0135  0.0000  0.0000  0.0000  0.0000  0.0000  0.0000 </r>
        <r>  0.0244  0.0000  0.0192  0.0000  0.0000  0.0000  0.0000  0.0000  0.0000 </r>
        <r>  0.0000  0.0800  0.0000  0.0800  0.0000  0.0000  0.0000  0.0000  0.0000 </r>
       </set>
      </set>
     </set>
    </set>
   </array>
  </projected>
 </calculation>
 <structure name="finalpos" >
  <crystal>
   <varray name="basis" >
    <v>       2.46120000       0.00000000       0.00000000 </v>
    <v>      -1.23060000       2.13146172       0.00000000 </v>
    <v>       0.00000000       0.00000000       6.70790000 </v>
   </varray>
   <i name="volume">     35.18933212 </i>
   <varray name="rec_basis" >
    <v>       0.40630587       0.23458080       0.00000000 </v>
    <v>       0.00000000       0.46916160       0.00000000 </v>
    <v>       0.00000000       0.00000000       0.14907795 </v>
   </varray>
  </crystal>
  <varray name="positions" >
   <v>       0.00000000       0.00000000       0.00000000 </v>
   <v>       0.33333333       0.66666667       0.00000000 </v>
   <v>       0.33333333       0.66666667       0.50000000 </v>
   <v>       0.66666667       0.33333333       0.50000000 </v>
  </varray>
 </structure>
</modeling>
