   1   1   0   0
  0.1813235E+02  0.2866544E-09  0.2866544E-09  0.2866544E-09  0.5000000E-15
  1.000000000000000E-004
  CAR 
 unknown system                          
     16.16162511     -2.89202715  301      5.70872695      1.00000000
     -2.892  0.0000E+00  0.0000E+00
     -2.829  0.0000E+00  0.0000E+00
     -2.765  0.0000E+00  0.0000E+00
     -2.701  0.0000E+00  0.0000E+00
     -2.638  0.0000E+00  0.0000E+00
     -2.574  0.0000E+00  0.0000E+00
     -2.511  0.0000E+00  0.0000E+00
     -2.447 -0.3576E-31 -0.2271E-32
     -2.384 -0.1209E-22 -0.7679E-24
     -2.320 -0.1510E-15 -0.9592E-17
     -2.257 -0.7368E-10 -0.4679E-11
     -2.193 -0.1273E-05 -0.8083E-07
     -2.130 -0.6713E-03 -0.4272E-04
     -2.066  0.1531E-02  0.5451E-04
     -2.003  0.9191E-01  0.5892E-02
     -1.939  0.1845E-01  0.7064E-02
     -1.876 -0.1896E-02  0.6943E-02
     -1.812 -0.3380E-02  0.6729E-02
     -1.749  0.3851E-01  0.9174E-02
     -1.685  0.1134E+00  0.1638E-01
     -1.622 -0.2161E-02  0.1624E-01
     -1.558 -0.1995E-02  0.1611E-01
     -1.495 -0.8426E-02  0.1558E-01
     -1.431  0.3321E+00  0.3667E-01
     -1.368  0.1260E+00  0.4467E-01
     -1.304 -0.1073E-01  0.4399E-01
     -1.241 -0.1004E-03  0.4398E-01
     -1.177 -0.2314E-07  0.4398E-01
     -1.114 -0.4449E-07  0.4398E-01
     -1.050 -0.1555E-03  0.4397E-01
     -0.987 -0.1311E-01  0.4314E-01
     -0.923  0.1583E+00  0.5319E-01
     -0.860  0.4013E+00  0.7868E-01
     -0.796  0.3002E-02  0.7887E-01
     -0.733 -0.9629E-02  0.7826E-01
     -0.669  0.6574E-01  0.8244E-01
     -0.606  0.3717E+00  0.1060E+00
     -0.542  0.8716E-02  0.1066E+00
     -0.479 -0.1447E-01  0.1057E+00
     -0.415  0.3137E+00  0.1256E+00
     -0.352  0.1483E+00  0.1350E+00
     -0.288 -0.1196E-01  0.1343E+00
     -0.225 -0.1396E-03  0.1343E+00
     -0.161 -0.3972E-07  0.1343E+00
     -0.097 -0.1579E-04  0.1343E+00
     -0.034 -0.5012E-02  0.1339E+00
      0.030  0.2191E-01  0.1353E+00
      0.093  0.5526E+00  0.1704E+00
      0.157  0.3094E+00  0.1901E+00
      0.220  0.2669E+00  0.2070E+00
      0.284  0.1800E+00  0.2185E+00
      0.347 -0.1603E-01  0.2174E+00
      0.411 -0.2078E-01  0.2161E+00
      0.474  0.6443E+00  0.2570E+00
      0.538  0.2765E+00  0.2746E+00
      0.601 -0.3599E-01  0.2723E+00
      0.665  0.1722E+00  0.2833E+00
      0.728  0.2927E+00  0.3018E+00
      0.792 -0.1355E-01  0.3010E+00
      0.855 -0.8670E-03  0.3009E+00
      0.919 -0.1495E-02  0.3008E+00
      0.982  0.1287E-01  0.3016E+00
      1.046  0.8288E-01  0.3069E+00
      1.109  0.6241E-01  0.3109E+00
      1.173  0.1152E+01  0.3841E+00
      1.236  0.1142E+01  0.4566E+00
      1.300  0.1941E+00  0.4689E+00
      1.363  0.2283E+00  0.4834E+00
      1.427  0.9067E+00  0.5410E+00
      1.490  0.7264E+00  0.5871E+00
      1.554  0.7564E+00  0.6352E+00
      1.617  0.2847E-01  0.6370E+00
      1.681 -0.3736E-01  0.6346E+00
      1.744  0.3651E+00  0.6578E+00
      1.808  0.1018E+01  0.7225E+00
      1.871  0.4864E+00  0.7534E+00
      1.935  0.9055E+00  0.8109E+00
      1.998  0.6491E+00  0.8521E+00
      2.062  0.1483E+01  0.9462E+00
      2.125  0.6292E+00  0.9862E+00
      2.189 -0.6112E-01  0.9823E+00
      2.252  0.9413E+00  0.1042E+01
      2.316  0.1125E+01  0.1114E+01
      2.379  0.3056E+00  0.1133E+01
      2.443  0.1180E+01  0.1208E+01
      2.507  0.1615E+01  0.1310E+01
      2.570 -0.4651E-01  0.1308E+01
      2.634  0.6250E+00  0.1347E+01
      2.697  0.1543E+01  0.1445E+01
      2.761  0.1561E+01  0.1544E+01
      2.824  0.9202E+00  0.1603E+01
      2.888  0.9130E+00  0.1661E+01
      2.951  0.1050E+01  0.1727E+01
      3.015  0.9739E+00  0.1789E+01
      3.078  0.8552E+00  0.1844E+01
      3.142 -0.6022E-01  0.1840E+01
      3.205  0.1140E+01  0.1912E+01
      3.269  0.1448E+01  0.2004E+01
      3.332  0.7696E+00  0.2053E+01
      3.396  0.7185E+00  0.2099E+01
      3.459  0.8226E+00  0.2151E+01
      3.523 -0.4549E-01  0.2148E+01
      3.586  0.4284E-01  0.2151E+01
      3.650  0.1481E+00  0.2160E+01
      3.713  0.7542E+00  0.2208E+01
      3.777  0.7288E-01  0.2213E+01
      3.840  0.2204E+00  0.2227E+01
      3.904  0.2250E+00  0.2241E+01
      3.967  0.3960E+00  0.2266E+01
      4.031  0.7168E+00  0.2312E+01
      4.094  0.3671E+00  0.2335E+01
      4.158  0.6719E+00  0.2378E+01
      4.221  0.3695E+01  0.2612E+01
      4.285  0.2866E+01  0.2794E+01
      4.348  0.1203E+01  0.2871E+01
      4.412  0.2311E+01  0.3018E+01
      4.475  0.1874E+01  0.3137E+01
      4.539  0.1959E+01  0.3261E+01
      4.602  0.1565E+01  0.3360E+01
      4.666  0.1108E+01  0.3431E+01
      4.729  0.1946E+01  0.3554E+01
      4.793  0.9888E+00  0.3617E+01
      4.856  0.1211E+01  0.3694E+01
      4.920  0.7624E+00  0.3743E+01
      4.983  0.1124E+01  0.3814E+01
      5.047  0.1342E+01  0.3899E+01
      5.111  0.1292E+01  0.3981E+01
      5.174  0.1397E+01  0.4070E+01
      5.238  0.2219E+01  0.4211E+01
      5.301  0.2424E+01  0.4365E+01
      5.365  0.2380E+01  0.4516E+01
      5.428  0.1289E+01  0.4598E+01
      5.492  0.2153E+01  0.4735E+01
      5.555  0.2332E+01  0.4883E+01
      5.619  0.1882E+00  0.4895E+01
      5.682  0.1126E+01  0.4966E+01
      5.746  0.1129E+01  0.5038E+01
      5.809  0.7978E+00  0.5089E+01
      5.873  0.1163E+01  0.5162E+01
      5.936  0.1458E+01  0.5255E+01
      6.000  0.1600E+01  0.5357E+01
      6.063  0.1148E+01  0.5430E+01
      6.127  0.4639E+00  0.5459E+01
      6.190  0.9875E-01  0.5465E+01
      6.254  0.1713E+01  0.5574E+01
      6.317  0.1174E+01  0.5649E+01
      6.381  0.5431E+00  0.5683E+01
      6.444  0.6805E+00  0.5726E+01
      6.508  0.2404E+00  0.5742E+01
      6.571  0.3677E+00  0.5765E+01
      6.635  0.3975E+00  0.5790E+01
      6.698  0.2196E+00  0.5804E+01
      6.762 -0.2214E-01  0.5803E+01
      6.825  0.5877E-01  0.5807E+01
      6.889  0.3705E+00  0.5830E+01
      6.952  0.6425E-01  0.5834E+01
      7.016  0.7611E-01  0.5839E+01
      7.079  0.5013E+00  0.5871E+01
      7.143  0.2914E+00  0.5889E+01
      7.206  0.2180E+00  0.5903E+01
      7.270  0.3241E+00  0.5924E+01
      7.333  0.4573E+00  0.5953E+01
      7.397  0.3064E+00  0.5972E+01
      7.460  0.3172E+00  0.5992E+01
      7.524  0.6130E+00  0.6031E+01
      7.587  0.1501E+00  0.6041E+01
      7.651  0.4925E+00  0.6072E+01
      7.715  0.6641E+00  0.6114E+01
      7.778  0.9303E+00  0.6173E+01
      7.842  0.3968E+00  0.6199E+01
      7.905  0.1836E+01  0.6315E+01
      7.969  0.8099E+00  0.6367E+01
      8.032  0.4009E+00  0.6392E+01
      8.096  0.6400E+00  0.6433E+01
      8.159  0.3232E+00  0.6453E+01
      8.223  0.9253E+00  0.6512E+01
      8.286  0.1862E+01  0.6630E+01
      8.350  0.1517E+01  0.6727E+01
      8.413  0.6215E+00  0.6766E+01
      8.477  0.6281E+00  0.6806E+01
      8.540 -0.6692E-02  0.6806E+01
      8.604 -0.7214E-02  0.6805E+01
      8.667  0.3266E+00  0.6826E+01
      8.731  0.3770E+00  0.6850E+01
      8.794  0.7916E+00  0.6900E+01
      8.858  0.9590E+00  0.6961E+01
      8.921  0.8719E+00  0.7016E+01
      8.985  0.7684E+00  0.7065E+01
      9.048  0.1214E+01  0.7142E+01
      9.112  0.1958E+01  0.7267E+01
      9.175  0.6514E+00  0.7308E+01
      9.239  0.1134E+01  0.7380E+01
      9.302  0.1495E+01  0.7475E+01
      9.366  0.1021E+01  0.7540E+01
      9.429  0.1782E+01  0.7653E+01
      9.493  0.7178E+00  0.7699E+01
      9.556  0.6565E+00  0.7740E+01
      9.620  0.8907E+00  0.7797E+01
      9.683  0.2617E+01  0.7963E+01
      9.747  0.2194E+01  0.8102E+01
      9.810  0.7282E+00  0.8149E+01
      9.874  0.1744E+01  0.8260E+01
      9.937  0.9513E+00  0.8320E+01
     10.001  0.5269E-01  0.8323E+01
     10.064  0.7420E+00  0.8370E+01
     10.128  0.9761E+00  0.8432E+01
     10.191  0.1817E+01  0.8548E+01
     10.255  0.1583E+01  0.8648E+01
     10.319  0.7187E+00  0.8694E+01
     10.382  0.1807E+01  0.8809E+01
     10.446  0.2510E+01  0.8968E+01
     10.509  0.3688E+01  0.9202E+01
     10.573  0.2279E+01  0.9347E+01
     10.636  0.1936E+01  0.9470E+01
     10.700  0.2057E+01  0.9601E+01
     10.763  0.1401E+01  0.9690E+01
     10.827  0.1671E+01  0.9796E+01
     10.890  0.1718E+01  0.9905E+01
     10.954  0.4397E+00  0.9933E+01
     11.017  0.1851E+01  0.1005E+02
     11.081  0.2116E+01  0.1018E+02
     11.144  0.1558E+01  0.1028E+02
     11.208  0.1338E+01  0.1037E+02
     11.271  0.1738E+01  0.1048E+02
     11.335  0.1170E-01  0.1048E+02
     11.398 -0.2281E-01  0.1048E+02
     11.462  0.1161E+00  0.1049E+02
     11.525  0.4367E+00  0.1051E+02
     11.589  0.9884E-01  0.1052E+02
     11.652  0.4374E+00  0.1055E+02
     11.716  0.4355E+00  0.1058E+02
     11.779  0.3506E+00  0.1060E+02
     11.843  0.7403E+00  0.1064E+02
     11.906  0.2061E+00  0.1066E+02
     11.970  0.2574E+00  0.1067E+02
     12.033  0.1899E+00  0.1069E+02
     12.097 -0.1387E-01  0.1069E+02
     12.160 -0.2963E-03  0.1069E+02
     12.224 -0.9371E-02  0.1068E+02
     12.287  0.9289E-01  0.1069E+02
     12.351  0.4588E+00  0.1072E+02
     12.414  0.4768E-02  0.1072E+02
     12.478  0.7765E-02  0.1072E+02
     12.541  0.3729E+00  0.1074E+02
     12.605  0.6117E-01  0.1075E+02
     12.668 -0.1081E-01  0.1075E+02
     12.732  0.3314E+00  0.1077E+02
     12.795  0.6300E+00  0.1081E+02
     12.859  0.1894E+01  0.1093E+02
     12.923  0.1279E+01  0.1101E+02
     12.986  0.1174E+01  0.1108E+02
     13.050  0.8374E+00  0.1114E+02
     13.113  0.7581E+00  0.1119E+02
     13.177  0.1712E+01  0.1129E+02
     13.240  0.3791E+00  0.1132E+02
     13.304 -0.1961E-01  0.1132E+02
     13.367  0.3748E+00  0.1134E+02
     13.431  0.2004E+00  0.1135E+02
     13.494  0.6412E-02  0.1135E+02
     13.558 -0.2040E-02  0.1135E+02
     13.621 -0.8727E-02  0.1135E+02
     13.685  0.1069E+00  0.1136E+02
     13.748  0.4808E+00  0.1139E+02
     13.812  0.2028E+00  0.1140E+02
     13.875 -0.1647E-01  0.1140E+02
     13.939 -0.2710E-02  0.1140E+02
     14.002  0.9938E-01  0.1141E+02
     14.066  0.2934E+00  0.1143E+02
     14.129  0.1856E+00  0.1144E+02
     14.193  0.1762E+00  0.1145E+02
     14.256  0.1474E+01  0.1154E+02
     14.320  0.1122E+00  0.1155E+02
     14.383  0.1397E+00  0.1156E+02
     14.447  0.3054E+00  0.1158E+02
     14.510 -0.4127E-01  0.1158E+02
     14.574  0.3325E+00  0.1160E+02
     14.637  0.9898E+00  0.1166E+02
     14.701  0.9460E+00  0.1172E+02
     14.764  0.4064E+00  0.1175E+02
     14.828  0.8379E-01  0.1175E+02
     14.891  0.4607E+00  0.1178E+02
     14.955  0.3892E+00  0.1181E+02
     15.018  0.7301E+00  0.1185E+02
     15.082  0.4265E+00  0.1188E+02
     15.145  0.1222E+01  0.1196E+02
     15.209  0.9379E-01  0.1196E+02
     15.272  0.1291E+00  0.1197E+02
     15.336  0.4530E+00  0.1200E+02
     15.399  0.1142E-02  0.1200E+02
     15.463 -0.2869E-02  0.1200E+02
     15.527 -0.5202E-05  0.1200E+02
     15.590 -0.2969E-09  0.1200E+02
     15.654 -0.5827E-15  0.1200E+02
     15.717  0.0000E+00  0.1200E+02
     15.781  0.0000E+00  0.1200E+02
     15.844  0.0000E+00  0.1200E+02
     15.908  0.0000E+00  0.1200E+02
     15.971  0.0000E+00  0.1200E+02
     16.035  0.0000E+00  0.1200E+02
     16.098  0.0000E+00  0.1200E+02
     16.162  0.0000E+00  0.1200E+02
