    1    1    1    1
  0.1813235E+02  0.2866544E-09  0.2866544E-09  0.2866544E-09  0.5000000E-15
  1.000000000000000E-004
  CAR 
 unknown system                          
    5   68    6
 
  0.4166667E-01  0.4166667E-01  0.4166667E-01  0.4629630E-02
   1       -1.732587
   2        6.190763
   3        6.190763
   4        6.962570
   5        9.482348
   6        9.482348
 
  0.1250000E+00  0.4166667E-01  0.4166667E-01  0.1388889E-01
   1       -0.912642
   2        5.675322
   3        5.848936
   4        7.912984
   5        9.111361
   6        9.642635
 
  0.2083333E+00  0.4166667E-01  0.4166667E-01  0.1388889E-01
   1        0.213037
   2        5.091468
   3        5.425039
   4        9.111453
   5        9.377699
   6        9.860007
 
  0.2916667E+00  0.4166667E-01  0.4166667E-01  0.1388889E-01
   1        1.152994
   2        4.594247
   3        5.503642
   4        9.457035
   5       10.145209
   6       11.105051
 
  0.3750000E+00  0.4166667E-01  0.4166667E-01  0.1388889E-01
   1        1.488273
   2        4.267989
   3        6.398559
   4        9.659928
   5       10.438861
   6       12.836494
 
  0.4583333E+00  0.4166667E-01  0.4166667E-01  0.6944444E-02
   1        1.518864
   2        4.155027
   3        7.065814
   4        9.615355
   5       10.574348
   6       13.683292
 
 -0.4166667E-01  0.4166667E-01  0.4166667E-01  0.3472222E-02
   1       -2.025952
   2        6.409062
   3        6.409064
   4        6.505576
   5        9.412650
   6        9.760769
 
  0.1250000E+00  0.1250000E+00  0.4166667E-01  0.1388889E-01
   1        0.060779
   2        5.236227
   3        5.245607
   4        9.076930
   5        9.264112
   6        9.877087
 
  0.2083333E+00  0.1250000E+00  0.4166667E-01  0.2777778E-01
   1        1.194448
   2        4.706249
   3        4.964866
   4        9.222290
   5       10.208241
   6       10.980664
 
  0.2916667E+00  0.1250000E+00  0.4166667E-01  0.2777778E-01
   1        1.897882
   2        4.353702
   3        5.375739
   4        9.546548
   5       10.440545
   6       12.814395
 
  0.3750000E+00  0.1250000E+00  0.4166667E-01  0.2777778E-01
   1        2.026559
   2        4.177645
   3        6.262095
   4        9.680122
   5       10.634138
   6       14.214340
 
 -0.1250000E+00  0.1250000E+00  0.4166667E-01  0.1388889E-01
   1       -1.445904
   2        6.075343
   3        6.267927
   4        7.072526
   5        8.849802
   6        9.884002
 
  0.2083333E+00  0.2083333E+00  0.4166667E-01  0.1388889E-01
   1        2.226906
   2        4.376043
   3        4.819760
   4        9.402767
   5       10.473589
   6       12.875401
 
  0.2916667E+00  0.2083333E+00  0.4166667E-01  0.2777778E-01
   1        2.718418
   2        4.262006
   3        5.236234
   4        9.717069
   5       10.540178
   6       14.695745
 
  0.3750000E+00  0.2083333E+00  0.4166667E-01  0.1388889E-01
   1        2.768345
   2        4.243005
   3        5.632086
   4        9.815787
   5       10.656327
   6       14.977391
 
 -0.2083333E+00  0.2083333E+00  0.4166667E-01  0.1388889E-01
   1       -0.426517
   2        5.518952
   3        5.834953
   4        8.220477
   5        8.648756
   6       10.015304
 
 -0.1250000E+00  0.2083333E+00  0.4166667E-01  0.1388889E-01
   1       -0.644507
   2        5.842616
   3        5.901957
   4        7.858301
   5        8.276662
   6       10.185145
 
  0.2916667E+00  0.2916667E+00  0.4166667E-01  0.1388889E-01
   1        3.187783
   2        4.476833
   3        5.028331
   4       10.090614
   5       10.463441
   6       14.393466
 
 -0.2916667E+00  0.2916667E+00  0.4166667E-01  0.1388889E-01
   1        0.672823
   2        4.955811
   3        5.509063
   4        8.949647
   5        9.823279
   6       10.202347
 
 -0.2083333E+00  0.2916667E+00  0.4166667E-01  0.2777778E-01
   1        0.461242
   2        5.270766
   3        5.474475
   4        8.282352
   5        9.251466
   6       10.419412
 
 -0.3750000E+00  0.3750000E+00  0.4166667E-01  0.1388889E-01
   1        1.302068
   2        4.519930
   3        5.955345
   4        9.364912
   5       10.423278
   6       11.660933
 
 -0.2916667E+00  0.3750000E+00  0.4166667E-01  0.2777778E-01
   1        1.406920
   2        4.798196
   3        5.353068
   4        8.742344
   5       10.503575
   6       11.071727
 
 -0.2083333E+00  0.3750000E+00  0.4166667E-01  0.1388889E-01
   1        1.522157
   2        4.699623
   3        5.321130
   4        8.368767
   5       10.448760
   6       11.030058
 
 -0.4583333E+00  0.4583333E+00  0.4166667E-01  0.1388889E-01
   1        1.427194
   2        4.285951
   3        6.851211
   4        9.400442
   5       10.723517
   6       13.152571
 
 -0.3750000E+00  0.4583333E+00  0.4166667E-01  0.2777778E-01
   1        1.752014
   2        4.523572
   3        5.909615
   4        9.074916
   5       10.782131
   6       12.843651
 
 -0.2916667E+00  0.4583333E+00  0.4166667E-01  0.2777778E-01
   1        2.279783
   2        4.418190
   3        5.330074
   4        8.813818
   5       10.490785
   6       12.917906
 
 -0.4583333E+00 -0.4583333E+00  0.4166667E-01  0.1388889E-01
   1        1.779757
   2        4.426171
   3        6.371689
   4        9.000427
   5       11.137328
   6       13.736710
 
 -0.3750000E+00 -0.4583333E+00  0.4166667E-01  0.2777778E-01
   1        2.457748
   2        4.476380
   3        5.512626
   4        9.015983
   5       10.857674
   6       14.583760
 
 -0.2916667E+00 -0.4583333E+00  0.4166667E-01  0.1388889E-01
   1        3.005908
   2        4.199401
   3        5.172596
   4        9.305491
   5       10.384685
   6       14.996026
 
 -0.3750000E+00 -0.3750000E+00  0.4166667E-01  0.1388889E-01
   1        3.223424
   2        4.394123
   3        4.860040
   4        9.617247
   5       10.507532
   6       14.903848
 
  0.1250000E+00  0.1250000E+00  0.1250000E+00  0.4629630E-02
   1        1.143617
   2        4.708928
   3        4.708928
   4        9.758145
   5        9.758145
   6       11.022578
 
  0.2083333E+00  0.1250000E+00  0.1250000E+00  0.1388889E-01
   1        2.251002
   2        4.338794
   3        4.563807
   4        9.884186
   5       10.241801
   6       12.936305
 
  0.2916667E+00  0.1250000E+00  0.1250000E+00  0.1388889E-01
   1        2.657092
   2        4.127519
   3        5.332210
   4       10.050610
   5       10.540453
   6       14.609043
 
  0.3750000E+00  0.1250000E+00  0.1250000E+00  0.6944444E-02
   1        2.665061
   2        4.059677
   3        5.968910
   4       10.080643
   5       10.646821
   6       15.044422
 
 -0.1250000E+00  0.1250000E+00  0.1250000E+00  0.3472222E-02
   1       -0.885162
   2        6.335916
   3        6.335917
   4        7.079032
   5        7.780929
   6       10.360629
 
  0.2083333E+00  0.2083333E+00  0.1250000E+00  0.1388889E-01
   1        3.227534
   2        4.237971
   3        4.475595
   4       10.176575
   5       10.501141
   6       14.842190
 
  0.2916667E+00  0.2083333E+00  0.1250000E+00  0.2777778E-01
   1        3.399542
   2        4.203205
   3        5.164550
   4       10.339992
   5       10.640748
   6       14.230460
 
 -0.2083333E+00  0.2083333E+00  0.1250000E+00  0.1388889E-01
   1        0.101167
   2        5.952332
   3        6.009804
   4        7.346623
   5        8.042980
   6       10.631749
 
  0.2916667E+00  0.2916667E+00  0.1250000E+00  0.4629630E-02
   1        3.596160
   2        4.745886
   3        4.745888
   4       10.574709
   5       10.574709
   6       13.400946
 
 -0.2916667E+00  0.2916667E+00  0.1250000E+00  0.1388889E-01
   1        1.185010
   2        5.247155
   3        5.511923
   4        7.867001
   5        9.628513
   6       10.719941
 
 -0.2083333E+00  0.2916667E+00  0.1250000E+00  0.1388889E-01
   1        1.131470
   2        5.236760
   3        6.017981
   4        7.285599
   5        9.100955
   6       10.787904
 
 -0.3750000E+00  0.3750000E+00  0.1250000E+00  0.1388889E-01
   1        1.830914
   2        5.108602
   3        5.208059
   4        8.417488
   5       10.938851
   6       11.482442
 
 -0.2916667E+00  0.3750000E+00  0.1250000E+00  0.2777778E-01
   1        2.067737
   2        4.588879
   3        5.764731
   4        7.877834
   5       10.341463
   6       11.237077
 
 -0.4583333E+00  0.4583333E+00  0.1250000E+00  0.1388889E-01
   1        1.941534
   2        4.889237
   3        5.697573
   4        8.326695
   5       11.758048
   6       13.010913
 
 -0.3750000E+00  0.4583333E+00  0.1250000E+00  0.2777778E-01
   1        2.435241
   2        4.651206
   3        5.454617
   4        8.173769
   5       11.075724
   6       12.988671
 
 -0.2916667E+00  0.4583333E+00  0.1250000E+00  0.1388889E-01
   1        2.887275
   2        4.018246
   3        5.635927
   4        8.438566
   5       10.301087
   6       13.131340
 
 -0.4583333E+00 -0.4583333E+00  0.1250000E+00  0.1388889E-01
   1        2.442565
   2        5.081978
   3        5.116357
   4        8.071706
   5       11.836812
   6       14.062728
 
 -0.3750000E+00 -0.4583333E+00  0.1250000E+00  0.2777778E-01
   1        3.192937
   2        4.202695
   3        5.018503
   4        8.905527
   5       10.832195
   6       15.117800
 
 -0.3750000E+00 -0.3750000E+00  0.1250000E+00  0.4629630E-02
   1        4.011488
   2        4.011488
   3        4.214284
   4       10.121980
   5       10.121980
   6       15.090313
 
  0.2083333E+00  0.2083333E+00  0.2083333E+00  0.4629630E-02
   1        4.210084
   2        4.210084
   3        4.360743
   4       10.598055
   5       10.598055
   6       13.985416
 
  0.2916667E+00  0.2083333E+00  0.2083333E+00  0.6944444E-02
   1        4.175304
   2        4.212289
   3        4.860658
   4       10.644243
   5       10.720164
   6       13.073896
 
 -0.2083333E+00  0.2083333E+00  0.2083333E+00  0.3472222E-02
   1        1.009641
   2        5.731158
   3        6.587889
   4        6.587890
   5        8.171191
   6       10.835981
 
 -0.2916667E+00  0.2916667E+00  0.2083333E+00  0.1388889E-01
   1        1.994962
   2        4.713764
   3        6.513483
   4        7.204100
   5        9.403928
   6       10.723773
 
 -0.3750000E+00  0.3750000E+00  0.2083333E+00  0.1388889E-01
   1        2.606434
   2        4.217155
   3        6.233588
   4        7.653851
   5       11.179974
   6       11.206870
 
 -0.2916667E+00  0.3750000E+00  0.2083333E+00  0.1388889E-01
   1        2.748074
   2        3.952219
   3        6.633381
   4        7.759714
   5       10.151799
   6       11.219347
 
 -0.4583333E+00  0.4583333E+00  0.2083333E+00  0.1388889E-01
   1        2.639194
   2        4.377800
   3        6.057904
   4        7.445009
   5       12.712637
   6       12.774784
 
 -0.3750000E+00  0.4583333E+00  0.2083333E+00  0.2777778E-01
   1        3.034655
   2        3.684144
   3        6.230979
   4        8.266869
   5       11.017212
   6       13.134825
 
 -0.4583333E+00 -0.4583333E+00  0.2083333E+00  0.1388889E-01
   1        2.939332
   2        3.840343
   3        5.978343
   4        8.299580
   5       11.964022
   6       14.669357
 
 -0.3750000E+00 -0.4583333E+00  0.2083333E+00  0.1388889E-01
   1        3.300100
   2        3.407180
   3        5.703295
   4        9.668041
   5       10.847616
   6       15.295550
 
 -0.2916667E+00  0.2916667E+00  0.2916667E+00  0.3472222E-02
   1        2.683249
   2        3.945141
   3        7.499707
   4        7.499708
   5        9.645896
   6       10.479434
 
 -0.3750000E+00  0.3750000E+00  0.2916667E+00  0.1388889E-01
   1        2.967210
   2        3.320306
   3        7.753572
   4        7.975799
   5       10.987295
   6       11.140033
 
 -0.4583333E+00  0.4583333E+00  0.2916667E+00  0.1388889E-01
   1        2.777924
   2        3.256783
   3        7.710921
   4        7.906213
   5       12.516352
   6       13.189410
 
 -0.3750000E+00  0.4583333E+00  0.2916667E+00  0.1388889E-01
   1        2.837124
   2        2.918858
   3        7.639213
   4        9.324736
   5       11.227544
   6       13.098311
 
 -0.4583333E+00 -0.4583333E+00  0.2916667E+00  0.1388889E-01
   1        2.678609
   2        2.859578
   3        7.513173
   4        9.822968
   5       11.812728
   6       15.106891
 
 -0.3750000E+00  0.3750000E+00  0.3750000E+00  0.3472222E-02
   1        2.676707
   2        2.740500
   3        9.198845
   4        9.198845
   5       11.208477
   6       11.477870
 
 -0.4583333E+00  0.4583333E+00  0.3750000E+00  0.1388889E-01
   1        2.356139
   2        2.471449
   3        9.690250
   4        9.704004
   5       12.311326
   6       13.343994
 
 -0.4583333E+00 -0.4583333E+00  0.3750000E+00  0.4629630E-02
   1        2.237533
   2        2.237533
   3        9.698565
   4       11.651011
   5       11.651013
   6       15.275428
 
 -0.4583333E+00  0.4583333E+00  0.4583333E+00  0.3472222E-02
   1        2.024557
   2        2.058510
   3       11.587286
   4       11.587287
   5       12.306858
   6       13.749909
