    1    1    1    2
  0.1813235E+02  0.2866544E-09  0.2866544E-09  0.2866544E-09  0.5000000E-15
  1.000000000000000E-004
  CAR 
 unknown system                          
    5   68    6
 
  0.4166667E-01  0.4166667E-01  0.4166667E-01  0.4629630E-02
   1       -1.727144     -1.738490
   2        6.195966      6.190055
   3        6.195966      6.190055
   4        6.967862      6.962169
   5        9.491168      9.478612
   6        9.491168      9.478612
 
  0.1250000E+00  0.4166667E-01  0.4166667E-01  0.1388889E-01
   1       -0.907140     -0.918444
   2        5.680467      5.674275
   3        5.854307      5.847456
   4        7.918423      7.912668
   5        9.119690      9.107964
   6        9.651300      9.639188
 
  0.2083333E+00  0.4166667E-01  0.4166667E-01  0.1388889E-01
   1        0.218591      0.207480
   2        5.096530      5.090148
   3        5.430774      5.422292
   4        9.118970      9.109171
   5        9.383675      9.377250
   6        9.868500      9.856908
 
  0.2916667E+00  0.4166667E-01  0.4166667E-01  0.1388889E-01
   1        1.158541      1.147984
   2        4.599237      4.592748
   3        5.509720      5.499551
   4        9.464609      9.455070
   5       10.153565     10.142581
   6       11.111040     11.105134
 
  0.3750000E+00  0.4166667E-01  0.4166667E-01  0.1388889E-01
   1        1.493820      1.483772
   2        4.272934      4.266390
   3        6.404821      6.393381
   4        9.667495      9.658036
   5       10.447149     10.436785
   6       12.842894     12.836965
 
  0.4583333E+00  0.4166667E-01  0.4166667E-01  0.6944444E-02
   1        1.524421      1.514498
   2        4.159957      4.153395
   3        7.072071      7.060171
   4        9.623014      9.613337
   5       10.582621     10.572558
   6       13.689976     13.684117
 
 -0.4166667E-01  0.4166667E-01  0.4166667E-01  0.3472222E-02
   1       -2.020533     -2.031886
   2        6.414275      6.408543
   3        6.414279      6.408545
   4        6.510806      6.505125
   5        9.421539      9.408768
   6        9.769799      9.757124
 
  0.1250000E+00  0.1250000E+00  0.4166667E-01  0.1388889E-01
   1        0.066332      0.055139
   2        5.241406      5.234693
   3        5.251066      5.243528
   4        9.084964      9.073904
   5        9.269785      9.263848
   6        9.885573      9.874187
 
  0.2083333E+00  0.1250000E+00  0.4166667E-01  0.2777778E-01
   1        1.200021      1.189172
   2        4.711547      4.704142
   3        4.970402      4.962183
   4        9.230007      9.219839
   5       10.216632     10.205812
   6       10.986655     10.980429
 
  0.2916667E+00  0.1250000E+00  0.4166667E-01  0.2777778E-01
   1        1.903422      1.893297
   2        4.358812      4.351743
   3        5.381696      5.371649
   4        9.554121      9.544537
   5       10.448813     10.438500
   6       12.820803     12.814111
 
  0.3750000E+00  0.1250000E+00  0.4166667E-01  0.2777778E-01
   1        2.032103      2.022340
   2        4.182669      4.175748
   3        6.268265      6.257217
   4        9.687744      9.678104
   5       10.642281     10.632375
   6       14.221163     14.214116
 
 -0.1250000E+00  0.1250000E+00  0.4166667E-01  0.1388889E-01
   1       -1.440435     -1.451782
   2        6.080496      6.074607
   3        6.273204      6.266987
   4        7.077831      7.072137
   5        8.858291      8.845826
   6        9.892907      9.880563
 
  0.2083333E+00  0.2083333E+00  0.4166667E-01  0.1388889E-01
   1        2.232423      2.222228
   2        4.381805      4.372792
   3        4.825022      4.817298
   4        9.410329      9.400619
   5       10.481836     10.471648
   6       12.881840     12.874841
 
  0.2916667E+00  0.2083333E+00  0.4166667E-01  0.2777778E-01
   1        2.723814      2.714573
   2        4.267545      4.259056
   3        5.242055      5.232379
   4        9.724589      9.715185
   5       10.548178     10.538445
   6       14.702663     14.694679
 
  0.3750000E+00  0.2083333E+00  0.4166667E-01  0.1388889E-01
   1        2.773743      2.764689
   2        4.248364      4.240359
   3        5.638231      5.627601
   4        9.823349      9.813857
   5       10.664179     10.654808
   6       14.983262     14.975149
 
 -0.2083333E+00  0.2083333E+00  0.4166667E-01  0.1388889E-01
   1       -0.420977     -0.432246
   2        5.524020      5.517917
   3        5.840635      5.832689
   4        8.225943      8.220251
   5        8.656620      8.645549
   6       10.023973     10.012214
 
 -0.1250000E+00  0.2083333E+00  0.4166667E-01  0.1388889E-01
   1       -0.638969     -0.650299
   2        5.847761      5.841576
   3        5.907420      5.900306
   4        7.863721      7.857963
   5        8.284616      8.272929
   6       10.193928     10.182160
 
  0.2916667E+00  0.2916667E+00  0.4166667E-01  0.1388889E-01
   1        3.192849      3.184910
   2        4.482811      4.472939
   3        5.034293      5.024333
   4       10.098140     10.089010
   5       10.471149     10.461880
   6       14.399172     14.390894
 
 -0.2916667E+00  0.2916667E+00  0.4166667E-01  0.1388889E-01
   1        0.678392      0.667473
   2        4.960806      4.954523
   3        5.515182      5.505332
   4        8.957079      8.947246
   5        9.828999      9.823329
   6       10.210794     10.199710
 
 -0.2083333E+00  0.2916667E+00  0.4166667E-01  0.2777778E-01
   1        0.466848      0.455668
   2        5.276297      5.268580
   3        5.479967      5.472330
   4        8.289688      8.279506
   5        9.257110      9.251255
   6       10.427972     10.416925
 
 -0.3750000E+00  0.3750000E+00  0.4166667E-01  0.1388889E-01
   1        1.307631      1.297309
   2        4.524876      4.518472
   3        5.961755      5.950353
   4        9.372228      9.362859
   5       10.431554     10.421024
   6       11.667016     11.661427
 
 -0.2916667E+00  0.3750000E+00  0.4166667E-01  0.2777778E-01
   1        1.412533      1.401871
   2        4.803490      4.796159
   3        5.359141      5.349280
   4        8.749394      8.740078
   5       10.511581     10.501771
   6       11.077971     11.071411
 
 -0.2083333E+00  0.3750000E+00  0.4166667E-01  0.1388889E-01
   1        1.527802      1.516933
   2        4.705728      4.696068
   3        5.326319      5.319252
   4        8.375758      8.366404
   5       10.456245     10.447444
   6       11.036815     11.029063
 
 -0.4583333E+00  0.4583333E+00  0.4166667E-01  0.1388889E-01
   1        1.432774      1.422731
   2        4.290874      4.284411
   3        6.857699      6.845519
   4        9.407926      9.398256
   5       10.731620     10.721509
   6       13.159074     13.153651
 
 -0.3750000E+00  0.4583333E+00  0.4166667E-01  0.2777778E-01
   1        1.757640      1.747484
   2        4.528617      4.521851
   3        5.916144      5.904518
   4        9.082086      9.072625
   5       10.789956     10.780289
   6       12.850116     12.843887
 
 -0.2916667E+00  0.4583333E+00  0.4166667E-01  0.2777778E-01
   1        2.285380      2.275245
   2        4.424208      4.414576
   3        5.335720      5.327012
   4        8.820699      8.811790
   5       10.498427     10.489133
   6       12.924495     12.917328
 
 -0.4583333E+00 -0.4583333E+00  0.4166667E-01  0.1388889E-01
   1        1.785402      1.775359
   2        4.431165      4.424495
   3        6.378321      6.366277
   4        9.007741      8.997952
   5       11.145003     11.135463
   6       13.743450     13.737271
 
 -0.3750000E+00 -0.4583333E+00  0.4166667E-01  0.2777778E-01
   1        2.463376      2.453584
   2        4.481804      4.473824
   3        5.519112      5.507833
   4        9.023004      9.013798
   5       10.864952     10.856296
   6       14.590725     14.583167
 
 -0.2916667E+00 -0.4583333E+00  0.4166667E-01  0.1388889E-01
   1        3.011258      3.002281
   2        4.205770      4.195042
   3        5.178547      5.168936
   4        9.312288      9.303866
   5       10.391887     10.383123
   6       15.003032     14.995292
 
 -0.3750000E+00 -0.3750000E+00  0.4166667E-01  0.1388889E-01
   1        3.228693      3.220193
   2        4.400176      4.390311
   3        4.866602      4.855221
   4        9.624102      9.615666
   5       10.514524     10.506336
   6       14.909831     14.901363
 
  0.1250000E+00  0.1250000E+00  0.1250000E+00  0.4629630E-02
   1        1.149196      1.138206
   2        4.714248      4.706747
   3        4.714248      4.706747
   4        9.766338      9.755581
   5        9.766338      9.755581
   6       11.028578     11.022335
 
  0.2083333E+00  0.1250000E+00  0.1250000E+00  0.1388889E-01
   1        2.256568      2.246096
   2        4.343974      4.336627
   3        4.569360      4.560777
   4        9.892161      9.882078
   5       10.250082     10.239607
   6       12.942722     12.935888
 
  0.2916667E+00  0.1250000E+00  0.1250000E+00  0.1388889E-01
   1        2.662605      2.652973
   2        4.132602      4.125389
   3        5.338019      5.328165
   4       10.058495     10.048752
   5       10.548764     10.538569
   6       14.615888     14.608126
 
  0.3750000E+00  0.1250000E+00  0.1250000E+00  0.6944444E-02
   1        2.670574      2.661127
   2        4.064726      4.057566
   3        5.974811      5.964578
   4       10.088517     10.078753
   5       10.655139     10.645076
   6       15.050231     15.042420
 
 -0.1250000E+00  0.1250000E+00  0.1250000E+00  0.3472222E-02
   1       -0.879626     -0.891010
   2        6.341095      6.335057
   3        6.341099      6.335059
   4        7.084329      7.078649
   5        7.789128      7.776303
   6       10.369541     10.357690
 
  0.2083333E+00  0.2083333E+00  0.1250000E+00  0.1388889E-01
   1        3.232981      3.223480
   2        4.243474      4.234977
   3        4.480955      4.472608
   4       10.184586     10.174687
   5       10.509418     10.499273
   6       14.849089     14.841203
 
  0.2916667E+00  0.2083333E+00  0.1250000E+00  0.2777778E-01
   1        3.404868      3.396216
   2        4.208560      4.200391
   3        5.170266      5.160743
   4       10.347997     10.338229
   5       10.649005     10.639030
   6       14.235991     14.227839
 
 -0.2083333E+00  0.2083333E+00  0.1250000E+00  0.1388889E-01
   1        0.106808      0.095415
   2        5.958362      5.949626
   3        6.014931      6.008751
   4        7.353733      7.343314
   5        8.048410      8.042685
   6       10.640421     10.629339
 
  0.2916667E+00  0.2916667E+00  0.1250000E+00  0.4629630E-02
   1        3.601268      3.593444
   2        4.751555      4.742346
   3        4.751559      4.742347
   4       10.582835     10.573062
   5       10.582835     10.573063
   6       13.406304     13.398067
 
 -0.2916667E+00  0.2916667E+00  0.1250000E+00  0.1388889E-01
   1        1.190729      1.179562
   2        5.253784      5.242863
   3        5.516984      5.510661
   4        7.873520      7.864662
   5        9.634189      9.628469
   6       10.728226     10.717879
 
 -0.2083333E+00  0.2916667E+00  0.1250000E+00  0.1388889E-01
   1        1.137242      1.125853
   2        5.243404      5.232728
   3        6.023152      6.016613
   4        7.291883      7.283359
   5        9.106565      9.100722
   6       10.796178     10.785895
 
 -0.3750000E+00  0.3750000E+00  0.1250000E+00  0.1388889E-01
   1        1.836669      1.826033
   2        5.113616      5.107190
   3        5.214896      5.202893
   4        8.424154      8.415074
   5       10.946589     10.936788
   6       11.488482     11.482837
 
 -0.2916667E+00  0.3750000E+00  0.1250000E+00  0.2777778E-01
   1        2.073592      2.062525
   2        4.595635      4.584241
   3        5.770001      5.762939
   4        7.884033      7.875837
   5       10.348213     10.340506
   6       11.243947     11.235955
 
 -0.4583333E+00  0.4583333E+00  0.1250000E+00  0.1388889E-01
   1        1.947339      1.936946
   2        4.894228      4.887750
   3        5.704465      5.692135
   4        8.333655      8.323868
   5       11.765419     11.755683
   6       13.017380     13.011911
 
 -0.3750000E+00  0.4583333E+00  0.1250000E+00  0.2777778E-01
   1        2.441185      2.430514
   2        4.657814      4.646526
   3        5.460137      5.452191
   4        8.180272      8.171381
   5       11.082554     11.074331
   6       12.995260     12.988311
 
 -0.2916667E+00  0.4583333E+00  0.1250000E+00  0.1388889E-01
   1        2.893183      2.882507
   2        4.025044      4.013376
   3        5.641546      5.633333
   4        8.444662      8.436985
   5       10.307867     10.299517
   6       13.137941     13.130678
 
 -0.4583333E+00 -0.4583333E+00  0.1250000E+00  0.1388889E-01
   1        2.448571      2.437943
   2        5.088933      5.076608
   3        5.121567      5.114467
   4        8.078278      8.069095
   5       11.843590     11.835579
   6       14.069552     14.062286
 
 -0.3750000E+00 -0.4583333E+00  0.1250000E+00  0.2777778E-01
   1        3.199066      3.188397
   2        4.209349      4.197848
   3        5.024317      5.015332
   4        8.911745      8.903891
   5       10.838685     10.831072
   6       15.124648     15.117025
 
 -0.3750000E+00 -0.3750000E+00  0.1250000E+00  0.4629630E-02
   1        4.018365      4.006315
   2        4.018366      4.006316
   3        4.219282      4.211815
   4       10.128274     10.120882
   5       10.128275     10.120882
   6       15.096447     15.087637
 
  0.2083333E+00  0.2083333E+00  0.2083333E+00  0.4629630E-02
   1        4.215409      4.207283
   2        4.215409      4.207283
   3        4.366317      4.356746
   4       10.606335     10.596317
   5       10.606335     10.596317
   6       13.990810     13.982596
 
  0.2916667E+00  0.2083333E+00  0.2083333E+00  0.6944444E-02
   1        4.180723      4.172082
   2        4.217549      4.209560
   3        4.866202      4.857256
   4       10.652520     10.642541
   5       10.728531     10.718463
   6       13.079153     13.070876
 
 -0.2083333E+00  0.2083333E+00  0.2083333E+00  0.3472222E-02
   1        1.015466      1.003877
   2        5.738833      5.725945
   3        6.593081      6.586706
   4        6.593084      6.586707
   5        8.176635      8.170952
   6       10.844257     10.834007
 
 -0.2916667E+00  0.2916667E+00  0.2083333E+00  0.1388889E-01
   1        2.000995      1.989329
   2        4.721045      4.708586
   3        6.518663      6.512228
   4        7.209663      7.202463
   5        9.409563      9.403822
   6       10.731409     10.721688
 
 -0.3750000E+00  0.3750000E+00  0.2083333E+00  0.1388889E-01
   1        2.612651      2.601203
   2        4.224283      4.211740
   3        6.238734      6.232255
   4        7.659898      7.651579
   5       11.186869     11.177662
   6       11.212849     11.207134
 
 -0.2916667E+00  0.3750000E+00  0.2083333E+00  0.1388889E-01
   1        2.754391      2.742568
   2        3.959413      3.946879
   3        6.638759      6.631691
   4        7.765245      7.758289
   5       10.158101     10.150721
   6       11.225834     11.217949
 
 -0.4583333E+00  0.4583333E+00  0.2083333E+00  0.1388889E-01
   1        2.645569      2.634184
   2        4.384868      4.372316
   3        6.063029      6.056521
   4        7.451241      7.442168
   5       12.719234     12.710014
   6       12.781197     12.775652
 
 -0.3750000E+00  0.4583333E+00  0.2083333E+00  0.2777778E-01
   1        3.041297      3.029366
   2        3.691195      3.678678
   3        6.236384      6.228947
   4        8.272614      8.265211
   5       11.023425     11.015972
   6       13.141234     13.133885
 
 -0.4583333E+00 -0.4583333E+00  0.2083333E+00  0.1388889E-01
   1        2.946089      2.934065
   2        3.847431      3.834840
   3        5.983661      5.976224
   4        8.305361      8.297767
   5       11.970293     11.963442
   6       14.675828     14.667843
 
 -0.3750000E+00 -0.4583333E+00  0.2083333E+00  0.1388889E-01
   1        3.307177      3.294630
   2        3.414145      3.401734
   3        5.708506      5.701026
   4        9.673877      9.666903
   5       10.853681     10.846580
   6       15.302081     15.294140
 
 -0.2916667E+00  0.2916667E+00  0.2916667E+00  0.3472222E-02
   1        2.689692      2.677530
   2        3.952517      3.939588
   3        7.505000      7.498387
   4        7.505002      7.498388
   5        9.651584      9.645906
   6       10.486344     10.476734
 
 -0.3750000E+00  0.3750000E+00  0.2916667E+00  0.1388889E-01
   1        2.974004      2.961600
   2        3.327529      3.314685
   3        7.758897      7.752317
   4        7.981335      7.974050
   5       10.993241     10.987508
   6       11.146290     11.137059
 
 -0.4583333E+00  0.4583333E+00  0.2916667E+00  0.1388889E-01
   1        2.784934      2.772368
   2        3.263900      3.251167
   3        7.716243      7.709695
   4        7.911812      7.903908
   5       12.522708     12.517088
   6       13.195375     13.186426
 
 -0.3750000E+00  0.4583333E+00  0.2916667E+00  0.1388889E-01
   1        2.844308      2.831460
   2        2.925880      2.913222
   3        7.644586      7.637423
   4        9.330314      9.323544
   5       11.233535     11.226410
   6       13.104444     13.096705
 
 -0.4583333E+00 -0.4583333E+00  0.2916667E+00  0.1388889E-01
   1        2.685734      2.672946
   2        2.866712      2.853918
   3        7.518500      7.511272
   4        9.828645      9.821748
   5       11.818790     11.812292
   6       15.112817     15.104748
 
 -0.3750000E+00  0.3750000E+00  0.3750000E+00  0.3472222E-02
   1        2.683924      2.670972
   2        2.747535      2.734807
   3        9.204339      9.197631
   4        9.204340      9.197631
   5       11.214507     11.208839
   6       11.483718     11.474101
 
 -0.4583333E+00  0.4583333E+00  0.3750000E+00  0.1388889E-01
   1        2.363300      2.350380
   2        2.478575      2.465720
   3        9.695826      9.688617
   4        9.709586      9.703013
   5       12.317644     12.311975
   6       13.349558     13.340553
 
 -0.4583333E+00 -0.4583333E+00  0.3750000E+00  0.4629630E-02
   1        2.244679      2.231762
   2        2.244679      2.231762
   3        9.704128      9.697169
   4       11.656968     11.650553
   5       11.656971     11.650556
   6       15.280993     15.272942
 
 -0.4583333E+00  0.4583333E+00  0.4583333E+00  0.3472222E-02
   1        2.031705      2.018744
   2        2.065647      2.052710
   3       11.593209     11.586808
   4       11.593212     11.586811
   5       12.313204     12.307547
   6       13.755094     13.745999
