       N       E                     dE             d eps       ncg     rms          rms(c)
DAV:   1    -0.244292428023E+01   -0.24429E+01   -0.14799E+03   822   0.424E+02
DAV:   2    -0.123087617726E+02   -0.98658E+01   -0.93659E+01  1452   0.698E+01
DAV:   3    -0.123562207332E+02   -0.47459E-01   -0.41755E-01   828   0.670E+00
DAV:   4    -0.123577728452E+02   -0.15521E-02   -0.15521E-02  1134   0.364E-01
DAV:   5    -0.123577834840E+02   -0.10639E-04   -0.10639E-04   702   0.162E-02    0.326E+00
DAV:   6    -0.120211991023E+02    0.33658E+00   -0.20916E-01   924   0.342E+00    0.175E+00
DAV:   7    -0.118676654729E+02    0.15353E+00   -0.30495E-01   954   0.400E+00    0.138E-01
DAV:   8    -0.118665419567E+02    0.11235E-02   -0.81477E-04   918   0.247E-01    0.445E-02
DAV:   9    -0.118665242858E+02    0.17671E-04   -0.14017E-04   720   0.876E-02
   1 F= -.11866524E+02 E0= -.11866500E+02  d E =-.732226E-04
