       N       E                     dE             d eps       ncg     rms          rms(c)
DAV:   1     0.110612640022E+02    0.11061E+02   -0.19444E+03  1680   0.547E+02
DAV:   2    -0.121942765144E+01   -0.12281E+02   -0.10706E+02  2916   0.761E+01
DAV:   3    -0.130552928800E+01   -0.86102E-01   -0.85771E-01  1692   0.884E+00
DAV:   4    -0.130596432902E+01   -0.43504E-03   -0.43473E-03  2190   0.354E-01
DAV:   5    -0.130596574617E+01   -0.14172E-05   -0.14157E-05  1428   0.164E-02    0.734E+00
DAV:   6    -0.116306596382E+02   -0.10325E+02   -0.31773E+00  1728   0.864E+00    0.406E+00
DAV:   7    -0.116505529330E+02   -0.19893E-01   -0.17585E-02  2010   0.102E+00    0.398E+00
DAV:   8    -0.114194070968E+02    0.23115E+00   -0.91685E-01  1770   0.802E+00    0.336E+00
DAV:   9    -0.118234879210E+02   -0.40408E+00   -0.19583E-01  1872   0.444E+00    0.109E+00
DAV:  10    -0.118645490914E+02   -0.41061E-01   -0.99201E-03  1734   0.928E-01    0.389E-01
DAV:  11    -0.118624093090E+02    0.21398E-02   -0.74523E-03  1836   0.639E-01    0.352E-01
DAV:  12    -0.118668809519E+02   -0.44716E-02   -0.30787E-03  1722   0.502E-01    0.108E-01
DAV:  13    -0.118664493703E+02    0.43158E-03   -0.10664E-03  1824   0.246E-01    0.476E-02
DAV:  14    -0.118664999181E+02   -0.50548E-04   -0.94800E-06   822   0.327E-02
   1 F= -.11866500E+02 E0= -.11866477E+02  d E =-.701669E-04  mag=     0.0017
