 vasp.5.2.12 11Nov11 complex                                                    
  
 executed on             LinuxIFC date 2012.10.14  15:40:40
 running on    1 nodes
 distr:  one band on    1 nodes,    1 groups


--------------------------------------------------------------------------------------------------------


 INCAR:
 POTCAR:    PAW_PBE Ta 17Jan2003                  
 POTCAR:    PAW_PBE Ta 17Jan2003                  
   VRHFIN =Ta:  6s5d                                                            
   LEXCH  = PE                                                                  
   EATOM  =   130.6506 eV,    9.6025 Ry                                         
                                                                                
   TITEL  = PAW_PBE Ta 17Jan2003                                                
   LULTRA =        F    use ultrasoft PP ?                                      
   IUNSCR =        1    unscreen: 0-lin 1-nonlin 2-no                           
   RPACOR =    2.330    partial core radius                                     
   POMASS =  180.948; ZVAL   =    5.000    mass and valenz                      
   RCORE  =    2.900    outmost cutoff radius                                   
   RWIGS  =    2.840; RWIGS  =    1.503    wigner-seitz radius (au A)           
   ENMAX  =  223.667; ENMIN  =  167.750 eV                                      
   RCLOC  =    2.205    cutoff for local pot                                    
   LCOR   =        T    correct aug charges                                     
   LPAW   =        T    paw PP                                                  
   EAUG   =  332.075                                                            
   DEXC   =    -.049                                                            
   RMAX   =    3.083    core radius for proj-oper                               
   RAUG   =    1.300    factor for augmentation sphere                          
   RDEP   =    3.060    radius for radial grids                                 
   QCUT   =   -4.055; QGAM   =    8.109    optimization parameters              
                                                                                
   Description                                                                  
     l     E      TYP  RCUT    TYP  RCUT                                        
     2   .000     23  2.500                                                     
     2   .000     23  2.500                                                     
     0   .000     23  2.500                                                     
     0   .000     23  2.500                                                     
     1   .000     23  2.900                                                     
     1  2.000     23  2.900                                                     
     3   .000      7   .000                                                     
  local pseudopotential read in
  partial core-charges read in
  atomic valenz-charges read in
  non local Contribution for L=           2  read in
    real space projection operators read in
  non local Contribution for L=           2  read in
    real space projection operators read in
  non local Contribution for L=           0  read in
    real space projection operators read in
  non local Contribution for L=           0  read in
    real space projection operators read in
  non local Contribution for L=           1  read in
    real space projection operators read in
  non local Contribution for L=           1  read in
    real space projection operators read in
    PAW grid and wavefunctions read in
 
   number of l-projection  operators is LMAX  =           6
   number of lm-projection operators is LMMAX =          18
 
  PAW_PBE Ta 17Jan2003                  :
 energy of atom  1       EATOM= -130.6506
 kinetic energy error for atom=    0.0044 (will be added to EATOM!!)
 
 
 POSCAR: Ta                                      
  positions in cartesian coordinates
  No initial velocities read in
 exchange correlation table for  LEXCH =        8
   RHO(1)=    0.500       N(1)  =     2000
   RHO(2)=  100.500       N(2)  =     4000
 


--------------------------------------------------------------------------------------------------------


 ion  position               nearest neighbor table
   1  0.000  0.000  0.000-
 
  LATTYP: Found a body centered cubic cell.
 ALAT       =     3.3100000000
  
  Lattice vectors:
  
 A1 = (   2.8665440865,   0.0000000000,   0.0000000000)
 A2 = (  -0.9555146955,   2.7026036829,   0.0000000000)
 A3 = (  -0.9555146955,  -1.3513018414,   2.3405234457)
 Subroutine PRICEL returns:
 Original cell was already a primitive cell.
 

Analysis of symmetry for initial positions (statically):

 Routine SETGRP: Setting up the symmetry group for a 
 body centered cubic supercell.


 Subroutine GETGRP returns: Found 48 space group operations
 (whereof 48 operations were pure point group operations)
 out of a pool of 48 trial point group operations.


The static configuration has the point symmetry O_h .

Analysis of symmetry for dynamics (positions and initial velocities):

 Subroutine DYNSYM returns: Found 48 space group operations
 (whereof 48 operations were pure point group operations)
 out of a pool of 48 trial space group operations
 (whereof 48 operations were pure point group operations)
 and found also     1 'primitive' translations


The dynamic configuration has the point symmetry O_h .
 
 
 KPOINTS: KPOINTS created by Atomic Simulation Env

Automatic generation of k-mesh.
 
 Subroutine IBZKPT returns following result:
 ===========================================
 
 Found     68 irreducible k-points:
 
 Following reciprocal coordinates:
            Coordinates               Weight
  0.041667  0.041667  0.041667      8.000000
  0.125000  0.041667  0.041667     24.000000
  0.208333  0.041667  0.041667     24.000000
  0.291667  0.041667  0.041667     24.000000
  0.375000  0.041667  0.041667     24.000000
  0.458333  0.041667  0.041667     12.000000
 -0.041667  0.041667  0.041667      6.000000
  0.125000  0.125000  0.041667     24.000000
  0.208333  0.125000  0.041667     48.000000
  0.291667  0.125000  0.041667     48.000000
  0.375000  0.125000  0.041667     48.000000
 -0.125000  0.125000  0.041667     24.000000
  0.208333  0.208333  0.041667     24.000000
  0.291667  0.208333  0.041667     48.000000
  0.375000  0.208333  0.041667     24.000000
 -0.208333  0.208333  0.041667     24.000000
 -0.125000  0.208333  0.041667     24.000000
  0.291667  0.291667  0.041667     24.000000
 -0.291667  0.291667  0.041667     24.000000
 -0.208333  0.291667  0.041667     48.000000
 -0.375000  0.375000  0.041667     24.000000
 -0.291667  0.375000  0.041667     48.000000
 -0.208333  0.375000  0.041667     24.000000
 -0.458333  0.458333  0.041667     24.000000
 -0.375000  0.458333  0.041667     48.000000
 -0.291667  0.458333  0.041667     48.000000
 -0.458333 -0.458333  0.041667     24.000000
 -0.375000 -0.458333  0.041667     48.000000
 -0.291667 -0.458333  0.041667     24.000000
 -0.375000 -0.375000  0.041667     24.000000
  0.125000  0.125000  0.125000      8.000000
  0.208333  0.125000  0.125000     24.000000
  0.291667  0.125000  0.125000     24.000000
  0.375000  0.125000  0.125000     12.000000
 -0.125000  0.125000  0.125000      6.000000
  0.208333  0.208333  0.125000     24.000000
  0.291667  0.208333  0.125000     48.000000
 -0.208333  0.208333  0.125000     24.000000
  0.291667  0.291667  0.125000      8.000000
 -0.291667  0.291667  0.125000     24.000000
 -0.208333  0.291667  0.125000     24.000000
 -0.375000  0.375000  0.125000     24.000000
 -0.291667  0.375000  0.125000     48.000000
 -0.458333  0.458333  0.125000     24.000000
 -0.375000  0.458333  0.125000     48.000000
 -0.291667  0.458333  0.125000     24.000000
 -0.458333 -0.458333  0.125000     24.000000
 -0.375000 -0.458333  0.125000     48.000000
 -0.375000 -0.375000  0.125000      8.000000
  0.208333  0.208333  0.208333      8.000000
  0.291667  0.208333  0.208333     12.000000
 -0.208333  0.208333  0.208333      6.000000
 -0.291667  0.291667  0.208333     24.000000
 -0.375000  0.375000  0.208333     24.000000
 -0.291667  0.375000  0.208333     24.000000
 -0.458333  0.458333  0.208333     24.000000
 -0.375000  0.458333  0.208333     48.000000
 -0.458333 -0.458333  0.208333     24.000000
 -0.375000 -0.458333  0.208333     24.000000
 -0.291667  0.291667  0.291667      6.000000
 -0.375000  0.375000  0.291667     24.000000
 -0.458333  0.458333  0.291667     24.000000
 -0.375000  0.458333  0.291667     24.000000
 -0.458333 -0.458333  0.291667     24.000000
 -0.375000  0.375000  0.375000      6.000000
 -0.458333  0.458333  0.375000     24.000000
 -0.458333 -0.458333  0.375000      8.000000
 -0.458333  0.458333  0.458333      6.000000
 
 Following cartesian coordinates:
            Coordinates               Weight
  0.014536  0.020556  0.035605      8.000000
  0.043607  0.030834  0.053407     24.000000
  0.072678  0.041113  0.071209     24.000000
  0.101749  0.051391  0.089011     24.000000
  0.130820  0.061669  0.106814     24.000000
  0.159891  0.071947  0.124616     12.000000
 -0.014536  0.010278  0.017802      6.000000
  0.043607  0.061669  0.071209     24.000000
  0.072678  0.071947  0.089011     48.000000
  0.101749  0.082225  0.106814     48.000000
  0.130820  0.092503  0.124616     48.000000
 -0.043607  0.030834  0.017802     24.000000
  0.072678  0.102782  0.106814     24.000000
  0.101749  0.113060  0.124616     48.000000
  0.130820  0.123338  0.142418     24.000000
 -0.072678  0.051391  0.017802     24.000000
 -0.043607  0.061669  0.035605     24.000000
  0.101749  0.143894  0.142418     24.000000
 -0.101749  0.071947  0.017802     24.000000
 -0.072678  0.082225  0.035605     48.000000
 -0.130820  0.092503  0.017802     24.000000
 -0.101749  0.102782  0.035605     48.000000
 -0.072678  0.113060  0.053407     24.000000
 -0.159891  0.113060  0.017802     24.000000
 -0.130820  0.123338  0.035605     48.000000
 -0.101749  0.133616  0.053407     48.000000
 -0.159891 -0.226119 -0.178023     24.000000
 -0.130820 -0.215841 -0.160221     48.000000
 -0.101749 -0.205563 -0.142418     24.000000
 -0.130820 -0.185007 -0.142418     24.000000
  0.043607  0.061669  0.106814      8.000000
  0.072678  0.071947  0.124616     24.000000
  0.101749  0.082225  0.142418     24.000000
  0.130820  0.092503  0.160221     12.000000
 -0.043607  0.030834  0.053407      6.000000
  0.072678  0.102782  0.142418     24.000000
  0.101749  0.113060  0.160221     48.000000
 -0.072678  0.051391  0.053407     24.000000
  0.101749  0.143894  0.178023      8.000000
 -0.101749  0.071947  0.053407     24.000000
 -0.072678  0.082225  0.071209     24.000000
 -0.130820  0.092503  0.053407     24.000000
 -0.101749  0.102782  0.071209     48.000000
 -0.159891  0.113060  0.053407     24.000000
 -0.130820  0.123338  0.071209     48.000000
 -0.101749  0.133616  0.089011     24.000000
 -0.159891 -0.226119 -0.142418     24.000000
 -0.130820 -0.215841 -0.124616     48.000000
 -0.130820 -0.185007 -0.106814      8.000000
  0.072678  0.102782  0.178023      8.000000
  0.101749  0.113060  0.195825     12.000000
 -0.072678  0.051391  0.089011      6.000000
 -0.101749  0.071947  0.089011     24.000000
 -0.130820  0.092503  0.089011     24.000000
 -0.101749  0.102782  0.106814     24.000000
 -0.159891  0.113060  0.089011     24.000000
 -0.130820  0.123338  0.106814     48.000000
 -0.159891 -0.226119 -0.106814     24.000000
 -0.130820 -0.215841 -0.089011     24.000000
 -0.101749  0.071947  0.124616      6.000000
 -0.130820  0.092503  0.124616     24.000000
 -0.159891  0.113060  0.124616     24.000000
 -0.130820  0.123338  0.142418     24.000000
 -0.159891 -0.226119 -0.071209     24.000000
 -0.130820  0.092503  0.160221      6.000000
 -0.159891  0.113060  0.160221     24.000000
 -0.159891 -0.226119 -0.035605      8.000000
 -0.159891  0.113060  0.195825      6.000000
 


--------------------------------------------------------------------------------------------------------




 Dimension of arrays:
   k-points           NKPTS =     68   k-points in BZ     NKDIM =     68   number of bands    NBANDS=      6
   number of dos      NEDOS =    301   number of ions     NIONS =      1
   non local maximal  LDIM  =      6   non local SUM 2l+1 LMDIM =     18
   total plane-waves  NPLWV =   5832
   max r-space proj   IRMAX =      1   max aug-charges    IRDMAX=  22091
   dimension x,y,z NGX =    18 NGY =   18 NGZ =   18
   dimension x,y,z NGXF=    36 NGYF=   36 NGZF=   36
   support grid    NGXF=    36 NGYF=   36 NGZF=   36
   ions per type =               1
 NGX,Y,Z   is equivalent  to a cutoff of  10.44, 10.44, 10.44 a.u.
 NGXF,Y,Z  is equivalent  to a cutoff of  20.88, 20.88, 20.88 a.u.


 I would recommend the setting:
   dimension x,y,z NGX =    17 NGY =   17 NGZ =   17
 SYSTEM =  unknown system                          
 POSCAR =  Ta                                      

 Startparameter for this run:
   NWRITE =      2    write-flag & timer
   PREC   = accura    normal or accurate (medium, high low for compatibility)
   ISTART =      0    job   : 0-new  1-cont  2-samecut
   ICHARG =      2    charge: 1-file 2-atom 10-const
   ISPIN  =      1    spin polarized calculation?
   LNONCOLLINEAR =      F non collinear calculations
   LSORBIT =      F    spin-orbit coupling
   INIWAV =      1    electr: 0-lowe 1-rand  2-diag
   LASPH  =      F    aspherical Exc in radial PAW
   METAGGA=      F    non-selfconsistent MetaGGA calc.

 Electronic Relaxation 1
   ENCUT  =  350.0 eV  25.72 Ry    5.07 a.u.   4.37  4.37  4.37*2*pi/ulx,y,z
   ENINI  =  350.0     initial cutoff
   ENAUG  =  332.1 eV  augmentation charge cutoff
   NELM   =     60;   NELMIN=  2; NELMDL= -5     # of ELM steps 
   EDIFF  = 0.1E-03   stopping-criterion for ELM
   LREAL  =      F    real-space projection
   NLSPLINE    = F    spline interpolate recip. space projectors
   LCOMPAT=      F    compatible to vasp.4.4
   GGA_COMPAT  = T    GGA compatible to vasp.4.4-vasp.4.6
   LMAXPAW     = -100 max onsite density
   LMAXMIX     =    2 max onsite mixed and CHGCAR
   VOSKOWN=      0    Vosko Wilk Nusair interpolation
   ROPT   =    0.00000
 Ionic relaxation
   EDIFFG = 0.1E-02   stopping-criterion for IOM
   NSW    =      0    number of steps for IOM
   NBLOCK =      1;   KBLOCK =      1    inner block; outer block 
   IBRION =     -1    ionic relax: 0-MD 1-quasi-New 2-CG
   NFREE  =      0    steps in history (QN), initial steepest desc. (CG)
   ISIF   =      2    stress and relaxation
   IWAVPR =     10    prediction:  0-non 1-charg 2-wave 3-comb
   ISYM   =      2    0-nonsym 1-usesym 2-fastsym
   LCORR  =      T    Harris-Foulkes like correction to forces

   POTIM  = 0.5000    time-step for ionic-motion
   TEIN   =    0.0    initial temperature
   TEBEG  =    0.0;   TEEND  =   0.0 temperature during run
   SMASS  =  -3.00    Nose mass-parameter (am)
   estimated Nose-frequenzy (Omega)   =  0.10E-29 period in steps =****** mass=  -0.188E-27a.u.
   SCALEE = 1.0000    scale energy and forces
   NPACO  =    256;   APACO  = 16.0  distance and # of slots for P.C.
   PSTRESS=    0.0 pullay stress

  Mass of Ions in am
   POMASS = 180.95
  Ionic Valenz
   ZVAL   =   5.00
  Atomic Wigner-Seitz radii
   RWIGS  =  -1.00
  virtual crystal weights 
   VCA    =   1.00
   NELECT =       5.0000    total number of electrons
   NUPDOWN=      -1.0000    fix difference up-down

 DOS related values:
   EMIN   =  10.00;   EMAX   =-10.00  energy-range for DOS
   EFERMI =   0.00
   ISMEAR =     1;   SIGMA  =   0.05  broadening in eV -4-tet -1-fermi 0-gaus

 Electronic relaxation 2 (details)
   IALGO  =     38    algorithm
   LDIAG  =      T    sub-space diagonalisation (order eigenvalues)
   LSUBROT=      T    optimize rotation matrix (better conditioning)
   TURBO    =      0    0=normal 1=particle mesh
   IRESTART =      0    0=no restart 2=restart with 2 vectors
   NREBOOT  =      0    no. of reboots
   NMIN     =      0    reboot dimension
   EREF     =   0.00    reference energy to select bands
   IMIX   =      4    mixing-type and parameters
     AMIX     =   0.40;   BMIX     =  1.00
     AMIX_MAG =   1.60;   BMIX_MAG =  1.00
     AMIN     =   0.10
     WC   =   100.;   INIMIX=   1;  MIXPRE=   1

 Intra band minimization:
   WEIMIN = 0.0000     energy-eigenvalue tresh-hold
   EBREAK =  0.42E-05  absolut break condition
   DEPER  =   0.30     relativ break condition  

   TIME   =   0.40     timestep for ELM

  volume/ion in A,a.u.               =      18.13       122.36
  Fermi-wavevector in a.u.,A,eV,Ry     =   1.065566  2.013627 15.448462  1.135430
  Thomas-Fermi vector in A             =   2.201121
 
 Write flags
   LWAVE  =      T    write WAVECAR
   LCHARG =      T    write CHGCAR
   LVTOT  =      F    write LOCPOT, total local potential
   LVHAR  =      F    write LOCPOT, Hartree potential only
   LELF   =      F    write electronic localiz. function (ELF)
   LORBIT =      0    0 simple, 1 ext, 2 COOP (PROOUT)


 Dipole corrections
   LMONO  =      F    monopole corrections only (constant potential shift)
   LDIPOL =      F    correct potential (dipole corrections)
   IDIPOL =      0    1-x, 2-y, 3-z, 4-all directions 
   EPSILON=  1.0000000 bulk dielectric constant

 Exchange correlation treatment:
   GGA     =    --    GGA type
   LEXCH   =     8    internal setting for exchange type
   VOSKOWN=      0    Vosko Wilk Nusair interpolation
   LHFCALC =     F    Hartree Fock is set to
   LHFONE  =     F    Hartree Fock one center treatment
   AEXX    =    0.0000 exact exchange contribution

 Linear response parameters
   LEPSILON=     F    determine dielectric tensor
   LRPA    =     F    only Hartree local field effects (RPA)
   LNABLA  =     F    use nabla operator in PAW spheres
   LVEL    =     F    velocity operator in full k-point grid
   LINTERFAST=   F  fast interpolation
   KINTER  =     0    interpolate to denser k-point grid
   CSHIFT  =0.1000    complex shift for real part using Kramers Kronig
   OMEGAMAX=  -1.0    maximum frequency
   RTIME   =    0.100 relaxation time in fs

 Orbital magnetization related:
   ORBITALMAG=     F  switch on orbital magnetization
   LCHIMAG   =     F  perturbation theory with respect to B field
   DQ        =  0.001000  dq finite difference perturbation B field



--------------------------------------------------------------------------------------------------------


 Static calculation
 charge density and potential will be updated during run
 non-spin polarized calculation
 Variant of blocked Davidson
 Davidson routine will perform the subspace rotation
 perform sub-space diagonalisation
    after iterative eigenvector-optimisation
 modified Broyden-mixing scheme, WC =      100.0
 initial mixing is a Kerker type mixing with AMIX =  0.4000 and BMIX =      1.0000
 Hartree-type preconditioning will be used
 using additional bands            3
 reciprocal scheme for non local part
 use partial core corrections
 calculate Harris-corrections to forces 
   (improved forces if not selfconsistent)
 use gradient corrections 
 use of overlap-Matrix (Vanderbilt PP)
 Methfessel and Paxton  Order N= 1 SIGMA  =   0.05


--------------------------------------------------------------------------------------------------------


  energy-cutoff  :      350.00
  volume of cell :       18.13
      direct lattice vectors                 reciprocal lattice vectors
     2.866544087  0.000000000  0.000000000     0.348852126  0.123337852  0.213627426
    -0.955514696  2.702603683  0.000000000     0.000000000  0.370013556  0.213627426
    -0.955514696 -1.351301841  2.340523446     0.000000000  0.000000000  0.427254853

  length of vectors
     2.866544087  2.866544087  2.866544087     0.427254853  0.427254853  0.427254853


 
 k-points in units of 2pi/SCALE and weight: KPOINTS created by Atomic Simulation Env
   0.01453551  0.02055631  0.03560457       0.005
   0.04360652  0.03083446  0.05340686       0.014
   0.07267753  0.04111262  0.07120914       0.014
   0.10174854  0.05139077  0.08901143       0.014
   0.13081955  0.06166893  0.10681371       0.014
   0.15989056  0.07194708  0.12461600       0.007
  -0.01453551  0.01027815  0.01780229       0.003
   0.04360652  0.06166893  0.07120914       0.014
   0.07267753  0.07194708  0.08901143       0.028
   0.10174854  0.08222523  0.10681371       0.028
   0.13081955  0.09250339  0.12461600       0.028
  -0.04360652  0.03083446  0.01780229       0.014
   0.07267753  0.10278154  0.10681371       0.014
   0.10174854  0.11305970  0.12461600       0.028
   0.13081955  0.12333785  0.14241828       0.014
  -0.07267753  0.05139077  0.01780229       0.014
  -0.04360652  0.06166893  0.03560457       0.014
   0.10174854  0.14389416  0.14241828       0.014
  -0.10174854  0.07194708  0.01780229       0.014
  -0.07267753  0.08222523  0.03560457       0.028
  -0.13081955  0.09250339  0.01780229       0.014
  -0.10174854  0.10278154  0.03560457       0.028
  -0.07267753  0.11305970  0.05340686       0.014
  -0.15989056  0.11305970  0.01780229       0.014
  -0.13081955  0.12333785  0.03560457       0.028
  -0.10174854  0.13361601  0.05340686       0.028
  -0.15989056 -0.22611940 -0.17802286       0.014
  -0.13081955 -0.21584124 -0.16022057       0.028
  -0.10174854 -0.20556309 -0.14241828       0.014
  -0.13081955 -0.18500678 -0.14241828       0.014
   0.04360652  0.06166893  0.10681371       0.005
   0.07267753  0.07194708  0.12461600       0.014
   0.10174854  0.08222523  0.14241828       0.014
   0.13081955  0.09250339  0.16022057       0.007
  -0.04360652  0.03083446  0.05340686       0.003
   0.07267753  0.10278154  0.14241828       0.014
   0.10174854  0.11305970  0.16022057       0.028
  -0.07267753  0.05139077  0.05340686       0.014
   0.10174854  0.14389416  0.17802286       0.005
  -0.10174854  0.07194708  0.05340686       0.014
  -0.07267753  0.08222523  0.07120914       0.014
  -0.13081955  0.09250339  0.05340686       0.014
  -0.10174854  0.10278154  0.07120914       0.028
  -0.15989056  0.11305970  0.05340686       0.014
  -0.13081955  0.12333785  0.07120914       0.028
  -0.10174854  0.13361601  0.08901143       0.014
  -0.15989056 -0.22611940 -0.14241828       0.014
  -0.13081955 -0.21584124 -0.12461600       0.028
  -0.13081955 -0.18500678 -0.10681371       0.005
   0.07267753  0.10278154  0.17802286       0.005
   0.10174854  0.11305970  0.19582514       0.007
  -0.07267753  0.05139077  0.08901143       0.003
  -0.10174854  0.07194708  0.08901143       0.014
  -0.13081955  0.09250339  0.08901143       0.014
  -0.10174854  0.10278154  0.10681371       0.014
  -0.15989056  0.11305970  0.08901143       0.014
  -0.13081955  0.12333785  0.10681371       0.028
  -0.15989056 -0.22611940 -0.10681371       0.014
  -0.13081955 -0.21584124 -0.08901143       0.014
  -0.10174854  0.07194708  0.12461600       0.003
  -0.13081955  0.09250339  0.12461600       0.014
  -0.15989056  0.11305970  0.12461600       0.014
  -0.13081955  0.12333785  0.14241828       0.014
  -0.15989056 -0.22611940 -0.07120914       0.014
  -0.13081955  0.09250339  0.16022057       0.003
  -0.15989056  0.11305970  0.16022057       0.014
  -0.15989056 -0.22611940 -0.03560457       0.005
  -0.15989056  0.11305970  0.19582514       0.003
 
 k-points in reciprocal lattice and weights: KPOINTS created by Atomic Simulation Env
   0.04166667  0.04166667  0.04166667       0.005
   0.12500000  0.04166667  0.04166667       0.014
   0.20833333  0.04166667  0.04166667       0.014
   0.29166667  0.04166667  0.04166667       0.014
   0.37500000  0.04166667  0.04166667       0.014
   0.45833333  0.04166667  0.04166667       0.007
  -0.04166667  0.04166667  0.04166667       0.003
   0.12500000  0.12500000  0.04166667       0.014
   0.20833333  0.12500000  0.04166667       0.028
   0.29166667  0.12500000  0.04166667       0.028
   0.37500000  0.12500000  0.04166667       0.028
  -0.12500000  0.12500000  0.04166667       0.014
   0.20833333  0.20833333  0.04166667       0.014
   0.29166667  0.20833333  0.04166667       0.028
   0.37500000  0.20833333  0.04166667       0.014
  -0.20833333  0.20833333  0.04166667       0.014
  -0.12500000  0.20833333  0.04166667       0.014
   0.29166667  0.29166667  0.04166667       0.014
  -0.29166667  0.29166667  0.04166667       0.014
  -0.20833333  0.29166667  0.04166667       0.028
  -0.37500000  0.37500000  0.04166667       0.014
  -0.29166667  0.37500000  0.04166667       0.028
  -0.20833333  0.37500000  0.04166667       0.014
  -0.45833333  0.45833333  0.04166667       0.014
  -0.37500000  0.45833333  0.04166667       0.028
  -0.29166667  0.45833333  0.04166667       0.028
  -0.45833333 -0.45833333  0.04166667       0.014
  -0.37500000 -0.45833333  0.04166667       0.028
  -0.29166667 -0.45833333  0.04166667       0.014
  -0.37500000 -0.37500000  0.04166667       0.014
   0.12500000  0.12500000  0.12500000       0.005
   0.20833333  0.12500000  0.12500000       0.014
   0.29166667  0.12500000  0.12500000       0.014
   0.37500000  0.12500000  0.12500000       0.007
  -0.12500000  0.12500000  0.12500000       0.003
   0.20833333  0.20833333  0.12500000       0.014
   0.29166667  0.20833333  0.12500000       0.028
  -0.20833333  0.20833333  0.12500000       0.014
   0.29166667  0.29166667  0.12500000       0.005
  -0.29166667  0.29166667  0.12500000       0.014
  -0.20833333  0.29166667  0.12500000       0.014
  -0.37500000  0.37500000  0.12500000       0.014
  -0.29166667  0.37500000  0.12500000       0.028
  -0.45833333  0.45833333  0.12500000       0.014
  -0.37500000  0.45833333  0.12500000       0.028
  -0.29166667  0.45833333  0.12500000       0.014
  -0.45833333 -0.45833333  0.12500000       0.014
  -0.37500000 -0.45833333  0.12500000       0.028
  -0.37500000 -0.37500000  0.12500000       0.005
   0.20833333  0.20833333  0.20833333       0.005
   0.29166667  0.20833333  0.20833333       0.007
  -0.20833333  0.20833333  0.20833333       0.003
  -0.29166667  0.29166667  0.20833333       0.014
  -0.37500000  0.37500000  0.20833333       0.014
  -0.29166667  0.37500000  0.20833333       0.014
  -0.45833333  0.45833333  0.20833333       0.014
  -0.37500000  0.45833333  0.20833333       0.028
  -0.45833333 -0.45833333  0.20833333       0.014
  -0.37500000 -0.45833333  0.20833333       0.014
  -0.29166667  0.29166667  0.29166667       0.003
  -0.37500000  0.37500000  0.29166667       0.014
  -0.45833333  0.45833333  0.29166667       0.014
  -0.37500000  0.45833333  0.29166667       0.014
  -0.45833333 -0.45833333  0.29166667       0.014
  -0.37500000  0.37500000  0.37500000       0.003
  -0.45833333  0.45833333  0.37500000       0.014
  -0.45833333 -0.45833333  0.37500000       0.005
  -0.45833333  0.45833333  0.45833333       0.003
 
 position of ions in fractional coordinates (direct lattice) 
   0.00000000  0.00000000  0.00000000
 
 position of ions in cartesian coordinates  (Angst):
   0.00000000  0.00000000  0.00000000
 


--------------------------------------------------------------------------------------------------------


 k-point  1 :  0.04170.04170.0417  plane waves:     273
 k-point  2 :  0.12500.04170.0417  plane waves:     270
 k-point  3 :  0.20830.04170.0417  plane waves:     274
 k-point  4 :  0.29170.04170.0417  plane waves:     269
 k-point  5 :  0.37500.04170.0417  plane waves:     271
 k-point  6 :  0.45830.04170.0417  plane waves:     272
 k-point  7 :  -.04170.04170.0417  plane waves:     261
 k-point  8 :  0.12500.12500.0417  plane waves:     272
 k-point  9 :  0.20830.12500.0417  plane waves:     269
 k-point 10 :  0.29170.12500.0417  plane waves:     272
 k-point 11 :  0.37500.12500.0417  plane waves:     269
 k-point 12 :  -.12500.12500.0417  plane waves:     272
 k-point 13 :  0.20830.20830.0417  plane waves:     270
 k-point 14 :  0.29170.20830.0417  plane waves:     271
 k-point 15 :  0.37500.20830.0417  plane waves:     270
 k-point 16 :  -.20830.20830.0417  plane waves:     271
 k-point 17 :  -.12500.20830.0417  plane waves:     276
 k-point 18 :  0.29170.29170.0417  plane waves:     272
 k-point 19 :  -.29170.29170.0417  plane waves:     269
 k-point 20 :  -.20830.29170.0417  plane waves:     273
 k-point 21 :  -.37500.37500.0417  plane waves:     273
 k-point 22 :  -.29170.37500.0417  plane waves:     269
 k-point 23 :  -.20830.37500.0417  plane waves:     274
 k-point 24 :  -.45830.45830.0417  plane waves:     272
 k-point 25 :  -.37500.45830.0417  plane waves:     270
 k-point 26 :  -.29170.45830.0417  plane waves:     272
 k-point 27 :  -.4583-.45830.0417  plane waves:     270
 k-point 28 :  -.3750-.45830.0417  plane waves:     272
 k-point 29 :  -.2917-.45830.0417  plane waves:     274
 k-point 30 :  -.3750-.37500.0417  plane waves:     274
 k-point 31 :  0.12500.12500.1250  plane waves:     267
 k-point 32 :  0.20830.12500.1250  plane waves:     269
 k-point 33 :  0.29170.12500.1250  plane waves:     275
 k-point 34 :  0.37500.12500.1250  plane waves:     268
 k-point 35 :  -.12500.12500.1250  plane waves:     265
 k-point 36 :  0.20830.20830.1250  plane waves:     269
 k-point 37 :  0.29170.20830.1250  plane waves:     270
 k-point 38 :  -.20830.20830.1250  plane waves:     270
 k-point 39 :  0.29170.29170.1250  plane waves:     273
 k-point 40 :  -.29170.29170.1250  plane waves:     271
 k-point 41 :  -.20830.29170.1250  plane waves:     265
 k-point 42 :  -.37500.37500.1250  plane waves:     271
 k-point 43 :  -.29170.37500.1250  plane waves:     271
 k-point 44 :  -.45830.45830.1250  plane waves:     273
 k-point 45 :  -.37500.45830.1250  plane waves:     273
 k-point 46 :  -.29170.45830.1250  plane waves:     268
 k-point 47 :  -.4583-.45830.1250  plane waves:     272
 k-point 48 :  -.3750-.45830.1250  plane waves:     273
 k-point 49 :  -.3750-.37500.1250  plane waves:     267
 k-point 50 :  0.20830.20830.2083  plane waves:     264
 k-point 51 :  0.29170.20830.2083  plane waves:     274
 k-point 52 :  -.20830.20830.2083  plane waves:     269
 k-point 53 :  -.29170.29170.2083  plane waves:     268
 k-point 54 :  -.37500.37500.2083  plane waves:     269
 k-point 55 :  -.29170.37500.2083  plane waves:     268
 k-point 56 :  -.45830.45830.2083  plane waves:     269
 k-point 57 :  -.37500.45830.2083  plane waves:     266
 k-point 58 :  -.4583-.45830.2083  plane waves:     264
 k-point 59 :  -.3750-.45830.2083  plane waves:     266
 k-point 60 :  -.29170.29170.2917  plane waves:     269
 k-point 61 :  -.37500.37500.2917  plane waves:     259
 k-point 62 :  -.45830.45830.2917  plane waves:     261
 k-point 63 :  -.37500.45830.2917  plane waves:     258
 k-point 64 :  -.4583-.45830.2917  plane waves:     260
 k-point 65 :  -.37500.37500.3750  plane waves:     261
 k-point 66 :  -.45830.45830.3750  plane waves:     255
 k-point 67 :  -.4583-.45830.3750  plane waves:     257
 k-point 68 :  -.45830.45830.4583  plane waves:     257

 maximum and minimum number of plane-waves per node :       276      255

 maximum number of plane-waves:       276
 maximum index in each direction: 
   IXMAX=    4   IYMAX=    4   IZMAX=    4
   IXMIN=   -4   IYMIN=   -4   IZMIN=   -4

 NGX is ok and might be reduce to  18
 NGY is ok and might be reduce to  18
 NGZ is ok and might be reduce to  18

 serial   3D FFT for wavefunctions
 parallel 3D FFT for charge:
    minimum data exchange during FFTs selected (reduces bandwidth)


 total amount of memory used by VASP on root node    38877. kBytes
========================================================================

   base      :      30000. kBytes
   nonl-proj :       2707. kBytes
   fftplans  :       1676. kBytes
   grid      :       2560. kBytes
   one-center:         15. kBytes
   wavefun   :       1919. kBytes
 
 Broyden mixing: mesh for mixing (old mesh)
   NGX =  9   NGY =  9   NGZ =  9
  (NGX  = 36   NGY  = 36   NGZ  = 36)
  gives a total of    729 points

 initial charge density was supplied:
 charge density of overlapping atoms calculated
 number of electron       5.0000000 magnetization 
 keeping initial charge density in first step


--------------------------------------------------------------------------------------------------------


 Maximum index for augmentation-charges        21187 (set IRDMAX)


--------------------------------------------------------------------------------------------------------


 First call to EWALD:  gamma=   0.675
 Maximum number of real-space cells 3x 3x 3
 Maximum number of reciprocal cells 3x 3x 3

    FEWALD:  cpu time    0.00: real time    0.01


----------------------------------------- Iteration    1(   1)  ---------------------------------------


    POTLOK:  cpu time    0.06: real time    0.06
    SETDIJ:  cpu time    0.05: real time    0.05
     EDDAV:  cpu time    0.77: real time    0.82
       DOS:  cpu time    0.00: real time    0.00
    --------------------------------------------
      LOOP:  cpu time    0.88: real time    0.98

 eigenvalue-minimisations  :   822
 total energy-change (2. order) :-0.2442924E+01  (-0.1479914E+03)
 number of electron       5.0000000 magnetization 
 augmentation part        5.0000000 magnetization 

 Free energy of the ion-electron system (eV)
  ---------------------------------------------------
  alpha Z        PSCENC =        30.58334069
  Ewald energy   TEWEN  =      -197.90100875
  -1/2 Hartree   DENC   =        -2.50452612
  -exchange  EXHF       =         0.00000000
  -V(xc)+E(xc)   XCENC  =       -66.68582567
  PAW double counting   =       148.27821850      -73.99089003
  entropy T*S    EENTRO =        -0.00011849
  eigenvalues    EBANDS =        29.13167078
  atomic energy  EATOM  =       130.64621481
  ---------------------------------------------------
  free energy    TOTEN  =        -2.44292428 eV

  energy without entropy =       -2.44280579  energy(sigma->0) =       -2.44288478


--------------------------------------------------------------------------------------------------------




----------------------------------------- Iteration    1(   2)  ---------------------------------------


     EDDAV:  cpu time    1.21: real time    1.21
       DOS:  cpu time    0.00: real time    0.00
    --------------------------------------------
      LOOP:  cpu time    1.21: real time    1.24

 eigenvalue-minimisations  :  1452
 total energy-change (2. order) :-0.9865837E+01  (-0.9365857E+01)
 number of electron       5.0000000 magnetization 
 augmentation part        5.0000000 magnetization 

 Free energy of the ion-electron system (eV)
  ---------------------------------------------------
  alpha Z        PSCENC =        30.58334069
  Ewald energy   TEWEN  =      -197.90100875
  -1/2 Hartree   DENC   =        -2.50452612
  -exchange  EXHF       =         0.00000000
  -V(xc)+E(xc)   XCENC  =       -66.68582567
  PAW double counting   =       148.27821850      -73.99089003
  entropy T*S    EENTRO =        -0.00020138
  eigenvalues    EBANDS =        19.26591617
  atomic energy  EATOM  =       130.64621481
  ---------------------------------------------------
  free energy    TOTEN  =       -12.30876177 eV

  energy without entropy =      -12.30856040  energy(sigma->0) =      -12.30869465


--------------------------------------------------------------------------------------------------------




----------------------------------------- Iteration    1(   3)  ---------------------------------------


     EDDAV:  cpu time    0.76: real time    0.77
       DOS:  cpu time    0.00: real time    0.00
    --------------------------------------------
      LOOP:  cpu time    0.77: real time    0.78

 eigenvalue-minimisations  :   828
 total energy-change (2. order) :-0.4745896E-01  (-0.4175523E-01)
 number of electron       5.0000000 magnetization 
 augmentation part        5.0000000 magnetization 

 Free energy of the ion-electron system (eV)
  ---------------------------------------------------
  alpha Z        PSCENC =        30.58334069
  Ewald energy   TEWEN  =      -197.90100875
  -1/2 Hartree   DENC   =        -2.50452612
  -exchange  EXHF       =         0.00000000
  -V(xc)+E(xc)   XCENC  =       -66.68582567
  PAW double counting   =       148.27821850      -73.99089003
  entropy T*S    EENTRO =        -0.00044484
  eigenvalues    EBANDS =        19.21870068
  atomic energy  EATOM  =       130.64621481
  ---------------------------------------------------
  free energy    TOTEN  =       -12.35622073 eV

  energy without entropy =      -12.35577589  energy(sigma->0) =      -12.35607245


--------------------------------------------------------------------------------------------------------




----------------------------------------- Iteration    1(   4)  ---------------------------------------


     EDDAV:  cpu time    0.98: real time    0.98
       DOS:  cpu time    0.00: real time    0.00
    --------------------------------------------
      LOOP:  cpu time    0.98: real time    1.07

 eigenvalue-minimisations  :  1134
 total energy-change (2. order) :-0.1552112E-02  (-0.1552112E-02)
 number of electron       5.0000000 magnetization 
 augmentation part        5.0000000 magnetization 

 Free energy of the ion-electron system (eV)
  ---------------------------------------------------
  alpha Z        PSCENC =        30.58334069
  Ewald energy   TEWEN  =      -197.90100875
  -1/2 Hartree   DENC   =        -2.50452612
  -exchange  EXHF       =         0.00000000
  -V(xc)+E(xc)   XCENC  =       -66.68582567
  PAW double counting   =       148.27821850      -73.99089003
  entropy T*S    EENTRO =        -0.00044482
  eigenvalues    EBANDS =        19.21714855
  atomic energy  EATOM  =       130.64621481
  ---------------------------------------------------
  free energy    TOTEN  =       -12.35777285 eV

  energy without entropy =      -12.35732802  energy(sigma->0) =      -12.35762457


--------------------------------------------------------------------------------------------------------




----------------------------------------- Iteration    1(   5)  ---------------------------------------


     EDDAV:  cpu time    0.69: real time    0.69
       DOS:  cpu time    0.00: real time    0.00
    CHARGE:  cpu time    0.07: real time    0.07
    MIXING:  cpu time    0.00: real time    0.00
    --------------------------------------------
      LOOP:  cpu time    0.76: real time    0.84

 eigenvalue-minimisations  :   702
 total energy-change (2. order) :-0.1063873E-04  (-0.1063859E-04)
 number of electron       5.0000001 magnetization 
 augmentation part        0.3543919 magnetization 

 Broyden mixing:
  rms(total) = 0.32610E+00    rms(broyden)= 0.32610E+00
  rms(prec ) = 0.14129E+01
  weight for this iteration     100.00

 Free energy of the ion-electron system (eV)
  ---------------------------------------------------
  alpha Z        PSCENC =        30.58334069
  Ewald energy   TEWEN  =      -197.90100875
  -1/2 Hartree   DENC   =        -2.50452612
  -exchange  EXHF       =         0.00000000
  -V(xc)+E(xc)   XCENC  =       -66.68582567
  PAW double counting   =       148.27821850      -73.99089003
  entropy T*S    EENTRO =        -0.00044483
  eigenvalues    EBANDS =        19.21713791
  atomic energy  EATOM  =       130.64621481
  ---------------------------------------------------
  free energy    TOTEN  =       -12.35778348 eV

  energy without entropy =      -12.35733866  energy(sigma->0) =      -12.35763521


--------------------------------------------------------------------------------------------------------




----------------------------------------- Iteration    1(   6)  ---------------------------------------


    POTLOK:  cpu time    0.06: real time    0.06
    SETDIJ:  cpu time    0.02: real time    0.02
     EDDAV:  cpu time    0.83: real time    0.85
       DOS:  cpu time    0.00: real time    0.00
    CHARGE:  cpu time    0.07: real time    0.07
    MIXING:  cpu time    0.00: real time    0.00
    --------------------------------------------
      LOOP:  cpu time    0.98: real time    1.37

 eigenvalue-minimisations  :   924
 total energy-change (2. order) : 0.3365844E+00  (-0.2091592E-01)
 number of electron       5.0000001 magnetization 
 augmentation part        0.3757581 magnetization 

 Broyden mixing:
  rms(total) = 0.17462E+00    rms(broyden)= 0.17462E+00
  rms(prec ) = 0.74994E+00
  weight for this iteration     100.00

 eigenvalues of (default mixing * dielectric matrix)
  average eigenvalue GAMMA=   2.1312
  2.1312

 Free energy of the ion-electron system (eV)
  ---------------------------------------------------
  alpha Z        PSCENC =        30.58334069
  Ewald energy   TEWEN  =      -197.90100875
  -1/2 Hartree   DENC   =        -1.41877108
  -exchange  EXHF       =         0.00000000
  -V(xc)+E(xc)   XCENC  =       -66.38655090
  PAW double counting   =       162.71947012      -88.82624155
  entropy T*S    EENTRO =         0.00002279
  eigenvalues    EBANDS =        18.56232477
  atomic energy  EATOM  =       130.64621481
  ---------------------------------------------------
  free energy    TOTEN  =       -12.02119910 eV

  energy without entropy =      -12.02122189  energy(sigma->0) =      -12.02120670


--------------------------------------------------------------------------------------------------------




----------------------------------------- Iteration    1(   7)  ---------------------------------------


    POTLOK:  cpu time    0.06: real time    0.06
    SETDIJ:  cpu time    0.02: real time    0.02
     EDDAV:  cpu time    0.86: real time    0.98
       DOS:  cpu time    0.00: real time    0.00
    CHARGE:  cpu time    0.07: real time    0.07
    MIXING:  cpu time    0.00: real time    0.00
    --------------------------------------------
      LOOP:  cpu time    1.01: real time    1.18

 eigenvalue-minimisations  :   954
 total energy-change (2. order) : 0.1535336E+00  (-0.3049546E-01)
 number of electron       5.0000001 magnetization 
 augmentation part        0.3999631 magnetization 

 Broyden mixing:
  rms(total) = 0.13830E-01    rms(broyden)= 0.13818E-01
  rms(prec ) = 0.36108E-01
  weight for this iteration     100.00

 eigenvalues of (default mixing * dielectric matrix)
  average eigenvalue GAMMA=   2.0189
  1.7642  2.2735

 Free energy of the ion-electron system (eV)
  ---------------------------------------------------
  alpha Z        PSCENC =        30.58334069
  Ewald energy   TEWEN  =      -197.90100875
  -1/2 Hartree   DENC   =        -0.57267234
  -exchange  EXHF       =         0.00000000
  -V(xc)+E(xc)   XCENC  =       -65.99964041
  PAW double counting   =       185.88412356     -112.40624738
  entropy T*S    EENTRO =        -0.00007619
  eigenvalues    EBANDS =        17.89830054
  atomic energy  EATOM  =       130.64621481
  ---------------------------------------------------
  free energy    TOTEN  =       -11.86766547 eV

  energy without entropy =      -11.86758928  energy(sigma->0) =      -11.86764007


--------------------------------------------------------------------------------------------------------




----------------------------------------- Iteration    1(   8)  ---------------------------------------


    POTLOK:  cpu time    0.06: real time    0.06
    SETDIJ:  cpu time    0.02: real time    0.12
     EDDAV:  cpu time    0.83: real time    0.83
       DOS:  cpu time    0.00: real time    0.00
    CHARGE:  cpu time    0.07: real time    0.07
    MIXING:  cpu time    0.00: real time    0.00
    --------------------------------------------
      LOOP:  cpu time    0.97: real time    1.54

 eigenvalue-minimisations  :   918
 total energy-change (2. order) : 0.1123516E-02  (-0.8147664E-04)
 number of electron       5.0000001 magnetization 
 augmentation part        0.4008774 magnetization 

 Broyden mixing:
  rms(total) = 0.44510E-02    rms(broyden)= 0.44490E-02
  rms(prec ) = 0.12753E-01
  weight for this iteration     100.00

 eigenvalues of (default mixing * dielectric matrix)
  average eigenvalue GAMMA=   1.9216
  1.0143  2.1530  2.5976

 Free energy of the ion-electron system (eV)
  ---------------------------------------------------
  alpha Z        PSCENC =        30.58334069
  Ewald energy   TEWEN  =      -197.90100875
  -1/2 Hartree   DENC   =        -0.56296860
  -exchange  EXHF       =         0.00000000
  -V(xc)+E(xc)   XCENC  =       -65.98822983
  PAW double counting   =       191.26151860     -117.84170468
  entropy T*S    EENTRO =        -0.00007069
  eigenvalues    EBANDS =        17.93636649
  atomic energy  EATOM  =       130.64621481
  ---------------------------------------------------
  free energy    TOTEN  =       -11.86654196 eV

  energy without entropy =      -11.86647127  energy(sigma->0) =      -11.86651839


--------------------------------------------------------------------------------------------------------




----------------------------------------- Iteration    1(   9)  ---------------------------------------


    POTLOK:  cpu time    0.05: real time    0.06
    SETDIJ:  cpu time    0.02: real time    0.02
     EDDAV:  cpu time    0.70: real time    0.70
       DOS:  cpu time    0.00: real time    0.00
    --------------------------------------------
      LOOP:  cpu time    0.77: real time    0.79

 eigenvalue-minimisations  :   720
 total energy-change (2. order) : 0.1767092E-04  (-0.1401736E-04)
 number of electron       5.0000001 magnetization 
 augmentation part        0.4008774 magnetization 

 Free energy of the ion-electron system (eV)
  ---------------------------------------------------
  alpha Z        PSCENC =        30.58334069
  Ewald energy   TEWEN  =      -197.90100875
  -1/2 Hartree   DENC   =        -0.57121755
  -exchange  EXHF       =         0.00000000
  -V(xc)+E(xc)   XCENC  =       -65.99084096
  PAW double counting   =       193.49785805     -120.09569742
  entropy T*S    EENTRO =        -0.00007322
  eigenvalues    EBANDS =        17.96490006
  atomic energy  EATOM  =       130.64621481
  ---------------------------------------------------
  free energy    TOTEN  =       -11.86652429 eV

  energy without entropy =      -11.86645106  energy(sigma->0) =      -11.86649988


--------------------------------------------------------------------------------------------------------




 average (electrostatic) potential at core
  the test charge radii are     1.2538
  (the norm of the test charge is              1.0000)
       1 -35.0445
 
 
 
 E-fermi :   5.7087     XC(G=0): -12.3730     alpha+bet :-13.5035


 k-point   1 :       0.0417    0.0417    0.0417
  band No.  band energies     occupation 
      1      -1.7326      2.00000
      2       6.1908      0.00000
      3       6.1908      0.00000
      4       6.9626      0.00000
      5       9.4823      0.00000
      6       9.4823      0.00000

 k-point   2 :       0.1250    0.0417    0.0417
  band No.  band energies     occupation 
      1      -0.9126      2.00000
      2       5.6753      1.89649
      3       5.8489     -0.00054
      4       7.9130      0.00000
      5       9.1114      0.00000
      6       9.6426      0.00000

 k-point   3 :       0.2083    0.0417    0.0417
  band No.  band energies     occupation 
      1       0.2130      2.00000
      2       5.0915      2.00000
      3       5.4250      2.00000
      4       9.1115      0.00000
      5       9.3777      0.00000
      6       9.8600      0.00000

 k-point   4 :       0.2917    0.0417    0.0417
  band No.  band energies     occupation 
      1       1.1530      2.00000
      2       4.5942      2.00000
      3       5.5036      2.00000
      4       9.4570      0.00000
      5      10.1452      0.00000
      6      11.1051      0.00000

 k-point   5 :       0.3750    0.0417    0.0417
  band No.  band energies     occupation 
      1       1.4883      2.00000
      2       4.2680      2.00000
      3       6.3986      0.00000
      4       9.6599      0.00000
      5      10.4389      0.00000
      6      12.8365      0.00000

 k-point   6 :       0.4583    0.0417    0.0417
  band No.  band energies     occupation 
      1       1.5189      2.00000
      2       4.1550      2.00000
      3       7.0658      0.00000
      4       9.6154      0.00000
      5      10.5743      0.00000
      6      13.6833      0.00000

 k-point   7 :      -0.0417    0.0417    0.0417
  band No.  band energies     occupation 
      1      -2.0260      2.00000
      2       6.4091      0.00000
      3       6.4091      0.00000
      4       6.5056      0.00000
      5       9.4127      0.00000
      6       9.7608      0.00000

 k-point   8 :       0.1250    0.1250    0.0417
  band No.  band energies     occupation 
      1       0.0608      2.00000
      2       5.2362      2.00000
      3       5.2456      2.00000
      4       9.0769      0.00000
      5       9.2641      0.00000
      6       9.8771      0.00000

 k-point   9 :       0.2083    0.1250    0.0417
  band No.  band energies     occupation 
      1       1.1944      2.00000
      2       4.7062      2.00000
      3       4.9649      2.00000
      4       9.2223      0.00000
      5      10.2082      0.00000
      6      10.9807      0.00000

 k-point  10 :       0.2917    0.1250    0.0417
  band No.  band energies     occupation 
      1       1.8979      2.00000
      2       4.3537      2.00000
      3       5.3757      2.00000
      4       9.5465      0.00000
      5      10.4405      0.00000
      6      12.8144      0.00000

 k-point  11 :       0.3750    0.1250    0.0417
  band No.  band energies     occupation 
      1       2.0266      2.00000
      2       4.1776      2.00000
      3       6.2621      0.00000
      4       9.6801      0.00000
      5      10.6341      0.00000
      6      14.2143      0.00000

 k-point  12 :      -0.1250    0.1250    0.0417
  band No.  band energies     occupation 
      1      -1.4459      2.00000
      2       6.0753      0.00000
      3       6.2679      0.00000
      4       7.0725      0.00000
      5       8.8498      0.00000
      6       9.8840      0.00000

 k-point  13 :       0.2083    0.2083    0.0417
  band No.  band energies     occupation 
      1       2.2269      2.00000
      2       4.3760      2.00000
      3       4.8198      2.00000
      4       9.4028      0.00000
      5      10.4736      0.00000
      6      12.8754      0.00000

 k-point  14 :       0.2917    0.2083    0.0417
  band No.  band energies     occupation 
      1       2.7184      2.00000
      2       4.2620      2.00000
      3       5.2362      2.00000
      4       9.7171      0.00000
      5      10.5402      0.00000
      6      14.6957      0.00000

 k-point  15 :       0.3750    0.2083    0.0417
  band No.  band energies     occupation 
      1       2.7683      2.00000
      2       4.2430      2.00000
      3       5.6321      2.05233
      4       9.8158      0.00000
      5      10.6563      0.00000
      6      14.9774      0.00000

 k-point  16 :      -0.2083    0.2083    0.0417
  band No.  band energies     occupation 
      1      -0.4265      2.00000
      2       5.5190      2.00000
      3       5.8350     -0.00207
      4       8.2205      0.00000
      5       8.6488      0.00000
      6      10.0153      0.00000

 k-point  17 :      -0.1250    0.2083    0.0417
  band No.  band energies     occupation 
      1      -0.6445      2.00000
      2       5.8426     -0.00101
      3       5.9020      0.00000
      4       7.8583      0.00000
      5       8.2767      0.00000
      6      10.1851      0.00000

 k-point  18 :       0.2917    0.2917    0.0417
  band No.  band energies     occupation 
      1       3.1878      2.00000
      2       4.4768      2.00000
      3       5.0283      2.00000
      4      10.0906      0.00000
      5      10.4634      0.00000
      6      14.3935      0.00000

 k-point  19 :      -0.2917    0.2917    0.0417
  band No.  band energies     occupation 
      1       0.6728      2.00000
      2       4.9558      2.00000
      3       5.5091      2.00000
      4       8.9496      0.00000
      5       9.8233      0.00000
      6      10.2023      0.00000

 k-point  20 :      -0.2083    0.2917    0.0417
  band No.  band energies     occupation 
      1       0.4612      2.00000
      2       5.2708      2.00000
      3       5.4745      2.00000
      4       8.2824      0.00000
      5       9.2515      0.00000
      6      10.4194      0.00000

 k-point  21 :      -0.3750    0.3750    0.0417
  band No.  band energies     occupation 
      1       1.3021      2.00000
      2       4.5199      2.00000
      3       5.9553      0.00000
      4       9.3649      0.00000
      5      10.4233      0.00000
      6      11.6609      0.00000

 k-point  22 :      -0.2917    0.3750    0.0417
  band No.  band energies     occupation 
      1       1.4069      2.00000
      2       4.7982      2.00000
      3       5.3531      2.00000
      4       8.7423      0.00000
      5      10.5036      0.00000
      6      11.0717      0.00000

 k-point  23 :      -0.2083    0.3750    0.0417
  band No.  band energies     occupation 
      1       1.5222      2.00000
      2       4.6996      2.00000
      3       5.3211      2.00000
      4       8.3688      0.00000
      5      10.4488      0.00000
      6      11.0301      0.00000

 k-point  24 :      -0.4583    0.4583    0.0417
  band No.  band energies     occupation 
      1       1.4272      2.00000
      2       4.2860      2.00000
      3       6.8512      0.00000
      4       9.4004      0.00000
      5      10.7235      0.00000
      6      13.1526      0.00000

 k-point  25 :      -0.3750    0.4583    0.0417
  band No.  band energies     occupation 
      1       1.7520      2.00000
      2       4.5236      2.00000
      3       5.9096      0.00000
      4       9.0749      0.00000
      5      10.7821      0.00000
      6      12.8437      0.00000

 k-point  26 :      -0.2917    0.4583    0.0417
  band No.  band energies     occupation 
      1       2.2798      2.00000
      2       4.4182      2.00000
      3       5.3301      2.00000
      4       8.8138      0.00000
      5      10.4908      0.00000
      6      12.9179      0.00000

 k-point  27 :      -0.4583   -0.4583    0.0417
  band No.  band energies     occupation 
      1       1.7798      2.00000
      2       4.4262      2.00000
      3       6.3717      0.00000
      4       9.0004      0.00000
      5      11.1373      0.00000
      6      13.7367      0.00000

 k-point  28 :      -0.3750   -0.4583    0.0417
  band No.  band energies     occupation 
      1       2.4577      2.00000
      2       4.4764      2.00000
      3       5.5126      2.00000
      4       9.0160      0.00000
      5      10.8577      0.00000
      6      14.5838      0.00000

 k-point  29 :      -0.2917   -0.4583    0.0417
  band No.  band energies     occupation 
      1       3.0059      2.00000
      2       4.1994      2.00000
      3       5.1726      2.00000
      4       9.3055      0.00000
      5      10.3847      0.00000
      6      14.9960      0.00000

 k-point  30 :      -0.3750   -0.3750    0.0417
  band No.  band energies     occupation 
      1       3.2234      2.00000
      2       4.3941      2.00000
      3       4.8600      2.00000
      4       9.6172      0.00000
      5      10.5075      0.00000
      6      14.9038      0.00000

 k-point  31 :       0.1250    0.1250    0.1250
  band No.  band energies     occupation 
      1       1.1436      2.00000
      2       4.7089      2.00000
      3       4.7089      2.00000
      4       9.7581      0.00000
      5       9.7581      0.00000
      6      11.0226      0.00000

 k-point  32 :       0.2083    0.1250    0.1250
  band No.  band energies     occupation 
      1       2.2510      2.00000
      2       4.3388      2.00000
      3       4.5638      2.00000
      4       9.8842      0.00000
      5      10.2418      0.00000
      6      12.9363      0.00000

 k-point  33 :       0.2917    0.1250    0.1250
  band No.  band energies     occupation 
      1       2.6571      2.00000
      2       4.1275      2.00000
      3       5.3322      2.00000
      4      10.0506      0.00000
      5      10.5405      0.00000
      6      14.6090      0.00000

 k-point  34 :       0.3750    0.1250    0.1250
  band No.  band energies     occupation 
      1       2.6651      2.00000
      2       4.0597      2.00000
      3       5.9689      0.00000
      4      10.0806      0.00000
      5      10.6468      0.00000
      6      15.0444      0.00000

 k-point  35 :      -0.1250    0.1250    0.1250
  band No.  band energies     occupation 
      1      -0.8852      2.00000
      2       6.3359      0.00000
      3       6.3359      0.00000
      4       7.0790      0.00000
      5       7.7809      0.00000
      6      10.3606      0.00000

 k-point  36 :       0.2083    0.2083    0.1250
  band No.  band energies     occupation 
      1       3.2275      2.00000
      2       4.2380      2.00000
      3       4.4756      2.00000
      4      10.1766      0.00000
      5      10.5011      0.00000
      6      14.8422      0.00000

 k-point  37 :       0.2917    0.2083    0.1250
  band No.  band energies     occupation 
      1       3.3995      2.00000
      2       4.2032      2.00000
      3       5.1645      2.00000
      4      10.3400      0.00000
      5      10.6407      0.00000
      6      14.2305      0.00000

 k-point  38 :      -0.2083    0.2083    0.1250
  band No.  band energies     occupation 
      1       0.1012      2.00000
      2       5.9523      0.00000
      3       6.0098      0.00000
      4       7.3466      0.00000
      5       8.0430      0.00000
      6      10.6317      0.00000

 k-point  39 :       0.2917    0.2917    0.1250
  band No.  band energies     occupation 
      1       3.5962      2.00000
      2       4.7459      2.00000
      3       4.7459      2.00000
      4      10.5747      0.00000
      5      10.5747      0.00000
      6      13.4009      0.00000

 k-point  40 :      -0.2917    0.2917    0.1250
  band No.  band energies     occupation 
      1       1.1850      2.00000
      2       5.2472      2.00000
      3       5.5119      2.00000
      4       7.8670      0.00000
      5       9.6285      0.00000
      6      10.7199      0.00000

 k-point  41 :      -0.2083    0.2917    0.1250
  band No.  band energies     occupation 
      1       1.1315      2.00000
      2       5.2368      2.00000
      3       6.0180      0.00000
      4       7.2856      0.00000
      5       9.1010      0.00000
      6      10.7879      0.00000

 k-point  42 :      -0.3750    0.3750    0.1250
  band No.  band energies     occupation 
      1       1.8309      2.00000
      2       5.1086      2.00000
      3       5.2081      2.00000
      4       8.4175      0.00000
      5      10.9389      0.00000
      6      11.4824      0.00000

 k-point  43 :      -0.2917    0.3750    0.1250
  band No.  band energies     occupation 
      1       2.0677      2.00000
      2       4.5889      2.00000
      3       5.7647     -0.06704
      4       7.8778      0.00000
      5      10.3415      0.00000
      6      11.2371      0.00000

 k-point  44 :      -0.4583    0.4583    0.1250
  band No.  band energies     occupation 
      1       1.9415      2.00000
      2       4.8892      2.00000
      3       5.6976      1.36735
      4       8.3267      0.00000
      5      11.7580      0.00000
      6      13.0109      0.00000

 k-point  45 :      -0.3750    0.4583    0.1250
  band No.  band energies     occupation 
      1       2.4352      2.00000
      2       4.6512      2.00000
      3       5.4546      2.00000
      4       8.1738      0.00000
      5      11.0757      0.00000
      6      12.9887      0.00000

 k-point  46 :      -0.2917    0.4583    0.1250
  band No.  band energies     occupation 
      1       2.8873      2.00000
      2       4.0182      2.00000
      3       5.6359      2.05912
      4       8.4386      0.00000
      5      10.3011      0.00000
      6      13.1313      0.00000

 k-point  47 :      -0.4583   -0.4583    0.1250
  band No.  band energies     occupation 
      1       2.4426      2.00000
      2       5.0820      2.00000
      3       5.1164      2.00000
      4       8.0717      0.00000
      5      11.8368      0.00000
      6      14.0627      0.00000

 k-point  48 :      -0.3750   -0.4583    0.1250
  band No.  band energies     occupation 
      1       3.1929      2.00000
      2       4.2027      2.00000
      3       5.0185      2.00000
      4       8.9055      0.00000
      5      10.8322      0.00000
      6      15.1178      0.00000

 k-point  49 :      -0.3750   -0.3750    0.1250
  band No.  band energies     occupation 
      1       4.0115      2.00000
      2       4.0115      2.00000
      3       4.2143      2.00000
      4      10.1220      0.00000
      5      10.1220      0.00000
      6      15.0903      0.00000

 k-point  50 :       0.2083    0.2083    0.2083
  band No.  band energies     occupation 
      1       4.2101      2.00000
      2       4.2101      2.00000
      3       4.3607      2.00000
      4      10.5981      0.00000
      5      10.5981      0.00000
      6      13.9854      0.00000

 k-point  51 :       0.2917    0.2083    0.2083
  band No.  band energies     occupation 
      1       4.1753      2.00000
      2       4.2123      2.00000
      3       4.8607      2.00000
      4      10.6442      0.00000
      5      10.7202      0.00000
      6      13.0739      0.00000

 k-point  52 :      -0.2083    0.2083    0.2083
  band No.  band energies     occupation 
      1       1.0096      2.00000
      2       5.7312      0.31881
      3       6.5879      0.00000
      4       6.5879      0.00000
      5       8.1712      0.00000
      6      10.8360      0.00000

 k-point  53 :      -0.2917    0.2917    0.2083
  band No.  band energies     occupation 
      1       1.9950      2.00000
      2       4.7138      2.00000
      3       6.5135      0.00000
      4       7.2041      0.00000
      5       9.4039      0.00000
      6      10.7238      0.00000

 k-point  54 :      -0.3750    0.3750    0.2083
  band No.  band energies     occupation 
      1       2.6064      2.00000
      2       4.2172      2.00000
      3       6.2336      0.00000
      4       7.6539      0.00000
      5      11.1800      0.00000
      6      11.2069      0.00000

 k-point  55 :      -0.2917    0.3750    0.2083
  band No.  band energies     occupation 
      1       2.7481      2.00000
      2       3.9522      2.00000
      3       6.6334      0.00000
      4       7.7597      0.00000
      5      10.1518      0.00000
      6      11.2193      0.00000

 k-point  56 :      -0.4583    0.4583    0.2083
  band No.  band energies     occupation 
      1       2.6392      2.00000
      2       4.3778      2.00000
      3       6.0579      0.00000
      4       7.4450      0.00000
      5      12.7126      0.00000
      6      12.7748      0.00000

 k-point  57 :      -0.3750    0.4583    0.2083
  band No.  band energies     occupation 
      1       3.0347      2.00000
      2       3.6841      2.00000
      3       6.2310      0.00000
      4       8.2669      0.00000
      5      11.0172      0.00000
      6      13.1348      0.00000

 k-point  58 :      -0.4583   -0.4583    0.2083
  band No.  band energies     occupation 
      1       2.9393      2.00000
      2       3.8403      2.00000
      3       5.9783      0.00000
      4       8.2996      0.00000
      5      11.9640      0.00000
      6      14.6694      0.00000

 k-point  59 :      -0.3750   -0.4583    0.2083
  band No.  band energies     occupation 
      1       3.3001      2.00000
      2       3.4072      2.00000
      3       5.7033      1.18269
      4       9.6680      0.00000
      5      10.8476      0.00000
      6      15.2956      0.00000

 k-point  60 :      -0.2917    0.2917    0.2917
  band No.  band energies     occupation 
      1       2.6832      2.00000
      2       3.9451      2.00000
      3       7.4997      0.00000
      4       7.4997      0.00000
      5       9.6459      0.00000
      6      10.4794      0.00000

 k-point  61 :      -0.3750    0.3750    0.2917
  band No.  band energies     occupation 
      1       2.9672      2.00000
      2       3.3203      2.00000
      3       7.7536      0.00000
      4       7.9758      0.00000
      5      10.9873      0.00000
      6      11.1400      0.00000

 k-point  62 :      -0.4583    0.4583    0.2917
  band No.  band energies     occupation 
      1       2.7779      2.00000
      2       3.2568      2.00000
      3       7.7109      0.00000
      4       7.9062      0.00000
      5      12.5164      0.00000
      6      13.1894      0.00000

 k-point  63 :      -0.3750    0.4583    0.2917
  band No.  band energies     occupation 
      1       2.8371      2.00000
      2       2.9189      2.00000
      3       7.6392      0.00000
      4       9.3247      0.00000
      5      11.2275      0.00000
      6      13.0983      0.00000

 k-point  64 :      -0.4583   -0.4583    0.2917
  band No.  band energies     occupation 
      1       2.6786      2.00000
      2       2.8596      2.00000
      3       7.5132      0.00000
      4       9.8230      0.00000
      5      11.8127      0.00000
      6      15.1069      0.00000

 k-point  65 :      -0.3750    0.3750    0.3750
  band No.  band energies     occupation 
      1       2.6767      2.00000
      2       2.7405      2.00000
      3       9.1988      0.00000
      4       9.1988      0.00000
      5      11.2085      0.00000
      6      11.4779      0.00000

 k-point  66 :      -0.4583    0.4583    0.3750
  band No.  band energies     occupation 
      1       2.3561      2.00000
      2       2.4714      2.00000
      3       9.6902      0.00000
      4       9.7040      0.00000
      5      12.3113      0.00000
      6      13.3440      0.00000

 k-point  67 :      -0.4583   -0.4583    0.3750
  band No.  band energies     occupation 
      1       2.2375      2.00000
      2       2.2375      2.00000
      3       9.6986      0.00000
      4      11.6510      0.00000
      5      11.6510      0.00000
      6      15.2754      0.00000

 k-point  68 :      -0.4583    0.4583    0.4583
  band No.  band energies     occupation 
      1       2.0246      2.00000
      2       2.0585      2.00000
      3      11.5873      0.00000
      4      11.5873      0.00000
      5      12.3069      0.00000
      6      13.7499      0.00000


--------------------------------------------------------------------------------------------------------


 soft charge-density along one line, spin component           1
         0         1         2         3         4         5         6         7         8         9
 total charge-density along one line
 
 pseudopotential strength for first ion, spin component:           1
 -6.574   0.000   0.003   0.000   0.002   0.089   0.000   0.000
  0.000  -6.572   0.000   0.003   0.000   0.000   0.089   0.000
  0.003   0.000  -6.571   0.000  -0.001   0.000   0.000   0.089
  0.000   0.003   0.000  -6.574   0.000   0.000   0.000   0.000
  0.002   0.000  -0.001   0.000  -6.570   0.000   0.000   0.000
  0.089   0.000   0.000   0.000   0.000   0.071   0.000   0.000
  0.000   0.089   0.000   0.000   0.000   0.000   0.071   0.000
  0.000   0.000   0.089   0.000   0.000   0.000   0.000   0.071
  0.000   0.000   0.000   0.089   0.000   0.000   0.000   0.000
  0.000   0.000   0.000   0.000   0.089   0.000   0.000   0.000
  0.000   0.000   0.000   0.000   0.000   0.000   0.000   0.000
  0.000   0.000   0.000   0.000   0.000   0.000   0.000   0.000
  0.000   0.000   0.000   0.000   0.000   0.000   0.000   0.000
  0.000   0.000   0.000   0.000   0.000   0.000   0.000   0.000
  0.000   0.000   0.000   0.000   0.000   0.000   0.000   0.000
  0.000   0.000   0.000   0.000   0.000   0.000   0.000   0.000
  0.000   0.000   0.000   0.000   0.000   0.000   0.000   0.000
  0.000   0.000   0.000   0.000   0.000   0.000   0.000   0.000
 total augmentation occupancy for first ion, spin component:           1
  0.637   0.000   0.081   0.000   0.047  -0.516   0.000  -0.021   0.000  -0.012   0.000   0.000   0.000   0.000   0.000   0.000
  0.000   0.703   0.000   0.093   0.000   0.000  -0.533   0.000  -0.024   0.000   0.000   0.000   0.000   0.000   0.000   0.000
  0.081   0.000   0.719   0.000  -0.029  -0.021   0.000  -0.537   0.000   0.007   0.000   0.000   0.000   0.000   0.000   0.000
  0.000   0.093   0.000   0.637   0.000   0.000  -0.024   0.000  -0.516   0.000   0.000   0.000   0.000   0.000   0.000   0.000
  0.047   0.000  -0.029   0.000   0.752  -0.012   0.000   0.007   0.000  -0.545   0.000   0.000   0.000   0.000   0.000   0.000
 -0.516   0.000  -0.021   0.000  -0.012   0.462   0.000  -0.014   0.000  -0.008   0.000   0.000   0.000   0.000   0.000   0.000
  0.000  -0.533   0.000  -0.024   0.000   0.000   0.451   0.000  -0.016   0.000   0.000   0.000   0.000   0.000   0.000   0.000
 -0.021   0.000  -0.537   0.000   0.007  -0.014   0.000   0.448   0.000   0.005   0.000   0.000   0.000   0.000   0.000   0.000
  0.000  -0.024   0.000  -0.516   0.000   0.000  -0.016   0.000   0.462   0.000   0.000   0.000   0.000   0.000   0.000   0.000
 -0.012   0.000   0.007   0.000  -0.545  -0.008   0.000   0.005   0.000   0.442   0.000   0.000   0.000   0.000   0.000   0.000
  0.000   0.000   0.000   0.000   0.000   0.000   0.000   0.000   0.000   0.000   1.405  -0.274   0.000   0.000   0.000   0.000
  0.000   0.000   0.000   0.000   0.000   0.000   0.000   0.000   0.000   0.000  -0.274   0.058   0.000   0.000   0.000   0.000
  0.000   0.000   0.000   0.000   0.000   0.000   0.000   0.000   0.000   0.000   0.000   0.000   0.309   0.000   0.000   0.012
  0.000   0.000   0.000   0.000   0.000   0.000   0.000   0.000   0.000   0.000   0.000   0.000   0.000   0.309   0.000   0.000
  0.000   0.000   0.000   0.000   0.000   0.000   0.000   0.000   0.000   0.000   0.000   0.000   0.000   0.000   0.309   0.000
  0.000   0.000   0.000   0.000   0.000   0.000   0.000   0.000   0.000   0.000   0.000   0.000   0.012   0.000   0.000   0.000
  0.000   0.000   0.000   0.000   0.000   0.000   0.000   0.000   0.000   0.000   0.000   0.000   0.000   0.012   0.000   0.000
  0.000   0.000   0.000   0.000   0.000   0.000   0.000   0.000   0.000   0.000   0.000   0.000   0.000   0.000   0.012   0.000


------------------------ aborting loop because EDIFF is reached ----------------------------------------


    CHARGE:  cpu time    0.13: real time    0.14
    FORLOC:  cpu time    0.00: real time    0.00
    FORNL :  cpu time    0.12: real time    0.12
    STRESS:  cpu time    0.36: real time    0.36
    FORCOR:  cpu time    0.06: real time    0.06
    FORHAR:  cpu time    0.01: real time    0.02
    MIXING:  cpu time    0.00: real time    0.00

  FORCE on cell =-STRESS in cart. coord.  units (eV):
  Direction    XX          YY          ZZ          XY          YZ          ZX
  --------------------------------------------------------------------------------------
  Alpha Z    30.58334    30.58334    30.58334
  Ewald     -65.96700   -65.96700   -65.96700     0.00000     0.00000     0.00000
  Hartree     0.19041     0.19041     0.19041     0.00000     0.00000     0.00000
  E(xc)     -22.44359   -22.44359   -22.44359     0.00000     0.00000     0.00000
  Local       3.80421     3.80421     3.80421     0.00000     0.00000     0.00000
  n-local    -7.37906    -8.25656    -5.38838     1.74717    -2.24448    -1.52240
  augment     2.91319     2.91319     2.91319     0.00000     0.00000     0.00000
  Kinetic    59.33268    59.54688    54.88106    -0.10373     3.06270     1.64517
  Fock        0.00000     0.00000     0.00000     0.00000     0.00000     0.00000
  -------------------------------------------------------------------------------------
  Total      -0.00724    -0.00724    -0.00724     0.00000     0.00000     0.00000
  in kB      -0.63946    -0.63946    -0.63946     0.00000     0.00000     0.00000
  external pressure =       -0.64 kB  Pullay stress =        0.00 kB


 VOLUME and BASIS-vectors are now :
 -----------------------------------------------------------------------------
  energy-cutoff  :      350.00
  volume of cell :       18.13
      direct lattice vectors                 reciprocal lattice vectors
     2.866544087  0.000000000  0.000000000     0.348852126  0.123337852  0.213627426
    -0.955514696  2.702603683  0.000000000     0.000000000  0.370013556  0.213627426
    -0.955514696 -1.351301841  2.340523446     0.000000000  0.000000000  0.427254853

  length of vectors
     2.866544087  2.866544087  2.866544087     0.427254853  0.427254853  0.427254853


 FORCES acting on ions
    electron-ion (+dipol)            ewald-force                    non-local-force                 convergence-correction
 -----------------------------------------------------------------------------------------------
   -.204E-14 -.322E-15 0.901E-15   -.279E-15 -.214E-15 0.640E-15   0.165E-23 -.827E-24 0.000E+00   -.983E-15 -.514E-15 -.371E-15
 -----------------------------------------------------------------------------------------------
   -.204E-14 -.322E-15 0.901E-15   -.279E-15 -.214E-15 0.640E-15   0.165E-23 -.827E-24 0.000E+00   -.983E-15 -.514E-15 -.371E-15
 
 
 POSITION                                       TOTAL-FORCE (eV/Angst)
 -----------------------------------------------------------------------------------
      0.00000      0.00000      0.00000         0.000000      0.000000      0.000000
 -----------------------------------------------------------------------------------
    total drift:                                0.000000      0.000000      0.000000


--------------------------------------------------------------------------------------------------------



  FREE ENERGIE OF THE ION-ELECTRON SYSTEM (eV)
  ---------------------------------------------------
  free  energy   TOTEN  =       -11.866524 eV

  energy  without entropy=      -11.866451  energy(sigma->0) =      -11.866500
 


--------------------------------------------------------------------------------------------------------


    POTLOK:  cpu time    0.07: real time    0.07


--------------------------------------------------------------------------------------------------------


 writing wavefunctions
     LOOP+:  cpu time    9.27: real time   11.85
    4ORBIT:  cpu time    0.00: real time    0.00

 total amount of memory used by VASP on root node    38877. kBytes
========================================================================

   base      :      30000. kBytes
   nonl-proj :       2707. kBytes
   fftplans  :       1676. kBytes
   grid      :       2560. kBytes
   one-center:         15. kBytes
   wavefun   :       1919. kBytes
 
  
  
 General timing and accounting informations for this job:
 ========================================================
  
                  Total CPU time used (sec):        9.770
                            User time (sec):        9.586
                          System time (sec):        0.184
                         Elapsed time (sec):       18.293
  
                   Maximum memory used (kb):           0.
                   Average memory used (kb):           0.
  
                          Minor page faults:         8492
                          Major page faults:            0
                 Voluntary context switches:         3624
