 vasp.5.2.12 11Nov11 complex                                                    
  
 executed on             LinuxIFC date 2012.10.17  10:14:54
 running on    1 nodes
 distr:  one band on    1 nodes,    1 groups


--------------------------------------------------------------------------------------------------------


 INCAR:
 POTCAR:    PAW_PBE Ta 17Jan2003                  
 POTCAR:    PAW_PBE Ta 17Jan2003                  
   VRHFIN =Ta:  6s5d                                                            
   LEXCH  = PE                                                                  
   EATOM  =   130.6506 eV,    9.6025 Ry                                         
                                                                                
   TITEL  = PAW_PBE Ta 17Jan2003                                                
   LULTRA =        F    use ultrasoft PP ?                                      
   IUNSCR =        1    unscreen: 0-lin 1-nonlin 2-no                           
   RPACOR =    2.330    partial core radius                                     
   POMASS =  180.948; ZVAL   =    5.000    mass and valenz                      
   RCORE  =    2.900    outmost cutoff radius                                   
   RWIGS  =    2.840; RWIGS  =    1.503    wigner-seitz radius (au A)           
   ENMAX  =  223.667; ENMIN  =  167.750 eV                                      
   RCLOC  =    2.205    cutoff for local pot                                    
   LCOR   =        T    correct aug charges                                     
   LPAW   =        T    paw PP                                                  
   EAUG   =  332.075                                                            
   DEXC   =    -.049                                                            
   RMAX   =    3.083    core radius for proj-oper                               
   RAUG   =    1.300    factor for augmentation sphere                          
   RDEP   =    3.060    radius for radial grids                                 
   QCUT   =   -4.055; QGAM   =    8.109    optimization parameters              
                                                                                
   Description                                                                  
     l     E      TYP  RCUT    TYP  RCUT                                        
     2   .000     23  2.500                                                     
     2   .000     23  2.500                                                     
     0   .000     23  2.500                                                     
     0   .000     23  2.500                                                     
     1   .000     23  2.900                                                     
     1  2.000     23  2.900                                                     
     3   .000      7   .000                                                     
  local pseudopotential read in
  partial core-charges read in
  atomic valenz-charges read in
  non local Contribution for L=           2  read in
    real space projection operators read in
  non local Contribution for L=           2  read in
    real space projection operators read in
  non local Contribution for L=           0  read in
    real space projection operators read in
  non local Contribution for L=           0  read in
    real space projection operators read in
  non local Contribution for L=           1  read in
    real space projection operators read in
  non local Contribution for L=           1  read in
    real space projection operators read in
    PAW grid and wavefunctions read in
 
   number of l-projection  operators is LMAX  =           6
   number of lm-projection operators is LMMAX =          18
 
  PAW_PBE Ta 17Jan2003                  :
 energy of atom  1       EATOM= -130.6506
 kinetic energy error for atom=    0.0044 (will be added to EATOM!!)
 
 
 POSCAR: Ta                                      
  positions in cartesian coordinates
  No initial velocities read in
 exchange correlation table for  LEXCH =        8
   RHO(1)=    0.500       N(1)  =     2000
   RHO(2)=  100.500       N(2)  =     4000
 


--------------------------------------------------------------------------------------------------------


 ion  position               nearest neighbor table
   1  0.000  0.000  0.000-
 
  LATTYP: Found a body centered cubic cell.
 ALAT       =     3.3100000000
  
  Lattice vectors:
  
 A1 = (   2.8665440865,   0.0000000000,   0.0000000000)
 A2 = (  -0.9555146955,   2.7026036829,   0.0000000000)
 A3 = (  -0.9555146955,  -1.3513018414,   2.3405234457)
 Subroutine PRICEL returns:
 Original cell was already a primitive cell.
 

Analysis of symmetry for initial positions (statically):

 Routine SETGRP: Setting up the symmetry group for a 
 body centered cubic supercell.


 Subroutine GETGRP returns: Found 48 space group operations
 (whereof 48 operations were pure point group operations)
 out of a pool of 48 trial point group operations.


The static configuration has the point symmetry O_h .

Analysis of symmetry for dynamics (positions and initial velocities):

 Subroutine DYNSYM returns: Found 48 space group operations
 (whereof 48 operations were pure point group operations)
 out of a pool of 48 trial space group operations
 (whereof 48 operations were pure point group operations)
 and found also     1 'primitive' translations


The dynamic configuration has the point symmetry O_h .

Analysis of magnetic symmetry:

 Subroutine MAGSYM returns: Found 48 space group operations
 (whereof 48 operations were pure point group operations)
 out of a pool of 48 trial space group operations
 (whereof 48 operations were pure point group operations)
 and found also     1 'primitive' translations


The magnetic configuration has the point symmetry O_h .
 
 
 KPOINTS: KPOINTS created by Atomic Simulation Env

Automatic generation of k-mesh.
 
 Subroutine IBZKPT returns following result:
 ===========================================
 
 Found     68 irreducible k-points:
 
 Following reciprocal coordinates:
            Coordinates               Weight
  0.041667  0.041667  0.041667      8.000000
  0.125000  0.041667  0.041667     24.000000
  0.208333  0.041667  0.041667     24.000000
  0.291667  0.041667  0.041667     24.000000
  0.375000  0.041667  0.041667     24.000000
  0.458333  0.041667  0.041667     12.000000
 -0.041667  0.041667  0.041667      6.000000
  0.125000  0.125000  0.041667     24.000000
  0.208333  0.125000  0.041667     48.000000
  0.291667  0.125000  0.041667     48.000000
  0.375000  0.125000  0.041667     48.000000
 -0.125000  0.125000  0.041667     24.000000
  0.208333  0.208333  0.041667     24.000000
  0.291667  0.208333  0.041667     48.000000
  0.375000  0.208333  0.041667     24.000000
 -0.208333  0.208333  0.041667     24.000000
 -0.125000  0.208333  0.041667     24.000000
  0.291667  0.291667  0.041667     24.000000
 -0.291667  0.291667  0.041667     24.000000
 -0.208333  0.291667  0.041667     48.000000
 -0.375000  0.375000  0.041667     24.000000
 -0.291667  0.375000  0.041667     48.000000
 -0.208333  0.375000  0.041667     24.000000
 -0.458333  0.458333  0.041667     24.000000
 -0.375000  0.458333  0.041667     48.000000
 -0.291667  0.458333  0.041667     48.000000
 -0.458333 -0.458333  0.041667     24.000000
 -0.375000 -0.458333  0.041667     48.000000
 -0.291667 -0.458333  0.041667     24.000000
 -0.375000 -0.375000  0.041667     24.000000
  0.125000  0.125000  0.125000      8.000000
  0.208333  0.125000  0.125000     24.000000
  0.291667  0.125000  0.125000     24.000000
  0.375000  0.125000  0.125000     12.000000
 -0.125000  0.125000  0.125000      6.000000
  0.208333  0.208333  0.125000     24.000000
  0.291667  0.208333  0.125000     48.000000
 -0.208333  0.208333  0.125000     24.000000
  0.291667  0.291667  0.125000      8.000000
 -0.291667  0.291667  0.125000     24.000000
 -0.208333  0.291667  0.125000     24.000000
 -0.375000  0.375000  0.125000     24.000000
 -0.291667  0.375000  0.125000     48.000000
 -0.458333  0.458333  0.125000     24.000000
 -0.375000  0.458333  0.125000     48.000000
 -0.291667  0.458333  0.125000     24.000000
 -0.458333 -0.458333  0.125000     24.000000
 -0.375000 -0.458333  0.125000     48.000000
 -0.375000 -0.375000  0.125000      8.000000
  0.208333  0.208333  0.208333      8.000000
  0.291667  0.208333  0.208333     12.000000
 -0.208333  0.208333  0.208333      6.000000
 -0.291667  0.291667  0.208333     24.000000
 -0.375000  0.375000  0.208333     24.000000
 -0.291667  0.375000  0.208333     24.000000
 -0.458333  0.458333  0.208333     24.000000
 -0.375000  0.458333  0.208333     48.000000
 -0.458333 -0.458333  0.208333     24.000000
 -0.375000 -0.458333  0.208333     24.000000
 -0.291667  0.291667  0.291667      6.000000
 -0.375000  0.375000  0.291667     24.000000
 -0.458333  0.458333  0.291667     24.000000
 -0.375000  0.458333  0.291667     24.000000
 -0.458333 -0.458333  0.291667     24.000000
 -0.375000  0.375000  0.375000      6.000000
 -0.458333  0.458333  0.375000     24.000000
 -0.458333 -0.458333  0.375000      8.000000
 -0.458333  0.458333  0.458333      6.000000
 
 Following cartesian coordinates:
            Coordinates               Weight
  0.014536  0.020556  0.035605      8.000000
  0.043607  0.030834  0.053407     24.000000
  0.072678  0.041113  0.071209     24.000000
  0.101749  0.051391  0.089011     24.000000
  0.130820  0.061669  0.106814     24.000000
  0.159891  0.071947  0.124616     12.000000
 -0.014536  0.010278  0.017802      6.000000
  0.043607  0.061669  0.071209     24.000000
  0.072678  0.071947  0.089011     48.000000
  0.101749  0.082225  0.106814     48.000000
  0.130820  0.092503  0.124616     48.000000
 -0.043607  0.030834  0.017802     24.000000
  0.072678  0.102782  0.106814     24.000000
  0.101749  0.113060  0.124616     48.000000
  0.130820  0.123338  0.142418     24.000000
 -0.072678  0.051391  0.017802     24.000000
 -0.043607  0.061669  0.035605     24.000000
  0.101749  0.143894  0.142418     24.000000
 -0.101749  0.071947  0.017802     24.000000
 -0.072678  0.082225  0.035605     48.000000
 -0.130820  0.092503  0.017802     24.000000
 -0.101749  0.102782  0.035605     48.000000
 -0.072678  0.113060  0.053407     24.000000
 -0.159891  0.113060  0.017802     24.000000
 -0.130820  0.123338  0.035605     48.000000
 -0.101749  0.133616  0.053407     48.000000
 -0.159891 -0.226119 -0.178023     24.000000
 -0.130820 -0.215841 -0.160221     48.000000
 -0.101749 -0.205563 -0.142418     24.000000
 -0.130820 -0.185007 -0.142418     24.000000
  0.043607  0.061669  0.106814      8.000000
  0.072678  0.071947  0.124616     24.000000
  0.101749  0.082225  0.142418     24.000000
  0.130820  0.092503  0.160221     12.000000
 -0.043607  0.030834  0.053407      6.000000
  0.072678  0.102782  0.142418     24.000000
  0.101749  0.113060  0.160221     48.000000
 -0.072678  0.051391  0.053407     24.000000
  0.101749  0.143894  0.178023      8.000000
 -0.101749  0.071947  0.053407     24.000000
 -0.072678  0.082225  0.071209     24.000000
 -0.130820  0.092503  0.053407     24.000000
 -0.101749  0.102782  0.071209     48.000000
 -0.159891  0.113060  0.053407     24.000000
 -0.130820  0.123338  0.071209     48.000000
 -0.101749  0.133616  0.089011     24.000000
 -0.159891 -0.226119 -0.142418     24.000000
 -0.130820 -0.215841 -0.124616     48.000000
 -0.130820 -0.185007 -0.106814      8.000000
  0.072678  0.102782  0.178023      8.000000
  0.101749  0.113060  0.195825     12.000000
 -0.072678  0.051391  0.089011      6.000000
 -0.101749  0.071947  0.089011     24.000000
 -0.130820  0.092503  0.089011     24.000000
 -0.101749  0.102782  0.106814     24.000000
 -0.159891  0.113060  0.089011     24.000000
 -0.130820  0.123338  0.106814     48.000000
 -0.159891 -0.226119 -0.106814     24.000000
 -0.130820 -0.215841 -0.089011     24.000000
 -0.101749  0.071947  0.124616      6.000000
 -0.130820  0.092503  0.124616     24.000000
 -0.159891  0.113060  0.124616     24.000000
 -0.130820  0.123338  0.142418     24.000000
 -0.159891 -0.226119 -0.071209     24.000000
 -0.130820  0.092503  0.160221      6.000000
 -0.159891  0.113060  0.160221     24.000000
 -0.159891 -0.226119 -0.035605      8.000000
 -0.159891  0.113060  0.195825      6.000000
 


--------------------------------------------------------------------------------------------------------




 Dimension of arrays:
   k-points           NKPTS =     68   k-points in BZ     NKDIM =     68   number of bands    NBANDS=      6
   number of dos      NEDOS =    301   number of ions     NIONS =      1
   non local maximal  LDIM  =      6   non local SUM 2l+1 LMDIM =     18
   total plane-waves  NPLWV =   5832
   max r-space proj   IRMAX =      1   max aug-charges    IRDMAX=  22091
   dimension x,y,z NGX =    18 NGY =   18 NGZ =   18
   dimension x,y,z NGXF=    36 NGYF=   36 NGZF=   36
   support grid    NGXF=    36 NGYF=   36 NGZF=   36
   ions per type =               1
 NGX,Y,Z   is equivalent  to a cutoff of  10.44, 10.44, 10.44 a.u.
 NGXF,Y,Z  is equivalent  to a cutoff of  20.88, 20.88, 20.88 a.u.


 I would recommend the setting:
   dimension x,y,z NGX =    17 NGY =   17 NGZ =   17
 SYSTEM =  unknown system                          
 POSCAR =  Ta                                      

 Startparameter for this run:
   NWRITE =      2    write-flag & timer
   PREC   = accura    normal or accurate (medium, high low for compatibility)
   ISTART =      0    job   : 0-new  1-cont  2-samecut
   ICHARG =      2    charge: 1-file 2-atom 10-const
   ISPIN  =      2    spin polarized calculation?
   LNONCOLLINEAR =      F non collinear calculations
   LSORBIT =      F    spin-orbit coupling
   INIWAV =      1    electr: 0-lowe 1-rand  2-diag
   LASPH  =      F    aspherical Exc in radial PAW
   METAGGA=      F    non-selfconsistent MetaGGA calc.

 Electronic Relaxation 1
   ENCUT  =  350.0 eV  25.72 Ry    5.07 a.u.   4.37  4.37  4.37*2*pi/ulx,y,z
   ENINI  =  350.0     initial cutoff
   ENAUG  =  332.1 eV  augmentation charge cutoff
   NELM   =     60;   NELMIN=  2; NELMDL= -5     # of ELM steps 
   EDIFF  = 0.1E-03   stopping-criterion for ELM
   LREAL  =      F    real-space projection
   NLSPLINE    = F    spline interpolate recip. space projectors
   LCOMPAT=      F    compatible to vasp.4.4
   GGA_COMPAT  = T    GGA compatible to vasp.4.4-vasp.4.6
   LMAXPAW     = -100 max onsite density
   LMAXMIX     =    2 max onsite mixed and CHGCAR
   VOSKOWN=      0    Vosko Wilk Nusair interpolation
   ROPT   =    0.00000
 Ionic relaxation
   EDIFFG = 0.1E-02   stopping-criterion for IOM
   NSW    =      0    number of steps for IOM
   NBLOCK =      1;   KBLOCK =      1    inner block; outer block 
   IBRION =     -1    ionic relax: 0-MD 1-quasi-New 2-CG
   NFREE  =      0    steps in history (QN), initial steepest desc. (CG)
   ISIF   =      2    stress and relaxation
   IWAVPR =     10    prediction:  0-non 1-charg 2-wave 3-comb
   ISYM   =      2    0-nonsym 1-usesym 2-fastsym
   LCORR  =      T    Harris-Foulkes like correction to forces

   POTIM  = 0.5000    time-step for ionic-motion
   TEIN   =    0.0    initial temperature
   TEBEG  =    0.0;   TEEND  =   0.0 temperature during run
   SMASS  =  -3.00    Nose mass-parameter (am)
   estimated Nose-frequenzy (Omega)   =  0.10E-29 period in steps =****** mass=  -0.188E-27a.u.
   SCALEE = 1.0000    scale energy and forces
   NPACO  =    256;   APACO  = 16.0  distance and # of slots for P.C.
   PSTRESS=    0.0 pullay stress

  Mass of Ions in am
   POMASS = 180.95
  Ionic Valenz
   ZVAL   =   5.00
  Atomic Wigner-Seitz radii
   RWIGS  =  -1.00
  virtual crystal weights 
   VCA    =   1.00
   NELECT =       5.0000    total number of electrons
   NUPDOWN=      -1.0000    fix difference up-down

 DOS related values:
   EMIN   =  10.00;   EMAX   =-10.00  energy-range for DOS
   EFERMI =   0.00
   ISMEAR =     1;   SIGMA  =   0.05  broadening in eV -4-tet -1-fermi 0-gaus

 Electronic relaxation 2 (details)
   IALGO  =     38    algorithm
   LDIAG  =      T    sub-space diagonalisation (order eigenvalues)
   LSUBROT=      T    optimize rotation matrix (better conditioning)
   TURBO    =      0    0=normal 1=particle mesh
   IRESTART =      0    0=no restart 2=restart with 2 vectors
   NREBOOT  =      0    no. of reboots
   NMIN     =      0    reboot dimension
   EREF     =   0.00    reference energy to select bands
   IMIX   =      4    mixing-type and parameters
     AMIX     =   0.40;   BMIX     =  1.00
     AMIX_MAG =   1.60;   BMIX_MAG =  1.00
     AMIN     =   0.10
     WC   =   100.;   INIMIX=   1;  MIXPRE=   1

 Intra band minimization:
   WEIMIN = 0.0000     energy-eigenvalue tresh-hold
   EBREAK =  0.42E-05  absolut break condition
   DEPER  =   0.30     relativ break condition  

   TIME   =   0.40     timestep for ELM

  volume/ion in A,a.u.               =      18.13       122.36
  Fermi-wavevector in a.u.,A,eV,Ry     =   1.065566  2.013627 15.448462  1.135430
  Thomas-Fermi vector in A             =   2.201121
 
 Write flags
   LWAVE  =      T    write WAVECAR
   LCHARG =      T    write CHGCAR
   LVTOT  =      F    write LOCPOT, total local potential
   LVHAR  =      F    write LOCPOT, Hartree potential only
   LELF   =      F    write electronic localiz. function (ELF)
   LORBIT =     11    0 simple, 1 ext, 2 COOP (PROOUT)


 Dipole corrections
   LMONO  =      F    monopole corrections only (constant potential shift)
   LDIPOL =      F    correct potential (dipole corrections)
   IDIPOL =      0    1-x, 2-y, 3-z, 4-all directions 
   EPSILON=  1.0000000 bulk dielectric constant

 Exchange correlation treatment:
   GGA     =    --    GGA type
   LEXCH   =     8    internal setting for exchange type
   VOSKOWN=      0    Vosko Wilk Nusair interpolation
   LHFCALC =     F    Hartree Fock is set to
   LHFONE  =     F    Hartree Fock one center treatment
   AEXX    =    0.0000 exact exchange contribution

 Linear response parameters
   LEPSILON=     F    determine dielectric tensor
   LRPA    =     F    only Hartree local field effects (RPA)
   LNABLA  =     F    use nabla operator in PAW spheres
   LVEL    =     F    velocity operator in full k-point grid
   LINTERFAST=   F  fast interpolation
   KINTER  =     0    interpolate to denser k-point grid
   CSHIFT  =0.1000    complex shift for real part using Kramers Kronig
   OMEGAMAX=  -1.0    maximum frequency
   RTIME   =    0.100 relaxation time in fs

 Orbital magnetization related:
   ORBITALMAG=     F  switch on orbital magnetization
   LCHIMAG   =     F  perturbation theory with respect to B field
   DQ        =  0.001000  dq finite difference perturbation B field



--------------------------------------------------------------------------------------------------------


 Static calculation
 charge density and potential will be updated during run
 spin polarized calculation
 Variant of blocked Davidson
 Davidson routine will perform the subspace rotation
 perform sub-space diagonalisation
    after iterative eigenvector-optimisation
 modified Broyden-mixing scheme, WC =      100.0
 initial mixing is a Kerker type mixing with AMIX =  0.4000 and BMIX =      1.0000
 Hartree-type preconditioning will be used
 using additional bands            3
 reciprocal scheme for non local part
 use partial core corrections
 calculate Harris-corrections to forces 
   (improved forces if not selfconsistent)
 use gradient corrections 
 use of overlap-Matrix (Vanderbilt PP)
 Methfessel and Paxton  Order N= 1 SIGMA  =   0.05


--------------------------------------------------------------------------------------------------------


  energy-cutoff  :      350.00
  volume of cell :       18.13
      direct lattice vectors                 reciprocal lattice vectors
     2.866544087  0.000000000  0.000000000     0.348852126  0.123337852  0.213627426
    -0.955514696  2.702603683  0.000000000     0.000000000  0.370013556  0.213627426
    -0.955514696 -1.351301841  2.340523446     0.000000000  0.000000000  0.427254853

  length of vectors
     2.866544087  2.866544087  2.866544087     0.427254853  0.427254853  0.427254853


 
 k-points in units of 2pi/SCALE and weight: KPOINTS created by Atomic Simulation Env
   0.01453551  0.02055631  0.03560457       0.005
   0.04360652  0.03083446  0.05340686       0.014
   0.07267753  0.04111262  0.07120914       0.014
   0.10174854  0.05139077  0.08901143       0.014
   0.13081955  0.06166893  0.10681371       0.014
   0.15989056  0.07194708  0.12461600       0.007
  -0.01453551  0.01027815  0.01780229       0.003
   0.04360652  0.06166893  0.07120914       0.014
   0.07267753  0.07194708  0.08901143       0.028
   0.10174854  0.08222523  0.10681371       0.028
   0.13081955  0.09250339  0.12461600       0.028
  -0.04360652  0.03083446  0.01780229       0.014
   0.07267753  0.10278154  0.10681371       0.014
   0.10174854  0.11305970  0.12461600       0.028
   0.13081955  0.12333785  0.14241828       0.014
  -0.07267753  0.05139077  0.01780229       0.014
  -0.04360652  0.06166893  0.03560457       0.014
   0.10174854  0.14389416  0.14241828       0.014
  -0.10174854  0.07194708  0.01780229       0.014
  -0.07267753  0.08222523  0.03560457       0.028
  -0.13081955  0.09250339  0.01780229       0.014
  -0.10174854  0.10278154  0.03560457       0.028
  -0.07267753  0.11305970  0.05340686       0.014
  -0.15989056  0.11305970  0.01780229       0.014
  -0.13081955  0.12333785  0.03560457       0.028
  -0.10174854  0.13361601  0.05340686       0.028
  -0.15989056 -0.22611940 -0.17802286       0.014
  -0.13081955 -0.21584124 -0.16022057       0.028
  -0.10174854 -0.20556309 -0.14241828       0.014
  -0.13081955 -0.18500678 -0.14241828       0.014
   0.04360652  0.06166893  0.10681371       0.005
   0.07267753  0.07194708  0.12461600       0.014
   0.10174854  0.08222523  0.14241828       0.014
   0.13081955  0.09250339  0.16022057       0.007
  -0.04360652  0.03083446  0.05340686       0.003
   0.07267753  0.10278154  0.14241828       0.014
   0.10174854  0.11305970  0.16022057       0.028
  -0.07267753  0.05139077  0.05340686       0.014
   0.10174854  0.14389416  0.17802286       0.005
  -0.10174854  0.07194708  0.05340686       0.014
  -0.07267753  0.08222523  0.07120914       0.014
  -0.13081955  0.09250339  0.05340686       0.014
  -0.10174854  0.10278154  0.07120914       0.028
  -0.15989056  0.11305970  0.05340686       0.014
  -0.13081955  0.12333785  0.07120914       0.028
  -0.10174854  0.13361601  0.08901143       0.014
  -0.15989056 -0.22611940 -0.14241828       0.014
  -0.13081955 -0.21584124 -0.12461600       0.028
  -0.13081955 -0.18500678 -0.10681371       0.005
   0.07267753  0.10278154  0.17802286       0.005
   0.10174854  0.11305970  0.19582514       0.007
  -0.07267753  0.05139077  0.08901143       0.003
  -0.10174854  0.07194708  0.08901143       0.014
  -0.13081955  0.09250339  0.08901143       0.014
  -0.10174854  0.10278154  0.10681371       0.014
  -0.15989056  0.11305970  0.08901143       0.014
  -0.13081955  0.12333785  0.10681371       0.028
  -0.15989056 -0.22611940 -0.10681371       0.014
  -0.13081955 -0.21584124 -0.08901143       0.014
  -0.10174854  0.07194708  0.12461600       0.003
  -0.13081955  0.09250339  0.12461600       0.014
  -0.15989056  0.11305970  0.12461600       0.014
  -0.13081955  0.12333785  0.14241828       0.014
  -0.15989056 -0.22611940 -0.07120914       0.014
  -0.13081955  0.09250339  0.16022057       0.003
  -0.15989056  0.11305970  0.16022057       0.014
  -0.15989056 -0.22611940 -0.03560457       0.005
  -0.15989056  0.11305970  0.19582514       0.003
 
 k-points in reciprocal lattice and weights: KPOINTS created by Atomic Simulation Env
   0.04166667  0.04166667  0.04166667       0.005
   0.12500000  0.04166667  0.04166667       0.014
   0.20833333  0.04166667  0.04166667       0.014
   0.29166667  0.04166667  0.04166667       0.014
   0.37500000  0.04166667  0.04166667       0.014
   0.45833333  0.04166667  0.04166667       0.007
  -0.04166667  0.04166667  0.04166667       0.003
   0.12500000  0.12500000  0.04166667       0.014
   0.20833333  0.12500000  0.04166667       0.028
   0.29166667  0.12500000  0.04166667       0.028
   0.37500000  0.12500000  0.04166667       0.028
  -0.12500000  0.12500000  0.04166667       0.014
   0.20833333  0.20833333  0.04166667       0.014
   0.29166667  0.20833333  0.04166667       0.028
   0.37500000  0.20833333  0.04166667       0.014
  -0.20833333  0.20833333  0.04166667       0.014
  -0.12500000  0.20833333  0.04166667       0.014
   0.29166667  0.29166667  0.04166667       0.014
  -0.29166667  0.29166667  0.04166667       0.014
  -0.20833333  0.29166667  0.04166667       0.028
  -0.37500000  0.37500000  0.04166667       0.014
  -0.29166667  0.37500000  0.04166667       0.028
  -0.20833333  0.37500000  0.04166667       0.014
  -0.45833333  0.45833333  0.04166667       0.014
  -0.37500000  0.45833333  0.04166667       0.028
  -0.29166667  0.45833333  0.04166667       0.028
  -0.45833333 -0.45833333  0.04166667       0.014
  -0.37500000 -0.45833333  0.04166667       0.028
  -0.29166667 -0.45833333  0.04166667       0.014
  -0.37500000 -0.37500000  0.04166667       0.014
   0.12500000  0.12500000  0.12500000       0.005
   0.20833333  0.12500000  0.12500000       0.014
   0.29166667  0.12500000  0.12500000       0.014
   0.37500000  0.12500000  0.12500000       0.007
  -0.12500000  0.12500000  0.12500000       0.003
   0.20833333  0.20833333  0.12500000       0.014
   0.29166667  0.20833333  0.12500000       0.028
  -0.20833333  0.20833333  0.12500000       0.014
   0.29166667  0.29166667  0.12500000       0.005
  -0.29166667  0.29166667  0.12500000       0.014
  -0.20833333  0.29166667  0.12500000       0.014
  -0.37500000  0.37500000  0.12500000       0.014
  -0.29166667  0.37500000  0.12500000       0.028
  -0.45833333  0.45833333  0.12500000       0.014
  -0.37500000  0.45833333  0.12500000       0.028
  -0.29166667  0.45833333  0.12500000       0.014
  -0.45833333 -0.45833333  0.12500000       0.014
  -0.37500000 -0.45833333  0.12500000       0.028
  -0.37500000 -0.37500000  0.12500000       0.005
   0.20833333  0.20833333  0.20833333       0.005
   0.29166667  0.20833333  0.20833333       0.007
  -0.20833333  0.20833333  0.20833333       0.003
  -0.29166667  0.29166667  0.20833333       0.014
  -0.37500000  0.37500000  0.20833333       0.014
  -0.29166667  0.37500000  0.20833333       0.014
  -0.45833333  0.45833333  0.20833333       0.014
  -0.37500000  0.45833333  0.20833333       0.028
  -0.45833333 -0.45833333  0.20833333       0.014
  -0.37500000 -0.45833333  0.20833333       0.014
  -0.29166667  0.29166667  0.29166667       0.003
  -0.37500000  0.37500000  0.29166667       0.014
  -0.45833333  0.45833333  0.29166667       0.014
  -0.37500000  0.45833333  0.29166667       0.014
  -0.45833333 -0.45833333  0.29166667       0.014
  -0.37500000  0.37500000  0.37500000       0.003
  -0.45833333  0.45833333  0.37500000       0.014
  -0.45833333 -0.45833333  0.37500000       0.005
  -0.45833333  0.45833333  0.45833333       0.003
 
 position of ions in fractional coordinates (direct lattice) 
   0.00000000  0.00000000  0.00000000
 
 position of ions in cartesian coordinates  (Angst):
   0.00000000  0.00000000  0.00000000
 


--------------------------------------------------------------------------------------------------------


 k-point  1 :  0.04170.04170.0417  plane waves:     273
 k-point  2 :  0.12500.04170.0417  plane waves:     270
 k-point  3 :  0.20830.04170.0417  plane waves:     274
 k-point  4 :  0.29170.04170.0417  plane waves:     269
 k-point  5 :  0.37500.04170.0417  plane waves:     271
 k-point  6 :  0.45830.04170.0417  plane waves:     272
 k-point  7 :  -.04170.04170.0417  plane waves:     261
 k-point  8 :  0.12500.12500.0417  plane waves:     272
 k-point  9 :  0.20830.12500.0417  plane waves:     269
 k-point 10 :  0.29170.12500.0417  plane waves:     272
 k-point 11 :  0.37500.12500.0417  plane waves:     269
 k-point 12 :  -.12500.12500.0417  plane waves:     272
 k-point 13 :  0.20830.20830.0417  plane waves:     270
 k-point 14 :  0.29170.20830.0417  plane waves:     271
 k-point 15 :  0.37500.20830.0417  plane waves:     270
 k-point 16 :  -.20830.20830.0417  plane waves:     271
 k-point 17 :  -.12500.20830.0417  plane waves:     276
 k-point 18 :  0.29170.29170.0417  plane waves:     272
 k-point 19 :  -.29170.29170.0417  plane waves:     269
 k-point 20 :  -.20830.29170.0417  plane waves:     273
 k-point 21 :  -.37500.37500.0417  plane waves:     273
 k-point 22 :  -.29170.37500.0417  plane waves:     269
 k-point 23 :  -.20830.37500.0417  plane waves:     274
 k-point 24 :  -.45830.45830.0417  plane waves:     272
 k-point 25 :  -.37500.45830.0417  plane waves:     270
 k-point 26 :  -.29170.45830.0417  plane waves:     272
 k-point 27 :  -.4583-.45830.0417  plane waves:     270
 k-point 28 :  -.3750-.45830.0417  plane waves:     272
 k-point 29 :  -.2917-.45830.0417  plane waves:     274
 k-point 30 :  -.3750-.37500.0417  plane waves:     274
 k-point 31 :  0.12500.12500.1250  plane waves:     267
 k-point 32 :  0.20830.12500.1250  plane waves:     269
 k-point 33 :  0.29170.12500.1250  plane waves:     275
 k-point 34 :  0.37500.12500.1250  plane waves:     268
 k-point 35 :  -.12500.12500.1250  plane waves:     265
 k-point 36 :  0.20830.20830.1250  plane waves:     269
 k-point 37 :  0.29170.20830.1250  plane waves:     270
 k-point 38 :  -.20830.20830.1250  plane waves:     270
 k-point 39 :  0.29170.29170.1250  plane waves:     273
 k-point 40 :  -.29170.29170.1250  plane waves:     271
 k-point 41 :  -.20830.29170.1250  plane waves:     265
 k-point 42 :  -.37500.37500.1250  plane waves:     271
 k-point 43 :  -.29170.37500.1250  plane waves:     271
 k-point 44 :  -.45830.45830.1250  plane waves:     273
 k-point 45 :  -.37500.45830.1250  plane waves:     273
 k-point 46 :  -.29170.45830.1250  plane waves:     268
 k-point 47 :  -.4583-.45830.1250  plane waves:     272
 k-point 48 :  -.3750-.45830.1250  plane waves:     273
 k-point 49 :  -.3750-.37500.1250  plane waves:     267
 k-point 50 :  0.20830.20830.2083  plane waves:     264
 k-point 51 :  0.29170.20830.2083  plane waves:     274
 k-point 52 :  -.20830.20830.2083  plane waves:     269
 k-point 53 :  -.29170.29170.2083  plane waves:     268
 k-point 54 :  -.37500.37500.2083  plane waves:     269
 k-point 55 :  -.29170.37500.2083  plane waves:     268
 k-point 56 :  -.45830.45830.2083  plane waves:     269
 k-point 57 :  -.37500.45830.2083  plane waves:     266
 k-point 58 :  -.4583-.45830.2083  plane waves:     264
 k-point 59 :  -.3750-.45830.2083  plane waves:     266
 k-point 60 :  -.29170.29170.2917  plane waves:     269
 k-point 61 :  -.37500.37500.2917  plane waves:     259
 k-point 62 :  -.45830.45830.2917  plane waves:     261
 k-point 63 :  -.37500.45830.2917  plane waves:     258
 k-point 64 :  -.4583-.45830.2917  plane waves:     260
 k-point 65 :  -.37500.37500.3750  plane waves:     261
 k-point 66 :  -.45830.45830.3750  plane waves:     255
 k-point 67 :  -.4583-.45830.3750  plane waves:     257
 k-point 68 :  -.45830.45830.4583  plane waves:     257

 maximum and minimum number of plane-waves per node :       276      255

 maximum number of plane-waves:       276
 maximum index in each direction: 
   IXMAX=    4   IYMAX=    4   IZMAX=    4
   IXMIN=   -4   IYMIN=   -4   IZMIN=   -4

 NGX is ok and might be reduce to  18
 NGY is ok and might be reduce to  18
 NGZ is ok and might be reduce to  18

 serial   3D FFT for wavefunctions
 parallel 3D FFT for charge:
    minimum data exchange during FFTs selected (reduces bandwidth)


 total amount of memory used by VASP on root node    42233. kBytes
========================================================================

   base      :      30000. kBytes
   nonl-proj :       2707. kBytes
   fftplans  :       1676. kBytes
   grid      :       3981. kBytes
   one-center:         31. kBytes
   wavefun   :       3838. kBytes
 
 Broyden mixing: mesh for mixing (old mesh)
   NGX =  9   NGY =  9   NGZ =  9
  (NGX  = 36   NGY  = 36   NGZ  = 36)
  gives a total of    729 points

 initial charge density was supplied:
 charge density of overlapping atoms calculated
 number of electron       5.0000000 magnetization       6.0000000
 keeping initial charge density in first step


--------------------------------------------------------------------------------------------------------


 Maximum index for augmentation-charges        21187 (set IRDMAX)


--------------------------------------------------------------------------------------------------------


 First call to EWALD:  gamma=   0.675
 Maximum number of real-space cells 3x 3x 3
 Maximum number of reciprocal cells 3x 3x 3

    FEWALD:  cpu time    0.00: real time    0.00


----------------------------------------- Iteration    1(   1)  ---------------------------------------


    POTLOK:  cpu time    0.14: real time    0.14
    SETDIJ:  cpu time    0.03: real time    0.04
     EDDAV:  cpu time    1.56: real time    1.56
       DOS:  cpu time    0.01: real time    0.01
    --------------------------------------------
      LOOP:  cpu time    1.74: real time    1.74

 eigenvalue-minimisations  :  1680
 total energy-change (2. order) : 0.1106126E+02  (-0.1944442E+03)
 number of electron       5.0000000 magnetization       6.0000000
 augmentation part        5.0000000 magnetization       6.0000000

 Free energy of the ion-electron system (eV)
  ---------------------------------------------------
  alpha Z        PSCENC =        30.58334069
  Ewald energy   TEWEN  =      -197.90100875
  -1/2 Hartree   DENC   =        -2.50452612
  -exchange  EXHF       =         0.00000000
  -V(xc)+E(xc)   XCENC  =       -60.69825643
  PAW double counting   =       143.51874798      -69.33493833
  entropy T*S    EENTRO =        -0.00011637
  eigenvalues    EBANDS =        36.75180653
  atomic energy  EATOM  =       130.64621481
  ---------------------------------------------------
  free energy    TOTEN  =        11.06126400 eV

  energy without entropy =       11.06138037  energy(sigma->0) =       11.06130279


--------------------------------------------------------------------------------------------------------




----------------------------------------- Iteration    1(   2)  ---------------------------------------


     EDDAV:  cpu time    2.44: real time    2.44
       DOS:  cpu time    0.01: real time    0.01
    --------------------------------------------
      LOOP:  cpu time    2.45: real time    2.45

 eigenvalue-minimisations  :  2916
 total energy-change (2. order) :-0.1228069E+02  (-0.1070579E+02)
 number of electron       5.0000000 magnetization       6.0000000
 augmentation part        5.0000000 magnetization       6.0000000

 Free energy of the ion-electron system (eV)
  ---------------------------------------------------
  alpha Z        PSCENC =        30.58334069
  Ewald energy   TEWEN  =      -197.90100875
  -1/2 Hartree   DENC   =        -2.50452612
  -exchange  EXHF       =         0.00000000
  -V(xc)+E(xc)   XCENC  =       -60.69825643
  PAW double counting   =       143.51874798      -69.33493833
  entropy T*S    EENTRO =        -0.00014006
  eigenvalues    EBANDS =        24.47113856
  atomic energy  EATOM  =       130.64621481
  ---------------------------------------------------
  free energy    TOTEN  =        -1.21942765 eV

  energy without entropy =       -1.21928759  energy(sigma->0) =       -1.21938096


--------------------------------------------------------------------------------------------------------




----------------------------------------- Iteration    1(   3)  ---------------------------------------


     EDDAV:  cpu time    1.58: real time    1.58
       DOS:  cpu time    0.01: real time    0.01
    --------------------------------------------
      LOOP:  cpu time    1.59: real time    1.60

 eigenvalue-minimisations  :  1692
 total energy-change (2. order) :-0.8610164E-01  (-0.8577133E-01)
 number of electron       5.0000000 magnetization       6.0000000
 augmentation part        5.0000000 magnetization       6.0000000

 Free energy of the ion-electron system (eV)
  ---------------------------------------------------
  alpha Z        PSCENC =        30.58334069
  Ewald energy   TEWEN  =      -197.90100875
  -1/2 Hartree   DENC   =        -2.50452612
  -exchange  EXHF       =         0.00000000
  -V(xc)+E(xc)   XCENC  =       -60.69825643
  PAW double counting   =       143.51874798      -69.33493833
  entropy T*S    EENTRO =         0.00006064
  eigenvalues    EBANDS =        24.38483622
  atomic energy  EATOM  =       130.64621481
  ---------------------------------------------------
  free energy    TOTEN  =        -1.30552929 eV

  energy without entropy =       -1.30558993  energy(sigma->0) =       -1.30554950


--------------------------------------------------------------------------------------------------------




----------------------------------------- Iteration    1(   4)  ---------------------------------------


     EDDAV:  cpu time    1.93: real time    1.93
       DOS:  cpu time    0.00: real time    0.01
    --------------------------------------------
      LOOP:  cpu time    1.94: real time    1.95

 eigenvalue-minimisations  :  2190
 total energy-change (2. order) :-0.4350410E-03  (-0.4347346E-03)
 number of electron       5.0000000 magnetization       6.0000000
 augmentation part        5.0000000 magnetization       6.0000000

 Free energy of the ion-electron system (eV)
  ---------------------------------------------------
  alpha Z        PSCENC =        30.58334069
  Ewald energy   TEWEN  =      -197.90100875
  -1/2 Hartree   DENC   =        -2.50452612
  -exchange  EXHF       =         0.00000000
  -V(xc)+E(xc)   XCENC  =       -60.69825643
  PAW double counting   =       143.51874798      -69.33493833
  entropy T*S    EENTRO =         0.00005969
  eigenvalues    EBANDS =        24.38440213
  atomic energy  EATOM  =       130.64621481
  ---------------------------------------------------
  free energy    TOTEN  =        -1.30596433 eV

  energy without entropy =       -1.30602402  energy(sigma->0) =       -1.30598423


--------------------------------------------------------------------------------------------------------




----------------------------------------- Iteration    1(   5)  ---------------------------------------


     EDDAV:  cpu time    1.40: real time    1.40
       DOS:  cpu time    0.01: real time    0.01
    CHARGE:  cpu time    0.16: real time    0.16
    MIXING:  cpu time    0.00: real time    0.00
    --------------------------------------------
      LOOP:  cpu time    1.58: real time    1.59

 eigenvalue-minimisations  :  1428
 total energy-change (2. order) :-0.1417155E-05  (-0.1415722E-05)
 number of electron       5.0000001 magnetization       2.1342966
 augmentation part        0.4572533 magnetization      -0.7778032

 Broyden mixing:
  rms(total) = 0.73444E+00    rms(broyden)= 0.73444E+00
  rms(prec ) = 0.94244E+00
  weight for this iteration     100.00

 Free energy of the ion-electron system (eV)
  ---------------------------------------------------
  alpha Z        PSCENC =        30.58334069
  Ewald energy   TEWEN  =      -197.90100875
  -1/2 Hartree   DENC   =        -2.50452612
  -exchange  EXHF       =         0.00000000
  -V(xc)+E(xc)   XCENC  =       -60.69825643
  PAW double counting   =       143.51874798      -69.33493833
  entropy T*S    EENTRO =         0.00005970
  eigenvalues    EBANDS =        24.38440071
  atomic energy  EATOM  =       130.64621481
  ---------------------------------------------------
  free energy    TOTEN  =        -1.30596575 eV

  energy without entropy =       -1.30602544  energy(sigma->0) =       -1.30598565


--------------------------------------------------------------------------------------------------------




----------------------------------------- Iteration    1(   6)  ---------------------------------------


    POTLOK:  cpu time    0.14: real time    0.14
    SETDIJ:  cpu time    0.04: real time    0.04
     EDDAV:  cpu time    1.58: real time    1.58
       DOS:  cpu time    0.01: real time    0.01
    CHARGE:  cpu time    0.14: real time    0.14
    MIXING:  cpu time    0.00: real time    0.00
    --------------------------------------------
      LOOP:  cpu time    1.90: real time    1.93

 eigenvalue-minimisations  :  1728
 total energy-change (2. order) :-0.1032469E+02  (-0.3177324E+00)
 number of electron       5.0000001 magnetization       2.0817015
 augmentation part        0.3700601 magnetization       1.3115581

 Broyden mixing:
  rms(total) = 0.40630E+00    rms(broyden)= 0.40629E+00
  rms(prec ) = 0.11356E+01
  weight for this iteration     100.00

 eigenvalues of (default mixing * dielectric matrix)
  average eigenvalue GAMMA=   1.6137
  1.6137

 Free energy of the ion-electron system (eV)
  ---------------------------------------------------
  alpha Z        PSCENC =        30.58334069
  Ewald energy   TEWEN  =      -197.90100875
  -1/2 Hartree   DENC   =        -2.01083071
  -exchange  EXHF       =         0.00000000
  -V(xc)+E(xc)   XCENC  =       -66.10118128
  PAW double counting   =       163.72791002      -89.78619686
  entropy T*S    EENTRO =        -0.00007403
  eigenvalues    EBANDS =        19.21116647
  atomic energy  EATOM  =       130.64621481
  ---------------------------------------------------
  free energy    TOTEN  =       -11.63065964 eV

  energy without entropy =      -11.63058561  energy(sigma->0) =      -11.63063496


--------------------------------------------------------------------------------------------------------




----------------------------------------- Iteration    1(   7)  ---------------------------------------


    POTLOK:  cpu time    0.14: real time    0.14
    SETDIJ:  cpu time    0.03: real time    0.04
     EDDAV:  cpu time    1.77: real time    1.77
       DOS:  cpu time    0.01: real time    0.01
    CHARGE:  cpu time    0.14: real time    0.14
    MIXING:  cpu time    0.00: real time    0.00
    --------------------------------------------
      LOOP:  cpu time    2.10: real time    2.11

 eigenvalue-minimisations  :  2010
 total energy-change (2. order) :-0.1989329E-01  (-0.1758521E-02)
 number of electron       5.0000001 magnetization       1.7829640
 augmentation part        0.3692554 magnetization       1.0289556

 Broyden mixing:
  rms(total) = 0.39790E+00    rms(broyden)= 0.39790E+00
  rms(prec ) = 0.11250E+01
  weight for this iteration     100.00

 eigenvalues of (default mixing * dielectric matrix)
  average eigenvalue GAMMA=   1.0952
  1.0952  1.0952

 Free energy of the ion-electron system (eV)
  ---------------------------------------------------
  alpha Z        PSCENC =        30.58334069
  Ewald energy   TEWEN  =      -197.90100875
  -1/2 Hartree   DENC   =        -1.98618942
  -exchange  EXHF       =         0.00000000
  -V(xc)+E(xc)   XCENC  =       -66.11898422
  PAW double counting   =       164.15423889      -90.21979378
  entropy T*S    EENTRO =        -0.00015892
  eigenvalues    EBANDS =        19.19178777
  atomic energy  EATOM  =       130.64621481
  ---------------------------------------------------
  free energy    TOTEN  =       -11.65055293 eV

  energy without entropy =      -11.65039402  energy(sigma->0) =      -11.65049996


--------------------------------------------------------------------------------------------------------




----------------------------------------- Iteration    1(   8)  ---------------------------------------


    POTLOK:  cpu time    0.14: real time    0.14
    SETDIJ:  cpu time    0.04: real time    0.04
     EDDAV:  cpu time    1.61: real time    1.61
       DOS:  cpu time    0.01: real time    0.01
    CHARGE:  cpu time    0.14: real time    0.14
    MIXING:  cpu time    0.00: real time    0.00
    --------------------------------------------
      LOOP:  cpu time    1.93: real time    1.94

 eigenvalue-minimisations  :  1770
 total energy-change (2. order) : 0.2311458E+00  (-0.9168476E-01)
 number of electron       5.0000001 magnetization       0.5573630
 augmentation part        0.3939090 magnetization      -0.0547144

 Broyden mixing:
  rms(total) = 0.33554E+00    rms(broyden)= 0.33554E+00
  rms(prec ) = 0.41961E+00
  weight for this iteration     100.00

 eigenvalues of (default mixing * dielectric matrix)
  average eigenvalue GAMMA=   1.1074
  1.3698  1.3698  0.5826

 Free energy of the ion-electron system (eV)
  ---------------------------------------------------
  alpha Z        PSCENC =        30.58334069
  Ewald energy   TEWEN  =      -197.90100875
  -1/2 Hartree   DENC   =        -0.83956754
  -exchange  EXHF       =         0.00000000
  -V(xc)+E(xc)   XCENC  =       -65.83329029
  PAW double counting   =       163.30753261      -89.67391342
  entropy T*S    EENTRO =         0.00009811
  eigenvalues    EBANDS =        18.29118668
  atomic energy  EATOM  =       130.64621481
  ---------------------------------------------------
  free energy    TOTEN  =       -11.41940710 eV

  energy without entropy =      -11.41950521  energy(sigma->0) =      -11.41943980


--------------------------------------------------------------------------------------------------------




----------------------------------------- Iteration    1(   9)  ---------------------------------------


    POTLOK:  cpu time    0.14: real time    0.14
    SETDIJ:  cpu time    0.03: real time    0.04
     EDDAV:  cpu time    1.67: real time    1.67
       DOS:  cpu time    0.01: real time    0.01
    CHARGE:  cpu time    0.14: real time    0.14
    MIXING:  cpu time    0.00: real time    0.00
    --------------------------------------------
      LOOP:  cpu time    2.00: real time    2.22

 eigenvalue-minimisations  :  1872
 total energy-change (2. order) :-0.4040808E+00  (-0.1958295E-01)
 number of electron       5.0000001 magnetization       0.1219703
 augmentation part        0.4049606 magnetization      -0.0356790

 Broyden mixing:
  rms(total) = 0.10924E+00    rms(broyden)= 0.10924E+00
  rms(prec ) = 0.15331E+00
  weight for this iteration     100.00

 eigenvalues of (default mixing * dielectric matrix)
  average eigenvalue GAMMA=   1.1229
  1.8681  0.9255  0.9255  0.7724

 Free energy of the ion-electron system (eV)
  ---------------------------------------------------
  alpha Z        PSCENC =        30.58334069
  Ewald energy   TEWEN  =      -197.90100875
  -1/2 Hartree   DENC   =        -0.50819332
  -exchange  EXHF       =         0.00000000
  -V(xc)+E(xc)   XCENC  =       -65.93675750
  PAW double counting   =       178.21674431     -104.75684009
  entropy T*S    EENTRO =        -0.00029023
  eigenvalues    EBANDS =        17.83330216
  atomic energy  EATOM  =       130.64621481
  ---------------------------------------------------
  free energy    TOTEN  =       -11.82348792 eV

  energy without entropy =      -11.82319769  energy(sigma->0) =      -11.82339118


--------------------------------------------------------------------------------------------------------




----------------------------------------- Iteration    1(  10)  ---------------------------------------


    POTLOK:  cpu time    0.14: real time    0.14
    SETDIJ:  cpu time    0.03: real time    0.04
     EDDAV:  cpu time    1.58: real time    1.58
       DOS:  cpu time    0.01: real time    0.01
    CHARGE:  cpu time    0.14: real time    0.14
    MIXING:  cpu time    0.00: real time    0.00
    --------------------------------------------
      LOOP:  cpu time    1.90: real time    1.92

 eigenvalue-minimisations  :  1734
 total energy-change (2. order) :-0.4106117E-01  (-0.9920073E-03)
 number of electron       5.0000001 magnetization       0.1792304
 augmentation part        0.4035341 magnetization       0.1499741

 Broyden mixing:
  rms(total) = 0.38912E-01    rms(broyden)= 0.38911E-01
  rms(prec ) = 0.85815E-01
  weight for this iteration     100.00

 eigenvalues of (default mixing * dielectric matrix)
  average eigenvalue GAMMA=   1.0572
  1.3642  1.3642  0.9719  0.9719  0.6136

 Free energy of the ion-electron system (eV)
  ---------------------------------------------------
  alpha Z        PSCENC =        30.58334069
  Ewald energy   TEWEN  =      -197.90100875
  -1/2 Hartree   DENC   =        -0.51461127
  -exchange  EXHF       =         0.00000000
  -V(xc)+E(xc)   XCENC  =       -65.96404609
  PAW double counting   =       182.93417421     -109.49372289
  entropy T*S    EENTRO =         0.00010637
  eigenvalues    EBANDS =        17.84500383
  atomic energy  EATOM  =       130.64621481
  ---------------------------------------------------
  free energy    TOTEN  =       -11.86454909 eV

  energy without entropy =      -11.86465546  energy(sigma->0) =      -11.86458455


--------------------------------------------------------------------------------------------------------




----------------------------------------- Iteration    1(  11)  ---------------------------------------


    POTLOK:  cpu time    0.14: real time    0.14
    SETDIJ:  cpu time    0.03: real time    0.03
     EDDAV:  cpu time    1.65: real time    1.65
       DOS:  cpu time    0.01: real time    0.01
    CHARGE:  cpu time    0.14: real time    0.14
    MIXING:  cpu time    0.00: real time    0.00
    --------------------------------------------
      LOOP:  cpu time    1.97: real time    1.98

 eigenvalue-minimisations  :  1836
 total energy-change (2. order) : 0.2139782E-02  (-0.7452253E-03)
 number of electron       5.0000001 magnetization       0.0237970
 augmentation part        0.4002983 magnetization      -0.0262132

 Broyden mixing:
  rms(total) = 0.35204E-01    rms(broyden)= 0.35204E-01
  rms(prec ) = 0.49502E-01
  weight for this iteration     100.00

 eigenvalues of (default mixing * dielectric matrix)
  average eigenvalue GAMMA=   1.1707
  1.7554  1.7554  1.0739  1.0739  0.7260  0.6396

 Free energy of the ion-electron system (eV)
  ---------------------------------------------------
  alpha Z        PSCENC =        30.58334069
  Ewald energy   TEWEN  =      -197.90100875
  -1/2 Hartree   DENC   =        -0.59628697
  -exchange  EXHF       =         0.00000000
  -V(xc)+E(xc)   XCENC  =       -66.01009087
  PAW double counting   =       186.67929081     -113.23146139
  entropy T*S    EENTRO =        -0.00006944
  eigenvalues    EBANDS =        17.96766180
  atomic energy  EATOM  =       130.64621481
  ---------------------------------------------------
  free energy    TOTEN  =       -11.86240931 eV

  energy without entropy =      -11.86233987  energy(sigma->0) =      -11.86238616


--------------------------------------------------------------------------------------------------------




----------------------------------------- Iteration    1(  12)  ---------------------------------------


    POTLOK:  cpu time    0.14: real time    0.14
    SETDIJ:  cpu time    0.03: real time    0.03
     EDDAV:  cpu time    1.57: real time    1.57
       DOS:  cpu time    0.01: real time    0.01
    CHARGE:  cpu time    0.14: real time    0.14
    MIXING:  cpu time    0.00: real time    0.00
    --------------------------------------------
      LOOP:  cpu time    1.89: real time    1.91

 eigenvalue-minimisations  :  1722
 total energy-change (2. order) :-0.4471643E-02  (-0.3078726E-03)
 number of electron       5.0000001 magnetization      -0.0268463
 augmentation part        0.3994106 magnetization      -0.0349055

 Broyden mixing:
  rms(total) = 0.10777E-01    rms(broyden)= 0.10777E-01
  rms(prec ) = 0.42875E-01
  weight for this iteration     100.00

 eigenvalues of (default mixing * dielectric matrix)
  average eigenvalue GAMMA=   1.2446
  2.4843  1.3514  1.3514  1.0931  1.0931  0.6694  0.6694

 Free energy of the ion-electron system (eV)
  ---------------------------------------------------
  alpha Z        PSCENC =        30.58334069
  Ewald energy   TEWEN  =      -197.90100875
  -1/2 Hartree   DENC   =        -0.60700404
  -exchange  EXHF       =         0.00000000
  -V(xc)+E(xc)   XCENC  =       -66.01259490
  PAW double counting   =       194.34653743     -120.93229771
  entropy T*S    EENTRO =        -0.00009390
  eigenvalues    EBANDS =        18.01002541
  atomic energy  EATOM  =       130.64621481
  ---------------------------------------------------
  free energy    TOTEN  =       -11.86688095 eV

  energy without entropy =      -11.86678705  energy(sigma->0) =      -11.86684965


--------------------------------------------------------------------------------------------------------




----------------------------------------- Iteration    1(  13)  ---------------------------------------


    POTLOK:  cpu time    0.14: real time    0.14
    SETDIJ:  cpu time    0.03: real time    0.03
     EDDAV:  cpu time    1.64: real time    1.64
       DOS:  cpu time    0.01: real time    0.01
    CHARGE:  cpu time    0.14: real time    0.14
    MIXING:  cpu time    0.00: real time    0.00
    --------------------------------------------
      LOOP:  cpu time    1.96: real time    1.98

 eigenvalue-minimisations  :  1824
 total energy-change (2. order) : 0.4315816E-03  (-0.1066358E-03)
 number of electron       5.0000001 magnetization      -0.0151535
 augmentation part        0.4008338 magnetization      -0.0062148

 Broyden mixing:
  rms(total) = 0.47639E-02    rms(broyden)= 0.47638E-02
  rms(prec ) = 0.57316E-02
  weight for this iteration     100.00

 eigenvalues of (default mixing * dielectric matrix)
  average eigenvalue GAMMA=   1.2532
  2.8584  1.2164  1.2164  1.3339  1.3339  0.6262  0.7204  0.7204

 Free energy of the ion-electron system (eV)
  ---------------------------------------------------
  alpha Z        PSCENC =        30.58334069
  Ewald energy   TEWEN  =      -197.90100875
  -1/2 Hartree   DENC   =        -0.57313898
  -exchange  EXHF       =         0.00000000
  -V(xc)+E(xc)   XCENC  =       -65.99180841
  PAW double counting   =       194.73140898     -121.32967468
  entropy T*S    EENTRO =        -0.00006183
  eigenvalues    EBANDS =        17.96827880
  atomic energy  EATOM  =       130.64621481
  ---------------------------------------------------
  free energy    TOTEN  =       -11.86644937 eV

  energy without entropy =      -11.86638754  energy(sigma->0) =      -11.86642876


--------------------------------------------------------------------------------------------------------




----------------------------------------- Iteration    1(  14)  ---------------------------------------


    POTLOK:  cpu time    0.14: real time    0.14
    SETDIJ:  cpu time    0.03: real time    0.03
     EDDAV:  cpu time    0.99: real time    0.99
       DOS:  cpu time    0.01: real time    0.01
    --------------------------------------------
      LOOP:  cpu time    1.17: real time    1.19

 eigenvalue-minimisations  :   822
 total energy-change (2. order) :-0.5054782E-04  (-0.9480033E-06)
 number of electron       5.0000001 magnetization      -0.0151535
 augmentation part        0.4008338 magnetization      -0.0062148

 Free energy of the ion-electron system (eV)
  ---------------------------------------------------
  alpha Z        PSCENC =        30.58334069
  Ewald energy   TEWEN  =      -197.90100875
  -1/2 Hartree   DENC   =        -0.57517789
  -exchange  EXHF       =         0.00000000
  -V(xc)+E(xc)   XCENC  =       -65.99302360
  PAW double counting   =       194.50648793     -121.10293334
  entropy T*S    EENTRO =        -0.00007017
  eigenvalues    EBANDS =        17.96967040
  atomic energy  EATOM  =       130.64621481
  ---------------------------------------------------
  free energy    TOTEN  =       -11.86649992 eV

  energy without entropy =      -11.86642975  energy(sigma->0) =      -11.86647653


--------------------------------------------------------------------------------------------------------




 average (electrostatic) potential at core
  the test charge radii are     1.2538
  (the norm of the test charge is              1.0000)
       1 -35.0376
 
 
 
 E-fermi :   5.7101     XC(G=0): -12.3725     alpha+bet :-13.5035


 spin component 1

 k-point   1 :       0.0417    0.0417    0.0417
  band No.  band energies     occupation 
      1      -1.7271      1.00000
      2       6.1960      0.00000
      3       6.1960      0.00000
      4       6.9679      0.00000
      5       9.4912      0.00000
      6       9.4912      0.00000

 k-point   2 :       0.1250    0.0417    0.0417
  band No.  band energies     occupation 
      1      -0.9071      1.00000
      2       5.6805      0.91691
      3       5.8543     -0.00018
      4       7.9184      0.00000
      5       9.1197      0.00000
      6       9.6513      0.00000

 k-point   3 :       0.2083    0.0417    0.0417
  band No.  band energies     occupation 
      1       0.2186      1.00000
      2       5.0965      1.00000
      3       5.4308      1.00000
      4       9.1190      0.00000
      5       9.3837      0.00000
      6       9.8685      0.00000

 k-point   4 :       0.2917    0.0417    0.0417
  band No.  band energies     occupation 
      1       1.1585      1.00000
      2       4.5992      1.00000
      3       5.5097      1.00000
      4       9.4646      0.00000
      5      10.1536      0.00000
      6      11.1110      0.00000

 k-point   5 :       0.3750    0.0417    0.0417
  band No.  band energies     occupation 
      1       1.4938      1.00000
      2       4.2729      1.00000
      3       6.4048      0.00000
      4       9.6675      0.00000
      5      10.4471      0.00000
      6      12.8429      0.00000

 k-point   6 :       0.4583    0.0417    0.0417
  band No.  band energies     occupation 
      1       1.5244      1.00000
      2       4.1600      1.00000
      3       7.0721      0.00000
      4       9.6230      0.00000
      5      10.5826      0.00000
      6      13.6900      0.00000

 k-point   7 :      -0.0417    0.0417    0.0417
  band No.  band energies     occupation 
      1      -2.0205      1.00000
      2       6.4143      0.00000
      3       6.4143      0.00000
      4       6.5108      0.00000
      5       9.4215      0.00000
      6       9.7698      0.00000

 k-point   8 :       0.1250    0.1250    0.0417
  band No.  band energies     occupation 
      1       0.0663      1.00000
      2       5.2414      1.00000
      3       5.2511      1.00000
      4       9.0850      0.00000
      5       9.2698      0.00000
      6       9.8856      0.00000

 k-point   9 :       0.2083    0.1250    0.0417
  band No.  band energies     occupation 
      1       1.2000      1.00000
      2       4.7115      1.00000
      3       4.9704      1.00000
      4       9.2300      0.00000
      5      10.2166      0.00000
      6      10.9867      0.00000

 k-point  10 :       0.2917    0.1250    0.0417
  band No.  band energies     occupation 
      1       1.9034      1.00000
      2       4.3588      1.00000
      3       5.3817      1.00000
      4       9.5541      0.00000
      5      10.4488      0.00000
      6      12.8208      0.00000

 k-point  11 :       0.3750    0.1250    0.0417
  band No.  band energies     occupation 
      1       2.0321      1.00000
      2       4.1827      1.00000
      3       6.2683      0.00000
      4       9.6877      0.00000
      5      10.6423      0.00000
      6      14.2212      0.00000

 k-point  12 :      -0.1250    0.1250    0.0417
  band No.  band energies     occupation 
      1      -1.4404      1.00000
      2       6.0805      0.00000
      3       6.2732      0.00000
      4       7.0778      0.00000
      5       8.8583      0.00000
      6       9.8929      0.00000

 k-point  13 :       0.2083    0.2083    0.0417
  band No.  band energies     occupation 
      1       2.2324      1.00000
      2       4.3818      1.00000
      3       4.8250      1.00000
      4       9.4103      0.00000
      5      10.4818      0.00000
      6      12.8818      0.00000

 k-point  14 :       0.2917    0.2083    0.0417
  band No.  band energies     occupation 
      1       2.7238      1.00000
      2       4.2675      1.00000
      3       5.2421      1.00000
      4       9.7246      0.00000
      5      10.5482      0.00000
      6      14.7027      0.00000

 k-point  15 :       0.3750    0.2083    0.0417
  band No.  band energies     occupation 
      1       2.7737      1.00000
      2       4.2484      1.00000
      3       5.6382      1.03031
      4       9.8233      0.00000
      5      10.6642      0.00000
      6      14.9833      0.00000

 k-point  16 :      -0.2083    0.2083    0.0417
  band No.  band energies     occupation 
      1      -0.4210      1.00000
      2       5.5240      1.00000
      3       5.8406     -0.00070
      4       8.2259      0.00000
      5       8.6566      0.00000
      6      10.0240      0.00000

 k-point  17 :      -0.1250    0.2083    0.0417
  band No.  band energies     occupation 
      1      -0.6390      1.00000
      2       5.8478     -0.00035
      3       5.9074      0.00000
      4       7.8637      0.00000
      5       8.2846      0.00000
      6      10.1939      0.00000

 k-point  18 :       0.2917    0.2917    0.0417
  band No.  band energies     occupation 
      1       3.1928      1.00000
      2       4.4828      1.00000
      3       5.0343      1.00000
      4      10.0981      0.00000
      5      10.4711      0.00000
      6      14.3992      0.00000

 k-point  19 :      -0.2917    0.2917    0.0417
  band No.  band energies     occupation 
      1       0.6784      1.00000
      2       4.9608      1.00000
      3       5.5152      1.00000
      4       8.9571      0.00000
      5       9.8290      0.00000
      6      10.2108      0.00000

 k-point  20 :      -0.2083    0.2917    0.0417
  band No.  band energies     occupation 
      1       0.4668      1.00000
      2       5.2763      1.00000
      3       5.4800      1.00000
      4       8.2897      0.00000
      5       9.2571      0.00000
      6      10.4280      0.00000

 k-point  21 :      -0.3750    0.3750    0.0417
  band No.  band energies     occupation 
      1       1.3076      1.00000
      2       4.5249      1.00000
      3       5.9618      0.00000
      4       9.3722      0.00000
      5      10.4316      0.00000
      6      11.6670      0.00000

 k-point  22 :      -0.2917    0.3750    0.0417
  band No.  band energies     occupation 
      1       1.4125      1.00000
      2       4.8035      1.00000
      3       5.3591      1.00000
      4       8.7494      0.00000
      5      10.5116      0.00000
      6      11.0780      0.00000

 k-point  23 :      -0.2083    0.3750    0.0417
  band No.  band energies     occupation 
      1       1.5278      1.00000
      2       4.7057      1.00000
      3       5.3263      1.00000
      4       8.3758      0.00000
      5      10.4562      0.00000
      6      11.0368      0.00000

 k-point  24 :      -0.4583    0.4583    0.0417
  band No.  band energies     occupation 
      1       1.4328      1.00000
      2       4.2909      1.00000
      3       6.8577      0.00000
      4       9.4079      0.00000
      5      10.7316      0.00000
      6      13.1591      0.00000

 k-point  25 :      -0.3750    0.4583    0.0417
  band No.  band energies     occupation 
      1       1.7576      1.00000
      2       4.5286      1.00000
      3       5.9161      0.00000
      4       9.0821      0.00000
      5      10.7900      0.00000
      6      12.8501      0.00000

 k-point  26 :      -0.2917    0.4583    0.0417
  band No.  band energies     occupation 
      1       2.2854      1.00000
      2       4.4242      1.00000
      3       5.3357      1.00000
      4       8.8207      0.00000
      5      10.4984      0.00000
      6      12.9245      0.00000

 k-point  27 :      -0.4583   -0.4583    0.0417
  band No.  band energies     occupation 
      1       1.7854      1.00000
      2       4.4312      1.00000
      3       6.3783      0.00000
      4       9.0077      0.00000
      5      11.1450      0.00000
      6      13.7435      0.00000

 k-point  28 :      -0.3750   -0.4583    0.0417
  band No.  band energies     occupation 
      1       2.4634      1.00000
      2       4.4818      1.00000
      3       5.5191      1.00000
      4       9.0230      0.00000
      5      10.8650      0.00000
      6      14.5907      0.00000

 k-point  29 :      -0.2917   -0.4583    0.0417
  band No.  band energies     occupation 
      1       3.0113      1.00000
      2       4.2058      1.00000
      3       5.1785      1.00000
      4       9.3123      0.00000
      5      10.3919      0.00000
      6      15.0030      0.00000

 k-point  30 :      -0.3750   -0.3750    0.0417
  band No.  band energies     occupation 
      1       3.2287      1.00000
      2       4.4002      1.00000
      3       4.8666      1.00000
      4       9.6241      0.00000
      5      10.5145      0.00000
      6      14.9098      0.00000

 k-point  31 :       0.1250    0.1250    0.1250
  band No.  band energies     occupation 
      1       1.1492      1.00000
      2       4.7142      1.00000
      3       4.7142      1.00000
      4       9.7663      0.00000
      5       9.7663      0.00000
      6      11.0286      0.00000

 k-point  32 :       0.2083    0.1250    0.1250
  band No.  band energies     occupation 
      1       2.2566      1.00000
      2       4.3440      1.00000
      3       4.5694      1.00000
      4       9.8922      0.00000
      5      10.2501      0.00000
      6      12.9427      0.00000

 k-point  33 :       0.2917    0.1250    0.1250
  band No.  band energies     occupation 
      1       2.6626      1.00000
      2       4.1326      1.00000
      3       5.3380      1.00000
      4      10.0585      0.00000
      5      10.5488      0.00000
      6      14.6159      0.00000

 k-point  34 :       0.3750    0.1250    0.1250
  band No.  band energies     occupation 
      1       2.6706      1.00000
      2       4.0647      1.00000
      3       5.9748      0.00000
      4      10.0885      0.00000
      5      10.6551      0.00000
      6      15.0502      0.00000

 k-point  35 :      -0.1250    0.1250    0.1250
  band No.  band energies     occupation 
      1      -0.8796      1.00000
      2       6.3411      0.00000
      3       6.3411      0.00000
      4       7.0843      0.00000
      5       7.7891      0.00000
      6      10.3695      0.00000

 k-point  36 :       0.2083    0.2083    0.1250
  band No.  band energies     occupation 
      1       3.2330      1.00000
      2       4.2435      1.00000
      3       4.4810      1.00000
      4      10.1846      0.00000
      5      10.5094      0.00000
      6      14.8491      0.00000

 k-point  37 :       0.2917    0.2083    0.1250
  band No.  band energies     occupation 
      1       3.4049      1.00000
      2       4.2086      1.00000
      3       5.1703      1.00000
      4      10.3480      0.00000
      5      10.6490      0.00000
      6      14.2360      0.00000

 k-point  38 :      -0.2083    0.2083    0.1250
  band No.  band energies     occupation 
      1       0.1068      1.00000
      2       5.9584      0.00000
      3       6.0149      0.00000
      4       7.3537      0.00000
      5       8.0484      0.00000
      6      10.6404      0.00000

 k-point  39 :       0.2917    0.2917    0.1250
  band No.  band energies     occupation 
      1       3.6013      1.00000
      2       4.7516      1.00000
      3       4.7516      1.00000
      4      10.5828      0.00000
      5      10.5828      0.00000
      6      13.4063      0.00000

 k-point  40 :      -0.2917    0.2917    0.1250
  band No.  band energies     occupation 
      1       1.1907      1.00000
      2       5.2538      1.00000
      3       5.5170      1.00000
      4       7.8735      0.00000
      5       9.6342      0.00000
      6      10.7282      0.00000

 k-point  41 :      -0.2083    0.2917    0.1250
  band No.  band energies     occupation 
      1       1.1372      1.00000
      2       5.2434      1.00000
      3       6.0232      0.00000
      4       7.2919      0.00000
      5       9.1066      0.00000
      6      10.7962      0.00000

 k-point  42 :      -0.3750    0.3750    0.1250
  band No.  band energies     occupation 
      1       1.8367      1.00000
      2       5.1136      1.00000
      3       5.2149      1.00000
      4       8.4242      0.00000
      5      10.9466      0.00000
      6      11.4885      0.00000

 k-point  43 :      -0.2917    0.3750    0.1250
  band No.  band energies     occupation 
      1       2.0736      1.00000
      2       4.5956      1.00000
      3       5.7700     -0.03534
      4       7.8840      0.00000
      5      10.3482      0.00000
      6      11.2439      0.00000

 k-point  44 :      -0.4583    0.4583    0.1250
  band No.  band energies     occupation 
      1       1.9473      1.00000
      2       4.8942      1.00000
      3       5.7045      0.59509
      4       8.3337      0.00000
      5      11.7654      0.00000
      6      13.0174      0.00000

 k-point  45 :      -0.3750    0.4583    0.1250
  band No.  band energies     occupation 
      1       2.4412      1.00000
      2       4.6578      1.00000
      3       5.4601      1.00000
      4       8.1803      0.00000
      5      11.0826      0.00000
      6      12.9953      0.00000

 k-point  46 :      -0.2917    0.4583    0.1250
  band No.  band energies     occupation 
      1       2.8932      1.00000
      2       4.0250      1.00000
      3       5.6415      1.03276
      4       8.4447      0.00000
      5      10.3079      0.00000
      6      13.1379      0.00000

 k-point  47 :      -0.4583   -0.4583    0.1250
  band No.  band energies     occupation 
      1       2.4486      1.00000
      2       5.0889      1.00000
      3       5.1216      1.00000
      4       8.0783      0.00000
      5      11.8436      0.00000
      6      14.0696      0.00000

 k-point  48 :      -0.3750   -0.4583    0.1250
  band No.  band energies     occupation 
      1       3.1991      1.00000
      2       4.2093      1.00000
      3       5.0243      1.00000
      4       8.9117      0.00000
      5      10.8387      0.00000
      6      15.1246      0.00000

 k-point  49 :      -0.3750   -0.3750    0.1250
  band No.  band energies     occupation 
      1       4.0184      1.00000
      2       4.0184      1.00000
      3       4.2193      1.00000
      4      10.1283      0.00000
      5      10.1283      0.00000
      6      15.0964      0.00000

 k-point  50 :       0.2083    0.2083    0.2083
  band No.  band energies     occupation 
      1       4.2154      1.00000
      2       4.2154      1.00000
      3       4.3663      1.00000
      4      10.6063      0.00000
      5      10.6063      0.00000
      6      13.9908      0.00000

 k-point  51 :       0.2917    0.2083    0.2083
  band No.  band energies     occupation 
      1       4.1807      1.00000
      2       4.2175      1.00000
      3       4.8662      1.00000
      4      10.6525      0.00000
      5      10.7285      0.00000
      6      13.0792      0.00000

 k-point  52 :      -0.2083    0.2083    0.2083
  band No.  band energies     occupation 
      1       1.0155      1.00000
      2       5.7388      0.09190
      3       6.5931      0.00000
      4       6.5931      0.00000
      5       8.1766      0.00000
      6      10.8443      0.00000

 k-point  53 :      -0.2917    0.2917    0.2083
  band No.  band energies     occupation 
      1       2.0010      1.00000
      2       4.7210      1.00000
      3       6.5187      0.00000
      4       7.2097      0.00000
      5       9.4096      0.00000
      6      10.7314      0.00000

 k-point  54 :      -0.3750    0.3750    0.2083
  band No.  band energies     occupation 
      1       2.6127      1.00000
      2       4.2243      1.00000
      3       6.2387      0.00000
      4       7.6599      0.00000
      5      11.1869      0.00000
      6      11.2128      0.00000

 k-point  55 :      -0.2917    0.3750    0.2083
  band No.  band energies     occupation 
      1       2.7544      1.00000
      2       3.9594      1.00000
      3       6.6388      0.00000
      4       7.7652      0.00000
      5      10.1581      0.00000
      6      11.2258      0.00000

 k-point  56 :      -0.4583    0.4583    0.2083
  band No.  band energies     occupation 
      1       2.6456      1.00000
      2       4.3849      1.00000
      3       6.0630      0.00000
      4       7.4512      0.00000
      5      12.7192      0.00000
      6      12.7812      0.00000

 k-point  57 :      -0.3750    0.4583    0.2083
  band No.  band energies     occupation 
      1       3.0413      1.00000
      2       3.6912      1.00000
      3       6.2364      0.00000
      4       8.2726      0.00000
      5      11.0234      0.00000
      6      13.1412      0.00000

 k-point  58 :      -0.4583   -0.4583    0.2083
  band No.  band energies     occupation 
      1       2.9461      1.00000
      2       3.8474      1.00000
      3       5.9837      0.00000
      4       8.3054      0.00000
      5      11.9703      0.00000
      6      14.6758      0.00000

 k-point  59 :      -0.3750   -0.4583    0.2083
  band No.  band energies     occupation 
      1       3.3072      1.00000
      2       3.4141      1.00000
      3       5.7085      0.52736
      4       9.6739      0.00000
      5      10.8537      0.00000
      6      15.3021      0.00000

 k-point  60 :      -0.2917    0.2917    0.2917
  band No.  band energies     occupation 
      1       2.6897      1.00000
      2       3.9525      1.00000
      3       7.5050      0.00000
      4       7.5050      0.00000
      5       9.6516      0.00000
      6      10.4863      0.00000

 k-point  61 :      -0.3750    0.3750    0.2917
  band No.  band energies     occupation 
      1       2.9740      1.00000
      2       3.3275      1.00000
      3       7.7589      0.00000
      4       7.9813      0.00000
      5      10.9932      0.00000
      6      11.1463      0.00000

 k-point  62 :      -0.4583    0.4583    0.2917
  band No.  band energies     occupation 
      1       2.7849      1.00000
      2       3.2639      1.00000
      3       7.7162      0.00000
      4       7.9118      0.00000
      5      12.5227      0.00000
      6      13.1954      0.00000

 k-point  63 :      -0.3750    0.4583    0.2917
  band No.  band energies     occupation 
      1       2.8443      1.00000
      2       2.9259      1.00000
      3       7.6446      0.00000
      4       9.3303      0.00000
      5      11.2335      0.00000
      6      13.1044      0.00000

 k-point  64 :      -0.4583   -0.4583    0.2917
  band No.  band energies     occupation 
      1       2.6857      1.00000
      2       2.8667      1.00000
      3       7.5185      0.00000
      4       9.8286      0.00000
      5      11.8188      0.00000
      6      15.1128      0.00000

 k-point  65 :      -0.3750    0.3750    0.3750
  band No.  band energies     occupation 
      1       2.6839      1.00000
      2       2.7475      1.00000
      3       9.2043      0.00000
      4       9.2043      0.00000
      5      11.2145      0.00000
      6      11.4837      0.00000

 k-point  66 :      -0.4583    0.4583    0.3750
  band No.  band energies     occupation 
      1       2.3633      1.00000
      2       2.4786      1.00000
      3       9.6958      0.00000
      4       9.7096      0.00000
      5      12.3176      0.00000
      6      13.3496      0.00000

 k-point  67 :      -0.4583   -0.4583    0.3750
  band No.  band energies     occupation 
      1       2.2447      1.00000
      2       2.2447      1.00000
      3       9.7041      0.00000
      4      11.6570      0.00000
      5      11.6570      0.00000
      6      15.2810      0.00000

 k-point  68 :      -0.4583    0.4583    0.4583
  band No.  band energies     occupation 
      1       2.0317      1.00000
      2       2.0656      1.00000
      3      11.5932      0.00000
      4      11.5932      0.00000
      5      12.3132      0.00000
      6      13.7551      0.00000

 spin component 2

 k-point   1 :       0.0417    0.0417    0.0417
  band No.  band energies     occupation 
      1      -1.7385      1.00000
      2       6.1901      0.00000
      3       6.1901      0.00000
      4       6.9622      0.00000
      5       9.4786      0.00000
      6       9.4786      0.00000

 k-point   2 :       0.1250    0.0417    0.0417
  band No.  band energies     occupation 
      1      -0.9184      1.00000
      2       5.6743      0.96566
      3       5.8475     -0.00036
      4       7.9127      0.00000
      5       9.1080      0.00000
      6       9.6392      0.00000

 k-point   3 :       0.2083    0.0417    0.0417
  band No.  band energies     occupation 
      1       0.2075      1.00000
      2       5.0901      1.00000
      3       5.4223      1.00000
      4       9.1092      0.00000
      5       9.3773      0.00000
      6       9.8569      0.00000

 k-point   4 :       0.2917    0.0417    0.0417
  band No.  band energies     occupation 
      1       1.1480      1.00000
      2       4.5927      1.00000
      3       5.4996      1.00000
      4       9.4551      0.00000
      5      10.1426      0.00000
      6      11.1051      0.00000

 k-point   5 :       0.3750    0.0417    0.0417
  band No.  band energies     occupation 
      1       1.4838      1.00000
      2       4.2664      1.00000
      3       6.3934      0.00000
      4       9.6580      0.00000
      5      10.4368      0.00000
      6      12.8370      0.00000

 k-point   6 :       0.4583    0.0417    0.0417
  band No.  band energies     occupation 
      1       1.5145      1.00000
      2       4.1534      1.00000
      3       7.0602      0.00000
      4       9.6133      0.00000
      5      10.5726      0.00000
      6      13.6841      0.00000

 k-point   7 :      -0.0417    0.0417    0.0417
  band No.  band energies     occupation 
      1      -2.0319      1.00000
      2       6.4085      0.00000
      3       6.4085      0.00000
      4       6.5051      0.00000
      5       9.4088      0.00000
      6       9.7571      0.00000

 k-point   8 :       0.1250    0.1250    0.0417
  band No.  band energies     occupation 
      1       0.0551      1.00000
      2       5.2347      1.00000
      3       5.2435      1.00000
      4       9.0739      0.00000
      5       9.2638      0.00000
      6       9.8742      0.00000

 k-point   9 :       0.2083    0.1250    0.0417
  band No.  band energies     occupation 
      1       1.1892      1.00000
      2       4.7041      1.00000
      3       4.9622      1.00000
      4       9.2198      0.00000
      5      10.2058      0.00000
      6      10.9804      0.00000

 k-point  10 :       0.2917    0.1250    0.0417
  band No.  band energies     occupation 
      1       1.8933      1.00000
      2       4.3517      1.00000
      3       5.3716      1.00000
      4       9.5445      0.00000
      5      10.4385      0.00000
      6      12.8141      0.00000

 k-point  11 :       0.3750    0.1250    0.0417
  band No.  band energies     occupation 
      1       2.0223      1.00000
      2       4.1757      1.00000
      3       6.2572      0.00000
      4       9.6781      0.00000
      5      10.6324      0.00000
      6      14.2141      0.00000

 k-point  12 :      -0.1250    0.1250    0.0417
  band No.  band energies     occupation 
      1      -1.4518      1.00000
      2       6.0746      0.00000
      3       6.2670      0.00000
      4       7.0721      0.00000
      5       8.8458      0.00000
      6       9.8806      0.00000

[...]
      3       5.6333      1.02603
      4       8.4370      0.00000
      5      10.2995      0.00000
      6      13.1307      0.00000

 k-point  47 :      -0.4583   -0.4583    0.1250
  band No.  band energies     occupation 
      1       2.4379      1.00000
      2       5.0766      1.00000
      3       5.1145      1.00000
      4       8.0691      0.00000
      5      11.8356      0.00000
      6      14.0623      0.00000

 k-point  48 :      -0.3750   -0.4583    0.1250
  band No.  band energies     occupation 
      1       3.1884      1.00000
      2       4.1978      1.00000
      3       5.0153      1.00000
      4       8.9039      0.00000
      5      10.8311      0.00000
      6      15.1170      0.00000

 k-point  49 :      -0.3750   -0.3750    0.1250
  band No.  band energies     occupation 
      1       4.0063      1.00000
      2       4.0063      1.00000
      3       4.2118      1.00000
      4      10.1209      0.00000
      5      10.1209      0.00000
      6      15.0876      0.00000

 k-point  50 :       0.2083    0.2083    0.2083
  band No.  band energies     occupation 
      1       4.2073      1.00000
      2       4.2073      1.00000
      3       4.3567      1.00000
      4      10.5963      0.00000
      5      10.5963      0.00000
      6      13.9826      0.00000

 k-point  51 :       0.2917    0.2083    0.2083
  band No.  band energies     occupation 
      1       4.1721      1.00000
      2       4.2096      1.00000
      3       4.8573      1.00000
      4      10.6425      0.00000
      5      10.7185      0.00000
      6      13.0709      0.00000

 k-point  52 :      -0.2083    0.2083    0.2083
  band No.  band energies     occupation 
      1       1.0039      1.00000
      2       5.7259      0.24650
      3       6.5867      0.00000
      4       6.5867      0.00000
      5       8.1710      0.00000
      6      10.8340      0.00000

 k-point  53 :      -0.2917    0.2917    0.2083
  band No.  band energies     occupation 
      1       1.9893      1.00000
      2       4.7086      1.00000
      3       6.5122      0.00000
      4       7.2025      0.00000
      5       9.4038      0.00000
      6      10.7217      0.00000

 k-point  54 :      -0.3750    0.3750    0.2083
  band No.  band energies     occupation 
      1       2.6012      1.00000
      2       4.2117      1.00000
      3       6.2323      0.00000
      4       7.6516      0.00000
      5      11.1777      0.00000
      6      11.2071      0.00000

 k-point  55 :      -0.2917    0.3750    0.2083
  band No.  band energies     occupation 
      1       2.7426      1.00000
      2       3.9469      1.00000
      3       6.6317      0.00000
      4       7.7583      0.00000
      5      10.1507      0.00000
      6      11.2179      0.00000

 k-point  56 :      -0.4583    0.4583    0.2083
  band No.  band energies     occupation 
      1       2.6342      1.00000
      2       4.3723      1.00000
      3       6.0565      0.00000
      4       7.4422      0.00000
      5      12.7100      0.00000
      6      12.7757      0.00000

 k-point  57 :      -0.3750    0.4583    0.2083
  band No.  band energies     occupation 
      1       3.0294      1.00000
      2       3.6787      1.00000
      3       6.2289      0.00000
      4       8.2652      0.00000
      5      11.0160      0.00000
      6      13.1339      0.00000

 k-point  58 :      -0.4583   -0.4583    0.2083
  band No.  band energies     occupation 
      1       2.9341      1.00000
      2       3.8348      1.00000
      3       5.9762      0.00000
      4       8.2978      0.00000
      5      11.9634      0.00000
      6      14.6678      0.00000

 k-point  59 :      -0.3750   -0.4583    0.2083
  band No.  band energies     occupation 
      1       3.2946      1.00000
      2       3.4017      1.00000
      3       5.7010      0.65119
      4       9.6669      0.00000
      5      10.8466      0.00000
      6      15.2941      0.00000

 k-point  60 :      -0.2917    0.2917    0.2917
  band No.  band energies     occupation 
      1       2.6775      1.00000
      2       3.9396      1.00000
      3       7.4984      0.00000
      4       7.4984      0.00000
      5       9.6459      0.00000
      6      10.4767      0.00000

 k-point  61 :      -0.3750    0.3750    0.2917
  band No.  band energies     occupation 
      1       2.9616      1.00000
      2       3.3147      1.00000
      3       7.7523      0.00000
      4       7.9741      0.00000
      5      10.9875      0.00000
      6      11.1371      0.00000

 k-point  62 :      -0.4583    0.4583    0.2917
  band No.  band energies     occupation 
      1       2.7724      1.00000
      2       3.2512      1.00000
      3       7.7097      0.00000
      4       7.9039      0.00000
      5      12.5171      0.00000
      6      13.1864      0.00000

 k-point  63 :      -0.3750    0.4583    0.2917
  band No.  band energies     occupation 
      1       2.8315      1.00000
      2       2.9132      1.00000
      3       7.6374      0.00000
      4       9.3235      0.00000
      5      11.2264      0.00000
      6      13.0967      0.00000

 k-point  64 :      -0.4583   -0.4583    0.2917
  band No.  band energies     occupation 
      1       2.6729      1.00000
      2       2.8539      1.00000
      3       7.5113      0.00000
      4       9.8217      0.00000
      5      11.8123      0.00000
      6      15.1047      0.00000

 k-point  65 :      -0.3750    0.3750    0.3750
  band No.  band energies     occupation 
      1       2.6710      1.00000
      2       2.7348      1.00000
      3       9.1976      0.00000
      4       9.1976      0.00000
      5      11.2088      0.00000
      6      11.4741      0.00000

 k-point  66 :      -0.4583    0.4583    0.3750
  band No.  band energies     occupation 
      1       2.3504      1.00000
      2       2.4657      1.00000
      3       9.6886      0.00000
      4       9.7030      0.00000
      5      12.3120      0.00000
      6      13.3406      0.00000

 k-point  67 :      -0.4583   -0.4583    0.3750
  band No.  band energies     occupation 
      1       2.2318      1.00000
      2       2.2318      1.00000
      3       9.6972      0.00000
      4      11.6506      0.00000
      5      11.6506      0.00000
      6      15.2729      0.00000

 k-point  68 :      -0.4583    0.4583    0.4583
  band No.  band energies     occupation 
      1       2.0187      1.00000
      2       2.0527      1.00000
      3      11.5868      0.00000
      4      11.5868      0.00000
      5      12.3075      0.00000
      6      13.7460      0.00000


--------------------------------------------------------------------------------------------------------


 soft charge-density along one line, spin component           1
         0         1         2         3         4         5         6         7         8         9
 total charge-density along one line
 
 soft charge-density along one line, spin component           2
         0         1         2         3         4         5         6         7         8         9
 total charge-density along one line
 
 pseudopotential strength for first ion, spin component:           1
 -6.573   0.000   0.003   0.000   0.002   0.089   0.000   0.000
  0.000  -6.571   0.000   0.003   0.000   0.000   0.089   0.000
  0.003   0.000  -6.571   0.000  -0.001   0.000   0.000   0.089
  0.000   0.003   0.000  -6.573   0.000   0.000   0.000   0.000
  0.002   0.000  -0.001   0.000  -6.570   0.000   0.000   0.000
  0.089   0.000   0.000   0.000   0.000   0.071   0.000   0.000
  0.000   0.089   0.000   0.000   0.000   0.000   0.071   0.000
  0.000   0.000   0.089   0.000   0.000   0.000   0.000   0.071
  0.000   0.000   0.000   0.089   0.000   0.000   0.000   0.000
  0.000   0.000   0.000   0.000   0.089   0.000   0.000   0.000
  0.000   0.000   0.000   0.000   0.000   0.000   0.000   0.000
  0.000   0.000   0.000   0.000   0.000   0.000   0.000   0.000
  0.000   0.000   0.000   0.000   0.000   0.000   0.000   0.000
  0.000   0.000   0.000   0.000   0.000   0.000   0.000   0.000
  0.000   0.000   0.000   0.000   0.000   0.000   0.000   0.000
  0.000   0.000   0.000   0.000   0.000   0.000   0.000   0.000
  0.000   0.000   0.000   0.000   0.000   0.000   0.000   0.000
  0.000   0.000   0.000   0.000   0.000   0.000   0.000   0.000
 pseudopotential strength for first ion, spin component:           2
 -6.573   0.000   0.003   0.000   0.002   0.089   0.000   0.000
  0.000  -6.571   0.000   0.003   0.000   0.000   0.089   0.000
  0.003   0.000  -6.571   0.000  -0.001   0.000   0.000   0.089
  0.000   0.003   0.000  -6.573   0.000   0.000   0.000   0.000
  0.002   0.000  -0.001   0.000  -6.570   0.000   0.000   0.000
  0.089   0.000   0.000   0.000   0.000   0.071   0.000   0.000
  0.000   0.089   0.000   0.000   0.000   0.000   0.071   0.000
  0.000   0.000   0.089   0.000   0.000   0.000   0.000   0.071
  0.000   0.000   0.000   0.089   0.000   0.000   0.000   0.000
  0.000   0.000   0.000   0.000   0.089   0.000   0.000   0.000
  0.000   0.000   0.000   0.000   0.000   0.000   0.000   0.000
  0.000   0.000   0.000   0.000   0.000   0.000   0.000   0.000
  0.000   0.000   0.000   0.000   0.000   0.000   0.000   0.000
  0.000   0.000   0.000   0.000   0.000   0.000   0.000   0.000
  0.000   0.000   0.000   0.000   0.000   0.000   0.000   0.000
  0.000   0.000   0.000   0.000   0.000   0.000   0.000   0.000
  0.000   0.000   0.000   0.000   0.000   0.000   0.000   0.000
  0.000   0.000   0.000   0.000   0.000   0.000   0.000   0.000
 total augmentation occupancy for first ion, spin component:           1
  0.636   0.000   0.081   0.000   0.047  -0.517   0.000  -0.020   0.000  -0.012   0.000   0.000   0.000   0.000   0.000   0.000
  0.000   0.702   0.000   0.093   0.000   0.000  -0.533   0.000  -0.024   0.000   0.000   0.000   0.000   0.000   0.000   0.000
  0.081   0.000   0.719   0.000  -0.029  -0.020   0.000  -0.538   0.000   0.007   0.000   0.000   0.000   0.000   0.000   0.000
  0.000   0.093   0.000   0.636   0.000   0.000  -0.024   0.000  -0.517   0.000   0.000   0.000   0.000   0.000   0.000   0.000
  0.047   0.000  -0.029   0.000   0.752  -0.012   0.000   0.007   0.000  -0.546   0.000   0.000   0.000   0.000   0.000   0.000
 -0.517   0.000  -0.020   0.000  -0.012   0.463   0.000  -0.014   0.000  -0.008   0.000   0.000   0.000   0.000   0.000   0.000
  0.000  -0.533   0.000  -0.024   0.000   0.000   0.452   0.000  -0.016   0.000   0.000   0.000   0.000   0.000   0.000   0.000
 -0.020   0.000  -0.538   0.000   0.007  -0.014   0.000   0.449   0.000   0.005   0.000   0.000   0.000   0.000   0.000   0.000
  0.000  -0.024   0.000  -0.517   0.000   0.000  -0.016   0.000   0.463   0.000   0.000   0.000   0.000   0.000   0.000   0.000
 -0.012   0.000   0.007   0.000  -0.546  -0.008   0.000   0.005   0.000   0.443   0.000   0.000   0.000   0.000   0.000   0.000
  0.000   0.000   0.000   0.000   0.000   0.000   0.000   0.000   0.000   0.000   1.402  -0.280   0.000   0.000   0.000   0.000
  0.000   0.000   0.000   0.000   0.000   0.000   0.000   0.000   0.000   0.000  -0.280   0.060   0.000   0.000   0.000   0.000
  0.000   0.000   0.000   0.000   0.000   0.000   0.000   0.000   0.000   0.000   0.000   0.000   0.308   0.000   0.000   0.012
  0.000   0.000   0.000   0.000   0.000   0.000   0.000   0.000   0.000   0.000   0.000   0.000   0.000   0.308   0.000   0.000
  0.000   0.000   0.000   0.000   0.000   0.000   0.000   0.000   0.000   0.000   0.000   0.000   0.000   0.000   0.308   0.000
  0.000   0.000   0.000   0.000   0.000   0.000   0.000   0.000   0.000   0.000   0.000   0.000   0.012   0.000   0.000   0.001
  0.000   0.000   0.000   0.000   0.000   0.000   0.000   0.000   0.000   0.000   0.000   0.000   0.000   0.012   0.000   0.000
  0.000   0.000   0.000   0.000   0.000   0.000   0.000   0.000   0.000   0.000   0.000   0.000   0.000   0.000   0.012   0.000
 total augmentation occupancy for first ion, spin component:           2
 -0.001   0.000   0.000   0.000   0.000   0.001   0.000   0.000   0.000   0.000   0.000   0.000   0.000   0.000   0.000   0.000
  0.000  -0.001   0.000   0.000   0.000   0.000   0.001   0.000   0.000   0.000   0.000   0.000   0.000   0.000   0.000   0.000
  0.000   0.000  -0.001   0.000   0.000   0.000   0.000   0.001   0.000   0.000   0.000   0.000   0.000   0.000   0.000   0.000
  0.000   0.000   0.000  -0.001   0.000   0.000   0.000   0.000   0.001   0.000   0.000   0.000   0.000   0.000   0.000   0.000
  0.000   0.000   0.000   0.000  -0.001   0.000   0.000   0.000   0.000   0.001   0.000   0.000   0.000   0.000   0.000   0.000
  0.001   0.000   0.000   0.000   0.000  -0.001   0.000   0.000   0.000   0.000   0.000   0.000   0.000   0.000   0.000   0.000
  0.000   0.001   0.000   0.000   0.000   0.000  -0.001   0.000   0.000   0.000   0.000   0.000   0.000   0.000   0.000   0.000
  0.000   0.000   0.001   0.000   0.000   0.000   0.000  -0.001   0.000   0.000   0.000   0.000   0.000   0.000   0.000   0.000
  0.000   0.000   0.000   0.001   0.000   0.000   0.000   0.000  -0.001   0.000   0.000   0.000   0.000   0.000   0.000   0.000
  0.000   0.000   0.000   0.000   0.001   0.000   0.000   0.000   0.000  -0.001   0.000   0.000   0.000   0.000   0.000   0.000
  0.000   0.000   0.000   0.000   0.000   0.000   0.000   0.000   0.000   0.000  -0.001   0.002   0.000   0.000   0.000   0.000
  0.000   0.000   0.000   0.000   0.000   0.000   0.000   0.000   0.000   0.000   0.002  -0.001   0.000   0.000   0.000   0.000
  0.000   0.000   0.000   0.000   0.000   0.000   0.000   0.000   0.000   0.000   0.000   0.000  -0.001   0.000   0.000   0.000
  0.000   0.000   0.000   0.000   0.000   0.000   0.000   0.000   0.000   0.000   0.000   0.000   0.000  -0.001   0.000   0.000
  0.000   0.000   0.000   0.000   0.000   0.000   0.000   0.000   0.000   0.000   0.000   0.000   0.000   0.000  -0.001   0.000
  0.000   0.000   0.000   0.000   0.000   0.000   0.000   0.000   0.000   0.000   0.000   0.000   0.000   0.000   0.000   0.000
  0.000   0.000   0.000   0.000   0.000   0.000   0.000   0.000   0.000   0.000   0.000   0.000   0.000   0.000   0.000   0.000
  0.000   0.000   0.000   0.000   0.000   0.000   0.000   0.000   0.000   0.000   0.000   0.000   0.000   0.000   0.000   0.000


------------------------ aborting loop because EDIFF is reached ----------------------------------------


 


 total charge     
 
# of ion     s       p       d       tot
----------------------------------------
  1        0.709   0.714   3.338   4.761
 


 magnetization (x)
 
# of ion     s       p       d       tot
----------------------------------------
  1       -0.001  -0.001  -0.003  -0.005
 
    CHARGE:  cpu time    0.14: real time    0.14
    FORLOC:  cpu time    0.00: real time    0.00
    FORNL :  cpu time    0.23: real time    0.23
    STRESS:  cpu time    0.48: real time    0.48
    FORCOR:  cpu time    0.14: real time    0.14
    FORHAR:  cpu time    0.02: real time    0.02
    MIXING:  cpu time    0.00: real time    0.00

  FORCE on cell =-STRESS in cart. coord.  units (eV):
  Direction    XX          YY          ZZ          XY          YZ          ZX
  --------------------------------------------------------------------------------------
  Alpha Z    30.58334    30.58334    30.58334
  Ewald     -65.96700   -65.96700   -65.96700     0.00000     0.00000     0.00000
  Hartree     0.18988     0.18988     0.18988     0.00000     0.00000     0.00000
  E(xc)     -22.44834   -22.44834   -22.44833     0.00000     0.00001     0.00000
  Local       3.79899     3.79899     3.79899     0.00000     0.00000     0.00000
  n-local    -7.36895    -8.24522    -5.37750     1.74624    -2.24426    -1.52331
  augment     2.91025     2.91025     2.91026     0.00000     0.00000     0.00000
  Kinetic    59.32324    59.53619    54.86958    -0.10359     3.06201     1.64640
  Fock        0.00000     0.00000     0.00000     0.00000     0.00000     0.00000
  -------------------------------------------------------------------------------------
  Total      -0.02044    -0.02044    -0.02044     0.00000     0.00000     0.00000
  in kB      -1.80578    -1.80578    -1.80578     0.00000     0.00000     0.00000
  external pressure =       -1.81 kB  Pullay stress =        0.00 kB


 VOLUME and BASIS-vectors are now :
 -----------------------------------------------------------------------------
  energy-cutoff  :      350.00
  volume of cell :       18.13
      direct lattice vectors                 reciprocal lattice vectors
     2.866544087  0.000000000  0.000000000     0.348852126  0.123337852  0.213627426
    -0.955514696  2.702603683  0.000000000     0.000000000  0.370013556  0.213627426
    -0.955514696 -1.351301841  2.340523446     0.000000000  0.000000000  0.427254853

  length of vectors
     2.866544087  2.866544087  2.866544087     0.427254853  0.427254853  0.427254853


 FORCES acting on ions
    electron-ion (+dipol)            ewald-force                    non-local-force                 convergence-correction
 -----------------------------------------------------------------------------------------------
   0.138E-14 0.256E-15 0.272E-14   -.279E-15 -.214E-15 0.640E-15   0.114E-23 0.000E+00 0.000E+00   0.501E-16 -.181E-15 0.676E-16
 -----------------------------------------------------------------------------------------------
   0.138E-14 0.256E-15 0.272E-14   -.279E-15 -.214E-15 0.640E-15   0.114E-23 0.000E+00 0.000E+00   0.501E-16 -.181E-15 0.676E-16
 
 
 POSITION                                       TOTAL-FORCE (eV/Angst)
 -----------------------------------------------------------------------------------
      0.00000      0.00000      0.00000         0.000000      0.000000      0.000000
 -----------------------------------------------------------------------------------
    total drift:                                0.000000      0.000000      0.000000


--------------------------------------------------------------------------------------------------------



  FREE ENERGIE OF THE ION-ELECTRON SYSTEM (eV)
  ---------------------------------------------------
  free  energy   TOTEN  =       -11.866500 eV

  energy  without entropy=      -11.866430  energy(sigma->0) =      -11.866477
 


--------------------------------------------------------------------------------------------------------


    POTLOK:  cpu time    0.17: real time    0.17


--------------------------------------------------------------------------------------------------------


 writing wavefunctions
     LOOP+:  cpu time   27.55: real time   28.02
    4ORBIT:  cpu time    0.00: real time    0.00
 


 total charge     
 
# of ion     s       p       d       tot
----------------------------------------
  1        0.709   0.714   3.338   4.761
 


 magnetization (x)
 
# of ion     s       p       d       tot
----------------------------------------
  1       -0.001  -0.001  -0.003  -0.005
 

 total amount of memory used by VASP on root node    42233. kBytes
========================================================================

   base      :      30000. kBytes
   nonl-proj :       2707. kBytes
   fftplans  :       1676. kBytes
   grid      :       3981. kBytes
   one-center:         31. kBytes
   wavefun   :       3838. kBytes
 
  
  
 General timing and accounting informations for this job:
 ========================================================
  
                  Total CPU time used (sec):       28.158
                            User time (sec):       28.031
                          System time (sec):        0.127
                         Elapsed time (sec):       28.929
  
                   Maximum memory used (kb):           0.
                   Average memory used (kb):           0.
  
                          Minor page faults:         9721
                          Major page faults:            0
                 Voluntary context switches:         1398
