PROCAR lm decomposed
# of k-points:   68         # of bands:   6         # of ions:   1

 k-point    1 :    0.04166667 0.04166667 0.04166667     weight = 0.00462963

band   1 # energy   -1.72714370 # occ.  1.00000000
 
ion      s     py     pz     px    dxy    dyz    dz2    dxz    dx2    tot
  1  0.828  0.007  0.022  0.004  0.000  0.001  0.000  0.000  0.000  0.864
 
band   2 # energy    6.19596612 # occ.  0.00000000
 
ion      s     py     pz     px    dxy    dyz    dz2    dxz    dx2    tot
  1  0.000  0.003  0.001  0.000  0.152  0.227  0.548  0.097  0.014  1.043
 
band   3 # energy    6.19596612 # occ.  0.00000000
 
ion      s     py     pz     px    dxy    dyz    dz2    dxz    dx2    tot
  1  0.000  0.001  0.000  0.004  0.064  0.004  0.033  0.023  0.914  1.043
 
band   4 # energy    6.96786213 # occ.  0.00000000
 
ion      s     py     pz     px    dxy    dyz    dz2    dxz    dx2    tot
  1  0.000  0.004  0.011  0.002  0.076  0.455  0.256  0.227  0.009  1.039
 
band   5 # energy    9.49116803 # occ.  0.00000000
 
ion      s     py     pz     px    dxy    dyz    dz2    dxz    dx2    tot
  1  0.000  0.000  0.000  0.000  0.631  0.011  0.144  0.065  0.061  0.912
 
band   6 # energy    9.49116803 # occ.  0.00000000
 
ion      s     py     pz     px    dxy    dyz    dz2    dxz    dx2    tot
  1  0.000  0.000  0.000  0.000  0.039  0.291  0.013  0.535  0.033  0.912
 

 k-point    2 :    0.12500000 0.04166667 0.04166667     weight = 0.01388889

band   1 # energy   -0.90713988 # occ.  1.00000000
 
ion      s     py     pz     px    dxy    dyz    dz2    dxz    dx2    tot
  1  0.772  0.015  0.045  0.030  0.003  0.005  0.001  0.008  0.001  0.880
 
band   2 # energy    5.68046690 # occ.  0.91691025
 
ion      s     py     pz     px    dxy    dyz    dz2    dxz    dx2    tot
  1  0.000  0.004  0.001  0.000  0.173  0.199  0.447  0.058  0.149  1.032
 
band   3 # energy    5.85430727 # occ. -0.00017634
 
ion      s     py     pz     px    dxy    dyz    dz2    dxz    dx2    tot
  1  0.001  0.000  0.001  0.031  0.062  0.041  0.095  0.187  0.588  1.005
 
band   4 # energy    7.91842264 # occ.  0.00000000
 
ion      s     py     pz     px    dxy    dyz    dz2    dxz    dx2    tot
  1  0.001  0.011  0.032  0.001  0.067  0.321  0.297  0.200  0.084  1.014
 
band   5 # energy    9.11969009 # occ.  0.00000000
 
ion      s     py     pz     px    dxy    dyz    dz2    dxz    dx2    tot
  1  0.000  0.000  0.000  0.000  0.093  0.359  0.030  0.279  0.154  0.915
 
band   6 # energy    9.65129994 # occ.  0.00000000
 
ion      s     py     pz     px    dxy    dyz    dz2    dxz    dx2    tot
  1  0.000  0.001  0.000  0.000  0.553  0.044  0.099  0.184  0.033  0.915
 

 k-point    3 :    0.20833333 0.04166667 0.04166667     weight = 0.01388889

band   1 # energy    0.21859059 # occ.  1.00000000
 
ion      s     py     pz     px    dxy    dyz    dz2    dxz    dx2    tot
  1  0.667  0.021  0.064  0.059  0.016  0.014  0.000  0.049  0.015  0.906
 
band   2 # energy    5.09652986 # occ.  1.00000000
 
ion      s     py     pz     px    dxy    dyz    dz2    dxz    dx2    tot
  1  0.000  0.006  0.002  0.000  0.179  0.196  0.441  0.060  0.147  1.029
 
band   3 # energy    5.43077410 # occ.  1.00000000
 
ion      s     py     pz     px    dxy    dyz    dz2    dxz    dx2    tot
  1  0.014  0.004  0.013  0.098  0.092  0.012  0.079  0.275  0.372  0.958
 
band   4 # energy    9.11897004 # occ.  0.00000000
 
ion      s     py     pz     px    dxy    dyz    dz2    dxz    dx2    tot
  1  0.003  0.002  0.005  0.003  0.098  0.150  0.010  0.293  0.386  0.948
 
band   5 # energy    9.38367525 # occ.  0.00000000
 
ion      s     py     pz     px    dxy    dyz    dz2    dxz    dx2    tot
  1  0.000  0.018  0.053  0.001  0.012  0.532  0.315  0.035  0.017  0.983
 
band   6 # energy    9.86849979 # occ.  0.00000000
 
ion      s     py     pz     px    dxy    dyz    dz2    dxz    dx2    tot
  1  0.000  0.002  0.001  0.000  0.548  0.047  0.105  0.183  0.035  0.920
 

 k-point    4 :    0.29166667 0.04166667 0.04166667     weight = 0.01388889

band   1 # energy    1.15854112 # occ.  1.00000000
 
ion      s     py     pz     px    dxy    dyz    dz2    dxz    dx2    tot
  1  0.494  0.019  0.056  0.043  0.059  0.025  0.002  0.176  0.069  0.942
 
band   2 # energy    4.59923652 # occ.  1.00000000
 
ion      s     py     pz     px    dxy    dyz    dz2    dxz    dx2    tot
  1  0.000  0.007  0.002  0.000  0.200  0.190  0.427  0.067  0.142  1.035
 
band   3 # energy    5.50972044 # occ.  1.00000011
 
ion      s     py     pz     px    dxy    dyz    dz2    dxz    dx2    tot
  1  0.060  0.020  0.060  0.245  0.069  0.000  0.067  0.206  0.194  0.922
 
band   4 # energy    9.46460859 # occ.  0.00000000
 
ion      s     py     pz     px    dxy    dyz    dz2    dxz    dx2    tot
  1  0.007  0.001  0.002  0.018  0.051  0.401  0.008  0.152  0.334  0.973
 
band   5 # energy   10.15356488 # occ.  0.00000000
 
ion      s     py     pz     px    dxy    dyz    dz2    dxz    dx2    tot
  1  0.000  0.002  0.001  0.000  0.535  0.055  0.124  0.178  0.041  0.937
 
band   6 # energy   11.11104039 # occ.  0.00000000
 
ion      s     py     pz     px    dxy    dyz    dz2    dxz    dx2    tot
  1  0.001  0.025  0.076  0.001  0.034  0.265  0.318  0.102  0.146  0.968
 

 k-point    5 :    0.37500000 0.04166667 0.04166667     weight = 0.01388889

band   1 # energy    1.49382012 # occ.  1.00000000
 
ion      s     py     pz     px    dxy    dyz    dz2    dxz    dx2    tot
  1  0.333  0.008  0.025  0.005  0.108  0.026  0.010  0.323  0.129  0.969
 
band   2 # energy    4.27293405 # occ.  1.00000000
 
ion      s     py     pz     px    dxy    dyz    dz2    dxz    dx2    tot
  1  0.000  0.008  0.003  0.000  0.228  0.181  0.408  0.076  0.136  1.039
 
band   3 # energy    6.40482089 # occ.  0.00000000
 
ion      s     py     pz     px    dxy    dyz    dz2    dxz    dx2    tot
  1  0.061  0.047  0.141  0.439  0.020  0.011  0.049  0.059  0.069  0.896
 
band   4 # energy    9.66749514 # occ.  0.00000000
 
ion      s     py     pz     px    dxy    dyz    dz2    dxz    dx2    tot
  1  0.032  0.002  0.006  0.026  0.051  0.431  0.019  0.153  0.268  0.987
 
band   5 # energy   10.44714904 # occ.  0.00000000
 
ion      s     py     pz     px    dxy    dyz    dz2    dxz    dx2    tot
  1  0.000  0.001  0.000  0.000  0.521  0.068  0.152  0.174  0.051  0.967
 
band   6 # energy   12.84289448 # occ.  0.00000000
 
ion      s     py     pz     px    dxy    dyz    dz2    dxz    dx2    tot
  1  0.000  0.020  0.060  0.004  0.031  0.199  0.332  0.092  0.232  0.970
 

 k-point    6 :    0.45833333 0.04166667 0.04166667     weight = 0.00694444

band   1 # energy    1.52442134 # occ.  1.00000000
 
ion      s     py     pz     px    dxy    dyz    dz2    dxz    dx2    tot
  1  0.282  0.002  0.006  0.004  0.124  0.025  0.014  0.372  0.148  0.976
 
band   2 # energy    4.15995662 # occ.  1.00000000
 
ion      s     py     pz     px    dxy    dyz    dz2    dxz    dx2    tot
  1  0.000  0.008  0.003  0.000  0.258  0.172  0.387  0.086  0.129  1.042
 
band   3 # energy    7.07207131 # occ.  0.00000000
 
ion      s     py     pz     px    dxy    dyz    dz2    dxz    dx2    tot
  1  0.000  0.068  0.205  0.548  0.002  0.010  0.023  0.005  0.021  0.883
 
band   4 # energy    9.62301378 # occ.  0.00000000
 
ion      s     py     pz     px    dxy    dyz    dz2    dxz    dx2    tot
  1  0.075  0.000  0.000  0.000  0.057  0.464  0.045  0.172  0.177  0.990
 
band   5 # energy   10.58262060 # occ.  0.00000000
 
ion      s     py     pz     px    dxy    dyz    dz2    dxz    dx2    tot
  1  0.000  0.000  0.000  0.000  0.492  0.082  0.185  0.164  0.062  0.985
 
band   6 # energy   13.68997632 # occ.  0.00000000
 
ion      s     py     pz     px    dxy    dyz    dz2    dxz    dx2    tot
  1  0.000  0.004  0.011  0.029  0.026  0.156  0.352  0.078  0.326  0.982
 

 k-point    7 :   -0.04166667 0.04166667 0.04166667     weight = 0.00347222

band   1 # energy   -2.02053301 # occ.  1.00000000
 
ion      s     py     pz     px    dxy    dyz    dz2    dxz    dx2    tot
  1  0.846  0.002  0.006  0.004  0.000  0.000  0.000  0.000  0.000  0.858
 
band   2 # energy    6.41427525 # occ.  0.00000000
 
ion      s     py     pz     px    dxy    dyz    dz2    dxz    dx2    tot
  1  0.000  0.000  0.001  0.003  0.029  0.175  0.393  0.087  0.364  1.051
 
band   3 # energy    6.41427908 # occ.  0.00000000
 
ion      s     py     pz     px    dxy    dyz    dz2    dxz    dx2    tot
  1  0.000  0.003  0.001  0.000  0.262  0.175  0.393  0.087  0.131  1.051
 
band   4 # energy    6.51080582 # occ.  0.00000000
 
ion      s     py     pz     px    dxy    dyz    dz2    dxz    dx2    tot
  1  0.000  0.000  0.000  0.000  0.059  0.351  0.000  0.176  0.468  1.054
 
band   5 # energy    9.42153875 # occ.  0.00000000
 
ion      s     py     pz     px    dxy    dyz    dz2    dxz    dx2    tot
  1  0.000  0.000  0.000  0.000  0.455  0.076  0.171  0.152  0.057  0.910
 
band   6 # energy    9.76979929 # occ.  0.00000000
 
ion      s     py     pz     px    dxy    dyz    dz2    dxz    dx2    tot
  1  0.000  0.000  0.000  0.000  0.155  0.232  0.058  0.464  0.019  0.928
 

 k-point    8 :    0.12500000 0.12500000 0.04166667     weight = 0.01388889

band   1 # energy    0.06633169 # occ.  1.00000000
 
ion      s     py     pz     px    dxy    dyz    dz2    dxz    dx2    tot
  1  0.696  0.053  0.070  0.026  0.007  0.030  0.001  0.015  0.001  0.898
 
band   2 # energy    5.24140639 # occ.  1.00000000
 
ion      s     py     pz     px    dxy    dyz    dz2    dxz    dx2    tot
  1  0.002  0.019  0.000  0.010  0.038  0.257  0.556  0.129  0.005  1.016
 
band   3 # energy    5.25106580 # occ.  1.00000000
 
ion      s     py     pz     px    dxy    dyz    dz2    dxz    dx2    tot
  1  0.000  0.015  0.000  0.031  0.091  0.042  0.000  0.083  0.727  0.989
 
band   4 # energy    9.08496413 # occ.  0.00000000
 
ion      s     py     pz     px    dxy    dyz    dz2    dxz    dx2    tot
  1  0.000  0.000  0.000  0.000  0.019  0.250  0.000  0.500  0.153  0.922
 
band   5 # energy    9.26978464 # occ.  0.00000000
 
ion      s     py     pz     px    dxy    dyz    dz2    dxz    dx2    tot
  1  0.003  0.018  0.066  0.009  0.123  0.320  0.274  0.160  0.015  0.988
 
band   6 # energy    9.88557333 # occ.  0.00000000
 
ion      s     py     pz     px    dxy    dyz    dz2    dxz    dx2    tot
  1  0.001  0.000  0.001  0.000  0.681  0.031  0.122  0.016  0.085  0.938
 

 k-point    9 :    0.20833333 0.12500000 0.04166667     weight = 0.02777778

band   1 # energy    1.20002087 # occ.  1.00000000
 
ion      s     py     pz     px    dxy    dyz    dz2    dxz    dx2    tot
  1  0.568  0.057  0.085  0.041  0.029  0.056  0.001  0.081  0.007  0.925
 
band   2 # energy    4.71154729 # occ.  1.00000000
 
ion      s     py     pz     px    dxy    dyz    dz2    dxz    dx2    tot
  1  0.000  0.031  0.002  0.017  0.170  0.216  0.225  0.001  0.340  1.003
 
band   3 # energy    4.97040204 # occ.  1.00000000
 
ion      s     py     pz     px    dxy    dyz    dz2    dxz    dx2    tot
  1  0.019  0.012  0.007  0.112  0.000  0.033  0.310  0.259  0.223  0.975
 
band   4 # energy    9.23000660 # occ.  0.00000000
 
ion      s     py     pz     px    dxy    dyz    dz2    dxz    dx2    tot
  1  0.001  0.000  0.000  0.004  0.006  0.301  0.000  0.381  0.247  0.941
 
band   5 # energy   10.21663160 # occ.  0.00000000
 
ion      s     py     pz     px    dxy    dyz    dz2    dxz    dx2    tot
  1  0.006  0.001  0.000  0.000  0.675  0.010  0.137  0.041  0.087  0.958
 
band   6 # energy   10.98665518 # occ.  0.00000000
 
ion      s     py     pz     px    dxy    dyz    dz2    dxz    dx2    tot
  1  0.004  0.036  0.099  0.013  0.089  0.297  0.272  0.118  0.041  0.969
 

 k-point   10 :    0.29166667 0.12500000 0.04166667     weight = 0.02777778

band   1 # energy    1.90342151 # occ.  1.00000000
 
ion      s     py     pz     px    dxy    dyz    dz2    dxz    dx2    tot
  1  0.376  0.043  0.063  0.010  0.070  0.064  0.017  0.250  0.067  0.958
 
band   2 # energy    4.35881235 # occ.  1.00000000
 
ion      s     py     pz     px    dxy    dyz    dz2    dxz    dx2    tot
  1  0.000  0.036  0.004  0.008  0.202  0.233  0.328  0.012  0.197  1.020
 
band   3 # energy    5.38169568 # occ.  1.00000000
 
ion      s     py     pz     px    dxy    dyz    dz2    dxz    dx2    tot
  1  0.063  0.032  0.061  0.287  0.001  0.004  0.147  0.145  0.192  0.931
 
band   4 # energy    9.55412067 # occ.  0.00000000
 
ion      s     py     pz     px    dxy    dyz    dz2    dxz    dx2    tot
  1  0.009  0.000  0.001  0.016  0.000  0.360  0.001  0.291  0.284  0.962
 
band   5 # energy   10.44881322 # occ.  0.00000000
 
ion      s     py     pz     px    dxy    dyz    dz2    dxz    dx2    tot
  1  0.013  0.001  0.000  0.001  0.615  0.000  0.211  0.078  0.054  0.974
 
band   6 # energy   12.82080265 # occ.  0.00000000
 
ion      s     py     pz     px    dxy    dyz    dz2    dxz    dx2    tot
  1  0.001  0.048  0.110  0.025  0.088  0.238  0.256  0.088  0.104  0.957
 

 k-point   11 :    0.37500000 0.12500000 0.04166667     weight = 0.02777778

band   1 # energy    2.03210321 # occ.  1.00000000
 
ion      s     py     pz     px    dxy    dyz    dz2    dxz    dx2    tot
  1  0.262  0.025  0.028  0.003  0.090  0.051  0.027  0.368  0.121  0.975
 
band   2 # energy    4.18266927 # occ.  1.00000000
 
ion      s     py     pz     px    dxy    dyz    dz2    dxz    dx2    tot
  1  0.000  0.041  0.003  0.003  0.254  0.209  0.345  0.035  0.139  1.029
 
band   3 # energy    6.26826481 # occ.  0.00000000
 
ion      s     py     pz     px    dxy    dyz    dz2    dxz    dx2    tot
  1  0.020  0.053  0.140  0.431  0.028  0.045  0.053  0.017  0.120  0.907
 
band   4 # energy    9.68774430 # occ.  0.00000000
 
ion      s     py     pz     px    dxy    dyz    dz2    dxz    dx2    tot
  1  0.052  0.000  0.001  0.009  0.032  0.379  0.037  0.225  0.242  0.976
 
band   5 # energy   10.64228083 # occ.  0.00000000
 
ion      s     py     pz     px    dxy    dyz    dz2    dxz    dx2    tot
  1  0.005  0.002  0.003  0.016  0.487  0.022  0.274  0.160  0.014  0.985
 
band   6 # energy   14.22116290 # occ.  0.00000000
 
ion      s     py     pz     px    dxy    dyz    dz2    dxz    dx2    tot
  1  0.000  0.030  0.071  0.060  0.072  0.181  0.252  0.056  0.235  0.957
 

 k-point   12 :   -0.12500000 0.12500000 0.04166667     weight = 0.01388889

band   1 # energy   -1.44043488 # occ.  1.00000000
 
ion      s     py     pz     px    dxy    dyz    dz2    dxz    dx2    tot
  1  0.809  0.016  0.006  0.033  0.002  0.000  0.001  0.001  0.000  0.869
 
band   2 # energy    6.08049557 # occ.  0.00000000
 
ion      s     py     pz     px    dxy    dyz    dz2    dxz    dx2    tot
  1  0.000  0.002  0.000  0.001  0.002  0.680  0.000  0.340  0.016  1.041
 
band   3 # energy    6.27320416 # occ.  0.00000000
 
ion      s     py     pz     px    dxy    dyz    dz2    dxz    dx2    tot
  1  0.001  0.007  0.001  0.014  0.362  0.000  0.595  0.000  0.045  1.025
 
band   4 # energy    7.07783129 # occ.  0.00000000
 
ion      s     py     pz     px    dxy    dyz    dz2    dxz    dx2    tot
  1  0.000  0.009  0.000  0.005  0.111  0.013  0.000  0.007  0.888  1.033
 
band   5 # energy    8.85829085 # occ.  0.00000000
 
ion      s     py     pz     px    dxy    dyz    dz2    dxz    dx2    tot
  1  0.000  0.000  0.000  0.000  0.346  0.054  0.337  0.108  0.043  0.888
 
band   6 # energy    9.89290736 # occ.  0.00000000
 
ion      s     py     pz     px    dxy    dyz    dz2    dxz    dx2    tot
  1  0.001  0.000  0.001  0.000  0.093  0.251  0.069  0.502  0.012  0.928
 

 k-point   13 :    0.20833333 0.20833333 0.04166667     weight = 0.01388889

band   1 # energy    2.23242295 # occ.  1.00000000
 
ion      s     py     pz     px    dxy    dyz    dz2    dxz    dx2    tot
  1  0.419  0.058  0.098  0.029  0.017  0.198  0.031  0.099  0.002  0.950
 
band   2 # energy    4.38180486 # occ.  1.00000000
 
ion      s     py     pz     px    dxy    dyz    dz2    dxz    dx2    tot
  1  0.000  0.045  0.000  0.091  0.067  0.074  0.000  0.147  0.540  0.964
 
band   3 # energy    4.82502233 # occ.  1.00000000
 
ion      s     py     pz     px    dxy    dyz    dz2    dxz    dx2    tot
  1  0.034  0.108  0.013  0.054  0.106  0.130  0.473  0.065  0.013  0.996
 
band   4 # energy    9.41032911 # occ.  0.00000000
 
ion      s     py     pz     px    dxy    dyz    dz2    dxz    dx2    tot
  1  0.000  0.003  0.000  0.005  0.031  0.218  0.000  0.437  0.252  0.946
 
band   5 # energy   10.48183601 # occ.  0.00000000
 
ion      s     py     pz     px    dxy    dyz    dz2    dxz    dx2    tot
  1  0.023  0.000  0.000  0.000  0.604  0.035  0.230  0.017  0.075  0.985
 
band   6 # energy   12.88184036 # occ.  0.00000000
 
ion      s     py     pz     px    dxy    dyz    dz2    dxz    dx2    tot
  1  0.004  0.063  0.125  0.031  0.159  0.220  0.224  0.110  0.020  0.956
 

 k-point   14 :    0.29166667 0.20833333 0.04166667     weight = 0.02777778

band   1 # energy    2.72381413 # occ.  1.00000000
 
ion      s     py     pz     px    dxy    dyz    dz2    dxz    dx2    tot
  1  0.250  0.036  0.067  0.000  0.025  0.181  0.088  0.297  0.035  0.980
 
band   2 # energy    4.26754452 # occ.  1.00000000
 
ion      s     py     pz     px    dxy    dyz    dz2    dxz    dx2    tot
  1  0.000  0.092  0.001  0.054  0.188  0.213  0.136  0.017  0.284  0.984
 
band   3 # energy    5.24205513 # occ.  1.00000000
 
ion      s     py     pz     px    dxy    dyz    dz2    dxz    dx2    tot
  1  0.041  0.080  0.067  0.245  0.116  0.002  0.200  0.055  0.140  0.946
 
band   4 # energy    9.72458941 # occ.  0.00000000
 
ion      s     py     pz     px    dxy    dyz    dz2    dxz    dx2    tot
  1  0.010  0.001  0.000  0.013  0.001  0.283  0.009  0.352  0.289  0.959
 
band   5 # energy   10.54817786 # occ.  0.00000000
 
ion      s     py     pz     px    dxy    dyz    dz2    dxz    dx2    tot
  1  0.036  0.002  0.000  0.007  0.492  0.004  0.357  0.068  0.021  0.987
 
band   6 # energy   14.70266253 # occ.  0.00000000
 
ion      s     py     pz     px    dxy    dyz    dz2    dxz    dx2    tot
  1  0.001  0.078  0.122  0.065  0.166  0.178  0.187  0.065  0.082  0.944
 

 k-point   15 :    0.37500000 0.20833333 0.04166667     weight = 0.01388889

band   1 # energy    2.77374343 # occ.  1.00000000
 
ion      s     py     pz     px    dxy    dyz    dz2    dxz    dx2    tot
  1  0.196  0.021  0.030  0.025  0.018  0.132  0.088  0.394  0.083  0.986
 
band   2 # energy    4.24836377 # occ.  1.00000000
 
ion      s     py     pz     px    dxy    dyz    dz2    dxz    dx2    tot
  1  0.000  0.122  0.000  0.016  0.343  0.172  0.214  0.000  0.132  0.999
 
band   3 # energy    5.63823070 # occ.  1.03030974
 
ion      s     py     pz     px    dxy    dyz    dz2    dxz    dx2    tot
  1  0.000  0.042  0.127  0.339  0.118  0.103  0.029  0.000  0.163  0.922
 
band   4 # energy    9.82334877 # occ.  0.00000000
 
ion      s     py     pz     px    dxy    dyz    dz2    dxz    dx2    tot
  1  0.046  0.004  0.000  0.001  0.019  0.326  0.114  0.230  0.224  0.965
 
band   5 # energy   10.66417902 # occ.  0.00000000
 
ion      s     py     pz     px    dxy    dyz    dz2    dxz    dx2    tot
  1  0.000  0.003  0.010  0.026  0.327  0.011  0.382  0.225  0.000  0.986
 
band   6 # energy   14.98326189 # occ.  0.00000000
 
ion      s     py     pz     px    dxy    dyz    dz2    dxz    dx2    tot
  1  0.607  0.004  0.041  0.021  0.002  0.105  0.007  0.052  0.069  0.908
 

 k-point   16 :   -0.20833333 0.20833333 0.04166667     weight = 0.01388889

band   1 # energy   -0.42097696 # occ.  1.00000000
 
ion      s     py     pz     px    dxy    dyz    dz2    dxz    dx2    tot
  1  0.729  0.038  0.006  0.075  0.025  0.001  0.012  0.001  0.003  0.890
 
band   2 # energy    5.52402007 # occ.  1.00000094
 
ion      s     py     pz     px    dxy    dyz    dz2    dxz    dx2    tot
  1  0.000  0.002  0.000  0.001  0.000  0.684  0.000  0.342  0.004  1.034
 
band   3 # energy    5.84063460 # occ. -0.00069781
 
ion      s     py     pz     px    dxy    dyz    dz2    dxz    dx2    tot
  1  0.007  0.025  0.001  0.050  0.523  0.002  0.291  0.004  0.065  0.969
 
band   4 # energy    8.22594325 # occ.  0.00000000
 
ion      s     py     pz     px    dxy    dyz    dz2    dxz    dx2    tot
  1  0.000  0.025  0.000  0.012  0.107  0.004  0.000  0.002  0.853  1.003
 
band   5 # energy    8.65662046 # occ.  0.00000000
 
ion      s     py     pz     px    dxy    dyz    dz2    dxz    dx2    tot
  1  0.000  0.002  0.000  0.003  0.164  0.045  0.588  0.091  0.021  0.914
 
band   6 # energy   10.02397305 # occ.  0.00000000
 
ion      s     py     pz     px    dxy    dyz    dz2    dxz    dx2    tot
  1  0.003  0.000  0.003  0.000  0.062  0.256  0.089  0.512  0.008  0.932
 

 k-point   17 :   -0.12500000 0.20833333 0.04166667     weight = 0.01388889

band   1 # energy   -0.63896860 # occ.  1.00000000
 
ion      s     py     pz     px    dxy    dyz    dz2    dxz    dx2    tot
  1  0.751  0.058  0.022  0.031  0.010  0.007  0.002  0.001  0.001  0.883
 
band   2 # energy    5.84776095 # occ. -0.00034791
 
ion      s     py     pz     px    dxy    dyz    dz2    dxz    dx2    tot
  1  0.001  0.015  0.001  0.004  0.070  0.525  0.200  0.180  0.029  1.025
 
band   3 # energy    5.90742033 # occ. -0.00000018
 
ion      s     py     pz     px    dxy    dyz    dz2    dxz    dx2    tot
  1  0.000  0.003  0.009  0.023  0.147  0.221  0.181  0.018  0.391  0.993
 
band   4 # energy    7.86372142 # occ.  0.00000000
 
ion      s     py     pz     px    dxy    dyz    dz2    dxz    dx2    tot
  1  0.001  0.034  0.001  0.002  0.247  0.035  0.134  0.025  0.530  1.009
 
band   5 # energy    8.28461621 # occ.  0.00000000
 
ion      s     py     pz     px    dxy    dyz    dz2    dxz    dx2    tot
  1  0.000  0.000  0.000  0.001  0.303  0.010  0.362  0.212  0.000  0.887
 
band   6 # energy   10.19392774 # occ.  0.00000000
 
ion      s     py     pz     px    dxy    dyz    dz2    dxz    dx2    tot
  1  0.005  0.000  0.002  0.001  0.120  0.169  0.095  0.531  0.022  0.946
 

 k-point   18 :    0.29166667 0.29166667 0.04166667     weight = 0.01388889

band   1 # energy    3.19284873 # occ.  1.00000000
 
ion      s     py     pz     px    dxy    dyz    dz2    dxz    dx2    tot
  1  0.160  0.000  0.047  0.000  0.009  0.402  0.190  0.201  0.001  1.009
 
band   2 # energy    4.48281128 # occ.  1.00000000
 
ion      s     py     pz     px    dxy    dyz    dz2    dxz    dx2    tot
  1  0.000  0.094  0.000  0.189  0.050  0.072  0.000  0.145  0.400  0.950
 
band   3 # energy    5.03429267 # occ.  1.00000000
 
ion      s     py     pz     px    dxy    dyz    dz2    dxz    dx2    tot
  1  0.007  0.194  0.095  0.097  0.362  0.009  0.128  0.005  0.045  0.943
 
band   4 # energy   10.09813997 # occ.  0.00000000
 
ion      s     py     pz     px    dxy    dyz    dz2    dxz    dx2    tot
  1  0.000  0.008  0.000  0.015  0.030  0.224  0.000  0.448  0.240  0.966
 
band   5 # energy   10.47114869 # occ.  0.00000000
 
ion      s     py     pz     px    dxy    dyz    dz2    dxz    dx2    tot
  1  0.022  0.013  0.005  0.006  0.301  0.041  0.533  0.021  0.038  0.980
 
band   6 # energy   14.39917210 # occ.  0.00000000
 
ion      s     py     pz     px    dxy    dyz    dz2    dxz    dx2    tot
  1  0.673  0.000  0.065  0.000  0.006  0.110  0.002  0.055  0.001  0.911
 

 k-point   19 :   -0.29166667 0.29166667 0.04166667     weight = 0.01388889

band   1 # energy    0.67839180 # occ.  1.00000000
 
ion      s     py     pz     px    dxy    dyz    dz2    dxz    dx2    tot
  1  0.588  0.045  0.006  0.089  0.128  0.001  0.048  0.002  0.016  0.923
 
band   2 # energy    4.96080630 # occ.  1.00000000
 
ion      s     py     pz     px    dxy    dyz    dz2    dxz    dx2    tot
  1  0.000  0.002  0.000  0.001  0.000  0.686  0.000  0.343  0.001  1.034
 
band   3 # energy    5.51518187 # occ.  1.00000026
 
ion      s     py     pz     px    dxy    dyz    dz2    dxz    dx2    tot
  1  0.037  0.072  0.000  0.143  0.492  0.006  0.100  0.012  0.061  0.924
 
band   4 # energy    8.95707919 # occ.  0.00000000
 
ion      s     py     pz     px    dxy    dyz    dz2    dxz    dx2    tot
  1  0.001  0.009  0.000  0.018  0.087  0.037  0.706  0.074  0.011  0.944
 
band   5 # energy    9.82899898 # occ.  0.00000000
 
ion      s     py     pz     px    dxy    dyz    dz2    dxz    dx2    tot
  1  0.000  0.039  0.000  0.019  0.102  0.002  0.000  0.001  0.814  0.976
 
band   6 # energy   10.21079382 # occ.  0.00000000
 
ion      s     py     pz     px    dxy    dyz    dz2    dxz    dx2    tot
  1  0.009  0.000  0.004  0.000  0.050  0.263  0.089  0.526  0.006  0.947
 

 k-point   20 :   -0.20833333 0.29166667 0.04166667     weight = 0.02777778

band   1 # energy    0.46684768 # occ.  1.00000000
 
ion      s     py     pz     px    dxy    dyz    dz2    dxz    dx2    tot
  1  0.645  0.082  0.021  0.063  0.060  0.014  0.021  0.003  0.000  0.907
 
band   2 # energy    5.27629679 # occ.  1.00000000
 
ion      s     py     pz     px    dxy    dyz    dz2    dxz    dx2    tot
  1  0.001  0.002  0.010  0.031  0.129  0.576  0.017  0.084  0.132  0.983
 
band   3 # energy    5.47996654 # occ.  1.00000000
 
ion      s     py     pz     px    dxy    dyz    dz2    dxz    dx2    tot
  1  0.010  0.028  0.000  0.051  0.250  0.178  0.154  0.168  0.144  0.983
 
band   4 # energy    8.28968788 # occ.  0.00000000
 
ion      s     py     pz     px    dxy    dyz    dz2    dxz    dx2    tot
  1  0.000  0.000  0.000  0.011  0.155  0.010  0.565  0.161  0.014  0.917
 
band   5 # energy    9.25711013 # occ.  0.00000000
 
ion      s     py     pz     px    dxy    dyz    dz2    dxz    dx2    tot
  1  0.001  0.072  0.000  0.001  0.172  0.012  0.087  0.009  0.626  0.981
 
band   6 # energy   10.42797219 # occ.  0.00000000
 
ion      s     py     pz     px    dxy    dyz    dz2    dxz    dx2    tot
  1  0.017  0.001  0.003  0.001  0.104  0.179  0.103  0.547  0.011  0.965
 

 k-point   21 :   -0.37500000 0.37500000 0.04166667     weight = 0.01388889

band   1 # energy    1.30763086 # occ.  1.00000000
 
ion      s     py     pz     px    dxy    dyz    dz2    dxz    dx2    tot
  1  0.403  0.021  0.005  0.042  0.347  0.000  0.095  0.001  0.043  0.956
 
band   2 # energy    4.52487642 # occ.  1.00000000
 
ion      s     py     pz     px    dxy    dyz    dz2    dxz    dx2    tot
  1  0.000  0.002  0.000  0.001  0.000  0.689  0.000  0.345  0.000  1.038
 
band   3 # energy    5.96175465 # occ.  0.00000000
 
ion      s     py     pz     px    dxy    dyz    dz2    dxz    dx2    tot
  1  0.074  0.158  0.000  0.317  0.259  0.014  0.012  0.028  0.032  0.895
 
band   4 # energy    9.37222831 # occ.  0.00000000
 
ion      s     py     pz     px    dxy    dyz    dz2    dxz    dx2    tot
  1  0.009  0.022  0.001  0.044  0.101  0.010  0.746  0.020  0.013  0.966
 
band   5 # energy   10.43155406 # occ.  0.00000000
 
ion      s     py     pz     px    dxy    dyz    dz2    dxz    dx2    tot
  1  0.017  0.003  0.003  0.007  0.033  0.291  0.024  0.581  0.004  0.963
 
band   6 # energy   11.66701619 # occ.  0.00000000
 
ion      s     py     pz     px    dxy    dyz    dz2    dxz    dx2    tot
  1  0.000  0.037  0.000  0.018  0.101  0.001  0.000  0.000  0.810  0.968
 

 k-point   22 :   -0.29166667 0.37500000 0.04166667     weight = 0.02777778

band   1 # energy    1.41253339 # occ.  1.00000000
 
ion      s     py     pz     px    dxy    dyz    dz2    dxz    dx2    tot
  1  0.474  0.073  0.020  0.048  0.227  0.016  0.066  0.001  0.013  0.939
 
band   2 # energy    4.80348965 # occ.  1.00000000
 
ion      s     py     pz     px    dxy    dyz    dz2    dxz    dx2    tot
  1  0.002  0.001  0.010  0.032  0.057  0.706  0.000  0.152  0.043  1.004
 
band   3 # energy    5.35914134 # occ.  1.00000000
 
ion      s     py     pz     px    dxy    dyz    dz2    dxz    dx2    tot
  1  0.042  0.079  0.000  0.169  0.239  0.030  0.043  0.183  0.146  0.932
 
band   4 # energy    8.74939442 # occ.  0.00000000
 
ion      s     py     pz     px    dxy    dyz    dz2    dxz    dx2    tot
  1  0.001  0.007  0.000  0.041  0.105  0.005  0.682  0.086  0.012  0.938
 
band   5 # energy   10.51158099 # occ.  0.00000000
 
ion      s     py     pz     px    dxy    dyz    dz2    dxz    dx2    tot
  1  0.032  0.002  0.002  0.004  0.019  0.211  0.094  0.462  0.155  0.981
 
band   6 # energy   11.07797124 # occ.  0.00000000
 
ion      s     py     pz     px    dxy    dyz    dz2    dxz    dx2    tot
  1  0.008  0.100  0.001  0.003  0.208  0.008  0.011  0.094  0.528  0.962
 

 k-point   23 :   -0.20833333 0.37500000 0.04166667     weight = 0.01388889

band   1 # energy    1.52780189 # occ.  1.00000000
 
ion      s     py     pz     px    dxy    dyz    dz2    dxz    dx2    tot
  1  0.516  0.112  0.031  0.051  0.082  0.096  0.033  0.002  0.006  0.929
 
band   2 # energy    4.70572845 # occ.  1.00000000
 
ion      s     py     pz     px    dxy    dyz    dz2    dxz    dx2    tot
  1  0.000  0.008  0.024  0.063  0.285  0.210  0.031  0.001  0.317  0.938
 
band   3 # energy    5.32631893 # occ.  1.00000000
 
ion      s     py     pz     px    dxy    dyz    dz2    dxz    dx2    tot
  1  0.016  0.066  0.018  0.030  0.019  0.432  0.140  0.217  0.065  1.002
 
band   4 # energy    8.37575794 # occ.  0.00000000
 
ion      s     py     pz     px    dxy    dyz    dz2    dxz    dx2    tot
  1  0.000  0.002  0.005  0.012  0.155  0.003  0.487  0.224  0.040  0.927
 
band   5 # energy   10.45624548 # occ.  0.00000000
 
ion      s     py     pz     px    dxy    dyz    dz2    dxz    dx2    tot
  1  0.025  0.020  0.002  0.001  0.001  0.193  0.205  0.275  0.261  0.983
 
band   6 # energy   11.03681470 # occ.  0.00000000
 
ion      s     py     pz     px    dxy    dyz    dz2    dxz    dx2    tot
  1  0.026  0.101  0.001  0.017  0.328  0.012  0.015  0.252  0.212  0.965
 

 k-point   24 :   -0.45833333 0.45833333 0.04166667     weight = 0.01388889
