<?xml version="1.0" encoding="ISO-8859-1"?>
<modeling>
 <generator>
  <i name="program" type="string">vasp </i>
  <i name="version" type="string">5.2.12  </i>
  <i name="subversion" type="string">11Nov11 complex                                                      parallel </i>
  <i name="platform" type="string">LinuxIFC </i>
  <i name="date" type="string">2012 10 17 </i>
  <i name="time" type="string">10:14:54 </i>
 </generator>
 <incar>
  <i type="int" name="ISTART">     0</i>
  <i type="string" name="PREC">accurate</i>
  <i type="int" name="ISPIN">     2</i>
  <i name="ENCUT">    350.00000000</i>
  <i type="int" name="NBANDS">     6</i>
  <v name="MAGMOM">      6.00000000</v>
  <i type="logical" name="LREAL"> F  </i>
  <i type="int" name="ISMEAR">     1</i>
  <i name="SIGMA">      0.05000000</i>
  <i type="logical" name="LORBIT"> F  </i>
 </incar>
 <kpoints>
  <generation param="Monkhorst-Pack">
   <v type="int" name="divisions">      12       12       12 </v>
   <v name="usershift">      0.00000000       0.00000000       0.00000000 </v>
   <v name="genvec1">      0.08333333       0.00000000       0.00000000 </v>
   <v name="genvec2">      0.00000000       0.08333333       0.00000000 </v>
   <v name="genvec3">      0.00000000       0.00000000       0.08333333 </v>
   <v name="shift">      0.50000000       0.50000000       0.50000000 </v>
  </generation>
  <varray name="kpointlist" >
   <v>       0.04166667       0.04166667       0.04166667 </v>
   <v>       0.12500000       0.04166667       0.04166667 </v>
   <v>       0.20833333       0.04166667       0.04166667 </v>
   <v>       0.29166667       0.04166667       0.04166667 </v>
   <v>       0.37500000       0.04166667       0.04166667 </v>
   <v>       0.45833333       0.04166667       0.04166667 </v>
   <v>      -0.04166667       0.04166667       0.04166667 </v>
   <v>       0.12500000       0.12500000       0.04166667 </v>
   <v>       0.20833333       0.12500000       0.04166667 </v>
   <v>       0.29166667       0.12500000       0.04166667 </v>
   <v>       0.37500000       0.12500000       0.04166667 </v>
   <v>      -0.12500000       0.12500000       0.04166667 </v>
   <v>       0.20833333       0.20833333       0.04166667 </v>
   <v>       0.29166667       0.20833333       0.04166667 </v>
   <v>       0.37500000       0.20833333       0.04166667 </v>
   <v>      -0.20833333       0.20833333       0.04166667 </v>
   <v>      -0.12500000       0.20833333       0.04166667 </v>
   <v>       0.29166667       0.29166667       0.04166667 </v>
   <v>      -0.29166667       0.29166667       0.04166667 </v>
   <v>      -0.20833333       0.29166667       0.04166667 </v>
   <v>      -0.37500000       0.37500000       0.04166667 </v>
   <v>      -0.29166667       0.37500000       0.04166667 </v>
   <v>      -0.20833333       0.37500000       0.04166667 </v>
   <v>      -0.45833333       0.45833333       0.04166667 </v>
   <v>      -0.37500000       0.45833333       0.04166667 </v>
   <v>      -0.29166667       0.45833333       0.04166667 </v>
   <v>      -0.45833333      -0.45833333       0.04166667 </v>
   <v>      -0.37500000      -0.45833333       0.04166667 </v>
   <v>      -0.29166667      -0.45833333       0.04166667 </v>
   <v>      -0.37500000      -0.37500000       0.04166667 </v>
   <v>       0.12500000       0.12500000       0.12500000 </v>
   <v>       0.20833333       0.12500000       0.12500000 </v>
   <v>       0.29166667       0.12500000       0.12500000 </v>
   <v>       0.37500000       0.12500000       0.12500000 </v>
   <v>      -0.12500000       0.12500000       0.12500000 </v>
   <v>       0.20833333       0.20833333       0.12500000 </v>
   <v>       0.29166667       0.20833333       0.12500000 </v>
   <v>      -0.20833333       0.20833333       0.12500000 </v>
   <v>       0.29166667       0.29166667       0.12500000 </v>
   <v>      -0.29166667       0.29166667       0.12500000 </v>
   <v>      -0.20833333       0.29166667       0.12500000 </v>
   <v>      -0.37500000       0.37500000       0.12500000 </v>
   <v>      -0.29166667       0.37500000       0.12500000 </v>
   <v>      -0.45833333       0.45833333       0.12500000 </v>
   <v>      -0.37500000       0.45833333       0.12500000 </v>
   <v>      -0.29166667       0.45833333       0.12500000 </v>
   <v>      -0.45833333      -0.45833333       0.12500000 </v>
   <v>      -0.37500000      -0.45833333       0.12500000 </v>
   <v>      -0.37500000      -0.37500000       0.12500000 </v>
   <v>       0.20833333       0.20833333       0.20833333 </v>
   <v>       0.29166667       0.20833333       0.20833333 </v>
   <v>      -0.20833333       0.20833333       0.20833333 </v>
   <v>      -0.29166667       0.29166667       0.20833333 </v>
   <v>      -0.37500000       0.37500000       0.20833333 </v>
   <v>      -0.29166667       0.37500000       0.20833333 </v>
   <v>      -0.45833333       0.45833333       0.20833333 </v>
   <v>      -0.37500000       0.45833333       0.20833333 </v>
   <v>      -0.45833333      -0.45833333       0.20833333 </v>
   <v>      -0.37500000      -0.45833333       0.20833333 </v>
   <v>      -0.29166667       0.29166667       0.29166667 </v>
   <v>      -0.37500000       0.37500000       0.29166667 </v>
   <v>      -0.45833333       0.45833333       0.29166667 </v>
   <v>      -0.37500000       0.45833333       0.29166667 </v>
   <v>      -0.45833333      -0.45833333       0.29166667 </v>
   <v>      -0.37500000       0.37500000       0.37500000 </v>
   <v>      -0.45833333       0.45833333       0.37500000 </v>
   <v>      -0.45833333      -0.45833333       0.37500000 </v>
   <v>      -0.45833333       0.45833333       0.45833333 </v>
  </varray>
  <varray name="weights" >
   <v>       0.00462963 </v>
   <v>       0.01388889 </v>
   <v>       0.01388889 </v>
   <v>       0.01388889 </v>
   <v>       0.01388889 </v>
   <v>       0.00694444 </v>
   <v>       0.00347222 </v>
   <v>       0.01388889 </v>
   <v>       0.02777778 </v>
   <v>       0.02777778 </v>
   <v>       0.02777778 </v>
   <v>       0.01388889 </v>
   <v>       0.01388889 </v>
   <v>       0.02777778 </v>
   <v>       0.01388889 </v>
   <v>       0.01388889 </v>
   <v>       0.01388889 </v>
   <v>       0.01388889 </v>
   <v>       0.01388889 </v>
   <v>       0.02777778 </v>
   <v>       0.01388889 </v>
   <v>       0.02777778 </v>
   <v>       0.01388889 </v>
   <v>       0.01388889 </v>
   <v>       0.02777778 </v>
   <v>       0.02777778 </v>
   <v>       0.01388889 </v>
   <v>       0.02777778 </v>
   <v>       0.01388889 </v>
   <v>       0.01388889 </v>
   <v>       0.00462963 </v>
   <v>       0.01388889 </v>
   <v>       0.01388889 </v>
   <v>       0.00694444 </v>
   <v>       0.00347222 </v>
   <v>       0.01388889 </v>
   <v>       0.02777778 </v>
   <v>       0.01388889 </v>
   <v>       0.00462963 </v>
   <v>       0.01388889 </v>
   <v>       0.01388889 </v>
   <v>       0.01388889 </v>
   <v>       0.02777778 </v>
   <v>       0.01388889 </v>
   <v>       0.02777778 </v>
   <v>       0.01388889 </v>
   <v>       0.01388889 </v>
   <v>       0.02777778 </v>
   <v>       0.00462963 </v>
   <v>       0.00462963 </v>
   <v>       0.00694444 </v>
   <v>       0.00347222 </v>
   <v>       0.01388889 </v>
   <v>       0.01388889 </v>
   <v>       0.01388889 </v>
   <v>       0.01388889 </v>
   <v>       0.02777778 </v>
   <v>       0.01388889 </v>
   <v>       0.01388889 </v>
   <v>       0.00347222 </v>
   <v>       0.01388889 </v>
   <v>       0.01388889 </v>
   <v>       0.01388889 </v>
   <v>       0.01388889 </v>
   <v>       0.00347222 </v>
   <v>       0.01388889 </v>
   <v>       0.00462963 </v>
   <v>       0.00347222 </v>
  </varray>
 </kpoints>
 <parameters>
  <separator name="general" >
   <i type="string" name="SYSTEM">unknown system</i>
   <i type="logical" name="LCOMPAT"> F  </i>
  </separator>
  <separator name="electronic" >
   <i type="string" name="PREC">accura</i>
   <i name="ENMAX">    350.00000000</i>
   <i name="ENAUG">    332.07500000</i>
   <i name="EDIFF">      0.00010000</i>
   <i type="int" name="IALGO">    38</i>
   <i type="int" name="IWAVPR">    10</i>
   <i type="int" name="NBANDS">     6</i>
   <i name="NELECT">      5.00000000</i>
   <i type="int" name="TURBO">     0</i>
   <i type="int" name="IRESTART">     0</i>
   <i type="int" name="NREBOOT">     0</i>
   <i type="int" name="NMIN">     0</i>
   <i name="EREF">      0.00000000</i>
   <separator name="electronic smearing" >
    <i type="int" name="ISMEAR">     1</i>
    <i name="SIGMA">      0.05000000</i>
    <i name="KSPACING">      0.50000000</i>
    <i type="logical" name="KGAMMA"> T  </i>
   </separator>
   <separator name="electronic projectors" >
    <i type="logical" name="LREAL"> F  </i>
    <v name="ROPT">      0.00000000</v>
    <i type="int" name="LMAXPAW">  -100</i>
    <i type="int" name="LMAXMIX">     2</i>
    <i type="logical" name="NLSPLINE"> F  </i>
   </separator>
   <separator name="electronic startup" >
    <i type="int" name="ISTART">     0</i>
    <i type="int" name="ICHARG">     2</i>
    <i type="int" name="INIWAV">     1</i>
   </separator>
   <separator name="electronic spin" >
    <i type="int" name="ISPIN">     2</i>
    <i type="logical" name="LNONCOLLINEAR"> F  </i>
    <v name="MAGMOM">      6.00000000</v>
    <i name="NUPDOWN">     -1.00000000</i>
    <i type="logical" name="LSORBIT"> F  </i>
    <v name="SAXIS">      0.00000000      0.00000000      1.00000000</v>
    <i type="logical" name="LSPIRAL"> F  </i>
    <v name="QSPIRAL">      0.00000000      0.00000000      0.00000000</v>
    <i type="logical" name="LZEROZ"> F  </i>
   </separator>
   <separator name="electronic exchange-correlation" >
    <i type="logical" name="LASPH"> F  </i>
    <i type="logical" name="LMETAGGA"> F  </i>
   </separator>
   <separator name="electronic convergence" >
    <i type="int" name="NELM">    60</i>
    <i type="int" name="NELMDL">    -5</i>
    <i type="int" name="NELMIN">     2</i>
    <i name="ENINI">    350.00000000</i>
    <separator name="electronic convergence detail" >
     <i type="logical" name="LDIAG"> T  </i>
     <i type="logical" name="LSUBROT"> T  </i>
     <i name="WEIMIN">      0.00000000</i>
     <i name="EBREAK">      0.00000417</i>
     <i name="DEPER">      0.30000000</i>
     <i type="int" name="NRMM">     4</i>
     <i name="TIME">      0.40000000</i>
    </separator>
   </separator>
   <separator name="electronic mixer" >
    <i name="AMIX">      0.40000000</i>
    <i name="BMIX">      1.00000000</i>
    <i name="AMIN">      0.10000000</i>
    <i name="AMIX_MAG">      1.60000000</i>
    <i name="BMIX_MAG">      1.00000000</i>
    <separator name="electronic mixer details" >
     <i type="int" name="IMIX">     4</i>
     <i type="int" name="MAXMIX">   -45</i>
     <i name="WC">    100.00000000</i>
     <i type="int" name="INIMIX">     1</i>
     <i type="int" name="MIXPRE">     1</i>
     <i type="int" name="MREMOVE">     5</i>
    </separator>
   </separator>
   <separator name="electronic dipolcorrection" >
    <i type="logical" name="LDIPOL"> F  </i>
    <i type="logical" name="LMONO"> F  </i>
    <i type="int" name="IDIPOL">     0</i>
    <i name="EPSILON">      1.00000000</i>
    <v name="DIPOL">   -100.00000000   -100.00000000   -100.00000000</v>
    <i name="EFIELD">      0.00000000</i>
   </separator>
  </separator>
  <separator name="grids" >
   <i type="int" name="NGX">    18</i>
   <i type="int" name="NGY">    18</i>
   <i type="int" name="NGZ">    18</i>
   <i type="int" name="NGXF">    36</i>
   <i type="int" name="NGYF">    36</i>
   <i type="int" name="NGZF">    36</i>
   <i type="logical" name="ADDGRID"> F  </i>
  </separator>
  <separator name="ionic" >
   <i type="int" name="NSW">     0</i>
   <i type="int" name="IBRION">    -1</i>
   <i type="int" name="ISIF">     2</i>
   <i name="PSTRESS">      0.00000000</i>
   <i name="EDIFFG">      0.00100000</i>
   <i type="int" name="NFREE">     0</i>
   <i name="POTIM">      0.50000000</i>
   <i name="SMASS">     -3.00000000</i>
   <i name="SCALEE">      1.00000000</i>
  </separator>
  <separator name="ionic md" >
   <i name="TEBEG">      0.00010000</i>
   <i name="TEEND">      0.00010000</i>
   <i type="int" name="NBLOCK">     1</i>
   <i type="int" name="KBLOCK">     1</i>
   <i type="int" name="NPACO">   256</i>
   <i name="APACO">     16.00000000</i>
  </separator>
  <separator name="symmetry" >
   <i type="int" name="ISYM">     2</i>
   <i name="SYMPREC">      0.00001000</i>
  </separator>
  <separator name="dos" >
   <i type="logical" name="LORBIT"> F  </i>
   <v name="RWIGS">     -1.00000000</v>
   <i type="int" name="NEDOS">   301</i>
   <i name="EMIN">     10.00000000</i>
   <i name="EMAX">    -10.00000000</i>
   <i name="EFERMI">      0.00000000</i>
  </separator>
  <separator name="writing" >
   <i type="int" name="NWRITE">     2</i>
   <i type="logical" name="LWAVE"> T  </i>
   <i type="logical" name="LCHARG"> T  </i>
   <i type="logical" name="LPARD"> F  </i>
   <i type="logical" name="LVTOT"> F  </i>
   <i type="logical" name="LVHAR"> F  </i>
   <i type="logical" name="LELF"> F  </i>
   <i type="logical" name="LOPTICS"> F  </i>
   <v name="STM">      0.00000000      0.00000000      0.00000000      0.00000000      0.00000000      0.00000000      0.00000000</v>
  </separator>
  <separator name="performance" >
   <i type="int" name="NPAR">     1</i>
   <i type="int" name="NSIM">     4</i>
   <i type="int" name="NBLK">    -1</i>
   <i type="logical" name="LPLANE"> T  </i>
   <i type="logical" name="LSCALAPACK"> F  </i>
   <i type="logical" name="LSCAAWARE"> F  </i>
   <i type="logical" name="LSCALU"> F  </i>
   <i type="logical" name="LASYNC"> F  </i>
   <i type="logical" name="LORBITALREAL"> F  </i>
  </separator>
  <separator name="miscellaneous" >
   <i type="int" name="IDIOT">     3</i>
   <i type="logical" name="LMUSIC"> F  </i>
   <v name="POMASS">    180.94800000</v>
   <v name="DARWINR">      0.00000000</v>
   <v name="DARWINV">      1.00000000</v>
   <i type="logical" name="LCORR"> T  </i>
  </separator>
  <i type="logical" name="GGA_COMPAT"> T  </i>
  <i type="logical" name="LBERRY"> F  </i>
  <i type="int" name="ICORELEVEL">     0</i>
  <i type="logical" name="LDAU"> F  </i>
  <i type="int" name="I_CONSTRAINED_M">     0</i>
  <separator name="electronic exchange-correlation" >
   <i type="string" name="GGA">--</i>
   <i type="int" name="VOSKOWN">     0</i>
   <i type="logical" name="LHFCALC"> F  </i>
   <i type="string" name="PRECFOCK"></i>
   <i type="logical" name="LHFONE"> F  </i>
   <i type="logical" name="LRHFCALC"> F  </i>
   <i type="logical" name="LTHOMAS"> F  </i>
   <i type="logical" name="LMODELHF"> F  </i>
   <i name="ENCUT4O">     -1.00000000</i>
   <i type="int" name="EXXOEP">     0</i>
   <i type="int" name="FOURORBIT">     0</i>
   <i name="AEXX">      0.00000000</i>
   <i name="HFALPHA">      0.00000000</i>
   <i name="ALDAX">      1.00000000</i>
   <i name="AGGAX">      1.00000000</i>
   <i name="ALDAC">      1.00000000</i>
   <i name="AGGAC">      1.00000000</i>
   <i type="int" name="NKREDX">     1</i>
   <i type="int" name="NKREDY">     1</i>
   <i type="int" name="NKREDZ">     1</i>
   <i type="logical" name="SHIFTRED"> F  </i>
   <i type="logical" name="ODDONLY"> F  </i>
   <i type="logical" name="EVENONLY"> F  </i>
   <i type="int" name="LMAXFOCK">     0</i>
   <i type="int" name="NMAXFOCKAE">     0</i>
   <i type="logical" name="LFOCKAEDFT"> F  </i>
   <i name="HFSCREEN">      0.00000000</i>
   <i name="HFSCREENC">      0.00000000</i>
  </separator>
  <separator name="vdW DFT" >
   <i type="logical" name="LUSE_VDW"> F  </i>
   <i name="Zab_VDW">     -0.84910000</i>
   <i name="PARAM1">      0.12340000</i>
   <i name="PARAM2">      1.00000000</i>
   <i name="PARAM3">      0.00000000</i>
  </separator>
  <separator name="model GW" >
   <i type="int" name="MODEL_GW">     0</i>
   <i name="MODEL_EPS0">     10.87940730</i>
   <i name="MODEL_ALPHA">      1.00000000</i>
  </separator>
  <separator name="linear response parameters" >
   <i type="logical" name="LEPSILON"> F  </i>
   <i type="logical" name="LRPA"> F  </i>
   <i type="logical" name="LNABLA"> F  </i>
   <i type="logical" name="LVEL"> F  </i>
   <i type="int" name="KINTER">     0</i>
   <i name="CSHIFT">      0.10000000</i>
   <i name="OMEGAMAX">     -1.00000000</i>
  </separator>
  <separator name="orbital magnetization" >
   <i type="logical" name="NUCIND"> F  </i>
   <v name="MAGPOS">      0.00000000      0.00000000      0.00000000</v>
   <i type="logical" name="LNICSALL"> T  </i>
   <i type="logical" name="ORBITALMAG"> F  </i>
   <i type="logical" name="LMAGBLOCH"> F  </i>
   <i type="logical" name="LCHIMAG"> F  </i>
   <i type="logical" name="LGAUGE"> T  </i>
   <i type="int" name="MAGATOM">     0</i>
   <v name="MAGDIPOL">      0.00000000      0.00000000      0.00000000</v>
   <v name="AVECCONST">      0.00000000      0.00000000      0.00000000</v>
  </separator>
  <separator name="response functions" >
   <i type="logical" name="LADDER"> F  </i>
   <i type="logical" name="LHARTREE"> T  </i>
   <i type="int" name="IBSE">     0</i>
   <i type="logical" name="LTCTE"> F  </i>
   <i type="logical" name="LTETE"> F  </i>
   <i type="logical" name="LFXCEPS"> F  </i>
   <i type="logical" name="L2ORDER"> F  </i>
   <i type="logical" name="LUSEW"> F  </i>
   <i name="ENCUTGW">     -2.00000000</i>
   <i name="ENCUTGWSOFT">     -2.00000000</i>
   <i name="ENCUTLF">     -1.00000000</i>
   <i type="int" name="LMAXMP2">    -1</i>
   <i name="SCISSOR">      0.00000000</i>
   <i type="int" name="NOMEGA">     0</i>
   <i type="int" name="NOMEGAR">     0</i>
   <i type="int" name="NBANDSGW">    -1</i>
   <i type="int" name="NBANDSO">    -1</i>
   <i type="int" name="NBANDSV">    -1</i>
   <i name="OPTEMAX">      0.00000000</i>
   <i type="int" name="NELM">     1</i>
   <i type="int" name="DIM">     3</i>
   <i type="int" name="ANTIRES">     0</i>
   <i name="OMEGAMAX">    -30.00000000</i>
   <i name="OMEGATL">   -200.00000000</i>
   <i type="int" name="OMEGAGRID">     0</i>
   <i name="CSHIFT">     -0.10000000</i>
   <i type="logical" name="SELFENERGY"> F  </i>
   <i type="logical" name="LSPECTRAL"> F  </i>
   <i type="logical" name="ODDONLYGW"> F  </i>
   <i type="logical" name="EVENONLYGW"> F  </i>
   <i type="int" name="NKREDLFX">     1</i>
   <i type="int" name="NKREDLFY">     1</i>
   <i type="int" name="NKREDLFZ">     1</i>
   <i type="int" name="MAXMEM">  1800</i>
   <i type="int" name="TELESCOPE">     0</i>
  </separator>
 </parameters>
 <atominfo>
  <atoms>       1 </atoms>
  <types>       1 </types>
  <array name="atoms" >
   <dimension dim="1">ion</dimension>
   <field type="string">element</field>
   <field type="int">atomtype</field>
   <set>
    <rc><c>Ta</c><c>   1</c></rc>
   </set>
  </array>
  <array name="atomtypes" >
   <dimension dim="1">type</dimension>
   <field type="int">atomspertype</field>
   <field type="string">element</field>
   <field>mass</field>
   <field>valence</field>
   <field type="string">pseudopotential</field>
   <set>
    <rc><c>   1</c><c>Ta</c><c>    180.94800000</c><c>      5.00000000</c><c>  PAW_PBE Ta 17Jan2003                  </c></rc>
   </set>
  </array>
 </atominfo>
 <structure name="initialpos" >
  <crystal>
   <varray name="basis" >
    <v>       2.86654409       0.00000000       0.00000000 </v>
    <v>      -0.95551470       2.70260368       0.00000000 </v>
    <v>      -0.95551470      -1.35130184       2.34052345 </v>
   </varray>
   <i name="volume">     18.13234550 </i>
   <varray name="rec_basis" >
    <v>       0.34885213       0.12333785       0.21362743 </v>
    <v>       0.00000000       0.37001356       0.21362743 </v>
    <v>       0.00000000       0.00000000       0.42725485 </v>
   </varray>
  </crystal>
  <varray name="positions" >
   <v>       0.00000000       0.00000000       0.00000000 </v>
  </varray>
 </structure>
 <calculation>
  <scstep>
   <time name="dav">    1.56    1.56</time>
   <time name="total">    1.74    1.74</time>
   <energy>
    <i name="alphaZ">     30.58334069 </i>
    <i name="ewald">   -197.90100875 </i>
    <i name="hartreedc">     -2.50452612 </i>
    <i name="XCdc">    -60.69825643 </i>
    <i name="pawpsdc">    143.51874798 </i>
    <i name="pawaedc">    -69.33493833 </i>
    <i name="eentropy">     -0.00011637 </i>
    <i name="bandstr">     36.75180653 </i>
    <i name="atom">    130.64621481 </i>
    <i name="e_fr_energy">     11.06126400 </i>
    <i name="e_wo_entrp">     11.06138037 </i>
    <i name="e_0_energy">     11.06130279 </i>
   </energy>
  </scstep>
  <scstep>
   <time name="dav">    2.44    2.44</time>
   <time name="total">    2.45    2.45</time>
   <energy>
    <i name="e_fr_energy">     -1.21942765 </i>
    <i name="e_wo_entrp">     -1.21928759 </i>
    <i name="e_0_energy">     -1.21938096 </i>
   </energy>
  </scstep>
  <scstep>
   <time name="dav">    1.58    1.58</time>
   <time name="total">    1.59    1.60</time>
   <energy>
    <i name="e_fr_energy">     -1.30552929 </i>
    <i name="e_wo_entrp">     -1.30558993 </i>
    <i name="e_0_energy">     -1.30554950 </i>
   </energy>
  </scstep>
  <scstep>
   <time name="dav">    1.93    1.93</time>
   <time name="total">    1.94    1.95</time>
   <energy>
    <i name="e_fr_energy">     -1.30596433 </i>
    <i name="e_wo_entrp">     -1.30602402 </i>
    <i name="e_0_energy">     -1.30598423 </i>
   </energy>
  </scstep>
  <scstep>
   <time name="dav">    1.40    1.40</time>
   <time name="total">    1.58    1.59</time>
   <energy>
    <i name="e_fr_energy">     -1.30596575 </i>
    <i name="e_wo_entrp">     -1.30602544 </i>
    <i name="e_0_energy">     -1.30598565 </i>
   </energy>
  </scstep>
  <scstep>
   <time name="dav">    1.58    1.58</time>
   <time name="total">    1.90    1.93</time>
   <energy>
    <i name="e_fr_energy">    -11.63065964 </i>
    <i name="e_wo_entrp">    -11.63058561 </i>
    <i name="e_0_energy">    -11.63063496 </i>
   </energy>
  </scstep>
  <scstep>
   <time name="dav">    1.77    1.77</time>
   <time name="total">    2.10    2.11</time>
   <energy>
    <i name="e_fr_energy">    -11.65055293 </i>
    <i name="e_wo_entrp">    -11.65039402 </i>
    <i name="e_0_energy">    -11.65049996 </i>
   </energy>
  </scstep>
  <scstep>
   <time name="dav">    1.61    1.61</time>
   <time name="total">    1.93    1.94</time>
   <energy>
    <i name="e_fr_energy">    -11.41940710 </i>
    <i name="e_wo_entrp">    -11.41950521 </i>
    <i name="e_0_energy">    -11.41943980 </i>
   </energy>
  </scstep>
  <scstep>
   <time name="dav">    1.67    1.67</time>
   <time name="total">    2.00    2.22</time>
   <energy>
    <i name="e_fr_energy">    -11.82348792 </i>
    <i name="e_wo_entrp">    -11.82319769 </i>
    <i name="e_0_energy">    -11.82339118 </i>
   </energy>
  </scstep>
  <scstep>
   <time name="dav">    1.58    1.58</time>
   <time name="total">    1.90    1.92</time>
   <energy>
    <i name="e_fr_energy">    -11.86454909 </i>
    <i name="e_wo_entrp">    -11.86465546 </i>
    <i name="e_0_energy">    -11.86458455 </i>
   </energy>
  </scstep>
  <scstep>
   <time name="dav">    1.65    1.65</time>
   <time name="total">    1.97    1.98</time>
   <energy>
    <i name="e_fr_energy">    -11.86240931 </i>
    <i name="e_wo_entrp">    -11.86233987 </i>
    <i name="e_0_energy">    -11.86238616 </i>
   </energy>
  </scstep>
  <scstep>
   <time name="dav">    1.57    1.57</time>
   <time name="total">    1.89    1.91</time>
   <energy>
    <i name="e_fr_energy">    -11.86688095 </i>
    <i name="e_wo_entrp">    -11.86678705 </i>
    <i name="e_0_energy">    -11.86684965 </i>
   </energy>
  </scstep>
  <scstep>
   <time name="dav">    1.64    1.64</time>
   <time name="total">    1.96    1.98</time>
   <energy>
    <i name="e_fr_energy">    -11.86644937 </i>
    <i name="e_wo_entrp">    -11.86638754 </i>
    <i name="e_0_energy">    -11.86642876 </i>
   </energy>
  </scstep>
  <scstep>
   <time name="dav">    0.99    0.99</time>
   <time name="total">    1.17    1.19</time>
   <energy>
    <i name="alphaZ">     30.58334069 </i>
    <i name="ewald">   -197.90100875 </i>
    <i name="hartreedc">     -0.57517789 </i>
    <i name="XCdc">    -65.99302360 </i>
    <i name="pawpsdc">    194.50648793 </i>
    <i name="pawaedc">   -121.10293334 </i>
    <i name="eentropy">     -0.00007017 </i>
    <i name="bandstr">     17.96967040 </i>
    <i name="atom">    130.64621481 </i>
    <i name="e_fr_energy">    -11.86649992 </i>
    <i name="e_wo_entrp">    -11.86642975 </i>
    <i name="e_0_energy">    -11.86647653 </i>
   </energy>
  </scstep>
  <parameters_embedded>
   <separator name="dft+d2" >
    <i type="logical" name="LVDW"> F  </i>
   </separator>
  </parameters_embedded>
  <structure>
   <crystal>
    <varray name="basis" >
     <v>       2.86654409       0.00000000       0.00000000 </v>
     <v>      -0.95551470       2.70260368       0.00000000 </v>
     <v>      -0.95551470      -1.35130184       2.34052345 </v>
    </varray>
    <i name="volume">     18.13234550 </i>
    <varray name="rec_basis" >
     <v>       0.34885213       0.12333785       0.21362743 </v>
     <v>       0.00000000       0.37001356       0.21362743 </v>
     <v>       0.00000000       0.00000000       0.42725485 </v>
    </varray>
   </crystal>
   <varray name="positions" >
    <v>       0.00000000       0.00000000       0.00000000 </v>
   </varray>
  </structure>
  <varray name="forces" >
   <v>       0.00000000       0.00000000       0.00000000 </v>
  </varray>
  <varray name="stress" >
   <v>      -1.80577761       0.00000000       0.00000000 </v>
   <v>       0.00000000      -1.80577761       0.00000000 </v>
   <v>       0.00000000       0.00000000      -1.80577761 </v>
  </varray>
  <energy>
   <i name="e_fr_energy">    -11.86649992 </i>
   <i name="e_wo_entrp">    -11.86647653 </i>
   <i name="e_0_energy">     -0.00007017 </i>
  </energy>
  <time name="totalsc">   27.55   28.02</time>
  <eigenvalues>
   <array>
    <dimension dim="1">band</dimension>
    <dimension dim="2">kpoint</dimension>
    <dimension dim="3">spin</dimension>
    <field>eigene</field>
    <field>occ</field>
    <set>
     <set comment="spin 1">
      <set comment="kpoint 1">
       <r>   -1.7271    1.0000 </r>
       <r>    6.1960    0.0000 </r>
       <r>    6.1960    0.0000 </r>
       <r>    6.9679    0.0000 </r>
       <r>    9.4912    0.0000 </r>
       <r>    9.4912    0.0000 </r>
      </set>
      <set comment="kpoint 2">
       <r>   -0.9071    1.0000 </r>
       <r>    5.6805    0.9169 </r>
       <r>    5.8543   -0.0002 </r>
       <r>    7.9184    0.0000 </r>
       <r>    9.1197    0.0000 </r>
       <r>    9.6513    0.0000 </r>
      </set>
      <set comment="kpoint 3">
       <r>    0.2186    1.0000 </r>
       <r>    5.0965    1.0000 </r>
       <r>    5.4308    1.0000 </r>
       <r>    9.1190    0.0000 </r>
       <r>    9.3837    0.0000 </r>
       <r>    9.8685    0.0000 </r>
      </set>
      <set comment="kpoint 4">
       <r>    1.1585    1.0000 </r>
       <r>    4.5992    1.0000 </r>
       <r>    5.5097    1.0000 </r>
       <r>    9.4646    0.0000 </r>
       <r>   10.1536    0.0000 </r>
       <r>   11.1110    0.0000 </r>
      </set>
      <set comment="kpoint 5">
       <r>    1.4938    1.0000 </r>
       <r>    4.2729    1.0000 </r>
       <r>    6.4048    0.0000 </r>
       <r>    9.6675    0.0000 </r>
       <r>   10.4471    0.0000 </r>
       <r>   12.8429    0.0000 </r>
      </set>
      <set comment="kpoint 6">
       <r>    1.5244    1.0000 </r>
       <r>    4.1600    1.0000 </r>
       <r>    7.0721    0.0000 </r>
       <r>    9.6230    0.0000 </r>
       <r>   10.5826    0.0000 </r>
       <r>   13.6900    0.0000 </r>
      </set>
      <set comment="kpoint 7">
       <r>   -2.0205    1.0000 </r>
       <r>    6.4143    0.0000 </r>
       <r>    6.4143    0.0000 </r>
       <r>    6.5108    0.0000 </r>
       <r>    9.4215    0.0000 </r>
       <r>    9.7698    0.0000 </r>
      </set>
      <set comment="kpoint 8">
       <r>    0.0663    1.0000 </r>
       <r>    5.2414    1.0000 </r>
       <r>    5.2511    1.0000 </r>
       <r>    9.0850    0.0000 </r>
       <r>    9.2698    0.0000 </r>
       <r>    9.8856    0.0000 </r>
      </set>
      <set comment="kpoint 9">
       <r>    1.2000    1.0000 </r>
       <r>    4.7115    1.0000 </r>
       <r>    4.9704    1.0000 </r>
       <r>    9.2300    0.0000 </r>
       <r>   10.2166    0.0000 </r>
       <r>   10.9867    0.0000 </r>
      </set>
      <set comment="kpoint 10">
       <r>    1.9034    1.0000 </r>
       <r>    4.3588    1.0000 </r>
       <r>    5.3817    1.0000 </r>
       <r>    9.5541    0.0000 </r>
       <r>   10.4488    0.0000 </r>
       <r>   12.8208    0.0000 </r>
      </set>
      <set comment="kpoint 11">
       <r>    2.0321    1.0000 </r>
       <r>    4.1827    1.0000 </r>
       <r>    6.2683    0.0000 </r>
       <r>    9.6877    0.0000 </r>
       <r>   10.6423    0.0000 </r>
       <r>   14.2212    0.0000 </r>
      </set>
      <set comment="kpoint 12">
       <r>   -1.4404    1.0000 </r>
       <r>    6.0805    0.0000 </r>
       <r>    6.2732    0.0000 </r>
       <r>    7.0778    0.0000 </r>
       <r>    8.8583    0.0000 </r>
       <r>    9.8929    0.0000 </r>
      </set>
      <set comment="kpoint 13">
       <r>    2.2324    1.0000 </r>
       <r>    4.3818    1.0000 </r>
       <r>    4.8250    1.0000 </r>
       <r>    9.4103    0.0000 </r>
       <r>   10.4818    0.0000 </r>
       <r>   12.8818    0.0000 </r>
      </set>
      <set comment="kpoint 14">
       <r>    2.7238    1.0000 </r>
       <r>    4.2675    1.0000 </r>
       <r>    5.2421    1.0000 </r>
       <r>    9.7246    0.0000 </r>
       <r>   10.5482    0.0000 </r>
       <r>   14.7027    0.0000 </r>
      </set>
      <set comment="kpoint 15">
       <r>    2.7737    1.0000 </r>
       <r>    4.2484    1.0000 </r>
       <r>    5.6382    1.0303 </r>
       <r>    9.8233    0.0000 </r>
       <r>   10.6642    0.0000 </r>
       <r>   14.9833    0.0000 </r>
      </set>
      <set comment="kpoint 16">
       <r>   -0.4210    1.0000 </r>
       <r>    5.5240    1.0000 </r>
       <r>    5.8406   -0.0007 </r>
       <r>    8.2259    0.0000 </r>
       <r>    8.6566    0.0000 </r>
       <r>   10.0240    0.0000 </r>
      </set>
      <set comment="kpoint 17">
       <r>   -0.6390    1.0000 </r>
       <r>    5.8478   -0.0003 </r>
       <r>    5.9074    0.0000 </r>
       <r>    7.8637    0.0000 </r>
       <r>    8.2846    0.0000 </r>
       <r>   10.1939    0.0000 </r>
      </set>
      <set comment="kpoint 18">
       <r>    3.1928    1.0000 </r>
       <r>    4.4828    1.0000 </r>
       <r>    5.0343    1.0000 </r>
       <r>   10.0981    0.0000 </r>
       <r>   10.4711    0.0000 </r>
       <r>   14.3992    0.0000 </r>
      </set>
      <set comment="kpoint 19">
       <r>    0.6784    1.0000 </r>
       <r>    4.9608    1.0000 </r>
       <r>    5.5152    1.0000 </r>
       <r>    8.9571    0.0000 </r>
       <r>    9.8290    0.0000 </r>
       <r>   10.2108    0.0000 </r>
      </set>
      <set comment="kpoint 20">
       <r>    0.4668    1.0000 </r>
       <r>    5.2763    1.0000 </r>
       <r>    5.4800    1.0000 </r>
       <r>    8.2897    0.0000 </r>
       <r>    9.2571    0.0000 </r>
       <r>   10.4280    0.0000 </r>
      </set>
      <set comment="kpoint 21">
       <r>    1.3076    1.0000 </r>
       <r>    4.5249    1.0000 </r>
       <r>    5.9618    0.0000 </r>
       <r>    9.3722    0.0000 </r>
       <r>   10.4316    0.0000 </r>
       <r>   11.6670    0.0000 </r>
      </set>
      <set comment="kpoint 22">
       <r>    1.4125    1.0000 </r>
       <r>    4.8035    1.0000 </r>
       <r>    5.3591    1.0000 </r>
       <r>    8.7494    0.0000 </r>
       <r>   10.5116    0.0000 </r>
       <r>   11.0780    0.0000 </r>
      </set>
      <set comment="kpoint 23">
       <r>    1.5278    1.0000 </r>
       <r>    4.7057    1.0000 </r>
       <r>    5.3263    1.0000 </r>
       <r>    8.3758    0.0000 </r>
       <r>   10.4562    0.0000 </r>
       <r>   11.0368    0.0000 </r>
      </set>
      <set comment="kpoint 24">
       <r>    1.4328    1.0000 </r>
       <r>    4.2909    1.0000 </r>
       <r>    6.8577    0.0000 </r>
       <r>    9.4079    0.0000 </r>
       <r>   10.7316    0.0000 </r>
       <r>   13.1591    0.0000 </r>
      </set>
      <set comment="kpoint 25">
       <r>    1.7576    1.0000 </r>
       <r>    4.5286    1.0000 </r>
       <r>    5.9161    0.0000 </r>
       <r>    9.0821    0.0000 </r>
       <r>   10.7900    0.0000 </r>
       <r>   12.8501    0.0000 </r>
      </set>
      <set comment="kpoint 26">
       <r>    2.2854    1.0000 </r>
       <r>    4.4242    1.0000 </r>
       <r>    5.3357    1.0000 </r>
       <r>    8.8207    0.0000 </r>
       <r>   10.4984    0.0000 </r>
       <r>   12.9245    0.0000 </r>
      </set>
      <set comment="kpoint 27">
       <r>    1.7854    1.0000 </r>
       <r>    4.4312    1.0000 </r>
       <r>    6.3783    0.0000 </r>
       <r>    9.0077    0.0000 </r>
       <r>   11.1450    0.0000 </r>
       <r>   13.7435    0.0000 </r>
      </set>
      <set comment="kpoint 28">
       <r>    2.4634    1.0000 </r>
       <r>    4.4818    1.0000 </r>
       <r>    5.5191    1.0000 </r>
       <r>    9.0230    0.0000 </r>
       <r>   10.8650    0.0000 </r>
       <r>   14.5907    0.0000 </r>
      </set>
      <set comment="kpoint 29">
       <r>    3.0113    1.0000 </r>
       <r>    4.2058    1.0000 </r>
       <r>    5.1785    1.0000 </r>
       <r>    9.3123    0.0000 </r>
       <r>   10.3919    0.0000 </r>
       <r>   15.0030    0.0000 </r>
      </set>
      <set comment="kpoint 30">
       <r>    3.2287    1.0000 </r>
       <r>    4.4002    1.0000 </r>
       <r>    4.8666    1.0000 </r>
       <r>    9.6241    0.0000 </r>
       <r>   10.5145    0.0000 </r>
       <r>   14.9098    0.0000 </r>
      </set>
      <set comment="kpoint 31">
       <r>    1.1492    1.0000 </r>
       <r>    4.7142    1.0000 </r>
       <r>    4.7142    1.0000 </r>
       <r>    9.7663    0.0000 </r>
       <r>    9.7663    0.0000 </r>
       <r>   11.0286    0.0000 </r>
      </set>
      <set comment="kpoint 32">
       <r>    2.2566    1.0000 </r>
       <r>    4.3440    1.0000 </r>
       <r>    4.5694    1.0000 </r>
       <r>    9.8922    0.0000 </r>
       <r>   10.2501    0.0000 </r>
       <r>   12.9427    0.0000 </r>
      </set>
      <set comment="kpoint 33">
       <r>    2.6626    1.0000 </r>
       <r>    4.1326    1.0000 </r>
       <r>    5.3380    1.0000 </r>
       <r>   10.0585    0.0000 </r>
       <r>   10.5488    0.0000 </r>
       <r>   14.6159    0.0000 </r>
      </set>
      <set comment="kpoint 34">
       <r>    2.6706    1.0000 </r>
       <r>    4.0647    1.0000 </r>
       <r>    5.9748    0.0000 </r>
       <r>   10.0885    0.0000 </r>
       <r>   10.6551    0.0000 </r>
       <r>   15.0502    0.0000 </r>
      </set>
      <set comment="kpoint 35">
       <r>   -0.8796    1.0000 </r>
       <r>    6.3411    0.0000 </r>
       <r>    6.3411    0.0000 </r>
       <r>    7.0843    0.0000 </r>
       <r>    7.7891    0.0000 </r>
       <r>   10.3695    0.0000 </r>
      </set>
      <set comment="kpoint 36">
       <r>    3.2330    1.0000 </r>
       <r>    4.2435    1.0000 </r>
       <r>    4.4810    1.0000 </r>
       <r>   10.1846    0.0000 </r>
       <r>   10.5094    0.0000 </r>
       <r>   14.8491    0.0000 </r>
      </set>
      <set comment="kpoint 37">
       <r>    3.4049    1.0000 </r>
       <r>    4.2086    1.0000 </r>
       <r>    5.1703    1.0000 </r>
       <r>   10.3480    0.0000 </r>
       <r>   10.6490    0.0000 </r>
       <r>   14.2360    0.0000 </r>
      </set>
      <set comment="kpoint 38">
       <r>    0.1068    1.0000 </r>
       <r>    5.9584    0.0000 </r>
       <r>    6.0149    0.0000 </r>
       <r>    7.3537    0.0000 </r>
       <r>    8.0484    0.0000 </r>
       <r>   10.6404    0.0000 </r>
      </set>
      <set comment="kpoint 39">
       <r>    3.6013    1.0000 </r>
       <r>    4.7516    1.0000 </r>
       <r>    4.7516    1.0000 </r>
       <r>   10.5828    0.0000 </r>
       <r>   10.5828    0.0000 </r>
       <r>   13.4063    0.0000 </r>
      </set>
      <set comment="kpoint 40">
       <r>    1.1907    1.0000 </r>
       <r>    5.2538    1.0000 </r>
       <r>    5.5170    1.0000 </r>
       <r>    7.8735    0.0000 </r>
       <r>    9.6342    0.0000 </r>
       <r>   10.7282    0.0000 </r>
      </set>
      <set comment="kpoint 41">
       <r>    1.1372    1.0000 </r>
       <r>    5.2434    1.0000 </r>
       <r>    6.0232    0.0000 </r>
       <r>    7.2919    0.0000 </r>
       <r>    9.1066    0.0000 </r>
       <r>   10.7962    0.0000 </r>
      </set>
      <set comment="kpoint 42">
       <r>    1.8367    1.0000 </r>
       <r>    5.1136    1.0000 </r>
       <r>    5.2149    1.0000 </r>
       <r>    8.4242    0.0000 </r>
       <r>   10.9466    0.0000 </r>
       <r>   11.4885    0.0000 </r>
      </set>
      <set comment="kpoint 43">
       <r>    2.0736    1.0000 </r>
       <r>    4.5956    1.0000 </r>
       <r>    5.7700   -0.0353 </r>
       <r>    7.8840    0.0000 </r>
       <r>   10.3482    0.0000 </r>
       <r>   11.2439    0.0000 </r>
      </set>
      <set comment="kpoint 44">
       <r>    1.9473    1.0000 </r>
       <r>    4.8942    1.0000 </r>
       <r>    5.7045    0.5951 </r>
       <r>    8.3337    0.0000 </r>
       <r>   11.7654    0.0000 </r>
       <r>   13.0174    0.0000 </r>
      </set>
      <set comment="kpoint 45">
       <r>    2.4412    1.0000 </r>
       <r>    4.6578    1.0000 </r>
       <r>    5.4601    1.0000 </r>
       <r>    8.1803    0.0000 </r>
       <r>   11.0826    0.0000 </r>
       <r>   12.9953    0.0000 </r>
      </set>
      <set comment="kpoint 46">
       <r>    2.8932    1.0000 </r>
       <r>    4.0250    1.0000 </r>
       <r>    5.6415    1.0328 </r>
       <r>    8.4447    0.0000 </r>
       <r>   10.3079    0.0000 </r>
       <r>   13.1379    0.0000 </r>
      </set>
      <set comment="kpoint 47">
       <r>    2.4486    1.0000 </r>
       <r>    5.0889    1.0000 </r>
       <r>    5.1216    1.0000 </r>
       <r>    8.0783    0.0000 </r>
       <r>   11.8436    0.0000 </r>
       <r>   14.0696    0.0000 </r>
      </set>
      <set comment="kpoint 48">
       <r>    3.1991    1.0000 </r>
       <r>    4.2093    1.0000 </r>
       <r>    5.0243    1.0000 </r>
       <r>    8.9117    0.0000 </r>
       <r>   10.8387    0.0000 </r>
       <r>   15.1246    0.0000 </r>
      </set>
      <set comment="kpoint 49">
       <r>    4.0184    1.0000 </r>
       <r>    4.0184    1.0000 </r>
       <r>    4.2193    1.0000 </r>
       <r>   10.1283    0.0000 </r>
       <r>   10.1283    0.0000 </r>
       <r>   15.0964    0.0000 </r>
      </set>
      <set comment="kpoint 50">
       <r>    4.2154    1.0000 </r>
       <r>    4.2154    1.0000 </r>
       <r>    4.3663    1.0000 </r>
       <r>   10.6063    0.0000 </r>
       <r>   10.6063    0.0000 </r>
       <r>   13.9908    0.0000 </r>
      </set>
      <set comment="kpoint 51">
       <r>    4.1807    1.0000 </r>
       <r>    4.2175    1.0000 </r>
       <r>    4.8662    1.0000 </r>
       <r>   10.6525    0.0000 </r>
       <r>   10.7285    0.0000 </r>
       <r>   13.0792    0.0000 </r>
      </set>
      <set comment="kpoint 52">
       <r>    1.0155    1.0000 </r>
       <r>    5.7388    0.0919 </r>
       <r>    6.5931    0.0000 </r>
       <r>    6.5931    0.0000 </r>
       <r>    8.1766    0.0000 </r>
       <r>   10.8443    0.0000 </r>
      </set>
      <set comment="kpoint 53">
       <r>    2.0010    1.0000 </r>
       <r>    4.7210    1.0000 </r>
       <r>    6.5187    0.0000 </r>
       <r>    7.2097    0.0000 </r>
       <r>    9.4096    0.0000 </r>
       <r>   10.7314    0.0000 </r>
      </set>
      <set comment="kpoint 54">
       <r>    2.6127    1.0000 </r>
       <r>    4.2243    1.0000 </r>
       <r>    6.2387    0.0000 </r>
       <r>    7.6599    0.0000 </r>
       <r>   11.1869    0.0000 </r>
       <r>   11.2128    0.0000 </r>
      </set>
      <set comment="kpoint 55">
       <r>    2.7544    1.0000 </r>
       <r>    3.9594    1.0000 </r>
       <r>    6.6388    0.0000 </r>
       <r>    7.7652    0.0000 </r>
       <r>   10.1581    0.0000 </r>
       <r>   11.2258    0.0000 </r>
      </set>
      <set comment="kpoint 56">
       <r>    2.6456    1.0000 </r>
       <r>    4.3849    1.0000 </r>
       <r>    6.0630    0.0000 </r>
       <r>    7.4512    0.0000 </r>
       <r>   12.7192    0.0000 </r>
       <r>   12.7812    0.0000 </r>
      </set>
      <set comment="kpoint 57">
       <r>    3.0413    1.0000 </r>
       <r>    3.6912    1.0000 </r>
       <r>    6.2364    0.0000 </r>
       <r>    8.2726    0.0000 </r>
       <r>   11.0234    0.0000 </r>
       <r>   13.1412    0.0000 </r>
      </set>
      <set comment="kpoint 58">
       <r>    2.9461    1.0000 </r>
       <r>    3.8474    1.0000 </r>
       <r>    5.9837    0.0000 </r>
       <r>    8.3054    0.0000 </r>
       <r>   11.9703    0.0000 </r>
       <r>   14.6758    0.0000 </r>
      </set>
      <set comment="kpoint 59">
       <r>    3.3072    1.0000 </r>
       <r>    3.4141    1.0000 </r>
       <r>    5.7085    0.5274 </r>
       <r>    9.6739    0.0000 </r>
       <r>   10.8537    0.0000 </r>
       <r>   15.3021    0.0000 </r>
      </set>
      <set comment="kpoint 60">
       <r>    2.6897    1.0000 </r>
       <r>    3.9525    1.0000 </r>
       <r>    7.5050    0.0000 </r>
       <r>    7.5050    0.0000 </r>
       <r>    9.6516    0.0000 </r>
       <r>   10.4863    0.0000 </r>
      </set>
      <set comment="kpoint 61">
       <r>    2.9740    1.0000 </r>
       <r>    3.3275    1.0000 </r>
       <r>    7.7589    0.0000 </r>
       <r>    7.9813    0.0000 </r>
       <r>   10.9932    0.0000 </r>
       <r>   11.1463    0.0000 </r>
      </set>
      <set comment="kpoint 62">
       <r>    2.7849    1.0000 </r>
       <r>    3.2639    1.0000 </r>
       <r>    7.7162    0.0000 </r>
       <r>    7.9118    0.0000 </r>
       <r>   12.5227    0.0000 </r>
       <r>   13.1954    0.0000 </r>
      </set>
      <set comment="kpoint 63">
       <r>    2.8443    1.0000 </r>
       <r>    2.9259    1.0000 </r>
       <r>    7.6446    0.0000 </r>
       <r>    9.3303    0.0000 </r>
       <r>   11.2335    0.0000 </r>
       <r>   13.1044    0.0000 </r>
      </set>
      <set comment="kpoint 64">
       <r>    2.6857    1.0000 </r>
       <r>    2.8667    1.0000 </r>
       <r>    7.5185    0.0000 </r>
       <r>    9.8286    0.0000 </r>
       <r>   11.8188    0.0000 </r>
       <r>   15.1128    0.0000 </r>
      </set>
      <set comment="kpoint 65">
       <r>    2.6839    1.0000 </r>
       <r>    2.7475    1.0000 </r>
       <r>    9.2043    0.0000 </r>
       <r>    9.2043    0.0000 </r>
       <r>   11.2145    0.0000 </r>
       <r>   11.4837    0.0000 </r>
      </set>
      <set comment="kpoint 66">
       <r>    2.3633    1.0000 </r>
       <r>    2.4786    1.0000 </r>
       <r>    9.6958    0.0000 </r>
       <r>    9.7096    0.0000 </r>
       <r>   12.3176    0.0000 </r>
       <r>   13.3496    0.0000 </r>
      </set>
      <set comment="kpoint 67">
       <r>    2.2447    1.0000 </r>
       <r>    2.2447    1.0000 </r>
       <r>    9.7041    0.0000 </r>
       <r>   11.6570    0.0000 </r>
       <r>   11.6570    0.0000 </r>
       <r>   15.2810    0.0000 </r>
      </set>
      <set comment="kpoint 68">
       <r>    2.0317    1.0000 </r>
       <r>    2.0656    1.0000 </r>
       <r>   11.5932    0.0000 </r>
       <r>   11.5932    0.0000 </r>
       <r>   12.3132    0.0000 </r>
       <r>   13.7551    0.0000 </r>
      </set>
     </set>
     <set comment="spin 2">
      <set comment="kpoint 1">
       <r>   -1.7385    1.0000 </r>
       <r>    6.1901    0.0000 </r>
       <r>    6.1901    0.0000 </r>
       <r>    6.9622    0.0000 </r>
       <r>    9.4786    0.0000 </r>
       <r>    9.4786    0.0000 </r>
      </set>
      <set comment="kpoint 2">
       <r>   -0.9184    1.0000 </r>
       <r>    5.6743    0.9657 </r>
       <r>    5.8475   -0.0004 </r>
       <r>    7.9127    0.0000 </r>
       <r>    9.1080    0.0000 </r>
       <r>    9.6392    0.0000 </r>
      </set>
      <set comment="kpoint 3">
       <r>    0.2075    1.0000 </r>
       <r>    5.0901    1.0000 </r>
       <r>    5.4223    1.0000 </r>
       <r>    9.1092    0.0000 </r>
       <r>    9.3773    0.0000 </r>
       <r>    9.8569    0.0000 </r>
      </set>
      <set comment="kpoint 4">
       <r>    1.1480    1.0000 </r>
       <r>    4.5927    1.0000 </r>
       <r>    5.4996    1.0000 </r>
       <r>    9.4551    0.0000 </r>
       <r>   10.1426    0.0000 </r>
       <r>   11.1051    0.0000 </r>
      </set>
      <set comment="kpoint 5">
       <r>    1.4838    1.0000 </r>
       <r>    4.2664    1.0000 </r>
       <r>    6.3934    0.0000 </r>
       <r>    9.6580    0.0000 </r>
       <r>   10.4368    0.0000 </r>
       <r>   12.8370    0.0000 </r>
      </set>
      <set comment="kpoint 6">
       <r>    1.5145    1.0000 </r>
       <r>    4.1534    1.0000 </r>
       <r>    7.0602    0.0000 </r>
       <r>    9.6133    0.0000 </r>
       <r>   10.5726    0.0000 </r>
       <r>   13.6841    0.0000 </r>
      </set>
      <set comment="kpoint 7">
       <r>   -2.0319    1.0000 </r>
       <r>    6.4085    0.0000 </r>
       <r>    6.4085    0.0000 </r>
       <r>    6.5051    0.0000 </r>
       <r>    9.4088    0.0000 </r>
       <r>    9.7571    0.0000 </r>
      </set>
      <set comment="kpoint 8">
       <r>    0.0551    1.0000 </r>
       <r>    5.2347    1.0000 </r>
       <r>    5.2435    1.0000 </r>
       <r>    9.0739    0.0000 </r>
       <r>    9.2638    0.0000 </r>
       <r>    9.8742    0.0000 </r>
      </set>
      <set comment="kpoint 9">
       <r>    1.1892    1.0000 </r>
       <r>    4.7041    1.0000 </r>
       <r>    4.9622    1.0000 </r>
       <r>    9.2198    0.0000 </r>
       <r>   10.2058    0.0000 </r>
       <r>   10.9804    0.0000 </r>
      </set>
      <set comment="kpoint 10">
       <r>    1.8933    1.0000 </r>
       <r>    4.3517    1.0000 </r>
       <r>    5.3716    1.0000 </r>
       <r>    9.5445    0.0000 </r>
       <r>   10.4385    0.0000 </r>
       <r>   12.8141    0.0000 </r>
      </set>
      <set comment="kpoint 11">
       <r>    2.0223    1.0000 </r>
       <r>    4.1757    1.0000 </r>
       <r>    6.2572    0.0000 </r>
       <r>    9.6781    0.0000 </r>
       <r>   10.6324    0.0000 </r>
       <r>   14.2141    0.0000 </r>
      </set>
      <set comment="kpoint 12">
       <r>   -1.4518    1.0000 </r>
       <r>    6.0746    0.0000 </r>
       <r>    6.2670    0.0000 </r>
       <r>    7.0721    0.0000 </r>
       <r>    8.8458    0.0000 </r>
       <r>    9.8806    0.0000 </r>
      </set>
      <set comment="kpoint 13">
       <r>    2.2222    1.0000 </r>
       <r>    4.3728    1.0000 </r>
       <r>    4.8173    1.0000 </r>
       <r>    9.4006    0.0000 </r>
       <r>   10.4716    0.0000 </r>
       <r>   12.8748    0.0000 </r>
      </set>
      <set comment="kpoint 14">
       <r>    2.7146    1.0000 </r>
       <r>    4.2591    1.0000 </r>
       <r>    5.2324    1.0000 </r>
       <r>    9.7152    0.0000 </r>
       <r>   10.5384    0.0000 </r>
       <r>   14.6947    0.0000 </r>
      </set>
      <set comment="kpoint 15">
       <r>    2.7647    1.0000 </r>
       <r>    4.2404    1.0000 </r>
       <r>    5.6276    1.0208 </r>
       <r>    9.8139    0.0000 </r>
       <r>   10.6548    0.0000 </r>
       <r>   14.9751    0.0000 </r>
      </set>
      <set comment="kpoint 16">
       <r>   -0.4322    1.0000 </r>
       <r>    5.5179    1.0000 </r>
       <r>    5.8327   -0.0014 </r>
       <r>    8.2203    0.0000 </r>
       <r>    8.6455    0.0000 </r>
       <r>   10.0122    0.0000 </r>
      </set>
      <set comment="kpoint 17">
       <r>   -0.6503    1.0000 </r>
       <r>    5.8416   -0.0006 </r>
       <r>    5.9003    0.0000 </r>
       <r>    7.8580    0.0000 </r>
       <r>    8.2729    0.0000 </r>
       <r>   10.1822    0.0000 </r>
      </set>
      <set comment="kpoint 18">
       <r>    3.1849    1.0000 </r>
       <r>    4.4729    1.0000 </r>
       <r>    5.0243    1.0000 </r>
       <r>   10.0890    0.0000 </r>
       <r>   10.4619    0.0000 </r>
       <r>   14.3909    0.0000 </r>
      </set>
      <set comment="kpoint 19">
       <r>    0.6675    1.0000 </r>
       <r>    4.9545    1.0000 </r>
       <r>    5.5053    1.0000 </r>
       <r>    8.9472    0.0000 </r>
       <r>    9.8233    0.0000 </r>
       <r>   10.1997    0.0000 </r>
      </set>
      <set comment="kpoint 20">
       <r>    0.4557    1.0000 </r>
       <r>    5.2686    1.0000 </r>
       <r>    5.4723    1.0000 </r>
       <r>    8.2795    0.0000 </r>
       <r>    9.2513    0.0000 </r>
       <r>   10.4169    0.0000 </r>
      </set>
      <set comment="kpoint 21">
       <r>    1.2973    1.0000 </r>
       <r>    4.5185    1.0000 </r>
       <r>    5.9504    0.0000 </r>
       <r>    9.3629    0.0000 </r>
       <r>   10.4210    0.0000 </r>
       <r>   11.6614    0.0000 </r>
      </set>
      <set comment="kpoint 22">
       <r>    1.4019    1.0000 </r>
       <r>    4.7962    1.0000 </r>
       <r>    5.3493    1.0000 </r>
       <r>    8.7401    0.0000 </r>
       <r>   10.5018    0.0000 </r>
       <r>   11.0714    0.0000 </r>
      </set>
      <set comment="kpoint 23">
       <r>    1.5169    1.0000 </r>
       <r>    4.6961    1.0000 </r>
       <r>    5.3193    1.0000 </r>
       <r>    8.3664    0.0000 </r>
       <r>   10.4474    0.0000 </r>
       <r>   11.0291    0.0000 </r>
      </set>
      <set comment="kpoint 24">
       <r>    1.4227    1.0000 </r>
       <r>    4.2844    1.0000 </r>
       <r>    6.8455    0.0000 </r>
       <r>    9.3983    0.0000 </r>
       <r>   10.7215    0.0000 </r>
       <r>   13.1537    0.0000 </r>
      </set>
      <set comment="kpoint 25">
       <r>    1.7475    1.0000 </r>
       <r>    4.5219    1.0000 </r>
       <r>    5.9045    0.0000 </r>
       <r>    9.0726    0.0000 </r>
       <r>   10.7803    0.0000 </r>
       <r>   12.8439    0.0000 </r>
      </set>
      <set comment="kpoint 26">
       <r>    2.2752    1.0000 </r>
       <r>    4.4146    1.0000 </r>
       <r>    5.3270    1.0000 </r>
       <r>    8.8118    0.0000 </r>
       <r>   10.4891    0.0000 </r>
       <r>   12.9173    0.0000 </r>
      </set>
      <set comment="kpoint 27">
       <r>    1.7754    1.0000 </r>
       <r>    4.4245    1.0000 </r>
       <r>    6.3663    0.0000 </r>
       <r>    8.9980    0.0000 </r>
       <r>   11.1355    0.0000 </r>
       <r>   13.7373    0.0000 </r>
      </set>
      <set comment="kpoint 28">
       <r>    2.4536    1.0000 </r>
       <r>    4.4738    1.0000 </r>
       <r>    5.5078    1.0000 </r>
       <r>    9.0138    0.0000 </r>
       <r>   10.8563    0.0000 </r>
       <r>   14.5832    0.0000 </r>
      </set>
      <set comment="kpoint 29">
       <r>    3.0023    1.0000 </r>
       <r>    4.1950    1.0000 </r>
       <r>    5.1689    1.0000 </r>
       <r>    9.3039    0.0000 </r>
       <r>   10.3831    0.0000 </r>
       <r>   14.9953    0.0000 </r>
      </set>
      <set comment="kpoint 30">
       <r>    3.2202    1.0000 </r>
       <r>    4.3903    1.0000 </r>
       <r>    4.8552    1.0000 </r>
       <r>    9.6157    0.0000 </r>
       <r>   10.5063    0.0000 </r>
       <r>   14.9014    0.0000 </r>
      </set>
      <set comment="kpoint 31">
       <r>    1.1382    1.0000 </r>
       <r>    4.7067    1.0000 </r>
       <r>    4.7067    1.0000 </r>
       <r>    9.7556    0.0000 </r>
       <r>    9.7556    0.0000 </r>
       <r>   11.0223    0.0000 </r>
      </set>
      <set comment="kpoint 32">
       <r>    2.2461    1.0000 </r>
       <r>    4.3366    1.0000 </r>
       <r>    4.5608    1.0000 </r>
       <r>    9.8821    0.0000 </r>
       <r>   10.2396    0.0000 </r>
       <r>   12.9359    0.0000 </r>
      </set>
      <set comment="kpoint 33">
       <r>    2.6530    1.0000 </r>
       <r>    4.1254    1.0000 </r>
       <r>    5.3282    1.0000 </r>
       <r>   10.0488    0.0000 </r>
       <r>   10.5386    0.0000 </r>
       <r>   14.6081    0.0000 </r>
      </set>
      <set comment="kpoint 34">
       <r>    2.6611    1.0000 </r>
       <r>    4.0576    1.0000 </r>
       <r>    5.9646    0.0000 </r>
       <r>   10.0788    0.0000 </r>
       <r>   10.6451    0.0000 </r>
       <r>   15.0424    0.0000 </r>
      </set>
      <set comment="kpoint 35">
       <r>   -0.8910    1.0000 </r>
       <r>    6.3351    0.0000 </r>
       <r>    6.3351    0.0000 </r>
       <r>    7.0786    0.0000 </r>
       <r>    7.7763    0.0000 </r>
       <r>   10.3577    0.0000 </r>
      </set>
      <set comment="kpoint 36">
       <r>    3.2235    1.0000 </r>
       <r>    4.2350    1.0000 </r>
       <r>    4.4726    1.0000 </r>
       <r>   10.1747    0.0000 </r>
       <r>   10.4993    0.0000 </r>
       <r>   14.8412    0.0000 </r>
      </set>
      <set comment="kpoint 37">
       <r>    3.3962    1.0000 </r>
       <r>    4.2004    1.0000 </r>
       <r>    5.1607    1.0000 </r>
       <r>   10.3382    0.0000 </r>
       <r>   10.6390    0.0000 </r>
       <r>   14.2278    0.0000 </r>
      </set>
      <set comment="kpoint 38">
       <r>    0.0954    1.0000 </r>
       <r>    5.9496    0.0000 </r>
       <r>    6.0088    0.0000 </r>
       <r>    7.3433    0.0000 </r>
       <r>    8.0427    0.0000 </r>
       <r>   10.6293    0.0000 </r>
      </set>
      <set comment="kpoint 39">
       <r>    3.5934    1.0000 </r>
       <r>    4.7423    1.0000 </r>
       <r>    4.7423    1.0000 </r>
       <r>   10.5731    0.0000 </r>
       <r>   10.5731    0.0000 </r>
       <r>   13.3981    0.0000 </r>
      </set>
      <set comment="kpoint 40">
       <r>    1.1796    1.0000 </r>
       <r>    5.2429    1.0000 </r>
       <r>    5.5107    1.0000 </r>
       <r>    7.8647    0.0000 </r>
       <r>    9.6285    0.0000 </r>
       <r>   10.7179    0.0000 </r>
      </set>
      <set comment="kpoint 41">
       <r>    1.1259    1.0000 </r>
       <r>    5.2327    1.0000 </r>
       <r>    6.0166    0.0000 </r>
       <r>    7.2834    0.0000 </r>
       <r>    9.1007    0.0000 </r>
       <r>   10.7859    0.0000 </r>
      </set>
      <set comment="kpoint 42">
       <r>    1.8260    1.0000 </r>
       <r>    5.1072    1.0000 </r>
       <r>    5.2029    1.0000 </r>
       <r>    8.4151    0.0000 </r>
       <r>   10.9368    0.0000 </r>
       <r>   11.4828    0.0000 </r>
      </set>
      <set comment="kpoint 43">
       <r>    2.0625    1.0000 </r>
       <r>    4.5842    1.0000 </r>
       <r>    5.7629   -0.0300 </r>
       <r>    7.8758    0.0000 </r>
       <r>   10.3405    0.0000 </r>
       <r>   11.2360    0.0000 </r>
      </set>
      <set comment="kpoint 44">
       <r>    1.9369    1.0000 </r>
       <r>    4.8877    1.0000 </r>
       <r>    5.6921    0.7837 </r>
       <r>    8.3239    0.0000 </r>
       <r>   11.7557    0.0000 </r>
       <r>   13.0119    0.0000 </r>
      </set>
      <set comment="kpoint 45">
       <r>    2.4305    1.0000 </r>
       <r>    4.6465    1.0000 </r>
       <r>    5.4522    1.0000 </r>
       <r>    8.1714    0.0000 </r>
       <r>   11.0743    0.0000 </r>
       <r>   12.9883    0.0000 </r>
      </set>
      <set comment="kpoint 46">
       <r>    2.8825    1.0000 </r>
       <r>    4.0134    1.0000 </r>
       <r>    5.6333    1.0260 </r>
       <r>    8.4370    0.0000 </r>
       <r>   10.2995    0.0000 </r>
       <r>   13.1307    0.0000 </r>
      </set>
      <set comment="kpoint 47">
       <r>    2.4379    1.0000 </r>
       <r>    5.0766    1.0000 </r>
       <r>    5.1145    1.0000 </r>
       <r>    8.0691    0.0000 </r>
       <r>   11.8356    0.0000 </r>
       <r>   14.0623    0.0000 </r>
      </set>
      <set comment="kpoint 48">
       <r>    3.1884    1.0000 </r>
       <r>    4.1978    1.0000 </r>
       <r>    5.0153    1.0000 </r>
       <r>    8.9039    0.0000 </r>
       <r>   10.8311    0.0000 </r>
       <r>   15.1170    0.0000 </r>
      </set>
      <set comment="kpoint 49">
       <r>    4.0063    1.0000 </r>
       <r>    4.0063    1.0000 </r>
       <r>    4.2118    1.0000 </r>
       <r>   10.1209    0.0000 </r>
       <r>   10.1209    0.0000 </r>
       <r>   15.0876    0.0000 </r>
      </set>
      <set comment="kpoint 50">
       <r>    4.2073    1.0000 </r>
       <r>    4.2073    1.0000 </r>
       <r>    4.3567    1.0000 </r>
       <r>   10.5963    0.0000 </r>
       <r>   10.5963    0.0000 </r>
       <r>   13.9826    0.0000 </r>
      </set>
      <set comment="kpoint 51">
       <r>    4.1721    1.0000 </r>
       <r>    4.2096    1.0000 </r>
       <r>    4.8573    1.0000 </r>
       <r>   10.6425    0.0000 </r>
       <r>   10.7185    0.0000 </r>
       <r>   13.0709    0.0000 </r>
      </set>
      <set comment="kpoint 52">
       <r>    1.0039    1.0000 </r>
       <r>    5.7259    0.2465 </r>
       <r>    6.5867    0.0000 </r>
       <r>    6.5867    0.0000 </r>
       <r>    8.1710    0.0000 </r>
       <r>   10.8340    0.0000 </r>
      </set>
      <set comment="kpoint 53">
       <r>    1.9893    1.0000 </r>
       <r>    4.7086    1.0000 </r>
       <r>    6.5122    0.0000 </r>
       <r>    7.2025    0.0000 </r>
       <r>    9.4038    0.0000 </r>
       <r>   10.7217    0.0000 </r>
      </set>
      <set comment="kpoint 54">
       <r>    2.6012    1.0000 </r>
       <r>    4.2117    1.0000 </r>
       <r>    6.2323    0.0000 </r>
       <r>    7.6516    0.0000 </r>
       <r>   11.1777    0.0000 </r>
       <r>   11.2071    0.0000 </r>
      </set>
      <set comment="kpoint 55">
       <r>    2.7426    1.0000 </r>
       <r>    3.9469    1.0000 </r>
       <r>    6.6317    0.0000 </r>
       <r>    7.7583    0.0000 </r>
       <r>   10.1507    0.0000 </r>
       <r>   11.2179    0.0000 </r>
      </set>
      <set comment="kpoint 56">
       <r>    2.6342    1.0000 </r>
       <r>    4.3723    1.0000 </r>
       <r>    6.0565    0.0000 </r>
       <r>    7.4422    0.0000 </r>
       <r>   12.7100    0.0000 </r>
       <r>   12.7757    0.0000 </r>
      </set>
      <set comment="kpoint 57">
       <r>    3.0294    1.0000 </r>
       <r>    3.6787    1.0000 </r>
       <r>    6.2289    0.0000 </r>
       <r>    8.2652    0.0000 </r>
       <r>   11.0160    0.0000 </r>
       <r>   13.1339    0.0000 </r>
      </set>
      <set comment="kpoint 58">
       <r>    2.9341    1.0000 </r>
       <r>    3.8348    1.0000 </r>
       <r>    5.9762    0.0000 </r>
       <r>    8.2978    0.0000 </r>
       <r>   11.9634    0.0000 </r>
       <r>   14.6678    0.0000 </r>
      </set>
      <set comment="kpoint 59">
       <r>    3.2946    1.0000 </r>
       <r>    3.4017    1.0000 </r>
       <r>    5.7010    0.6512 </r>
       <r>    9.6669    0.0000 </r>
       <r>   10.8466    0.0000 </r>
       <r>   15.2941    0.0000 </r>
      </set>
      <set comment="kpoint 60">
       <r>    2.6775    1.0000 </r>
       <r>    3.9396    1.0000 </r>
       <r>    7.4984    0.0000 </r>
       <r>    7.4984    0.0000 </r>
       <r>    9.6459    0.0000 </r>
       <r>   10.4767    0.0000 </r>
      </set>
      <set comment="kpoint 61">
       <r>    2.9616    1.0000 </r>
       <r>    3.3147    1.0000 </r>
       <r>    7.7523    0.0000 </r>
       <r>    7.9741    0.0000 </r>
       <r>   10.9875    0.0000 </r>
       <r>   11.1371    0.0000 </r>
      </set>
      <set comment="kpoint 62">
       <r>    2.7724    1.0000 </r>
       <r>    3.2512    1.0000 </r>
       <r>    7.7097    0.0000 </r>
       <r>    7.9039    0.0000 </r>
       <r>   12.5171    0.0000 </r>
       <r>   13.1864    0.0000 </r>
      </set>
      <set comment="kpoint 63">
       <r>    2.8315    1.0000 </r>
       <r>    2.9132    1.0000 </r>
       <r>    7.6374    0.0000 </r>
       <r>    9.3235    0.0000 </r>
       <r>   11.2264    0.0000 </r>
       <r>   13.0967    0.0000 </r>
      </set>
      <set comment="kpoint 64">
       <r>    2.6729    1.0000 </r>
       <r>    2.8539    1.0000 </r>
       <r>    7.5113    0.0000 </r>
       <r>    9.8217    0.0000 </r>
       <r>   11.8123    0.0000 </r>
       <r>   15.1047    0.0000 </r>
      </set>
      <set comment="kpoint 65">
       <r>    2.6710    1.0000 </r>
       <r>    2.7348    1.0000 </r>
       <r>    9.1976    0.0000 </r>
       <r>    9.1976    0.0000 </r>
       <r>   11.2088    0.0000 </r>
       <r>   11.4741    0.0000 </r>
      </set>
      <set comment="kpoint 66">
       <r>    2.3504    1.0000 </r>
       <r>    2.4657    1.0000 </r>
       <r>    9.6886    0.0000 </r>
       <r>    9.7030    0.0000 </r>
       <r>   12.3120    0.0000 </r>
       <r>   13.3406    0.0000 </r>
      </set>
      <set comment="kpoint 67">
       <r>    2.2318    1.0000 </r>
       <r>    2.2318    1.0000 </r>
       <r>    9.6972    0.0000 </r>
       <r>   11.6506    0.0000 </r>
       <r>   11.6506    0.0000 </r>
       <r>   15.2729    0.0000 </r>
      </set>
      <set comment="kpoint 68">
       <r>    2.0187    1.0000 </r>
       <r>    2.0527    1.0000 </r>
       <r>   11.5868    0.0000 </r>
       <r>   11.5868    0.0000 </r>
       <r>   12.3075    0.0000 </r>
       <r>   13.7460    0.0000 </r>
      </set>
     </set>
    </set>
   </array>
  </eigenvalues>
  <separator name="orbital magnetization" >
   <v name="MAGDIPOLOUT">      0.00000000      0.00000000      0.00000000</v>
  </separator>
  <dos>
   <i name="efermi">      5.71012365 </i>
   <total>
    <array>
     <dimension dim="1">gridpoints</dimension>
     <dimension dim="2">spin</dimension>
     <field>energy</field>
     <field>total</field>
     <field>integrated</field>
     <set>
      <set comment="spin 1">
       <r>    -2.8986     0.0000     0.0000 </r>
       <r>    -2.8350     0.0000     0.0000 </r>
       <r>    -2.7715     0.0000     0.0000 </r>
       <r>    -2.7079     0.0000     0.0000 </r>
       <r>    -2.6444     0.0000     0.0000 </r>
       <r>    -2.5808     0.0000     0.0000 </r>
       <r>    -2.5172     0.0000     0.0000 </r>
       <r>    -2.4537     0.0000     0.0000 </r>
       <r>    -2.3901     0.0000     0.0000 </r>
       <r>    -2.3266     0.0000     0.0000 </r>
       <r>    -2.2630     0.0000     0.0000 </r>
       <r>    -2.1994     0.0000     0.0000 </r>
       <r>    -2.1359    -0.0001     0.0000 </r>
       <r>    -2.0723    -0.0014    -0.0001 </r>
       <r>    -2.0088     0.0394     0.0024 </r>
       <r>    -1.9452     0.0183     0.0036 </r>
       <r>    -1.8817    -0.0015     0.0035 </r>
       <r>    -1.8181    -0.0010     0.0034 </r>
       <r>    -1.7545     0.0086     0.0040 </r>
       <r>    -1.6910     0.0629     0.0080 </r>
       <r>    -1.6274     0.0029     0.0081 </r>
       <r>    -1.5639    -0.0009     0.0081 </r>
       <r>    -1.5003    -0.0074     0.0076 </r>
       <r>    -1.4368     0.1306     0.0159 </r>
       <r>    -1.3732     0.1030     0.0225 </r>
       <r>    -1.3096    -0.0072     0.0220 </r>
       <r>    -1.2461    -0.0001     0.0220 </r>
       <r>    -1.1825     0.0000     0.0220 </r>
       <r>    -1.1190     0.0000     0.0220 </r>
       <r>    -1.0554     0.0000     0.0220 </r>
       <r>    -0.9918    -0.0043     0.0217 </r>
       <r>    -0.9283     0.0413     0.0243 </r>
       <r>    -0.8647     0.2222     0.0385 </r>
       <r>    -0.8012     0.0164     0.0395 </r>
       <r>    -0.7376    -0.0044     0.0392 </r>
       <r>    -0.6741     0.0105     0.0399 </r>
       <r>    -0.6105     0.1893     0.0519 </r>
       <r>    -0.5469     0.0232     0.0534 </r>
       <r>    -0.4834    -0.0103     0.0528 </r>
       <r>    -0.4198     0.1212     0.0605 </r>
       <r>    -0.3563     0.1126     0.0676 </r>
       <r>    -0.2927    -0.0074     0.0671 </r>
       <r>    -0.2292    -0.0002     0.0671 </r>
       <r>    -0.1656     0.0000     0.0671 </r>
       <r>    -0.1020     0.0000     0.0671 </r>
       <r>    -0.0385    -0.0013     0.0670 </r>
       <r>     0.0251    -0.0026     0.0669 </r>
       <r>     0.0886     0.2338     0.0817 </r>
       <r>     0.1522     0.2064     0.0949 </r>
       <r>     0.2158     0.1005     0.1012 </r>
       <r>     0.2793     0.1265     0.1093 </r>
       <r>     0.3429    -0.0080     0.1088 </r>
       <r>     0.4064    -0.0152     0.1078 </r>
       <r>     0.4700     0.2571     0.1242 </r>
       <r>     0.5335     0.2101     0.1375 </r>
       <r>     0.5971    -0.0192     0.1363 </r>
       <r>     0.6607     0.0525     0.1396 </r>
       <r>     0.7242     0.1736     0.1507 </r>
       <r>     0.7878    -0.0022     0.1505 </r>
       <r>     0.8513    -0.0009     0.1505 </r>
       <r>     0.9149    -0.0004     0.1504 </r>
       <r>     0.9784     0.0019     0.1506 </r>
       <r>     1.0420     0.0437     0.1533 </r>
       <r>     1.1056     0.0085     0.1539 </r>
       <r>     1.1691     0.4803     0.1844 </r>
       <r>     1.2327     0.6647     0.2267 </r>
       <r>     1.2962     0.0943     0.2326 </r>
       <r>     1.3598     0.1324     0.2411 </r>
       <r>     1.4234     0.3764     0.2650 </r>
       <r>     1.4869     0.3994     0.2904 </r>
       <r>     1.5505     0.4001     0.3158 </r>
       <r>     1.6140     0.0449     0.3187 </r>
       <r>     1.6776    -0.0168     0.3176 </r>
       <r>     1.7411     0.1104     0.3246 </r>
       <r>     1.8047     0.5306     0.3583 </r>
       <r>     1.8683     0.2475     0.3741 </r>
       <r>     1.9318     0.4383     0.4019 </r>
       <r>     1.9954     0.3144     0.4219 </r>
       <r>     2.0589     0.7002     0.4664 </r>
       <r>     2.1225     0.4190     0.4930 </r>
       <r>     2.1860    -0.0354     0.4908 </r>
       <r>     2.2496     0.3696     0.5143 </r>
       <r>     2.3132     0.6346     0.5546 </r>
       <r>     2.3767     0.1655     0.5651 </r>
       <r>     2.4403     0.4530     0.5939 </r>
       <r>     2.5038     0.9348     0.6533 </r>
       <r>     2.5674     0.0045     0.6536 </r>
       <r>     2.6310     0.2339     0.6685 </r>
       <r>     2.6945     0.7459     0.7159 </r>
       <r>     2.7581     0.7828     0.7657 </r>
       <r>     2.8216     0.5167     0.7985 </r>
       <r>     2.8852     0.4283     0.8257 </r>
       <r>     2.9487     0.5243     0.8590 </r>
       <r>     3.0123     0.4836     0.8898 </r>
       <r>     3.0759     0.4853     0.9206 </r>
       <r>     3.1394    -0.0135     0.9198 </r>
       <r>     3.2030     0.4522     0.9485 </r>
       <r>     3.2665     0.7822     0.9982 </r>
       <r>     3.3301     0.3997     1.0236 </r>
       <r>     3.3936     0.3275     1.0444 </r>
       <r>     3.4572     0.4802     1.0750 </r>
       <r>     3.5208    -0.0133     1.0741 </r>
       <r>     3.5843     0.0141     1.0750 </r>
       <r>     3.6479     0.0572     1.0786 </r>
       <r>     3.7114     0.3567     1.1013 </r>
       <r>     3.7750     0.0834     1.1066 </r>
       <r>     3.8386     0.0745     1.1113 </r>
       <r>     3.9021     0.1395     1.1202 </r>
       <r>     3.9657     0.1612     1.1305 </r>
       <r>     4.0292     0.3490     1.1526 </r>
       <r>     4.0928     0.2269     1.1671 </r>
       <r>     4.1563     0.2555     1.1833 </r>
       <r>     4.2199     1.6827     1.2902 </r>
       <r>     4.2835     1.6001     1.3919 </r>
       <r>     4.3470     0.5862     1.4292 </r>
       <r>     4.4106     1.1314     1.5011 </r>
       <r>     4.4741     0.9469     1.5613 </r>
       <r>     4.5377     1.0088     1.6254 </r>
       <r>     4.6012     0.7766     1.6748 </r>
       <r>     4.6648     0.5655     1.7107 </r>
       <r>     4.7284     0.9464     1.7709 </r>
       <r>     4.7919     0.5417     1.8053 </r>
       <r>     4.8555     0.5986     1.8433 </r>
       <r>     4.9190     0.4131     1.8696 </r>
       <r>     4.9826     0.5149     1.9023 </r>
       <r>     5.0462     0.6825     1.9457 </r>
       <r>     5.1097     0.6307     1.9858 </r>
       <r>     5.1733     0.7006     2.0303 </r>
       <r>     5.2368     1.0113     2.0946 </r>
       <r>     5.3004     1.3031     2.1774 </r>
       <r>     5.3639     1.1422     2.2500 </r>
       <r>     5.4275     0.7221     2.2959 </r>
       <r>     5.4911     0.9680     2.3574 </r>
       <r>     5.5546     1.2858     2.4391 </r>
       <r>     5.6182     0.0980     2.4454 </r>
       <r>     5.6817     0.5305     2.4791 </r>
       <r>     5.7453     0.5820     2.5161 </r>
       <r>     5.8088     0.4110     2.5422 </r>
       <r>     5.8724     0.5567     2.5776 </r>
       <r>     5.9360     0.7018     2.6222 </r>
       <r>     5.9995     0.8208     2.6744 </r>
       <r>     6.0631     0.5956     2.7122 </r>
       <r>     6.1266     0.2725     2.7295 </r>
       <r>     6.1902     0.0272     2.7313 </r>
       <r>     6.2538     0.7755     2.7806 </r>
       <r>     6.3173     0.6787     2.8237 </r>
       <r>     6.3809     0.2354     2.8387 </r>
       <r>     6.4444     0.3787     2.8627 </r>
       <r>     6.5080     0.1073     2.8695 </r>
       <r>     6.5715     0.1968     2.8820 </r>
       <r>     6.6351     0.1858     2.8939 </r>
       <r>     6.6987     0.1305     2.9021 </r>
       <r>     6.7622    -0.0103     2.9015 </r>
       <r>     6.8258     0.0159     2.9025 </r>
       <r>     6.8893     0.1885     2.9145 </r>
       <r>     6.9529     0.0369     2.9168 </r>
       <r>     7.0164     0.0406     2.9194 </r>
       <r>     7.0800     0.2214     2.9335 </r>
       <r>     7.1436     0.1779     2.9448 </r>
       <r>     7.2071     0.0908     2.9505 </r>
       <r>     7.2707     0.1639     2.9610 </r>
       <r>     7.3342     0.2200     2.9749 </r>
       <r>     7.3978     0.1709     2.9858 </r>
       <r>     7.4614     0.1434     2.9949 </r>
       <r>     7.5249     0.3068     3.0144 </r>
       <r>     7.5885     0.0958     3.0205 </r>
       <r>     7.6520     0.2127     3.0340 </r>
       <r>     7.7156     0.3422     3.0558 </r>
       <r>     7.7791     0.4592     3.0850 </r>
       <r>     7.8427     0.1929     3.0972 </r>
       <r>     7.9063     0.8853     3.1535 </r>
       <r>     7.9698     0.4576     3.1826 </r>
       <r>     8.0334     0.1932     3.1949 </r>
       <r>     8.0969     0.3257     3.2156 </r>
       <r>     8.1605     0.1432     3.2247 </r>
       <r>     8.2240     0.4670     3.2543 </r>
       <r>     8.2876     0.8489     3.3083 </r>
       <r>     8.3512     0.8395     3.3617 </r>
       <r>     8.4147     0.3057     3.3811 </r>
       <r>     8.4783     0.3388     3.4026 </r>
       <r>     8.5418     0.0045     3.4029 </r>
       <r>     8.6054    -0.0080     3.4024 </r>
       <r>     8.6689     0.1495     3.4119 </r>
       <r>     8.7325     0.1750     3.4230 </r>
       <r>     8.7961     0.3943     3.4481 </r>
       <r>     8.8596     0.4743     3.4782 </r>
       <r>     8.9232     0.4383     3.5061 </r>
       <r>     8.9867     0.3808     3.5303 </r>
       <r>     9.0503     0.5892     3.5677 </r>
       <r>     9.1139     0.9533     3.6283 </r>
       <r>     9.1774     0.4002     3.6538 </r>
       <r>     9.2410     0.5045     3.6858 </r>
       <r>     9.3045     0.7853     3.7357 </r>
       <r>     9.3681     0.4873     3.7667 </r>
       <r>     9.4316     0.8909     3.8233 </r>
       <r>     9.4952     0.3864     3.8479 </r>
       <r>     9.5588     0.3180     3.8681 </r>
       <r>     9.6223     0.4228     3.8950 </r>
       <r>     9.6859     1.2550     3.9747 </r>
       <r>     9.7494     1.1663     4.0489 </r>
       <r>     9.8130     0.3643     4.0720 </r>
       <r>     9.8765     0.8257     4.1245 </r>
       <r>     9.9401     0.5556     4.1598 </r>
       <r>    10.0037     0.0114     4.1605 </r>
       <r>    10.0672     0.3515     4.1829 </r>
       <r>    10.1308     0.4857     4.2137 </r>
       <r>    10.1943     0.8487     4.2677 </r>
       <r>    10.2579     0.8624     4.3225 </r>
       <r>    10.3215     0.3337     4.3437 </r>
       <r>    10.3850     0.9015     4.4010 </r>
       <r>    10.4486     1.1643     4.4750 </r>
       <r>    10.5121     1.8550     4.5929 </r>
       <r>    10.5757     1.2212     4.6705 </r>
       <r>    10.6392     0.8934     4.7273 </r>
       <r>    10.7028     1.1052     4.7975 </r>
       <r>    10.7664     0.6929     4.8416 </r>
       <r>    10.8299     0.8255     4.8941 </r>
       <r>    10.8935     0.9013     4.9513 </r>
       <r>    10.9570     0.2123     4.9648 </r>
       <r>    11.0206     0.9042     5.0223 </r>
       <r>    11.0841     1.0533     5.0892 </r>
       <r>    11.1477     0.8006     5.1401 </r>
       <r>    11.2113     0.6509     5.1815 </r>
       <r>    11.2748     0.9000     5.2387 </r>
       <r>    11.3384     0.0210     5.2400 </r>
       <r>    11.4019    -0.0121     5.2393 </r>
       <r>    11.4655     0.0499     5.2424 </r>
       <r>    11.5291     0.2233     5.2566 </r>
       <r>    11.5926     0.0487     5.2597 </r>
       <r>    11.6562     0.2094     5.2730 </r>
       <r>    11.7197     0.2269     5.2875 </r>
       <r>    11.7833     0.1652     5.2980 </r>
       <r>    11.8468     0.3695     5.3214 </r>
       <r>    11.9104     0.1168     5.3289 </r>
       <r>    11.9740     0.1204     5.3365 </r>
       <r>    12.0375     0.1029     5.3431 </r>
       <r>    12.1011    -0.0072     5.3426 </r>
       <r>    12.1646    -0.0002     5.3426 </r>
       <r>    12.2282    -0.0042     5.3423 </r>
       <r>    12.2917     0.0399     5.3449 </r>
       <r>    12.3553     0.2325     5.3596 </r>
       <r>    12.4189     0.0056     5.3600 </r>
       <r>    12.4824     0.0013     5.3601 </r>
       <r>    12.5460     0.1840     5.3718 </r>
       <r>    12.6095     0.0355     5.3740 </r>
       <r>    12.6731    -0.0072     5.3736 </r>
       <r>    12.7367     0.1608     5.3838 </r>
       <r>    12.8002     0.3040     5.4031 </r>
       <r>    12.8638     0.9408     5.4629 </r>
       <r>    12.9273     0.6444     5.5039 </r>
       <r>    12.9909     0.5873     5.5412 </r>
       <r>    13.0544     0.4329     5.5687 </r>
       <r>    13.1180     0.3632     5.5918 </r>
       <r>    13.1816     0.8618     5.6466 </r>
       <r>    13.2451     0.2006     5.6593 </r>
       <r>    13.3087    -0.0105     5.6586 </r>
       <r>    13.3722     0.1865     5.6705 </r>
       <r>    13.4358     0.1013     5.6769 </r>
       <r>    13.4993     0.0033     5.6771 </r>
       <r>    13.5629    -0.0010     5.6771 </r>
       <r>    13.6265    -0.0043     5.6768 </r>
       <r>    13.6900     0.0505     5.6800 </r>
       <r>    13.7536     0.2388     5.6952 </r>
       <r>    13.8171     0.1058     5.7019 </r>
       <r>    13.8807    -0.0085     5.7014 </r>
       <r>    13.9443    -0.0013     5.7013 </r>
       <r>    14.0078     0.0498     5.7045 </r>
       <r>    14.0714     0.1421     5.7135 </r>
       <r>    14.1349     0.0976     5.7197 </r>
       <r>    14.1985     0.0823     5.7249 </r>
       <r>    14.2620     0.7408     5.7720 </r>
       <r>    14.3256     0.0571     5.7756 </r>
       <r>    14.3892     0.0704     5.7801 </r>
       <r>    14.4527     0.1521     5.7898 </r>
       <r>    14.5163    -0.0202     5.7885 </r>
       <r>    14.5798     0.1580     5.7985 </r>
       <r>    14.6434     0.4991     5.8303 </r>
       <r>    14.7069     0.4693     5.8601 </r>
       <r>    14.7705     0.2099     5.8734 </r>
       <r>    14.8341     0.0392     5.8759 </r>
       <r>    14.8976     0.2330     5.8907 </r>
       <r>    14.9612     0.1944     5.9031 </r>
       <r>    15.0247     0.3636     5.9262 </r>
       <r>    15.0883     0.2143     5.9398 </r>
       <r>    15.1519     0.6090     5.9785 </r>
       <r>    15.2154     0.0482     5.9816 </r>
       <r>    15.2790     0.0656     5.9857 </r>
       <r>    15.3425     0.2252     6.0001 </r>
       <r>    15.4061     0.0005     6.0001 </r>
       <r>    15.4696    -0.0014     6.0000 </r>
       <r>    15.5332     0.0000     6.0000 </r>
       <r>    15.5968     0.0000     6.0000 </r>
       <r>    15.6603     0.0000     6.0000 </r>
       <r>    15.7239     0.0000     6.0000 </r>
       <r>    15.7874     0.0000     6.0000 </r>
       <r>    15.8510     0.0000     6.0000 </r>
       <r>    15.9145     0.0000     6.0000 </r>
       <r>    15.9781     0.0000     6.0000 </r>
       <r>    16.0417     0.0000     6.0000 </r>
       <r>    16.1052     0.0000     6.0000 </r>
       <r>    16.1688     0.0000     6.0000 </r>
      </set>
      <set comment="spin 2">
       <r>    -2.8986     0.0000     0.0000 </r>
       <r>    -2.8350     0.0000     0.0000 </r>
       <r>    -2.7715     0.0000     0.0000 </r>
       <r>    -2.7079     0.0000     0.0000 </r>
       <r>    -2.6444     0.0000     0.0000 </r>
       <r>    -2.5808     0.0000     0.0000 </r>
       <r>    -2.5172     0.0000     0.0000 </r>
       <r>    -2.4537     0.0000     0.0000 </r>
       <r>    -2.3901     0.0000     0.0000 </r>
       <r>    -2.3266     0.0000     0.0000 </r>
       <r>    -2.2630     0.0000     0.0000 </r>
       <r>    -2.1994     0.0000     0.0000 </r>
       <r>    -2.1359    -0.0003     0.0000 </r>
       <r>    -2.0723     0.0008     0.0000 </r>
       <r>    -2.0088     0.0459     0.0029 </r>
       <r>    -1.9452     0.0092     0.0035 </r>
       <r>    -1.8817    -0.0009     0.0035 </r>
       <r>    -1.8181    -0.0017     0.0034 </r>
       <r>    -1.7545     0.0194     0.0046 </r>
       <r>    -1.6910     0.0565     0.0082 </r>
       <r>    -1.6274    -0.0011     0.0081 </r>
       <r>    -1.5639    -0.0010     0.0081 </r>
       <r>    -1.5003    -0.0040     0.0078 </r>
       <r>    -1.4368     0.1669     0.0184 </r>
       <r>    -1.3732     0.0617     0.0223 </r>
       <r>    -1.3096    -0.0053     0.0220 </r>
       <r>    -1.2461     0.0000     0.0220 </r>
       <r>    -1.1825     0.0000     0.0220 </r>
       <r>    -1.1190     0.0000     0.0220 </r>
       <r>    -1.0554    -0.0001     0.0220 </r>
       <r>    -0.9918    -0.0067     0.0216 </r>
       <r>    -0.9283     0.0818     0.0268 </r>
       <r>    -0.8647     0.1986     0.0394 </r>
       <r>    -0.8012     0.0008     0.0394 </r>
       <r>    -0.7376    -0.0049     0.0391 </r>
       <r>    -0.6741     0.0351     0.0413 </r>
       <r>    -0.6105     0.1847     0.0531 </r>
       <r>    -0.5469     0.0032     0.0533 </r>
       <r>    -0.4834    -0.0068     0.0529 </r>
       <r>    -0.4198     0.1596     0.0630 </r>
       <r>    -0.3563     0.0707     0.0675 </r>
       <r>    -0.2927    -0.0058     0.0671 </r>
       <r>    -0.2292    -0.0001     0.0671 </r>
       <r>    -0.1656     0.0000     0.0671 </r>
       <r>    -0.1020     0.0000     0.0671 </r>
       <r>    -0.0385    -0.0027     0.0670 </r>
       <r>     0.0251     0.0132     0.0678 </r>
       <r>     0.0886     0.2809     0.0856 </r>
       <r>     0.1522     0.1480     0.0951 </r>
       <r>     0.2158     0.1374     0.1038 </r>
       <r>     0.2793     0.0854     0.1092 </r>
       <r>     0.3429    -0.0079     0.1087 </r>
       <r>     0.4064    -0.0090     0.1081 </r>
       <r>     0.4700     0.3300     0.1291 </r>
       <r>     0.5335     0.1281     0.1373 </r>
       <r>     0.5971    -0.0176     0.1361 </r>
       <r>     0.6607     0.0911     0.1419 </r>
       <r>     0.7242     0.1417     0.1509 </r>
       <r>     0.7878    -0.0071     0.1505 </r>
[...]
       </set>
       <set comment="band 2">
        <r>  0.0000  0.0089  0.0267  0.0711  0.3907  0.1613  0.0057  0.0381  0.2019 </r>
       </set>
       <set comment="band 3">
        <r>  0.0013  0.1243  0.0092  0.0336  0.0001  0.1576  0.1824  0.4308  0.0242 </r>
       </set>
       <set comment="band 4">
        <r>  0.0000  0.0073  0.0218  0.0582  0.0448  0.0329  0.4788  0.1808  0.1173 </r>
       </set>
       <set comment="band 5">
        <r>  0.1421  0.0100  0.0172  0.0134  0.0022  0.3114  0.0877  0.1035  0.2739 </r>
       </set>
       <set comment="band 6">
        <r>  0.0547  0.1700  0.0081  0.0404  0.2851  0.0039  0.0404  0.1327  0.2449 </r>
       </set>
      </set>
      <set comment="kpoint 47">
       <set comment="band 1">
        <r>  0.1852  0.0060  0.0591  0.0030  0.5788  0.0060  0.0371  0.0030  0.0724 </r>
       </set>
       <set comment="band 2">
        <r>  0.0000  0.1230  0.0000  0.2460  0.0022  0.1659  0.0000  0.3317  0.0179 </r>
       </set>
       <set comment="band 3">
        <r>  0.0142  0.0306  0.0057  0.0153  0.0206  0.5730  0.0474  0.2865  0.0026 </r>
       </set>
       <set comment="band 4">
        <r>  0.1063  0.0043  0.0076  0.0022  0.0844  0.0541  0.6204  0.0270  0.0106 </r>
       </set>
       <set comment="band 5">
        <r>  0.0000  0.0907  0.0000  0.1814  0.0414  0.1137  0.0000  0.2274  0.3309 </r>
       </set>
       <set comment="band 6">
        <r>  0.0000  0.0858  0.0000  0.1715  0.0667  0.0461  0.0000  0.0923  0.5335 </r>
       </set>
      </set>
      <set comment="kpoint 48">
       <set comment="band 1">
        <r>  0.1393  0.0439  0.0714  0.0000  0.5526  0.0539  0.0225  0.0007  0.0557 </r>
       </set>
       <set comment="band 2">
        <r>  0.0265  0.0148  0.0022  0.1821  0.0442  0.4272  0.0326  0.0880  0.0937 </r>
       </set>
       <set comment="band 3">
        <r>  0.0312  0.1138  0.0063  0.0175  0.0229  0.1213  0.1303  0.5036  0.0052 </r>
       </set>
       <set comment="band 4">
        <r>  0.0392  0.0145  0.0334  0.0335  0.0417  0.1294  0.5580  0.0851  0.0042 </r>
       </set>
       <set comment="band 5">
        <r>  0.0439  0.0431  0.0035  0.1069  0.0177  0.1545  0.0006  0.1352  0.4591 </r>
       </set>
       <set comment="band 6">
        <r>  0.0989  0.1183  0.0137  0.1249  0.2058  0.0313  0.0547  0.0719  0.2790 </r>
       </set>
      </set>
      <set comment="kpoint 49">
       <set comment="band 1">
        <r>  0.0000  0.0929  0.0697  0.0465  0.5655  0.0226  0.0256  0.0113  0.0707 </r>
       </set>
       <set comment="band 2">
        <r>  0.0000  0.0697  0.0000  0.1394  0.0113  0.1981  0.0000  0.3961  0.0902 </r>
       </set>
       <set comment="band 3">
        <r>  0.1808  0.0032  0.0096  0.0016  0.0587  0.3525  0.1983  0.1762  0.0073 </r>
       </set>
       <set comment="band 4">
        <r>  0.0000  0.0636  0.0477  0.0318  0.0119  0.1268  0.6069  0.0634  0.0015 </r>
       </set>
       <set comment="band 5">
        <r>  0.0000  0.0477  0.0000  0.0954  0.0634  0.0799  0.0000  0.1598  0.5073 </r>
       </set>
       <set comment="band 6">
        <r>  0.5327  0.0177  0.0530  0.0088  0.0187  0.1121  0.0631  0.0561  0.0023 </r>
       </set>
      </set>
      <set comment="kpoint 50">
       <set comment="band 1">
        <r>  0.0000  0.1284  0.0632  0.0118  0.0679  0.1795  0.4635  0.0590  0.0225 </r>
       </set>
       <set comment="band 2">
        <r>  0.0000  0.0298  0.0046  0.1689  0.0532  0.0001  0.0341  0.0465  0.6585 </r>
       </set>
       <set comment="band 3">
        <r>  0.1578  0.0804  0.2411  0.0402  0.0325  0.1947  0.1095  0.0974  0.0041 </r>
       </set>
       <set comment="band 4">
        <r>  0.0000  0.0004  0.0002  0.0001  0.7663  0.0002  0.1091  0.0375  0.0753 </r>
       </set>
       <set comment="band 5">
        <r>  0.0000  0.0002  0.0000  0.0006  0.0045  0.3242  0.0027  0.5961  0.0610 </r>
       </set>
       <set comment="band 6">
        <r>  0.7673  0.0213  0.0638  0.0106  0.0054  0.0325  0.0183  0.0163  0.0007 </r>
       </set>
      </set>
      <set comment="kpoint 51">
       <set comment="band 1">
        <r>  0.0440  0.0428  0.1284  0.0856  0.0669  0.1470  0.0017  0.2007  0.2652 </r>
       </set>
       <set comment="band 2">
        <r>  0.0000  0.1608  0.0536  0.0000  0.1961  0.1308  0.2942  0.0654  0.0981 </r>
       </set>
       <set comment="band 3">
        <r>  0.0000  0.0316  0.0949  0.2531  0.0163  0.0979  0.2203  0.0490  0.2040 </r>
       </set>
       <set comment="band 4">
        <r>  0.0042  0.0002  0.0005  0.0003  0.1245  0.3574  0.0594  0.3735  0.0720 </r>
       </set>
       <set comment="band 5">
        <r>  0.0000  0.0000  0.0000  0.0000  0.4969  0.0828  0.1863  0.1656  0.0621 </r>
       </set>
       <set comment="band 6">
        <r>  0.8966  0.0034  0.0102  0.0068  0.0011  0.0135  0.0000  0.0032  0.0153 </r>
       </set>
      </set>
      <set comment="kpoint 52">
       <set comment="band 1">
        <r>  0.5914  0.0391  0.1172  0.0781  0.0131  0.0196  0.0049  0.0392  0.0016 </r>
       </set>
       <set comment="band 2">
        <r>  0.0000  0.0000  0.0000  0.0000  0.4188  0.0698  0.1571  0.1396  0.0524 </r>
       </set>
       <set comment="band 3">
        <r>  0.0000  0.0070  0.0209  0.0558  0.0252  0.1510  0.3398  0.0755  0.3147 </r>
       </set>
       <set comment="band 4">
        <r>  0.0000  0.0628  0.0209  0.0000  0.2266  0.1510  0.3398  0.0755  0.1133 </r>
       </set>
       <set comment="band 5">
        <r>  0.0000  0.0000  0.0000  0.0000  0.0547  0.3285  0.0000  0.1642  0.4380 </r>
       </set>
       <set comment="band 6">
        <r>  0.0783  0.0018  0.0055  0.0037  0.1513  0.2269  0.0567  0.4539  0.0189 </r>
       </set>
      </set>
      <set comment="kpoint 53">
       <set comment="band 1">
        <r>  0.4421  0.0530  0.1133  0.1060  0.0833  0.0356  0.0009  0.0713  0.0104 </r>
       </set>
       <set comment="band 2">
        <r>  0.0016  0.0084  0.0030  0.0167  0.5212  0.0752  0.0213  0.1505  0.0651 </r>
       </set>
       <set comment="band 3">
        <r>  0.0000  0.0557  0.0000  0.0278  0.0094  0.5449  0.0000  0.2725  0.0749 </r>
       </set>
       <set comment="band 4">
        <r>  0.0001  0.0330  0.0182  0.0661  0.0266  0.0006  0.8097  0.0011  0.0033 </r>
       </set>
       <set comment="band 5">
        <r>  0.0000  0.0192  0.0000  0.0096  0.0901  0.0814  0.0000  0.0407  0.7204 </r>
       </set>
       <set comment="band 6">
        <r>  0.1682  0.0102  0.0068  0.0205  0.1426  0.1986  0.0249  0.3972  0.0178 </r>
       </set>
      </set>
      <set comment="kpoint 54">
       <set comment="band 1">
        <r>  0.2557  0.0313  0.0994  0.0625  0.3623  0.0222  0.0049  0.0443  0.0453 </r>
       </set>
       <set comment="band 2">
        <r>  0.0211  0.0455  0.0000  0.0910  0.2789  0.1304  0.0166  0.2607  0.0349 </r>
       </set>
       <set comment="band 3">
        <r>  0.0000  0.0505  0.0000  0.0253  0.0018  0.5964  0.0000  0.2982  0.0146 </r>
       </set>
       <set comment="band 4">
        <r>  0.0390  0.0295  0.0144  0.0589  0.0024  0.0063  0.7642  0.0127  0.0003 </r>
       </set>
       <set comment="band 5">
        <r>  0.2050  0.0642  0.0076  0.1285  0.1147  0.1456  0.0083  0.2911  0.0143 </r>
       </set>
       <set comment="band 6">
        <r>  0.0000  0.0305  0.0000  0.0153  0.0966  0.0250  0.0000  0.0125  0.7730 </r>
       </set>
      </set>
      <set comment="kpoint 55">
       <set comment="band 1">
        <r>  0.2772  0.0669  0.1155  0.0898  0.1159  0.1548  0.0000  0.0992  0.0003 </r>
       </set>
       <set comment="band 2">
        <r>  0.0000  0.0027  0.0080  0.0212  0.4459  0.1257  0.0561  0.0858  0.1324 </r>
       </set>
       <set comment="band 3">
        <r>  0.0077  0.1032  0.0034  0.0061  0.0279  0.2188  0.2664  0.3311  0.0005 </r>
       </set>
       <set comment="band 4">
        <r>  0.0000  0.0108  0.0323  0.0862  0.0020  0.0768  0.4183  0.1292  0.1975 </r>
       </set>
       <set comment="band 5">
        <r>  0.1176  0.0001  0.0197  0.0079  0.0055  0.3166  0.0739  0.0205  0.3885 </r>
       </set>
       <set comment="band 6">
        <r>  0.1464  0.1057  0.0085  0.0294  0.2761  0.0205  0.0090  0.2261  0.1449 </r>
       </set>
      </set>
      <set comment="kpoint 56">
       <set comment="band 1">
        <r>  0.1385  0.0028  0.0796  0.0055  0.6215  0.0015  0.0025  0.0030  0.0777 </r>
       </set>
       <set comment="band 2">
        <r>  0.0100  0.0867  0.0007  0.1733  0.0257  0.1941  0.0052  0.3882  0.0032 </r>
       </set>
       <set comment="band 3">
        <r>  0.0000  0.0485  0.0000  0.0242  0.0002  0.6104  0.0000  0.3052  0.0013 </r>
       </set>
       <set comment="band 4">
        <r>  0.1405  0.0045  0.0208  0.0090  0.0318  0.0037  0.6876  0.0073  0.0040 </r>
       </set>
       <set comment="band 5">
        <r>  0.0680  0.1732  0.0038  0.3464  0.0312  0.1137  0.0199  0.2274  0.0039 </r>
       </set>
       <set comment="band 6">
        <r>  0.0000  0.0090  0.0000  0.0045  0.1062  0.0036  0.0000  0.0018  0.8494 </r>
       </set>
      </set>
      <set comment="kpoint 57">
       <set comment="band 1">
        <r>  0.1087  0.0402  0.0910  0.0143  0.5473  0.0316  0.0048  0.0226  0.0568 </r>
       </set>
       <set comment="band 2">
        <r>  0.0226  0.0245  0.0011  0.1185  0.0984  0.2768  0.0245  0.2743  0.0529 </r>
       </set>
       <set comment="band 3">
        <r>  0.0528  0.0806  0.0049  0.0001  0.0007  0.2533  0.1979  0.3677  0.0004 </r>
       </set>
       <set comment="band 4">
        <r>  0.0449  0.0105  0.0472  0.0601  0.0046  0.1733  0.5087  0.0632  0.0261 </r>
       </set>
       <set comment="band 5">
        <r>  0.1146  0.0243  0.0097  0.1179  0.0041  0.1531  0.0007  0.0507  0.4780 </r>
       </set>
       <set comment="band 6">
        <r>  0.0903  0.1611  0.0102  0.0789  0.2143  0.0111  0.0360  0.1063  0.2666 </r>
       </set>
      </set>
      <set comment="kpoint 58">
       <set comment="band 1">
        <r>  0.0604  0.0080  0.0739  0.0040  0.6759  0.0003  0.0098  0.0001  0.0845 </r>
       </set>
       <set comment="band 2">
        <r>  0.0000  0.0673  0.0000  0.1346  0.0011  0.2279  0.0000  0.4557  0.0087 </r>
       </set>
       <set comment="band 3">
        <r>  0.0943  0.0368  0.0103  0.0184  0.0007  0.3895  0.2153  0.1948  0.0001 </r>
       </set>
       <set comment="band 4">
        <r>  0.0823  0.0329  0.0541  0.0165  0.0024  0.1850  0.4683  0.0925  0.0003 </r>
       </set>
       <set comment="band 5">
        <r>  0.0000  0.0722  0.0000  0.1444  0.0702  0.0394  0.0000  0.0788  0.5617 </r>
       </set>
       <set comment="band 6">
        <r>  0.0000  0.1659  0.0000  0.3318  0.0385  0.0505  0.0000  0.1010  0.3080 </r>
       </set>
      </set>
      <set comment="kpoint 59">
       <set comment="band 1">
        <r>  0.0000  0.0080  0.0240  0.0640  0.4247  0.1142  0.0615  0.0869  0.1174 </r>
       </set>
       <set comment="band 2">
        <r>  0.0246  0.0794  0.0362  0.0467  0.2018  0.2189  0.0062  0.2911  0.0002 </r>
       </set>
       <set comment="band 3">
        <r>  0.1380  0.0377  0.0294  0.0013  0.0225  0.2326  0.2141  0.2800  0.0049 </r>
       </set>
       <set comment="band 4">
        <r>  0.0000  0.0149  0.0447  0.1193  0.0073  0.0590  0.4036  0.1320  0.1621 </r>
       </set>
       <set comment="band 5">
        <r>  0.0443  0.1012  0.0329  0.0500  0.0336  0.2008  0.0827  0.0033  0.4004 </r>
       </set>
       <set comment="band 6">
        <r>  0.2235  0.0773  0.0726  0.0693  0.2213  0.0380  0.0997  0.0120  0.1443 </r>
       </set>
      </set>
      <set comment="kpoint 60">
       <set comment="band 1">
        <r>  0.2740  0.0492  0.1475  0.0983  0.0575  0.0863  0.0216  0.1725  0.0072 </r>
       </set>
       <set comment="band 2">
        <r>  0.0000  0.0000  0.0000  0.0000  0.4325  0.0721  0.1622  0.1442  0.0541 </r>
       </set>
       <set comment="band 3">
        <r>  0.0000  0.0125  0.0375  0.0999  0.0225  0.1352  0.3042  0.0676  0.2816 </r>
       </set>
       <set comment="band 4">
        <r>  0.0000  0.1124  0.0375  0.0000  0.2028  0.1352  0.3042  0.0676  0.1014 </r>
       </set>
       <set comment="band 5">
        <r>  0.0000  0.0000  0.0000  0.0000  0.0529  0.3171  0.0000  0.1586  0.4229 </r>
       </set>
       <set comment="band 6">
        <r>  0.2996  0.0146  0.0437  0.0291  0.0948  0.1422  0.0356  0.2844  0.0119 </r>
       </set>
      </set>
      <set comment="kpoint 61">
       <set comment="band 1">
        <r>  0.1126  0.0348  0.1011  0.0697  0.3094  0.0722  0.0295  0.1443  0.0387 </r>
       </set>
       <set comment="band 2">
        <r>  0.0072  0.0130  0.0004  0.0259  0.3140  0.1402  0.0661  0.2805  0.0393 </r>
       </set>
       <set comment="band 3">
        <r>  0.0000  0.0964  0.0000  0.0482  0.0078  0.4942  0.0000  0.2471  0.0624 </r>
       </set>
       <set comment="band 4">
        <r>  0.0593  0.0175  0.0926  0.0349  0.0357  0.0059  0.6769  0.0118  0.0045 </r>
       </set>
       <set comment="band 5">
        <r>  0.0000  0.0183  0.0000  0.0091  0.0885  0.0821  0.0000  0.0411  0.7078 </r>
       </set>
       <set comment="band 6">
        <r>  0.3081  0.0789  0.0342  0.1577  0.1015  0.0800  0.0115  0.1600  0.0127 </r>
       </set>
      </set>
      <set comment="kpoint 62">
       <set comment="band 1">
        <r>  0.0297  0.0014  0.0566  0.0027  0.6692  0.0005  0.0637  0.0011  0.0836 </r>
       </set>
       <set comment="band 2">
        <r>  0.0072  0.0448  0.0039  0.0896  0.0058  0.2486  0.0030  0.4972  0.0007 </r>
       </set>
       <set comment="band 3">
        <r>  0.0000  0.0880  0.0000  0.0440  0.0006  0.5459  0.0000  0.2730  0.0045 </r>
       </set>
       <set comment="band 4">
        <r>  0.1634  0.0017  0.1204  0.0034  0.0082  0.0019  0.6203  0.0038  0.0010 </r>
       </set>
       <set comment="band 5">
        <r>  0.0000  0.0089  0.0000  0.0044  0.1044  0.0104  0.0000  0.0052  0.8353 </r>
       </set>
       <set comment="band 6">
        <r>  0.1173  0.1903  0.0170  0.3807  0.0424  0.0529  0.0379  0.1058  0.0053 </r>
       </set>
      </set>
      <set comment="kpoint 63">
       <set comment="band 1">
        <r>  0.0000  0.0020  0.0061  0.0163  0.4558  0.0971  0.1142  0.1219  0.0869 </r>
       </set>
       <set comment="band 2">
        <r>  0.0314  0.0457  0.0513  0.0459  0.1585  0.2112  0.0239  0.3356  0.0068 </r>
       </set>
       <set comment="band 3">
        <r>  0.0876  0.0610  0.0705  0.0057  0.0404  0.2102  0.2303  0.2355  0.0000 </r>
       </set>
       <set comment="band 4">
        <r>  0.0000  0.0170  0.0510  0.1360  0.0010  0.0902  0.3400  0.0937  0.2106 </r>
       </set>
       <set comment="band 5">
        <r>  0.1158  0.0507  0.0557  0.0503  0.0246  0.2428  0.0323  0.0037  0.3626 </r>
       </set>
       <set comment="band 6">
        <r>  0.1350  0.1922  0.0432  0.0797  0.2032  0.0033  0.0420  0.0679  0.1836 </r>
       </set>
      </set>
      <set comment="kpoint 64">
       <set comment="band 1">
        <r>  0.0050  0.0097  0.0331  0.0049  0.6497  0.0004  0.1239  0.0002  0.0812 </r>
       </set>
       <set comment="band 2">
        <r>  0.0000  0.0296  0.0000  0.0592  0.0004  0.2714  0.0000  0.5429  0.0035 </r>
       </set>
       <set comment="band 3">
        <r>  0.1106  0.0388  0.0805  0.0194  0.0256  0.2928  0.2227  0.1464  0.0032 </r>
       </set>
       <set comment="band 4">
        <r>  0.0282  0.0710  0.0926  0.0355  0.0145  0.2174  0.3659  0.1087  0.0018 </r>
       </set>
       <set comment="band 5">
        <r>  0.0000  0.0631  0.0000  0.1262  0.0806  0.0127  0.0000  0.0255  0.6448 </r>
       </set>
       <set comment="band 6">
        <r>  0.0000  0.2093  0.0000  0.4187  0.0285  0.0256  0.0000  0.0511  0.2277 </r>
       </set>
      </set>
      <set comment="kpoint 65">
       <set comment="band 1">
        <r>  0.0000  0.0000  0.0000  0.0000  0.4495  0.0749  0.1686  0.1498  0.0562 </r>
       </set>
       <set comment="band 2">
        <r>  0.0331  0.0228  0.0685  0.0457  0.1238  0.1856  0.0464  0.3713  0.0155 </r>
       </set>
       <set comment="band 3">
        <r>  0.0000  0.1599  0.0533  0.0000  0.1814  0.1210  0.2722  0.0605  0.0907 </r>
       </set>
       <set comment="band 4">
        <r>  0.0000  0.0178  0.0533  0.1421  0.0202  0.1210  0.2722  0.0605  0.2520 </r>
       </set>
       <set comment="band 5">
        <r>  0.0000  0.0000  0.0000  0.0000  0.0526  0.3153  0.0000  0.1577  0.4205 </r>
       </set>
       <set comment="band 6">
        <r>  0.3638  0.0652  0.1955  0.1304  0.0264  0.0396  0.0099  0.0793  0.0033 </r>
       </set>
      </set>
      <set comment="kpoint 66">
       <set comment="band 1">
        <r>  0.0014  0.0000  0.0125  0.0001  0.6010  0.0175  0.1693  0.0349  0.0751 </r>
       </set>
       <set comment="band 2">
        <r>  0.0036  0.0171  0.0112  0.0341  0.0327  0.2681  0.0081  0.5362  0.0041 </r>
       </set>
       <set comment="band 3">
        <r>  0.0796  0.0029  0.2174  0.0059  0.0750  0.0004  0.5354  0.0008  0.0094 </r>
       </set>
       <set comment="band 4">
        <r>  0.0000  0.1262  0.0000  0.0631  0.0028  0.4814  0.0000  0.2407  0.0222 </r>
       </set>
       <set comment="band 5">
        <r>  0.0000  0.0073  0.0000  0.0036  0.1000  0.0359  0.0000  0.0180  0.8002 </r>
       </set>
       <set comment="band 6">
        <r>  0.1471  0.1840  0.0756  0.3680  0.0382  0.0186  0.0336  0.0372  0.0048 </r>
       </set>
      </set>
      <set comment="kpoint 67">
       <set comment="band 1">
        <r>  0.0000  0.0098  0.0074  0.0049  0.6146  0.0002  0.2036  0.0001  0.0768 </r>
       </set>
       <set comment="band 2">
        <r>  0.0000  0.0074  0.0000  0.0148  0.0001  0.2982  0.0000  0.5963  0.0008 </r>
       </set>
       <set comment="band 3">
        <r>  0.0562  0.0460  0.1379  0.0230  0.0493  0.2956  0.1663  0.1478  0.0062 </r>
       </set>
       <set comment="band 4">
        <r>  0.0000  0.0614  0.0000  0.1227  0.0836  0.0028  0.0000  0.0055  0.6690 </r>
       </set>
       <set comment="band 5">
        <r>  0.0000  0.0818  0.0613  0.0409  0.0675  0.1673  0.4342  0.0836  0.0084 </r>
       </set>
       <set comment="band 6">
        <r>  0.0000  0.2250  0.0000  0.4492  0.0256  0.0063  0.0000  0.0126  0.2047 </r>
       </set>
      </set>
      <set comment="kpoint 68">
       <set comment="band 1">
        <r>  0.0000  0.0000  0.0000  0.0000  0.4604  0.0767  0.1726  0.1535  0.0575 </r>
       </set>
       <set comment="band 2">
        <r>  0.0003  0.0024  0.0073  0.0049  0.1512  0.2268  0.0567  0.4536  0.0189 </r>
       </set>
       <set comment="band 3">
        <r>  0.0000  0.1379  0.0460  0.0000  0.1897  0.1265  0.2846  0.0632  0.0949 </r>
       </set>
       <set comment="band 4">
        <r>  0.0000  0.0153  0.0460  0.1226  0.0211  0.1265  0.2846  0.0632  0.2635 </r>
       </set>
       <set comment="band 5">
        <r>  0.0000  0.0000  0.0000  0.0000  0.0537  0.3221  0.0000  0.1610  0.4294 </r>
       </set>
       <set comment="band 6">
        <r>  0.0947  0.1276  0.3828  0.2552  0.0026  0.0039  0.0010  0.0079  0.0003 </r>
       </set>
      </set>
     </set>
    </set>
   </array>
  </projected>
 </calculation>
 <structure name="finalpos" >
  <crystal>
   <varray name="basis" >
    <v>       2.86654409       0.00000000       0.00000000 </v>
    <v>      -0.95551470       2.70260368       0.00000000 </v>
    <v>      -0.95551470      -1.35130184       2.34052345 </v>
   </varray>
   <i name="volume">     18.13234550 </i>
   <varray name="rec_basis" >
    <v>       0.34885213       0.12333785       0.21362743 </v>
    <v>       0.00000000       0.37001356       0.21362743 </v>
    <v>       0.00000000       0.00000000       0.42725485 </v>
   </varray>
  </crystal>
  <varray name="positions" >
   <v>       0.00000000       0.00000000       0.00000000 </v>
  </varray>
 </structure>
</modeling>
