<?xml version="1.0" encoding="ISO-8859-1"?>
<modeling>
 <generator>
  <i name="program" type="string">vasp </i>
  <i name="version" type="string">5.2.12  </i>
  <i name="subversion" type="string">11Nov11 complex                                                      parallel </i>
  <i name="platform" type="string">LinuxIFC </i>
  <i name="date" type="string">2012 10 14 </i>
  <i name="time" type="string">15:40:40 </i>
 </generator>
 <incar>
  <i type="string" name="PREC">accurate</i>
  <i name="ENCUT">    350.00000000</i>
  <i type="logical" name="LREAL"> F  </i>
  <i type="int" name="ISMEAR">     1</i>
  <i name="SIGMA">      0.05000000</i>
 </incar>
 <kpoints>
  <generation param="Monkhorst-Pack">
   <v type="int" name="divisions">      12       12       12 </v>
   <v name="usershift">      0.00000000       0.00000000       0.00000000 </v>
   <v name="genvec1">      0.08333333       0.00000000       0.00000000 </v>
   <v name="genvec2">      0.00000000       0.08333333       0.00000000 </v>
   <v name="genvec3">      0.00000000       0.00000000       0.08333333 </v>
   <v name="shift">      0.50000000       0.50000000       0.50000000 </v>
  </generation>
  <varray name="kpointlist" >
   <v>       0.04166667       0.04166667       0.04166667 </v>
   <v>       0.12500000       0.04166667       0.04166667 </v>
   <v>       0.20833333       0.04166667       0.04166667 </v>
   <v>       0.29166667       0.04166667       0.04166667 </v>
   <v>       0.37500000       0.04166667       0.04166667 </v>
   <v>       0.45833333       0.04166667       0.04166667 </v>
   <v>      -0.04166667       0.04166667       0.04166667 </v>
   <v>       0.12500000       0.12500000       0.04166667 </v>
   <v>       0.20833333       0.12500000       0.04166667 </v>
   <v>       0.29166667       0.12500000       0.04166667 </v>
   <v>       0.37500000       0.12500000       0.04166667 </v>
   <v>      -0.12500000       0.12500000       0.04166667 </v>
   <v>       0.20833333       0.20833333       0.04166667 </v>
   <v>       0.29166667       0.20833333       0.04166667 </v>
   <v>       0.37500000       0.20833333       0.04166667 </v>
   <v>      -0.20833333       0.20833333       0.04166667 </v>
   <v>      -0.12500000       0.20833333       0.04166667 </v>
   <v>       0.29166667       0.29166667       0.04166667 </v>
   <v>      -0.29166667       0.29166667       0.04166667 </v>
   <v>      -0.20833333       0.29166667       0.04166667 </v>
   <v>      -0.37500000       0.37500000       0.04166667 </v>
   <v>      -0.29166667       0.37500000       0.04166667 </v>
   <v>      -0.20833333       0.37500000       0.04166667 </v>
   <v>      -0.45833333       0.45833333       0.04166667 </v>
   <v>      -0.37500000       0.45833333       0.04166667 </v>
   <v>      -0.29166667       0.45833333       0.04166667 </v>
   <v>      -0.45833333      -0.45833333       0.04166667 </v>
   <v>      -0.37500000      -0.45833333       0.04166667 </v>
   <v>      -0.29166667      -0.45833333       0.04166667 </v>
   <v>      -0.37500000      -0.37500000       0.04166667 </v>
   <v>       0.12500000       0.12500000       0.12500000 </v>
   <v>       0.20833333       0.12500000       0.12500000 </v>
   <v>       0.29166667       0.12500000       0.12500000 </v>
   <v>       0.37500000       0.12500000       0.12500000 </v>
   <v>      -0.12500000       0.12500000       0.12500000 </v>
   <v>       0.20833333       0.20833333       0.12500000 </v>
   <v>       0.29166667       0.20833333       0.12500000 </v>
   <v>      -0.20833333       0.20833333       0.12500000 </v>
   <v>       0.29166667       0.29166667       0.12500000 </v>
   <v>      -0.29166667       0.29166667       0.12500000 </v>
   <v>      -0.20833333       0.29166667       0.12500000 </v>
   <v>      -0.37500000       0.37500000       0.12500000 </v>
   <v>      -0.29166667       0.37500000       0.12500000 </v>
   <v>      -0.45833333       0.45833333       0.12500000 </v>
   <v>      -0.37500000       0.45833333       0.12500000 </v>
   <v>      -0.29166667       0.45833333       0.12500000 </v>
   <v>      -0.45833333      -0.45833333       0.12500000 </v>
   <v>      -0.37500000      -0.45833333       0.12500000 </v>
   <v>      -0.37500000      -0.37500000       0.12500000 </v>
   <v>       0.20833333       0.20833333       0.20833333 </v>
   <v>       0.29166667       0.20833333       0.20833333 </v>
   <v>      -0.20833333       0.20833333       0.20833333 </v>
   <v>      -0.29166667       0.29166667       0.20833333 </v>
   <v>      -0.37500000       0.37500000       0.20833333 </v>
   <v>      -0.29166667       0.37500000       0.20833333 </v>
   <v>      -0.45833333       0.45833333       0.20833333 </v>
   <v>      -0.37500000       0.45833333       0.20833333 </v>
   <v>      -0.45833333      -0.45833333       0.20833333 </v>
   <v>      -0.37500000      -0.45833333       0.20833333 </v>
   <v>      -0.29166667       0.29166667       0.29166667 </v>
   <v>      -0.37500000       0.37500000       0.29166667 </v>
   <v>      -0.45833333       0.45833333       0.29166667 </v>
   <v>      -0.37500000       0.45833333       0.29166667 </v>
   <v>      -0.45833333      -0.45833333       0.29166667 </v>
   <v>      -0.37500000       0.37500000       0.37500000 </v>
   <v>      -0.45833333       0.45833333       0.37500000 </v>
   <v>      -0.45833333      -0.45833333       0.37500000 </v>
   <v>      -0.45833333       0.45833333       0.45833333 </v>
  </varray>
  <varray name="weights" >
   <v>       0.00462963 </v>
   <v>       0.01388889 </v>
   <v>       0.01388889 </v>
   <v>       0.01388889 </v>
   <v>       0.01388889 </v>
   <v>       0.00694444 </v>
   <v>       0.00347222 </v>
   <v>       0.01388889 </v>
   <v>       0.02777778 </v>
   <v>       0.02777778 </v>
   <v>       0.02777778 </v>
   <v>       0.01388889 </v>
   <v>       0.01388889 </v>
   <v>       0.02777778 </v>
   <v>       0.01388889 </v>
   <v>       0.01388889 </v>
   <v>       0.01388889 </v>
   <v>       0.01388889 </v>
   <v>       0.01388889 </v>
   <v>       0.02777778 </v>
   <v>       0.01388889 </v>
   <v>       0.02777778 </v>
   <v>       0.01388889 </v>
   <v>       0.01388889 </v>
   <v>       0.02777778 </v>
   <v>       0.02777778 </v>
   <v>       0.01388889 </v>
   <v>       0.02777778 </v>
   <v>       0.01388889 </v>
   <v>       0.01388889 </v>
   <v>       0.00462963 </v>
   <v>       0.01388889 </v>
   <v>       0.01388889 </v>
   <v>       0.00694444 </v>
   <v>       0.00347222 </v>
   <v>       0.01388889 </v>
   <v>       0.02777778 </v>
   <v>       0.01388889 </v>
   <v>       0.00462963 </v>
   <v>       0.01388889 </v>
   <v>       0.01388889 </v>
   <v>       0.01388889 </v>
   <v>       0.02777778 </v>
   <v>       0.01388889 </v>
   <v>       0.02777778 </v>
   <v>       0.01388889 </v>
   <v>       0.01388889 </v>
   <v>       0.02777778 </v>
   <v>       0.00462963 </v>
   <v>       0.00462963 </v>
   <v>       0.00694444 </v>
   <v>       0.00347222 </v>
   <v>       0.01388889 </v>
   <v>       0.01388889 </v>
   <v>       0.01388889 </v>
   <v>       0.01388889 </v>
   <v>       0.02777778 </v>
   <v>       0.01388889 </v>
   <v>       0.01388889 </v>
   <v>       0.00347222 </v>
   <v>       0.01388889 </v>
   <v>       0.01388889 </v>
   <v>       0.01388889 </v>
   <v>       0.01388889 </v>
   <v>       0.00347222 </v>
   <v>       0.01388889 </v>
   <v>       0.00462963 </v>
   <v>       0.00347222 </v>
  </varray>
 </kpoints>
 <parameters>
  <separator name="general" >
   <i type="string" name="SYSTEM">unknown system</i>
   <i type="logical" name="LCOMPAT"> F  </i>
  </separator>
  <separator name="electronic" >
   <i type="string" name="PREC">accura</i>
   <i name="ENMAX">    350.00000000</i>
   <i name="ENAUG">    332.07500000</i>
   <i name="EDIFF">      0.00010000</i>
   <i type="int" name="IALGO">    38</i>
   <i type="int" name="IWAVPR">    10</i>
   <i type="int" name="NBANDS">     6</i>
   <i name="NELECT">      5.00000000</i>
   <i type="int" name="TURBO">     0</i>
   <i type="int" name="IRESTART">     0</i>
   <i type="int" name="NREBOOT">     0</i>
   <i type="int" name="NMIN">     0</i>
   <i name="EREF">      0.00000000</i>
   <separator name="electronic smearing" >
    <i type="int" name="ISMEAR">     1</i>
    <i name="SIGMA">      0.05000000</i>
    <i name="KSPACING">      0.50000000</i>
    <i type="logical" name="KGAMMA"> T  </i>
   </separator>
   <separator name="electronic projectors" >
    <i type="logical" name="LREAL"> F  </i>
    <v name="ROPT">      0.00000000</v>
    <i type="int" name="LMAXPAW">  -100</i>
    <i type="int" name="LMAXMIX">     2</i>
    <i type="logical" name="NLSPLINE"> F  </i>
   </separator>
   <separator name="electronic startup" >
    <i type="int" name="ISTART">     0</i>
    <i type="int" name="ICHARG">     2</i>
    <i type="int" name="INIWAV">     1</i>
   </separator>
   <separator name="electronic spin" >
    <i type="int" name="ISPIN">     1</i>
    <i type="logical" name="LNONCOLLINEAR"> F  </i>
    <v name="MAGMOM">      1.00000000</v>
    <i name="NUPDOWN">     -1.00000000</i>
    <i type="logical" name="LSORBIT"> F  </i>
    <v name="SAXIS">      0.00000000      0.00000000      1.00000000</v>
    <i type="logical" name="LSPIRAL"> F  </i>
    <v name="QSPIRAL">      0.00000000      0.00000000      0.00000000</v>
    <i type="logical" name="LZEROZ"> F  </i>
   </separator>
   <separator name="electronic exchange-correlation" >
    <i type="logical" name="LASPH"> F  </i>
    <i type="logical" name="LMETAGGA"> F  </i>
   </separator>
   <separator name="electronic convergence" >
    <i type="int" name="NELM">    60</i>
    <i type="int" name="NELMDL">    -5</i>
    <i type="int" name="NELMIN">     2</i>
    <i name="ENINI">    350.00000000</i>
    <separator name="electronic convergence detail" >
     <i type="logical" name="LDIAG"> T  </i>
     <i type="logical" name="LSUBROT"> T  </i>
     <i name="WEIMIN">      0.00000000</i>
     <i name="EBREAK">      0.00000417</i>
     <i name="DEPER">      0.30000000</i>
     <i type="int" name="NRMM">     4</i>
     <i name="TIME">      0.40000000</i>
    </separator>
   </separator>
   <separator name="electronic mixer" >
    <i name="AMIX">      0.40000000</i>
    <i name="BMIX">      1.00000000</i>
    <i name="AMIN">      0.10000000</i>
    <i name="AMIX_MAG">      1.60000000</i>
    <i name="BMIX_MAG">      1.00000000</i>
    <separator name="electronic mixer details" >
     <i type="int" name="IMIX">     4</i>
     <i type="int" name="MAXMIX">   -45</i>
     <i name="WC">    100.00000000</i>
     <i type="int" name="INIMIX">     1</i>
     <i type="int" name="MIXPRE">     1</i>
     <i type="int" name="MREMOVE">     5</i>
    </separator>
   </separator>
   <separator name="electronic dipolcorrection" >
    <i type="logical" name="LDIPOL"> F  </i>
    <i type="logical" name="LMONO"> F  </i>
    <i type="int" name="IDIPOL">     0</i>
    <i name="EPSILON">      1.00000000</i>
    <v name="DIPOL">   -100.00000000   -100.00000000   -100.00000000</v>
    <i name="EFIELD">      0.00000000</i>
   </separator>
  </separator>
  <separator name="grids" >
   <i type="int" name="NGX">    18</i>
   <i type="int" name="NGY">    18</i>
   <i type="int" name="NGZ">    18</i>
   <i type="int" name="NGXF">    36</i>
   <i type="int" name="NGYF">    36</i>
   <i type="int" name="NGZF">    36</i>
   <i type="logical" name="ADDGRID"> F  </i>
  </separator>
  <separator name="ionic" >
   <i type="int" name="NSW">     0</i>
   <i type="int" name="IBRION">    -1</i>
   <i type="int" name="ISIF">     2</i>
   <i name="PSTRESS">      0.00000000</i>
   <i name="EDIFFG">      0.00100000</i>
   <i type="int" name="NFREE">     0</i>
   <i name="POTIM">      0.50000000</i>
   <i name="SMASS">     -3.00000000</i>
   <i name="SCALEE">      1.00000000</i>
  </separator>
  <separator name="ionic md" >
   <i name="TEBEG">      0.00010000</i>
   <i name="TEEND">      0.00010000</i>
   <i type="int" name="NBLOCK">     1</i>
   <i type="int" name="KBLOCK">     1</i>
   <i type="int" name="NPACO">   256</i>
   <i name="APACO">     16.00000000</i>
  </separator>
  <separator name="symmetry" >
   <i type="int" name="ISYM">     2</i>
   <i name="SYMPREC">      0.00001000</i>
  </separator>
  <separator name="dos" >
   <i type="logical" name="LORBIT"> F  </i>
   <v name="RWIGS">     -1.00000000</v>
   <i type="int" name="NEDOS">   301</i>
   <i name="EMIN">     10.00000000</i>
   <i name="EMAX">    -10.00000000</i>
   <i name="EFERMI">      0.00000000</i>
  </separator>
  <separator name="writing" >
   <i type="int" name="NWRITE">     2</i>
   <i type="logical" name="LWAVE"> T  </i>
   <i type="logical" name="LCHARG"> T  </i>
   <i type="logical" name="LPARD"> F  </i>
   <i type="logical" name="LVTOT"> F  </i>
   <i type="logical" name="LVHAR"> F  </i>
   <i type="logical" name="LELF"> F  </i>
   <i type="logical" name="LOPTICS"> F  </i>
   <v name="STM">      0.00000000      0.00000000      0.00000000      0.00000000      0.00000000      0.00000000      0.00000000</v>
  </separator>
  <separator name="performance" >
   <i type="int" name="NPAR">     1</i>
   <i type="int" name="NSIM">     4</i>
   <i type="int" name="NBLK">    -1</i>
   <i type="logical" name="LPLANE"> T  </i>
   <i type="logical" name="LSCALAPACK"> F  </i>
   <i type="logical" name="LSCAAWARE"> F  </i>
   <i type="logical" name="LSCALU"> F  </i>
   <i type="logical" name="LASYNC"> F  </i>
   <i type="logical" name="LORBITALREAL"> F  </i>
  </separator>
  <separator name="miscellaneous" >
   <i type="int" name="IDIOT">     3</i>
   <i type="logical" name="LMUSIC"> F  </i>
   <v name="POMASS">    180.94800000</v>
   <v name="DARWINR">      0.00000000</v>
   <v name="DARWINV">      1.00000000</v>
   <i type="logical" name="LCORR"> T  </i>
  </separator>
  <i type="logical" name="GGA_COMPAT"> T  </i>
  <i type="logical" name="LBERRY"> F  </i>
  <i type="int" name="ICORELEVEL">     0</i>
  <i type="logical" name="LDAU"> F  </i>
  <i type="int" name="I_CONSTRAINED_M">     0</i>
  <separator name="electronic exchange-correlation" >
   <i type="string" name="GGA">--</i>
   <i type="int" name="VOSKOWN">     0</i>
   <i type="logical" name="LHFCALC"> F  </i>
   <i type="string" name="PRECFOCK"></i>
   <i type="logical" name="LHFONE"> F  </i>
   <i type="logical" name="LRHFCALC"> F  </i>
   <i type="logical" name="LTHOMAS"> F  </i>
   <i type="logical" name="LMODELHF"> F  </i>
   <i name="ENCUT4O">     -1.00000000</i>
   <i type="int" name="EXXOEP">     0</i>
   <i type="int" name="FOURORBIT">     0</i>
   <i name="AEXX">      0.00000000</i>
   <i name="HFALPHA">      0.00000000</i>
   <i name="ALDAX">      1.00000000</i>
   <i name="AGGAX">      1.00000000</i>
   <i name="ALDAC">      1.00000000</i>
   <i name="AGGAC">      1.00000000</i>
   <i type="int" name="NKREDX">     1</i>
   <i type="int" name="NKREDY">     1</i>
   <i type="int" name="NKREDZ">     1</i>
   <i type="logical" name="SHIFTRED"> F  </i>
   <i type="logical" name="ODDONLY"> F  </i>
   <i type="logical" name="EVENONLY"> F  </i>
   <i type="int" name="LMAXFOCK">     0</i>
   <i type="int" name="NMAXFOCKAE">     0</i>
   <i type="logical" name="LFOCKAEDFT"> F  </i>
   <i name="HFSCREEN">      0.00000000</i>
   <i name="HFSCREENC">      0.00000000</i>
  </separator>
  <separator name="vdW DFT" >
   <i type="logical" name="LUSE_VDW"> F  </i>
   <i name="Zab_VDW">     -0.84910000</i>
   <i name="PARAM1">      0.12340000</i>
   <i name="PARAM2">      1.00000000</i>
   <i name="PARAM3">      0.00000000</i>
  </separator>
  <separator name="model GW" >
   <i type="int" name="MODEL_GW">     0</i>
   <i name="MODEL_EPS0">     10.87940730</i>
   <i name="MODEL_ALPHA">      1.00000000</i>
  </separator>
  <separator name="linear response parameters" >
   <i type="logical" name="LEPSILON"> F  </i>
   <i type="logical" name="LRPA"> F  </i>
   <i type="logical" name="LNABLA"> F  </i>
   <i type="logical" name="LVEL"> F  </i>
   <i type="int" name="KINTER">     0</i>
   <i name="CSHIFT">      0.10000000</i>
   <i name="OMEGAMAX">     -1.00000000</i>
  </separator>
  <separator name="orbital magnetization" >
   <i type="logical" name="NUCIND"> F  </i>
   <v name="MAGPOS">      0.00000000      0.00000000      0.00000000</v>
   <i type="logical" name="LNICSALL"> T  </i>
   <i type="logical" name="ORBITALMAG"> F  </i>
   <i type="logical" name="LMAGBLOCH"> F  </i>
   <i type="logical" name="LCHIMAG"> F  </i>
   <i type="logical" name="LGAUGE"> T  </i>
   <i type="int" name="MAGATOM">     0</i>
   <v name="MAGDIPOL">      0.00000000      0.00000000      0.00000000</v>
   <v name="AVECCONST">      0.00000000      0.00000000      0.00000000</v>
  </separator>
  <separator name="response functions" >
   <i type="logical" name="LADDER"> F  </i>
   <i type="logical" name="LHARTREE"> T  </i>
   <i type="int" name="IBSE">     0</i>
   <i type="logical" name="LTCTE"> F  </i>
   <i type="logical" name="LTETE"> F  </i>
   <i type="logical" name="LFXCEPS"> F  </i>
   <i type="logical" name="L2ORDER"> F  </i>
   <i type="logical" name="LUSEW"> F  </i>
   <i name="ENCUTGW">     -2.00000000</i>
   <i name="ENCUTGWSOFT">     -2.00000000</i>
   <i name="ENCUTLF">     -1.00000000</i>
   <i type="int" name="LMAXMP2">    -1</i>
   <i name="SCISSOR">      0.00000000</i>
   <i type="int" name="NOMEGA">     0</i>
   <i type="int" name="NOMEGAR">     0</i>
   <i type="int" name="NBANDSGW">    -1</i>
   <i type="int" name="NBANDSO">    -1</i>
   <i type="int" name="NBANDSV">    -1</i>
   <i name="OPTEMAX">      0.00000000</i>
   <i type="int" name="NELM">     1</i>
   <i type="int" name="DIM">     3</i>
   <i type="int" name="ANTIRES">     0</i>
   <i name="OMEGAMAX">    -30.00000000</i>
   <i name="OMEGATL">   -200.00000000</i>
   <i type="int" name="OMEGAGRID">     0</i>
   <i name="CSHIFT">     -0.10000000</i>
   <i type="logical" name="SELFENERGY"> F  </i>
   <i type="logical" name="LSPECTRAL"> F  </i>
   <i type="logical" name="ODDONLYGW"> F  </i>
   <i type="logical" name="EVENONLYGW"> F  </i>
   <i type="int" name="NKREDLFX">     1</i>
   <i type="int" name="NKREDLFY">     1</i>
   <i type="int" name="NKREDLFZ">     1</i>
   <i type="int" name="MAXMEM">  1800</i>
   <i type="int" name="TELESCOPE">     0</i>
  </separator>
 </parameters>
 <atominfo>
  <atoms>       1 </atoms>
  <types>       1 </types>
  <array name="atoms" >
   <dimension dim="1">ion</dimension>
   <field type="string">element</field>
   <field type="int">atomtype</field>
   <set>
    <rc><c>Ta</c><c>   1</c></rc>
   </set>
  </array>
  <array name="atomtypes" >
   <dimension dim="1">type</dimension>
   <field type="int">atomspertype</field>
   <field type="string">element</field>
   <field>mass</field>
   <field>valence</field>
   <field type="string">pseudopotential</field>
   <set>
    <rc><c>   1</c><c>Ta</c><c>    180.94800000</c><c>      5.00000000</c><c>  PAW_PBE Ta 17Jan2003                  </c></rc>
   </set>
  </array>
 </atominfo>
 <structure name="initialpos" >
  <crystal>
   <varray name="basis" >
    <v>       2.86654409       0.00000000       0.00000000 </v>
    <v>      -0.95551470       2.70260368       0.00000000 </v>
    <v>      -0.95551470      -1.35130184       2.34052345 </v>
   </varray>
   <i name="volume">     18.13234550 </i>
   <varray name="rec_basis" >
    <v>       0.34885213       0.12333785       0.21362743 </v>
    <v>       0.00000000       0.37001356       0.21362743 </v>
    <v>       0.00000000       0.00000000       0.42725485 </v>
   </varray>
  </crystal>
  <varray name="positions" >
   <v>       0.00000000       0.00000000       0.00000000 </v>
  </varray>
 </structure>
 <calculation>
  <scstep>
   <time name="dav">    0.77    0.82</time>
   <time name="total">    0.88    0.98</time>
   <energy>
    <i name="alphaZ">     30.58334069 </i>
    <i name="ewald">   -197.90100875 </i>
    <i name="hartreedc">     -2.50452612 </i>
    <i name="XCdc">    -66.68582567 </i>
    <i name="pawpsdc">    148.27821850 </i>
    <i name="pawaedc">    -73.99089003 </i>
    <i name="eentropy">     -0.00011849 </i>
    <i name="bandstr">     29.13167078 </i>
    <i name="atom">    130.64621481 </i>
    <i name="e_fr_energy">     -2.44292428 </i>
    <i name="e_wo_entrp">     -2.44280579 </i>
    <i name="e_0_energy">     -2.44288478 </i>
   </energy>
  </scstep>
  <scstep>
   <time name="dav">    1.21    1.21</time>
   <time name="total">    1.21    1.24</time>
   <energy>
    <i name="e_fr_energy">    -12.30876177 </i>
    <i name="e_wo_entrp">    -12.30856040 </i>
    <i name="e_0_energy">    -12.30869465 </i>
   </energy>
  </scstep>
  <scstep>
   <time name="dav">    0.76    0.77</time>
   <time name="total">    0.77    0.78</time>
   <energy>
    <i name="e_fr_energy">    -12.35622073 </i>
    <i name="e_wo_entrp">    -12.35577589 </i>
    <i name="e_0_energy">    -12.35607245 </i>
   </energy>
  </scstep>
  <scstep>
   <time name="dav">    0.98    0.98</time>
   <time name="total">    0.98    1.07</time>
   <energy>
    <i name="e_fr_energy">    -12.35777285 </i>
    <i name="e_wo_entrp">    -12.35732802 </i>
    <i name="e_0_energy">    -12.35762457 </i>
   </energy>
  </scstep>
  <scstep>
   <time name="dav">    0.69    0.69</time>
   <time name="total">    0.76    0.84</time>
   <energy>
    <i name="e_fr_energy">    -12.35778348 </i>
    <i name="e_wo_entrp">    -12.35733866 </i>
    <i name="e_0_energy">    -12.35763521 </i>
   </energy>
  </scstep>
  <scstep>
   <time name="dav">    0.83    0.85</time>
   <time name="total">    0.98    1.37</time>
   <energy>
    <i name="e_fr_energy">    -12.02119910 </i>
    <i name="e_wo_entrp">    -12.02122189 </i>
    <i name="e_0_energy">    -12.02120670 </i>
   </energy>
  </scstep>
  <scstep>
   <time name="dav">    0.86    0.98</time>
   <time name="total">    1.01    1.18</time>
   <energy>
    <i name="e_fr_energy">    -11.86766547 </i>
    <i name="e_wo_entrp">    -11.86758928 </i>
    <i name="e_0_energy">    -11.86764007 </i>
   </energy>
  </scstep>
  <scstep>
   <time name="dav">    0.83    0.83</time>
   <time name="total">    0.97    1.54</time>
   <energy>
    <i name="e_fr_energy">    -11.86654196 </i>
    <i name="e_wo_entrp">    -11.86647127 </i>
    <i name="e_0_energy">    -11.86651839 </i>
   </energy>
  </scstep>
  <scstep>
   <time name="dav">    0.70    0.70</time>
   <time name="total">    0.77    0.79</time>
   <energy>
    <i name="alphaZ">     30.58334069 </i>
    <i name="ewald">   -197.90100875 </i>
    <i name="hartreedc">     -0.57121755 </i>
    <i name="XCdc">    -65.99084096 </i>
    <i name="pawpsdc">    193.49785805 </i>
    <i name="pawaedc">   -120.09569742 </i>
    <i name="eentropy">     -0.00007322 </i>
    <i name="bandstr">     17.96490006 </i>
    <i name="atom">    130.64621481 </i>
    <i name="e_fr_energy">    -11.86652429 </i>
    <i name="e_wo_entrp">    -11.86645106 </i>
    <i name="e_0_energy">    -11.86649988 </i>
   </energy>
  </scstep>
  <parameters_embedded>
   <separator name="dft+d2" >
    <i type="logical" name="LVDW"> F  </i>
   </separator>
  </parameters_embedded>
  <structure>
   <crystal>
    <varray name="basis" >
     <v>       2.86654409       0.00000000       0.00000000 </v>
     <v>      -0.95551470       2.70260368       0.00000000 </v>
     <v>      -0.95551470      -1.35130184       2.34052345 </v>
    </varray>
    <i name="volume">     18.13234550 </i>
    <varray name="rec_basis" >
     <v>       0.34885213       0.12333785       0.21362743 </v>
     <v>       0.00000000       0.37001356       0.21362743 </v>
     <v>       0.00000000       0.00000000       0.42725485 </v>
    </varray>
   </crystal>
   <varray name="positions" >
    <v>       0.00000000       0.00000000       0.00000000 </v>
   </varray>
  </structure>
  <varray name="forces" >
   <v>       0.00000000       0.00000000       0.00000000 </v>
  </varray>
  <varray name="stress" >
   <v>      -0.63946122       0.00000000       0.00000000 </v>
   <v>       0.00000000      -0.63946122       0.00000000 </v>
   <v>       0.00000000       0.00000000      -0.63946122 </v>
  </varray>
  <energy>
   <i name="e_fr_energy">    -11.86652429 </i>
   <i name="e_wo_entrp">    -11.86649988 </i>
   <i name="e_0_energy">     -0.00007322 </i>
  </energy>
  <time name="totalsc">    9.27   11.85</time>
  <eigenvalues>
   <array>
    <dimension dim="1">band</dimension>
    <dimension dim="2">kpoint</dimension>
    <dimension dim="3">spin</dimension>
    <field>eigene</field>
    <field>occ</field>
    <set>
     <set comment="spin 1">
      <set comment="kpoint 1">
       <r>   -1.7326    1.0000 </r>
       <r>    6.1908    0.0000 </r>
       <r>    6.1908    0.0000 </r>
       <r>    6.9626    0.0000 </r>
       <r>    9.4823    0.0000 </r>
       <r>    9.4823    0.0000 </r>
      </set>
      <set comment="kpoint 2">
       <r>   -0.9126    1.0000 </r>
       <r>    5.6753    0.9482 </r>
       <r>    5.8489   -0.0003 </r>
       <r>    7.9130    0.0000 </r>
       <r>    9.1114    0.0000 </r>
       <r>    9.6426    0.0000 </r>
      </set>
      <set comment="kpoint 3">
       <r>    0.2130    1.0000 </r>
       <r>    5.0915    1.0000 </r>
       <r>    5.4250    1.0000 </r>
       <r>    9.1115    0.0000 </r>
       <r>    9.3777    0.0000 </r>
       <r>    9.8600    0.0000 </r>
      </set>
      <set comment="kpoint 4">
       <r>    1.1530    1.0000 </r>
       <r>    4.5942    1.0000 </r>
       <r>    5.5036    1.0000 </r>
       <r>    9.4570    0.0000 </r>
       <r>   10.1452    0.0000 </r>
       <r>   11.1051    0.0000 </r>
      </set>
      <set comment="kpoint 5">
       <r>    1.4883    1.0000 </r>
       <r>    4.2680    1.0000 </r>
       <r>    6.3986    0.0000 </r>
       <r>    9.6599    0.0000 </r>
       <r>   10.4389    0.0000 </r>
       <r>   12.8365    0.0000 </r>
      </set>
      <set comment="kpoint 6">
       <r>    1.5189    1.0000 </r>
       <r>    4.1550    1.0000 </r>
       <r>    7.0658    0.0000 </r>
       <r>    9.6154    0.0000 </r>
       <r>   10.5743    0.0000 </r>
       <r>   13.6833    0.0000 </r>
      </set>
      <set comment="kpoint 7">
       <r>   -2.0260    1.0000 </r>
       <r>    6.4091    0.0000 </r>
       <r>    6.4091    0.0000 </r>
       <r>    6.5056    0.0000 </r>
       <r>    9.4127    0.0000 </r>
       <r>    9.7608    0.0000 </r>
      </set>
      <set comment="kpoint 8">
       <r>    0.0608    1.0000 </r>
       <r>    5.2362    1.0000 </r>
       <r>    5.2456    1.0000 </r>
       <r>    9.0769    0.0000 </r>
       <r>    9.2641    0.0000 </r>
       <r>    9.8771    0.0000 </r>
      </set>
      <set comment="kpoint 9">
       <r>    1.1944    1.0000 </r>
       <r>    4.7062    1.0000 </r>
       <r>    4.9649    1.0000 </r>
       <r>    9.2223    0.0000 </r>
       <r>   10.2082    0.0000 </r>
       <r>   10.9807    0.0000 </r>
      </set>
      <set comment="kpoint 10">
       <r>    1.8979    1.0000 </r>
       <r>    4.3537    1.0000 </r>
       <r>    5.3757    1.0000 </r>
       <r>    9.5465    0.0000 </r>
       <r>   10.4405    0.0000 </r>
       <r>   12.8144    0.0000 </r>
      </set>
      <set comment="kpoint 11">
       <r>    2.0266    1.0000 </r>
       <r>    4.1776    1.0000 </r>
       <r>    6.2621    0.0000 </r>
       <r>    9.6801    0.0000 </r>
       <r>   10.6341    0.0000 </r>
       <r>   14.2143    0.0000 </r>
      </set>
      <set comment="kpoint 12">
       <r>   -1.4459    1.0000 </r>
       <r>    6.0753    0.0000 </r>
       <r>    6.2679    0.0000 </r>
       <r>    7.0725    0.0000 </r>
       <r>    8.8498    0.0000 </r>
       <r>    9.8840    0.0000 </r>
      </set>
      <set comment="kpoint 13">
       <r>    2.2269    1.0000 </r>
       <r>    4.3760    1.0000 </r>
       <r>    4.8198    1.0000 </r>
       <r>    9.4028    0.0000 </r>
       <r>   10.4736    0.0000 </r>
       <r>   12.8754    0.0000 </r>
      </set>
      <set comment="kpoint 14">
       <r>    2.7184    1.0000 </r>
       <r>    4.2620    1.0000 </r>
       <r>    5.2362    1.0000 </r>
       <r>    9.7171    0.0000 </r>
       <r>   10.5402    0.0000 </r>
       <r>   14.6957    0.0000 </r>
      </set>
      <set comment="kpoint 15">
       <r>    2.7683    1.0000 </r>
       <r>    4.2430    1.0000 </r>
       <r>    5.6321    1.0262 </r>
       <r>    9.8158    0.0000 </r>
       <r>   10.6563    0.0000 </r>
       <r>   14.9774    0.0000 </r>
      </set>
      <set comment="kpoint 16">
       <r>   -0.4265    1.0000 </r>
       <r>    5.5190    1.0000 </r>
       <r>    5.8350   -0.0010 </r>
       <r>    8.2205    0.0000 </r>
       <r>    8.6488    0.0000 </r>
       <r>   10.0153    0.0000 </r>
      </set>
      <set comment="kpoint 17">
       <r>   -0.6445    1.0000 </r>
       <r>    5.8426   -0.0005 </r>
       <r>    5.9020    0.0000 </r>
       <r>    7.8583    0.0000 </r>
       <r>    8.2767    0.0000 </r>
       <r>   10.1851    0.0000 </r>
      </set>
      <set comment="kpoint 18">
       <r>    3.1878    1.0000 </r>
       <r>    4.4768    1.0000 </r>
       <r>    5.0283    1.0000 </r>
       <r>   10.0906    0.0000 </r>
       <r>   10.4634    0.0000 </r>
       <r>   14.3935    0.0000 </r>
      </set>
      <set comment="kpoint 19">
       <r>    0.6728    1.0000 </r>
       <r>    4.9558    1.0000 </r>
       <r>    5.5091    1.0000 </r>
       <r>    8.9496    0.0000 </r>
       <r>    9.8233    0.0000 </r>
       <r>   10.2023    0.0000 </r>
      </set>
      <set comment="kpoint 20">
       <r>    0.4612    1.0000 </r>
       <r>    5.2708    1.0000 </r>
       <r>    5.4745    1.0000 </r>
       <r>    8.2824    0.0000 </r>
       <r>    9.2515    0.0000 </r>
       <r>   10.4194    0.0000 </r>
      </set>
      <set comment="kpoint 21">
       <r>    1.3021    1.0000 </r>
       <r>    4.5199    1.0000 </r>
       <r>    5.9553    0.0000 </r>
       <r>    9.3649    0.0000 </r>
       <r>   10.4233    0.0000 </r>
       <r>   11.6609    0.0000 </r>
      </set>
      <set comment="kpoint 22">
       <r>    1.4069    1.0000 </r>
       <r>    4.7982    1.0000 </r>
       <r>    5.3531    1.0000 </r>
       <r>    8.7423    0.0000 </r>
       <r>   10.5036    0.0000 </r>
       <r>   11.0717    0.0000 </r>
      </set>
      <set comment="kpoint 23">
       <r>    1.5222    1.0000 </r>
       <r>    4.6996    1.0000 </r>
       <r>    5.3211    1.0000 </r>
       <r>    8.3688    0.0000 </r>
       <r>   10.4488    0.0000 </r>
       <r>   11.0301    0.0000 </r>
      </set>
      <set comment="kpoint 24">
       <r>    1.4272    1.0000 </r>
       <r>    4.2860    1.0000 </r>
       <r>    6.8512    0.0000 </r>
       <r>    9.4004    0.0000 </r>
       <r>   10.7235    0.0000 </r>
       <r>   13.1526    0.0000 </r>
      </set>
      <set comment="kpoint 25">
       <r>    1.7520    1.0000 </r>
       <r>    4.5236    1.0000 </r>
       <r>    5.9096    0.0000 </r>
       <r>    9.0749    0.0000 </r>
       <r>   10.7821    0.0000 </r>
       <r>   12.8437    0.0000 </r>
      </set>
      <set comment="kpoint 26">
       <r>    2.2798    1.0000 </r>
       <r>    4.4182    1.0000 </r>
       <r>    5.3301    1.0000 </r>
       <r>    8.8138    0.0000 </r>
       <r>   10.4908    0.0000 </r>
       <r>   12.9179    0.0000 </r>
      </set>
      <set comment="kpoint 27">
       <r>    1.7798    1.0000 </r>
       <r>    4.4262    1.0000 </r>
       <r>    6.3717    0.0000 </r>
       <r>    9.0004    0.0000 </r>
       <r>   11.1373    0.0000 </r>
       <r>   13.7367    0.0000 </r>
      </set>
      <set comment="kpoint 28">
       <r>    2.4577    1.0000 </r>
       <r>    4.4764    1.0000 </r>
       <r>    5.5126    1.0000 </r>
       <r>    9.0160    0.0000 </r>
       <r>   10.8577    0.0000 </r>
       <r>   14.5838    0.0000 </r>
      </set>
      <set comment="kpoint 29">
       <r>    3.0059    1.0000 </r>
       <r>    4.1994    1.0000 </r>
       <r>    5.1726    1.0000 </r>
       <r>    9.3055    0.0000 </r>
       <r>   10.3847    0.0000 </r>
       <r>   14.9960    0.0000 </r>
      </set>
      <set comment="kpoint 30">
       <r>    3.2234    1.0000 </r>
       <r>    4.3941    1.0000 </r>
       <r>    4.8600    1.0000 </r>
       <r>    9.6172    0.0000 </r>
       <r>   10.5075    0.0000 </r>
       <r>   14.9038    0.0000 </r>
      </set>
      <set comment="kpoint 31">
       <r>    1.1436    1.0000 </r>
       <r>    4.7089    1.0000 </r>
       <r>    4.7089    1.0000 </r>
       <r>    9.7581    0.0000 </r>
       <r>    9.7581    0.0000 </r>
       <r>   11.0226    0.0000 </r>
      </set>
      <set comment="kpoint 32">
       <r>    2.2510    1.0000 </r>
       <r>    4.3388    1.0000 </r>
       <r>    4.5638    1.0000 </r>
       <r>    9.8842    0.0000 </r>
       <r>   10.2418    0.0000 </r>
       <r>   12.9363    0.0000 </r>
      </set>
      <set comment="kpoint 33">
       <r>    2.6571    1.0000 </r>
       <r>    4.1275    1.0000 </r>
       <r>    5.3322    1.0000 </r>
       <r>   10.0506    0.0000 </r>
       <r>   10.5405    0.0000 </r>
       <r>   14.6090    0.0000 </r>
      </set>
      <set comment="kpoint 34">
       <r>    2.6651    1.0000 </r>
       <r>    4.0597    1.0000 </r>
       <r>    5.9689    0.0000 </r>
       <r>   10.0806    0.0000 </r>
       <r>   10.6468    0.0000 </r>
       <r>   15.0444    0.0000 </r>
      </set>
      <set comment="kpoint 35">
       <r>   -0.8852    1.0000 </r>
       <r>    6.3359    0.0000 </r>
       <r>    6.3359    0.0000 </r>
       <r>    7.0790    0.0000 </r>
       <r>    7.7809    0.0000 </r>
       <r>   10.3606    0.0000 </r>
      </set>
      <set comment="kpoint 36">
       <r>    3.2275    1.0000 </r>
       <r>    4.2380    1.0000 </r>
       <r>    4.4756    1.0000 </r>
       <r>   10.1766    0.0000 </r>
       <r>   10.5011    0.0000 </r>
       <r>   14.8422    0.0000 </r>
      </set>
      <set comment="kpoint 37">
       <r>    3.3995    1.0000 </r>
       <r>    4.2032    1.0000 </r>
       <r>    5.1645    1.0000 </r>
       <r>   10.3400    0.0000 </r>
       <r>   10.6407    0.0000 </r>
       <r>   14.2305    0.0000 </r>
      </set>
      <set comment="kpoint 38">
       <r>    0.1012    1.0000 </r>
       <r>    5.9523    0.0000 </r>
       <r>    6.0098    0.0000 </r>
       <r>    7.3466    0.0000 </r>
       <r>    8.0430    0.0000 </r>
       <r>   10.6317    0.0000 </r>
      </set>
      <set comment="kpoint 39">
       <r>    3.5962    1.0000 </r>
       <r>    4.7459    1.0000 </r>
       <r>    4.7459    1.0000 </r>
       <r>   10.5747    0.0000 </r>
       <r>   10.5747    0.0000 </r>
       <r>   13.4009    0.0000 </r>
      </set>
      <set comment="kpoint 40">
       <r>    1.1850    1.0000 </r>
       <r>    5.2472    1.0000 </r>
       <r>    5.5119    1.0000 </r>
       <r>    7.8670    0.0000 </r>
       <r>    9.6285    0.0000 </r>
       <r>   10.7199    0.0000 </r>
      </set>
      <set comment="kpoint 41">
       <r>    1.1315    1.0000 </r>
       <r>    5.2368    1.0000 </r>
       <r>    6.0180    0.0000 </r>
       <r>    7.2856    0.0000 </r>
       <r>    9.1010    0.0000 </r>
       <r>   10.7879    0.0000 </r>
      </set>
      <set comment="kpoint 42">
       <r>    1.8309    1.0000 </r>
       <r>    5.1086    1.0000 </r>
       <r>    5.2081    1.0000 </r>
       <r>    8.4175    0.0000 </r>
       <r>   10.9389    0.0000 </r>
       <r>   11.4824    0.0000 </r>
      </set>
      <set comment="kpoint 43">
       <r>    2.0677    1.0000 </r>
       <r>    4.5889    1.0000 </r>
       <r>    5.7647   -0.0335 </r>
       <r>    7.8778    0.0000 </r>
       <r>   10.3415    0.0000 </r>
       <r>   11.2371    0.0000 </r>
      </set>
      <set comment="kpoint 44">
       <r>    1.9415    1.0000 </r>
       <r>    4.8892    1.0000 </r>
       <r>    5.6976    0.6837 </r>
       <r>    8.3267    0.0000 </r>
       <r>   11.7580    0.0000 </r>
       <r>   13.0109    0.0000 </r>
      </set>
      <set comment="kpoint 45">
       <r>    2.4352    1.0000 </r>
       <r>    4.6512    1.0000 </r>
       <r>    5.4546    1.0000 </r>
       <r>    8.1738    0.0000 </r>
       <r>   11.0757    0.0000 </r>
       <r>   12.9887    0.0000 </r>
      </set>
      <set comment="kpoint 46">
       <r>    2.8873    1.0000 </r>
       <r>    4.0182    1.0000 </r>
       <r>    5.6359    1.0296 </r>
       <r>    8.4386    0.0000 </r>
       <r>   10.3011    0.0000 </r>
       <r>   13.1313    0.0000 </r>
      </set>
      <set comment="kpoint 47">
       <r>    2.4426    1.0000 </r>
       <r>    5.0820    1.0000 </r>
       <r>    5.1164    1.0000 </r>
       <r>    8.0717    0.0000 </r>
       <r>   11.8368    0.0000 </r>
       <r>   14.0627    0.0000 </r>
      </set>
      <set comment="kpoint 48">
       <r>    3.1929    1.0000 </r>
       <r>    4.2027    1.0000 </r>
       <r>    5.0185    1.0000 </r>
       <r>    8.9055    0.0000 </r>
       <r>   10.8322    0.0000 </r>
       <r>   15.1178    0.0000 </r>
      </set>
      <set comment="kpoint 49">
       <r>    4.0115    1.0000 </r>
       <r>    4.0115    1.0000 </r>
       <r>    4.2143    1.0000 </r>
       <r>   10.1220    0.0000 </r>
       <r>   10.1220    0.0000 </r>
       <r>   15.0903    0.0000 </r>
      </set>
      <set comment="kpoint 50">
       <r>    4.2101    1.0000 </r>
       <r>    4.2101    1.0000 </r>
       <r>    4.3607    1.0000 </r>
       <r>   10.5981    0.0000 </r>
       <r>   10.5981    0.0000 </r>
       <r>   13.9854    0.0000 </r>
      </set>
      <set comment="kpoint 51">
       <r>    4.1753    1.0000 </r>
       <r>    4.2123    1.0000 </r>
       <r>    4.8607    1.0000 </r>
       <r>   10.6442    0.0000 </r>
       <r>   10.7202    0.0000 </r>
       <r>   13.0739    0.0000 </r>
      </set>
      <set comment="kpoint 52">
       <r>    1.0096    1.0000 </r>
       <r>    5.7312    0.1594 </r>
       <r>    6.5879    0.0000 </r>
       <r>    6.5879    0.0000 </r>
       <r>    8.1712    0.0000 </r>
       <r>   10.8360    0.0000 </r>
      </set>
      <set comment="kpoint 53">
       <r>    1.9950    1.0000 </r>
       <r>    4.7138    1.0000 </r>
       <r>    6.5135    0.0000 </r>
       <r>    7.2041    0.0000 </r>
       <r>    9.4039    0.0000 </r>
       <r>   10.7238    0.0000 </r>
      </set>
      <set comment="kpoint 54">
       <r>    2.6064    1.0000 </r>
       <r>    4.2172    1.0000 </r>
       <r>    6.2336    0.0000 </r>
       <r>    7.6539    0.0000 </r>
       <r>   11.1800    0.0000 </r>
       <r>   11.2069    0.0000 </r>
      </set>
      <set comment="kpoint 55">
       <r>    2.7481    1.0000 </r>
       <r>    3.9522    1.0000 </r>
       <r>    6.6334    0.0000 </r>
       <r>    7.7597    0.0000 </r>
       <r>   10.1518    0.0000 </r>
       <r>   11.2193    0.0000 </r>
      </set>
      <set comment="kpoint 56">
       <r>    2.6392    1.0000 </r>
       <r>    4.3778    1.0000 </r>
       <r>    6.0579    0.0000 </r>
       <r>    7.4450    0.0000 </r>
       <r>   12.7126    0.0000 </r>
       <r>   12.7748    0.0000 </r>
      </set>
      <set comment="kpoint 57">
       <r>    3.0347    1.0000 </r>
       <r>    3.6841    1.0000 </r>
       <r>    6.2310    0.0000 </r>
       <r>    8.2669    0.0000 </r>
       <r>   11.0172    0.0000 </r>
       <r>   13.1348    0.0000 </r>
      </set>
      <set comment="kpoint 58">
       <r>    2.9393    1.0000 </r>
       <r>    3.8403    1.0000 </r>
       <r>    5.9783    0.0000 </r>
       <r>    8.2996    0.0000 </r>
       <r>   11.9640    0.0000 </r>
       <r>   14.6694    0.0000 </r>
      </set>
      <set comment="kpoint 59">
       <r>    3.3001    1.0000 </r>
       <r>    3.4072    1.0000 </r>
       <r>    5.7033    0.5913 </r>
       <r>    9.6680    0.0000 </r>
       <r>   10.8476    0.0000 </r>
       <r>   15.2956    0.0000 </r>
      </set>
      <set comment="kpoint 60">
       <r>    2.6832    1.0000 </r>
       <r>    3.9451    1.0000 </r>
       <r>    7.4997    0.0000 </r>
       <r>    7.4997    0.0000 </r>
       <r>    9.6459    0.0000 </r>
       <r>   10.4794    0.0000 </r>
      </set>
      <set comment="kpoint 61">
       <r>    2.9672    1.0000 </r>
       <r>    3.3203    1.0000 </r>
       <r>    7.7536    0.0000 </r>
       <r>    7.9758    0.0000 </r>
       <r>   10.9873    0.0000 </r>
       <r>   11.1400    0.0000 </r>
      </set>
      <set comment="kpoint 62">
       <r>    2.7779    1.0000 </r>
       <r>    3.2568    1.0000 </r>
       <r>    7.7109    0.0000 </r>
       <r>    7.9062    0.0000 </r>
       <r>   12.5164    0.0000 </r>
       <r>   13.1894    0.0000 </r>
      </set>
      <set comment="kpoint 63">
       <r>    2.8371    1.0000 </r>
       <r>    2.9189    1.0000 </r>
       <r>    7.6392    0.0000 </r>
       <r>    9.3247    0.0000 </r>
       <r>   11.2275    0.0000 </r>
       <r>   13.0983    0.0000 </r>
      </set>
      <set comment="kpoint 64">
       <r>    2.6786    1.0000 </r>
       <r>    2.8596    1.0000 </r>
       <r>    7.5132    0.0000 </r>
       <r>    9.8230    0.0000 </r>
       <r>   11.8127    0.0000 </r>
       <r>   15.1069    0.0000 </r>
      </set>
      <set comment="kpoint 65">
       <r>    2.6767    1.0000 </r>
       <r>    2.7405    1.0000 </r>
       <r>    9.1988    0.0000 </r>
       <r>    9.1988    0.0000 </r>
       <r>   11.2085    0.0000 </r>
       <r>   11.4779    0.0000 </r>
      </set>
      <set comment="kpoint 66">
       <r>    2.3561    1.0000 </r>
       <r>    2.4714    1.0000 </r>
       <r>    9.6902    0.0000 </r>
       <r>    9.7040    0.0000 </r>
       <r>   12.3113    0.0000 </r>
       <r>   13.3440    0.0000 </r>
      </set>
      <set comment="kpoint 67">
       <r>    2.2375    1.0000 </r>
       <r>    2.2375    1.0000 </r>
       <r>    9.6986    0.0000 </r>
       <r>   11.6510    0.0000 </r>
       <r>   11.6510    0.0000 </r>
       <r>   15.2754    0.0000 </r>
      </set>
      <set comment="kpoint 68">
       <r>    2.0246    1.0000 </r>
       <r>    2.0585    1.0000 </r>
       <r>   11.5873    0.0000 </r>
       <r>   11.5873    0.0000 </r>
       <r>   12.3069    0.0000 </r>
       <r>   13.7499    0.0000 </r>
      </set>
     </set>
    </set>
   </array>
  </eigenvalues>
  <separator name="orbital magnetization" >
   <v name="MAGDIPOLOUT">      0.00000000      0.00000000      0.00000000</v>
  </separator>
  <dos>
   <i name="efermi">      5.70872695 </i>
   <total>
    <array>
     <dimension dim="1">gridpoints</dimension>
     <dimension dim="2">spin</dimension>
     <field>energy</field>
     <field>total</field>
     <field>integrated</field>
     <set>
      <set comment="spin 1">
       <r>    -2.8920     0.0000     0.0000 </r>
       <r>    -2.8285     0.0000     0.0000 </r>
       <r>    -2.7650     0.0000     0.0000 </r>
       <r>    -2.7015     0.0000     0.0000 </r>
       <r>    -2.6380     0.0000     0.0000 </r>
       <r>    -2.5745     0.0000     0.0000 </r>
       <r>    -2.5110     0.0000     0.0000 </r>
       <r>    -2.4474     0.0000     0.0000 </r>
       <r>    -2.3839     0.0000     0.0000 </r>
       <r>    -2.3204     0.0000     0.0000 </r>
       <r>    -2.2569     0.0000     0.0000 </r>
       <r>    -2.1934     0.0000     0.0000 </r>
       <r>    -2.1299    -0.0007     0.0000 </r>
       <r>    -2.0664     0.0015     0.0001 </r>
       <r>    -2.0029     0.0919     0.0059 </r>
       <r>    -1.9393     0.0184     0.0071 </r>
       <r>    -1.8758    -0.0019     0.0069 </r>
       <r>    -1.8123    -0.0034     0.0067 </r>
       <r>    -1.7488     0.0385     0.0092 </r>
       <r>    -1.6853     0.1134     0.0164 </r>
       <r>    -1.6218    -0.0022     0.0162 </r>
       <r>    -1.5583    -0.0020     0.0161 </r>
       <r>    -1.4948    -0.0084     0.0156 </r>
       <r>    -1.4312     0.3321     0.0367 </r>
       <r>    -1.3677     0.1260     0.0447 </r>
       <r>    -1.3042    -0.0107     0.0440 </r>
       <r>    -1.2407    -0.0001     0.0440 </r>
       <r>    -1.1772     0.0000     0.0440 </r>
       <r>    -1.1137     0.0000     0.0440 </r>
       <r>    -1.0502    -0.0002     0.0440 </r>
       <r>    -0.9867    -0.0131     0.0431 </r>
       <r>    -0.9231     0.1583     0.0532 </r>
       <r>    -0.8596     0.4013     0.0787 </r>
       <r>    -0.7961     0.0030     0.0789 </r>
       <r>    -0.7326    -0.0096     0.0783 </r>
       <r>    -0.6691     0.0657     0.0824 </r>
       <r>    -0.6056     0.3717     0.1060 </r>
       <r>    -0.5421     0.0087     0.1066 </r>
       <r>    -0.4786    -0.0145     0.1057 </r>
       <r>    -0.4151     0.3137     0.1256 </r>
       <r>    -0.3515     0.1483     0.1350 </r>
       <r>    -0.2880    -0.0120     0.1343 </r>
       <r>    -0.2245    -0.0001     0.1343 </r>
       <r>    -0.1610     0.0000     0.1343 </r>
       <r>    -0.0975     0.0000     0.1343 </r>
       <r>    -0.0340    -0.0050     0.1339 </r>
       <r>     0.0295     0.0219     0.1353 </r>
       <r>     0.0930     0.5526     0.1704 </r>
       <r>     0.1566     0.3094     0.1901 </r>
       <r>     0.2201     0.2669     0.2070 </r>
       <r>     0.2836     0.1800     0.2185 </r>
       <r>     0.3471    -0.0160     0.2174 </r>
       <r>     0.4106    -0.0208     0.2161 </r>
       <r>     0.4741     0.6443     0.2570 </r>
       <r>     0.5376     0.2765     0.2746 </r>
       <r>     0.6011    -0.0360     0.2723 </r>
       <r>     0.6647     0.1722     0.2833 </r>
       <r>     0.7282     0.2927     0.3018 </r>
       <r>     0.7917    -0.0136     0.3010 </r>
       <r>     0.8552    -0.0009     0.3009 </r>
       <r>     0.9187    -0.0015     0.3008 </r>
       <r>     0.9822     0.0129     0.3016 </r>
       <r>     1.0457     0.0829     0.3069 </r>
       <r>     1.1092     0.0624     0.3109 </r>
       <r>     1.1728     1.1522     0.3841 </r>
       <r>     1.2363     1.1421     0.4566 </r>
       <r>     1.2998     0.1941     0.4689 </r>
       <r>     1.3633     0.2283     0.4834 </r>
       <r>     1.4268     0.9067     0.5410 </r>
       <r>     1.4903     0.7264     0.5871 </r>
       <r>     1.5538     0.7564     0.6352 </r>
       <r>     1.6173     0.0285     0.6370 </r>
       <r>     1.6808    -0.0374     0.6346 </r>
       <r>     1.7444     0.3651     0.6578 </r>
       <r>     1.8079     1.0180     0.7225 </r>
       <r>     1.8714     0.4864     0.7534 </r>
       <r>     1.9349     0.9055     0.8109 </r>
       <r>     1.9984     0.6491     0.8521 </r>
       <r>     2.0619     1.4825     0.9462 </r>
       <r>     2.1254     0.6292     0.9862 </r>
       <r>     2.1889    -0.0611     0.9823 </r>
       <r>     2.2525     0.9413     1.0421 </r>
       <r>     2.3160     1.1255     1.1136 </r>
       <r>     2.3795     0.3056     1.1330 </r>
       <r>     2.4430     1.1796     1.2079 </r>
       <r>     2.5065     1.6145     1.3105 </r>
       <r>     2.5700    -0.0465     1.3075 </r>
       <r>     2.6335     0.6250     1.3472 </r>
       <r>     2.6970     1.5432     1.4452 </r>
       <r>     2.7606     1.5605     1.5443 </r>
       <r>     2.8241     0.9202     1.6028 </r>
       <r>     2.8876     0.9130     1.6607 </r>
       <r>     2.9511     1.0497     1.7274 </r>
       <r>     3.0146     0.9739     1.7893 </r>
       <r>     3.0781     0.8552     1.8436 </r>
       <r>     3.1416    -0.0602     1.8398 </r>
       <r>     3.2051     1.1403     1.9122 </r>
       <r>     3.2687     1.4481     2.0042 </r>
       <r>     3.3322     0.7696     2.0530 </r>
       <r>     3.3957     0.7185     2.0987 </r>
       <r>     3.4592     0.8226     2.1509 </r>
       <r>     3.5227    -0.0455     2.1480 </r>
       <r>     3.5862     0.0428     2.1507 </r>
       <r>     3.6497     0.1481     2.1602 </r>
       <r>     3.7132     0.7542     2.2081 </r>
       <r>     3.7768     0.0729     2.2127 </r>
       <r>     3.8403     0.2204     2.2267 </r>
       <r>     3.9038     0.2250     2.2410 </r>
       <r>     3.9673     0.3960     2.2661 </r>
       <r>     4.0308     0.7168     2.3116 </r>
       <r>     4.0943     0.3671     2.3350 </r>
       <r>     4.1578     0.6719     2.3776 </r>
       <r>     4.2213     3.6952     2.6123 </r>
       <r>     4.2848     2.8657     2.7943 </r>
       <r>     4.3484     1.2028     2.8707 </r>
       <r>     4.4119     2.3113     3.0175 </r>
       <r>     4.4754     1.8739     3.1365 </r>
       <r>     4.5389     1.9593     3.2610 </r>
       <r>     4.6024     1.5654     3.3604 </r>
       <r>     4.6659     1.1081     3.4308 </r>
       <r>     4.7294     1.9462     3.5544 </r>
       <r>     4.7929     0.9888     3.6172 </r>
       <r>     4.8565     1.2108     3.6941 </r>
       <r>     4.9200     0.7624     3.7425 </r>
       <r>     4.9835     1.1236     3.8139 </r>
       <r>     5.0470     1.3420     3.8991 </r>
       <r>     5.1105     1.2920     3.9812 </r>
       <r>     5.1740     1.3973     4.0699 </r>
       <r>     5.2375     2.2189     4.2108 </r>
       <r>     5.3010     2.4244     4.3648 </r>
       <r>     5.3646     2.3800     4.5160 </r>
       <r>     5.4281     1.2892     4.5979 </r>
       <r>     5.4916     2.1534     4.7346 </r>
       <r>     5.5551     2.3322     4.8828 </r>
       <r>     5.6186     0.1882     4.8947 </r>
       <r>     5.6821     1.1259     4.9662 </r>
       <r>     5.7456     1.1291     5.0379 </r>
       <r>     5.8091     0.7978     5.0886 </r>
       <r>     5.8727     1.1629     5.1625 </r>
       <r>     5.9362     1.4577     5.2550 </r>
       <r>     5.9997     1.5997     5.3566 </r>
       <r>     6.0632     1.1485     5.4296 </r>
       <r>     6.1267     0.4639     5.4590 </r>
       <r>     6.1902     0.0987     5.4653 </r>
       <r>     6.2537     1.7135     5.5741 </r>
       <r>     6.3172     1.1743     5.6487 </r>
       <r>     6.3808     0.5431     5.6832 </r>
       <r>     6.4443     0.6805     5.7264 </r>
       <r>     6.5078     0.2404     5.7417 </r>
       <r>     6.5713     0.3677     5.7651 </r>
       <r>     6.6348     0.3975     5.7903 </r>
       <r>     6.6983     0.2196     5.8043 </r>
       <r>     6.7618    -0.0221     5.8029 </r>
       <r>     6.8253     0.0588     5.8066 </r>
       <r>     6.8888     0.3705     5.8301 </r>
       <r>     6.9524     0.0642     5.8342 </r>
       <r>     7.0159     0.0761     5.8390 </r>
       <r>     7.0794     0.5013     5.8709 </r>
       <r>     7.1429     0.2914     5.8894 </r>
       <r>     7.2064     0.2180     5.9032 </r>
       <r>     7.2699     0.3241     5.9238 </r>
       <r>     7.3334     0.4573     5.9528 </r>
       <r>     7.3969     0.3064     5.9723 </r>
       <r>     7.4605     0.3172     5.9924 </r>
       <r>     7.5240     0.6130     6.0314 </r>
       <r>     7.5875     0.1501     6.0409 </r>
       <r>     7.6510     0.4925     6.0722 </r>
       <r>     7.7145     0.6641     6.1144 </r>
       <r>     7.7780     0.9303     6.1735 </r>
       <r>     7.8415     0.3968     6.1987 </r>
       <r>     7.9050     1.8361     6.3153 </r>
       <r>     7.9686     0.8099     6.3667 </r>
       <r>     8.0321     0.4009     6.3922 </r>
       <r>     8.0956     0.6400     6.4328 </r>
       <r>     8.1591     0.3232     6.4533 </r>
       <r>     8.2226     0.9253     6.5121 </r>
       <r>     8.2861     1.8619     6.6304 </r>
       <r>     8.3496     1.5173     6.7267 </r>
       <r>     8.4131     0.6215     6.7662 </r>
       <r>     8.4767     0.6281     6.8061 </r>
       <r>     8.5402    -0.0067     6.8057 </r>
       <r>     8.6037    -0.0072     6.8052 </r>
       <r>     8.6672     0.3266     6.8260 </r>
       <r>     8.7307     0.3770     6.8499 </r>
       <r>     8.7942     0.7916     6.9002 </r>
       <r>     8.8577     0.9590     6.9611 </r>
       <r>     8.9212     0.8719     7.0165 </r>
       <r>     8.9847     0.7684     7.0653 </r>
       <r>     9.0483     1.2135     7.1423 </r>
       <r>     9.1118     1.9582     7.2667 </r>
       <r>     9.1753     0.6514     7.3081 </r>
       <r>     9.2388     1.1336     7.3801 </r>
       <r>     9.3023     1.4949     7.4750 </r>
       <r>     9.3658     1.0209     7.5399 </r>
       <r>     9.4293     1.7820     7.6531 </r>
       <r>     9.4928     0.7178     7.6986 </r>
       <r>     9.5564     0.6565     7.7403 </r>
       <r>     9.6199     0.8907     7.7969 </r>
       <r>     9.6834     2.6174     7.9631 </r>
       <r>     9.7469     2.1940     8.1025 </r>
       <r>     9.8104     0.7282     8.1487 </r>
       <r>     9.8739     1.7444     8.2595 </r>
       <r>     9.9374     0.9513     8.3199 </r>
       <r>    10.0009     0.0527     8.3233 </r>
       <r>    10.0645     0.7420     8.3704 </r>
       <r>    10.1280     0.9761     8.4324 </r>
       <r>    10.1915     1.8173     8.5478 </r>
       <r>    10.2550     1.5826     8.6483 </r>
       <r>    10.3185     0.7187     8.6940 </r>
       <r>    10.3820     1.8070     8.8088 </r>
       <r>    10.4455     2.5104     8.9682 </r>
       <r>    10.5090     3.6883     9.2024 </r>
       <r>    10.5726     2.2792     9.3472 </r>
       <r>    10.6361     1.9358     9.4702 </r>
       <r>    10.6996     2.0575     9.6008 </r>
       <r>    10.7631     1.4008     9.6898 </r>
       <r>    10.8266     1.6706     9.7959 </r>
       <r>    10.8901     1.7184     9.9050 </r>
       <r>    10.9536     0.4397     9.9330 </r>
       <r>    11.0171     1.8511    10.0505 </r>
       <r>    11.0807     2.1158    10.1849 </r>
       <r>    11.1442     1.5581    10.2839 </r>
       <r>    11.2077     1.3378    10.3688 </r>
       <r>    11.2712     1.7375    10.4792 </r>
       <r>    11.3347     0.0117    10.4799 </r>
       <r>    11.3982    -0.0228    10.4785 </r>
       <r>    11.4617     0.1161    10.4858 </r>
       <r>    11.5252     0.4367    10.5136 </r>
       <r>    11.5887     0.0988    10.5199 </r>
       <r>    11.6523     0.4374    10.5476 </r>
       <r>    11.7158     0.4355    10.5753 </r>
       <r>    11.7793     0.3506    10.5976 </r>
       <r>    11.8428     0.7403    10.6446 </r>
       <r>    11.9063     0.2061    10.6577 </r>
       <r>    11.9698     0.2574    10.6740 </r>
       <r>    12.0333     0.1899    10.6861 </r>
       <r>    12.0968    -0.0139    10.6852 </r>
       <r>    12.1604    -0.0003    10.6852 </r>
       <r>    12.2239    -0.0094    10.6846 </r>
       <r>    12.2874     0.0929    10.6905 </r>
       <r>    12.3509     0.4588    10.7196 </r>
       <r>    12.4144     0.0048    10.7199 </r>
       <r>    12.4779     0.0078    10.7204 </r>
       <r>    12.5414     0.3729    10.7441 </r>
       <r>    12.6049     0.0612    10.7480 </r>
       <r>    12.6685    -0.0108    10.7473 </r>
       <r>    12.7320     0.3314    10.7683 </r>
       <r>    12.7955     0.6300    10.8084 </r>
       <r>    12.8590     1.8940    10.9287 </r>
       <r>    12.9225     1.2794    11.0099 </r>
       <r>    12.9860     1.1741    11.0845 </r>
       <r>    13.0495     0.8374    11.1377 </r>
       <r>    13.1130     0.7581    11.1858 </r>
       <r>    13.1766     1.7116    11.2945 </r>
       <r>    13.2401     0.3791    11.3186 </r>
       <r>    13.3036    -0.0196    11.3173 </r>
       <r>    13.3671     0.3748    11.3411 </r>
       <r>    13.4306     0.2004    11.3539 </r>
       <r>    13.4941     0.0064    11.3543 </r>
       <r>    13.5576    -0.0020    11.3542 </r>
       <r>    13.6211    -0.0087    11.3536 </r>
       <r>    13.6847     0.1069    11.3604 </r>
       <r>    13.7482     0.4808    11.3909 </r>
       <r>    13.8117     0.2028    11.4038 </r>
       <r>    13.8752    -0.0165    11.4028 </r>
       <r>    13.9387    -0.0027    11.4026 </r>
       <r>    14.0022     0.0994    11.4089 </r>
       <r>    14.0657     0.2934    11.4275 </r>
       <r>    14.1292     0.1856    11.4393 </r>
       <r>    14.1927     0.1762    11.4505 </r>
       <r>    14.2563     1.4741    11.5441 </r>
       <r>    14.3198     0.1122    11.5513 </r>
       <r>    14.3833     0.1397    11.5601 </r>
       <r>    14.4468     0.3054    11.5795 </r>
       <r>    14.5103    -0.0413    11.5769 </r>
       <r>    14.5738     0.3325    11.5980 </r>
       <r>    14.6373     0.9898    11.6609 </r>
       <r>    14.7008     0.9460    11.7210 </r>
       <r>    14.7644     0.4064    11.7468 </r>
       <r>    14.8279     0.0838    11.7521 </r>
       <r>    14.8914     0.4607    11.7814 </r>
       <r>    14.9549     0.3892    11.8061 </r>
       <r>    15.0184     0.7301    11.8525 </r>
       <r>    15.0819     0.4265    11.8795 </r>
       <r>    15.1454     1.2224    11.9572 </r>
       <r>    15.2089     0.0938    11.9631 </r>
       <r>    15.2725     0.1291    11.9713 </r>
       <r>    15.3360     0.4530    12.0001 </r>
       <r>    15.3995     0.0011    12.0002 </r>
       <r>    15.4630    -0.0029    12.0000 </r>
       <r>    15.5265     0.0000    12.0000 </r>
       <r>    15.5900     0.0000    12.0000 </r>
       <r>    15.6535     0.0000    12.0000 </r>
       <r>    15.7170     0.0000    12.0000 </r>
       <r>    15.7806     0.0000    12.0000 </r>
       <r>    15.8441     0.0000    12.0000 </r>
       <r>    15.9076     0.0000    12.0000 </r>
       <r>    15.9711     0.0000    12.0000 </r>
       <r>    16.0346     0.0000    12.0000 </r>
       <r>    16.0981     0.0000    12.0000 </r>
       <r>    16.1616     0.0000    12.0000 </r>
      </set>
     </set>
    </array>
   </total>
  </dos>
 </calculation>
 <structure name="finalpos" >
  <crystal>
   <varray name="basis" >
    <v>       2.86654409       0.00000000       0.00000000 </v>
    <v>      -0.95551470       2.70260368       0.00000000 </v>
    <v>      -0.95551470      -1.35130184       2.34052345 </v>
   </varray>
   <i name="volume">     18.13234550 </i>
   <varray name="rec_basis" >
    <v>       0.34885213       0.12333785       0.21362743 </v>
    <v>       0.00000000       0.37001356       0.21362743 </v>
    <v>       0.00000000       0.00000000       0.42725485 </v>
   </varray>
  </crystal>
  <varray name="positions" >
   <v>       0.00000000       0.00000000       0.00000000 </v>
  </varray>
 </structure>
</modeling>
