   1   1   0   0
  0.1813235E+02  0.2866544E-09  0.2866544E-09  0.2866544E-09  0.5000000E-15
  1.000000000000000E-004
  CAR 
 unknown system                          
     16.55778803     -2.71193584  301      5.67530287      1.00000000
     -2.712  0.0000E+00  0.0000E+00
     -2.648  0.0000E+00  0.0000E+00
     -2.583  0.0000E+00  0.0000E+00
     -2.519  0.0000E+00  0.0000E+00
     -2.455  0.0000E+00  0.0000E+00
     -2.391  0.0000E+00  0.0000E+00
     -2.327  0.0000E+00  0.0000E+00
     -2.262 -0.2386E-31 -0.1533E-32
     -2.198 -0.1268E-22 -0.8142E-24
     -2.134 -0.2404E-15 -0.1544E-16
     -2.070 -0.1530E-09 -0.9828E-11
     -2.005 -0.3333E-05 -0.2141E-06
     -1.941 -0.2065E-02 -0.1328E-03
     -1.877  0.4115E-02  0.1315E-03
     -1.813  0.3087E+00  0.1996E-01
     -1.748  0.6014E-01  0.2382E-01
     -1.684 -0.5939E-02  0.2344E-01
     -1.620 -0.2775E-04  0.2344E-01
     -1.556 -0.3279E-08  0.2344E-01
     -1.492 -0.1710E-13  0.2344E-01
     -1.427 -0.1611E-08  0.2344E-01
     -1.363 -0.1874E-04  0.2344E-01
     -1.299 -0.5780E-02  0.2307E-01
     -1.235  0.4815E-01  0.2616E-01
     -1.170  0.4247E+00  0.5344E-01
     -1.106  0.2358E-01  0.5495E-01
     -1.042 -0.4075E-02  0.5469E-01
     -0.978 -0.9309E-05  0.5469E-01
     -0.913 -0.5859E-09  0.5469E-01
     -0.849 -0.1006E-08  0.5469E-01
     -0.785 -0.1891E-04  0.5469E-01
     -0.721 -0.9969E-02  0.5405E-01
     -0.656  0.3941E-01  0.5658E-01
     -0.592  0.1258E+01  0.1374E+00
     -0.528  0.1929E+00  0.1498E+00
     -0.464 -0.2061E-01  0.1484E+00
     -0.400 -0.8103E-04  0.1484E+00
     -0.335 -0.8249E-08  0.1484E+00
     -0.271 -0.2722E-13  0.1484E+00
     -0.207  0.0000E+00  0.1484E+00
     -0.143  0.0000E+00  0.1484E+00
     -0.078 -0.4053E-35  0.1484E+00
     -0.014 -0.9535E-26  0.1484E+00
      0.050 -0.8044E-18  0.1484E+00
      0.114 -0.2319E-11  0.1484E+00
      0.179 -0.2337E-06  0.1484E+00
      0.243 -0.7390E-03  0.1484E+00
      0.307 -0.4604E-01  0.1454E+00
      0.371  0.6442E+00  0.1868E+00
      0.435  0.9020E+00  0.2447E+00
      0.500  0.1044E+00  0.2515E+00
      0.564  0.2333E+00  0.2664E+00
      0.628 -0.1207E-01  0.2657E+00
      0.692 -0.5679E-03  0.2656E+00
      0.757 -0.8085E-02  0.2651E+00
      0.821  0.1409E-01  0.2660E+00
      0.885  0.1212E+01  0.3439E+00
      0.949  0.4252E+00  0.3712E+00
      1.014  0.1239E+01  0.4508E+00
      1.078  0.4733E-01  0.4538E+00
      1.142 -0.1055E-01  0.4531E+00
      1.206 -0.2107E-04  0.4531E+00
      1.270 -0.2340E-08  0.4531E+00
      1.335 -0.2097E-04  0.4531E+00
      1.399 -0.1053E-01  0.4524E+00
      1.463  0.4381E-01  0.4553E+00
      1.527  0.1222E+01  0.5338E+00
      1.592  0.1221E+01  0.6122E+00
      1.656  0.4639E+00  0.6420E+00
      1.720  0.5094E+00  0.6747E+00
      1.784  0.2174E+00  0.6887E+00
      1.849 -0.1813E-01  0.6875E+00
      1.913 -0.4821E-01  0.6844E+00
      1.977  0.4852E+00  0.7156E+00
      2.041  0.2359E+01  0.8671E+00
      2.105  0.2060E+01  0.9994E+00
      2.170  0.1465E+01  0.1093E+01
      2.234  0.8119E+00  0.1146E+01
      2.298  0.9471E+00  0.1206E+01
      2.362 -0.5106E-01  0.1203E+01
      2.427 -0.5255E-01  0.1200E+01
      2.491  0.8228E+00  0.1253E+01
      2.555  0.8636E+00  0.1308E+01
      2.619  0.7213E+00  0.1354E+01
      2.684  0.6766E+00  0.1398E+01
      2.748  0.3136E+01  0.1599E+01
      2.812  0.6914E+00  0.1644E+01
      2.876  0.1721E+00  0.1655E+01
      2.941  0.1272E+00  0.1663E+01
      3.005  0.2218E+00  0.1677E+01
      3.069  0.2083E+01  0.1811E+01
      3.133  0.1648E+01  0.1917E+01
      3.197  0.5260E+00  0.1951E+01
      3.262  0.1275E+01  0.2033E+01
      3.326  0.5864E+00  0.2070E+01
      3.390  0.5439E-02  0.2071E+01
      3.454 -0.5295E-02  0.2070E+01
      3.519 -0.7287E-02  0.2070E+01
      3.583  0.2783E+00  0.2088E+01
      3.647  0.4868E-01  0.2091E+01
      3.711  0.8671E+00  0.2146E+01
      3.776  0.1068E+01  0.2215E+01
      3.840  0.5374E+00  0.2250E+01
      3.904  0.1703E+01  0.2359E+01
      3.968  0.1689E-01  0.2360E+01
      4.032 -0.4339E-01  0.2357E+01
      4.097  0.1972E+00  0.2370E+01
      4.161  0.3096E+01  0.2569E+01
      4.225  0.3601E+01  0.2800E+01
      4.289 -0.8735E-01  0.2795E+01
      4.354  0.8928E+00  0.2852E+01
      4.418  0.2275E+01  0.2998E+01
      4.482  0.1264E+01  0.3079E+01
      4.546  0.4658E+00  0.3109E+01
      4.611  0.3840E+01  0.3356E+01
      4.675  0.2873E+01  0.3540E+01
      4.739  0.1738E+01  0.3652E+01
      4.803  0.7530E+00  0.3700E+01
      4.867  0.1093E+00  0.3707E+01
      4.932  0.1168E+01  0.3782E+01
      4.996  0.1685E+01  0.3891E+01
      5.060  0.1543E+01  0.3990E+01
      5.124  0.1471E+01  0.4084E+01
      5.189  0.7616E+00  0.4133E+01
      5.253  0.1221E+01  0.4212E+01
      5.317  0.2300E-01  0.4213E+01
      5.381  0.1518E+01  0.4311E+01
      5.446  0.3088E+01  0.4509E+01
      5.510  0.4545E+01  0.4801E+01
      5.574  0.1109E+01  0.4872E+01
      5.638  0.3809E+00  0.4897E+01
      5.703  0.2964E+01  0.5087E+01
      5.767  0.2525E+01  0.5249E+01
      5.831  0.9360E-01  0.5255E+01
      5.895  0.7935E+00  0.5306E+01
      5.959  0.6186E+00  0.5346E+01
      6.024  0.9535E+00  0.5407E+01
      6.088  0.2488E+00  0.5423E+01
      6.152  0.2452E+01  0.5581E+01
      6.216  0.3681E+00  0.5604E+01
      6.281  0.1978E+00  0.5617E+01
      6.345  0.1596E+00  0.5627E+01
      6.409  0.6626E+00  0.5670E+01
      6.473  0.1869E+01  0.5790E+01
      6.538  0.2761E+00  0.5808E+01
      6.602  0.2900E+00  0.5826E+01
      6.666  0.3449E-01  0.5828E+01
      6.730 -0.6249E-02  0.5828E+01
      6.794 -0.1701E-01  0.5827E+01
      6.859  0.5471E+00  0.5862E+01
      6.923  0.2199E+00  0.5876E+01
      6.987 -0.1802E-01  0.5875E+01
      7.051 -0.1581E-03  0.5875E+01
      7.116 -0.3151E-07  0.5875E+01
      7.180 -0.6371E-12  0.5875E+01
      7.244 -0.6715E-07  0.5875E+01
      7.308 -0.3297E-03  0.5875E+01
      7.373 -0.3657E-01  0.5873E+01
      7.437  0.4490E+00  0.5901E+01
      7.501  0.1081E+01  0.5971E+01
      7.565 -0.5579E-01  0.5967E+01
      7.629  0.1187E+01  0.6044E+01
      7.694  0.8361E+00  0.6097E+01
      7.758 -0.1361E+00  0.6089E+01
      7.822  0.1139E+01  0.6162E+01
      7.886  0.1534E+01  0.6260E+01
      7.951  0.1014E+01  0.6325E+01
      8.015  0.9248E+00  0.6385E+01
      8.079 -0.4867E-01  0.6382E+01
      8.143  0.2169E+00  0.6396E+01
      8.208  0.1169E+01  0.6471E+01
      8.272  0.1169E+01  0.6546E+01
      8.336  0.2787E+01  0.6725E+01
      8.400  0.5694E+00  0.6761E+01
      8.465 -0.5319E-01  0.6758E+01
      8.529 -0.5510E-01  0.6754E+01
      8.593  0.5804E+00  0.6792E+01
      8.657  0.2419E+01  0.6947E+01
      8.721  0.1175E+01  0.7022E+01
      8.786  0.8264E+00  0.7076E+01
      8.850  0.2246E+01  0.7220E+01
      8.914  0.1277E+00  0.7228E+01
      8.978 -0.2327E-01  0.7226E+01
      9.043 -0.6448E-02  0.7226E+01
      9.107  0.2499E+00  0.7242E+01
      9.171  0.3827E+00  0.7267E+01
      9.235  0.2539E+01  0.7430E+01
      9.300  0.9394E-01  0.7436E+01
      9.364  0.5409E+00  0.7471E+01
      9.428  0.1909E+01  0.7593E+01
      9.492  0.1369E+01  0.7681E+01
      9.556  0.1515E+01  0.7778E+01
      9.621  0.7736E+00  0.7828E+01
      9.685  0.2139E+01  0.7966E+01
      9.749  0.7970E+00  0.8017E+01
      9.813  0.2259E+00  0.8031E+01
      9.878  0.5169E+01  0.8363E+01
      9.942  0.8722E+00  0.8419E+01
     10.006  0.4220E-01  0.8422E+01
     10.070  0.2024E+00  0.8435E+01
     10.135  0.8722E+00  0.8491E+01
     10.199  0.1083E+01  0.8561E+01
     10.263  0.9755E+00  0.8623E+01
     10.327  0.2215E+01  0.8765E+01
     10.391  0.5622E+01  0.9127E+01
     10.456  0.1399E+01  0.9216E+01
     10.520  0.1651E+01  0.9323E+01
     10.584  0.6043E+01  0.9711E+01
     10.648  0.1611E+01  0.9814E+01
     10.713  0.5510E+00  0.9850E+01
     10.777  0.1512E+01  0.9947E+01
     10.841  0.1632E+01  0.1005E+02
     10.905  0.3092E+00  0.1007E+02
     10.970  0.5888E+00  0.1011E+02
     11.034 -0.2464E-01  0.1011E+02
     11.098  0.6637E+00  0.1015E+02
     11.162  0.3156E+00  0.1017E+02
     11.226  0.6973E+00  0.1022E+02
     11.291  0.8287E+00  0.1027E+02
     11.355 -0.5275E-01  0.1027E+02
     11.419  0.1202E+01  0.1034E+02
     11.483  0.2931E+00  0.1036E+02
     11.548 -0.2714E-01  0.1036E+02
     11.612 -0.1514E-03  0.1036E+02
     11.676 -0.2079E-07  0.1036E+02
     11.740 -0.9236E-13  0.1036E+02
     11.805 -0.2873E-13  0.1036E+02
     11.869 -0.6213E-08  0.1036E+02
     11.933 -0.4567E-04  0.1036E+02
     11.997 -0.1111E-01  0.1036E+02
     12.062  0.1267E-01  0.1036E+02
     12.126  0.1709E+01  0.1047E+02
     12.190  0.1631E+01  0.1057E+02
     12.254 -0.7646E-01  0.1057E+02
     12.318  0.1706E+00  0.1058E+02
     12.383  0.1993E+01  0.1071E+02
     12.447  0.3355E+01  0.1092E+02
     12.511  0.1298E+01  0.1101E+02
     12.575  0.4840E+00  0.1104E+02
     12.640  0.1629E+01  0.1114E+02
     12.704  0.1373E+01  0.1123E+02
     12.768 -0.6648E-01  0.1123E+02
     12.832  0.1212E+01  0.1130E+02
     12.897  0.2727E+00  0.1132E+02
     12.961 -0.2584E-01  0.1132E+02
     13.025 -0.1349E-03  0.1132E+02
     13.089 -0.2881E-03  0.1132E+02
     13.153 -0.1237E-01  0.1132E+02
     13.218  0.1906E+00  0.1133E+02
     13.282  0.1997E+00  0.1134E+02
     13.346 -0.1856E-01  0.1134E+02
     13.410  0.3434E-01  0.1135E+02
     13.475  0.6368E+00  0.1139E+02
     13.539  0.7317E-01  0.1139E+02
     13.603 -0.8734E-02  0.1139E+02
     13.667 -0.2854E-04  0.1139E+02
     13.732 -0.3393E-04  0.1139E+02
     13.796 -0.7634E-02  0.1139E+02
     13.860  0.6923E-01  0.1139E+02
     13.924  0.4534E+00  0.1142E+02
     13.988  0.6455E+00  0.1147E+02
     14.053  0.6417E-01  0.1147E+02
     14.117 -0.8323E-02  0.1147E+02
     14.181 -0.7333E-03  0.1147E+02
     14.245 -0.4560E-01  0.1147E+02
     14.310  0.6331E+00  0.1151E+02
     14.374  0.9237E+00  0.1157E+02
     14.438 -0.4889E-01  0.1156E+02
     14.502 -0.2082E-02  0.1156E+02
     14.567 -0.1230E-05  0.1156E+02
     14.631 -0.2215E-10  0.1156E+02
     14.695 -0.4684E-12  0.1156E+02
     14.759 -0.8403E-07  0.1156E+02
     14.824 -0.4840E-03  0.1156E+02
     14.888 -0.6543E-01  0.1156E+02
     14.952  0.7659E+00  0.1161E+02
     15.016  0.2278E+01  0.1175E+02
     15.080 -0.4943E-01  0.1175E+02
     15.145 -0.9834E-02  0.1175E+02
     15.209 -0.3400E-02  0.1175E+02
     15.273 -0.4402E-01  0.1175E+02
     15.337  0.9982E+00  0.1181E+02
     15.402  0.2480E+01  0.1197E+02
     15.466 -0.1094E-01  0.1197E+02
     15.530 -0.1374E-01  0.1197E+02
     15.594 -0.7937E-02  0.1197E+02
     15.659  0.8019E-01  0.1197E+02
     15.723  0.4115E+00  0.1200E+02
     15.787  0.5486E-02  0.1200E+02
     15.851 -0.2753E-02  0.1200E+02
     15.915 -0.4443E-05  0.1200E+02
     15.980 -0.2040E-09  0.1200E+02
     16.044 -0.3241E-15  0.1200E+02
     16.108  0.0000E+00  0.1200E+02
     16.172  0.0000E+00  0.1200E+02
     16.237  0.0000E+00  0.1200E+02
     16.301  0.0000E+00  0.1200E+02
     16.365  0.0000E+00  0.1200E+02
     16.429  0.0000E+00  0.1200E+02
     16.494  0.0000E+00  0.1200E+02
     16.558  0.0000E+00  0.1200E+02
