   1   1   1   0
  0.1813235E+02  0.2866544E-09  0.2866544E-09  0.2866544E-09  0.5000000E-15
  1.000000000000000E-004
  CAR 
 unknown system                          
     16.59718905     -2.76336865  301      5.68394877      1.00000000
     -2.763  0.0000E+00  0.0000E+00  0.0000E+00  0.0000E+00
     -2.699  0.0000E+00  0.0000E+00  0.0000E+00  0.0000E+00
     -2.634  0.0000E+00  0.0000E+00  0.0000E+00  0.0000E+00
     -2.570  0.0000E+00  0.0000E+00  0.0000E+00  0.0000E+00
     -2.505  0.0000E+00  0.0000E+00  0.0000E+00  0.0000E+00
     -2.441  0.0000E+00  0.0000E+00  0.0000E+00  0.0000E+00
     -2.376  0.0000E+00  0.0000E+00  0.0000E+00  0.0000E+00
     -2.312 -0.6004E-32  0.0000E+00 -0.3874E-33  0.0000E+00
     -2.247 -0.3862E-23 -0.3068E-36 -0.2492E-24 -0.1980E-37
     -2.183 -0.8595E-16 -0.8512E-27 -0.5547E-17 -0.5494E-28
     -2.118 -0.6228E-10 -0.8210E-19 -0.4019E-11 -0.5299E-20
     -2.053 -0.1496E-05 -0.2623E-12 -0.9657E-07 -0.1692E-13
     -1.989 -0.9926E-03 -0.2837E-07 -0.6415E-04 -0.1831E-08
     -1.924  0.1845E-02 -0.9323E-04  0.5494E-04 -0.6018E-05
     -1.860  0.1540E+00 -0.5783E-02  0.9994E-02 -0.3792E-03
     -1.795  0.2964E-01  0.8248E-01  0.1191E-01  0.4944E-02
     -1.731 -0.2895E-02  0.1114E+00  0.1172E-01  0.1213E-01
     -1.666 -0.1273E-04 -0.6197E-02  0.1172E-01  0.1173E-01
     -1.602 -0.1375E-08 -0.2211E-03  0.1172E-01  0.1172E-01
     -1.537 -0.7741E-14 -0.1130E-06  0.1172E-01  0.1172E-01
     -1.473 -0.1066E-08 -0.1713E-11  0.1172E-01  0.1172E-01
     -1.408 -0.1174E-04 -0.6650E-11  0.1172E-01  0.1172E-01
     -1.344 -0.3264E-02 -0.3279E-06  0.1151E-01  0.1172E-01
     -1.279  0.3044E-01 -0.4713E-03  0.1347E-01  0.1169E-01
     -1.215  0.2097E+00 -0.7294E-02  0.2701E-01  0.1122E-01
     -1.150  0.6890E-02  0.1692E+00  0.2745E-01  0.2214E-01
     -1.085 -0.1648E-02  0.8744E-01  0.2734E-01  0.2778E-01
     -1.021 -0.3001E-05 -0.6705E-02  0.2734E-01  0.2735E-01
     -0.956 -0.1484E-09 -0.7222E-04  0.2734E-01  0.2734E-01
     -0.892 -0.1038E-08 -0.1626E-07  0.2734E-01  0.2734E-01
     -0.827 -0.1625E-04 -0.6108E-11  0.2734E-01  0.2734E-01
     -0.763 -0.6717E-02 -0.4100E-06  0.2691E-01  0.2734E-01
     -0.698  0.4586E-01 -0.8328E-03  0.2987E-01  0.2729E-01
     -0.634  0.6380E+00 -0.2490E-01  0.7104E-01  0.2568E-01
     -0.569  0.5670E-01  0.4375E+00  0.7470E-01  0.5392E-01
     -0.505 -0.7461E-02  0.3384E+00  0.7422E-01  0.7576E-01
     -0.440 -0.2004E-04 -0.2343E-01  0.7422E-01  0.7424E-01
     -0.376 -0.1406E-08 -0.3981E-03  0.7422E-01  0.7422E-01
     -0.311 -0.3226E-14 -0.1257E-06  0.7422E-01  0.7422E-01
     -0.246  0.0000E+00 -0.1205E-11  0.7422E-01  0.7422E-01
     -0.182  0.0000E+00  0.0000E+00  0.7422E-01  0.7422E-01
     -0.117 -0.2067E-34  0.0000E+00  0.7422E-01  0.7422E-01
     -0.053 -0.3814E-25  0.0000E+00  0.7422E-01  0.7422E-01
      0.012 -0.2443E-17 -0.1175E-28  0.7422E-01  0.7422E-01
      0.076 -0.5160E-11 -0.2868E-20  0.7422E-01  0.7422E-01
      0.141 -0.3673E-06 -0.2338E-13  0.7422E-01  0.7422E-01
      0.205 -0.7784E-03 -0.6517E-08  0.7417E-01  0.7422E-01
      0.270 -0.2498E-01 -0.5711E-04  0.7256E-01  0.7422E-01
      0.334  0.4281E+00 -0.1218E-01  0.1002E+00  0.7343E-01
      0.399  0.3417E+00  0.1278E+00  0.1222E+00  0.8167E-01
      0.463  0.8483E-01  0.6079E+00  0.1277E+00  0.1209E+00
      0.528  0.8501E-01  0.3291E-01  0.1332E+00  0.1230E+00
      0.592 -0.5887E-02  0.1506E+00  0.1328E+00  0.1327E+00
      0.657 -0.1238E-03  0.2044E-02  0.1328E+00  0.1329E+00
      0.722 -0.7762E-02 -0.1009E-02  0.1323E+00  0.1328E+00
      0.786  0.6103E-01 -0.1235E-02  0.1362E+00  0.1327E+00
      0.851  0.6227E+00 -0.2316E-01  0.1764E+00  0.1312E+00
      0.915  0.2120E+00  0.4857E+00  0.1901E+00  0.1626E+00
      0.980  0.5763E+00  0.2937E+00  0.2273E+00  0.1815E+00
      1.044 -0.8777E-02  0.6001E+00  0.2267E+00  0.2203E+00
      1.109 -0.2699E-02  0.1086E+00  0.2266E+00  0.2273E+00
      1.173 -0.2991E-05 -0.1095E-01  0.2266E+00  0.2266E+00
      1.238 -0.1360E-08 -0.4490E-04  0.2266E+00  0.2266E+00
      1.302 -0.1865E-04 -0.4695E-08  0.2266E+00  0.2266E+00
      1.367 -0.7201E-02 -0.3720E-05  0.2261E+00  0.2266E+00
      1.431  0.4995E-01 -0.3053E-02  0.2293E+00  0.2264E+00
      1.496  0.6320E+00 -0.5250E-02  0.2701E+00  0.2260E+00
      1.560  0.6381E+00  0.5696E+00  0.3113E+00  0.2628E+00
      1.625  0.1500E+00  0.5810E+00  0.3210E+00  0.3003E+00
      1.690  0.2817E+00  0.3225E+00  0.3391E+00  0.3211E+00
      1.754  0.7853E-01  0.2200E+00  0.3442E+00  0.3353E+00
      1.819 -0.7489E-02  0.1419E+00  0.3437E+00  0.3444E+00
      1.883 -0.4095E-01 -0.1065E-01  0.3411E+00  0.3438E+00
      1.948  0.5335E+00 -0.1498E-01  0.3755E+00  0.3428E+00
      2.012  0.9796E+00  0.1112E+00  0.4387E+00  0.3500E+00
      2.077  0.1185E+01  0.1219E+01  0.5152E+00  0.4286E+00
      2.141  0.4963E+00  0.9620E+00  0.5472E+00  0.4907E+00
      2.206  0.4914E+00  0.8648E+00  0.5789E+00  0.5465E+00
      2.270  0.3762E+00  0.3679E+00  0.6032E+00  0.5703E+00
      2.335 -0.2676E-01  0.5091E+00  0.6015E+00  0.6031E+00
      2.399 -0.1975E-01 -0.2344E-01  0.6002E+00  0.6016E+00
      2.464  0.5222E+00 -0.2606E-01  0.6339E+00  0.5999E+00
      2.529  0.3689E+00  0.3755E+00  0.6577E+00  0.6242E+00
      2.593  0.3085E+00  0.4538E+00  0.6776E+00  0.6535E+00
      2.658  0.5238E+00  0.3653E+00  0.7114E+00  0.6770E+00
      2.722  0.1520E+01  0.3247E+00  0.8095E+00  0.6980E+00
      2.787  0.1889E+00  0.1561E+01  0.8217E+00  0.7987E+00
      2.851  0.1317E+00  0.3591E+00  0.8302E+00  0.8219E+00
      2.916  0.6259E-02  0.7433E-01  0.8306E+00  0.8267E+00
      2.980  0.2811E+00  0.7546E-01  0.8487E+00  0.8315E+00
      3.045  0.1095E+01  0.1053E+00  0.9194E+00  0.8383E+00
      3.109  0.7144E+00  0.1018E+01  0.9655E+00  0.9040E+00
      3.174  0.1951E+00  0.8508E+00  0.9781E+00  0.9589E+00
      3.238  0.6586E+00  0.2671E+00  0.1021E+01  0.9762E+00
      3.303  0.2291E+00  0.6539E+00  0.1035E+01  0.1018E+01
      3.367 -0.2740E-02  0.2650E+00  0.1035E+01  0.1035E+01
      3.432 -0.2703E-02 -0.3583E-02  0.1035E+01  0.1035E+01
      3.497  0.7054E-02 -0.2182E-02  0.1036E+01  0.1035E+01
      3.561  0.1559E+00 -0.1581E-02  0.1046E+01  0.1035E+01
      3.626  0.3840E-02  0.1463E+00  0.1046E+01  0.1044E+01
      3.690  0.6222E+00  0.1479E-01  0.1086E+01  0.1045E+01
      3.755  0.3476E+00  0.4840E+00  0.1108E+01  0.1077E+01
      3.819  0.4935E+00  0.4765E+00  0.1140E+01  0.1107E+01
      3.884  0.6455E+00  0.3255E+00  0.1182E+01  0.1128E+01
      3.948 -0.3334E-01  0.8051E+00  0.1180E+01  0.1180E+01
      4.013 -0.2569E-01 -0.6430E-02  0.1178E+01  0.1180E+01
      4.077  0.2020E+00 -0.2729E-01  0.1191E+01  0.1178E+01
      4.142  0.1858E+01  0.2032E+00  0.1311E+01  0.1191E+01
      4.206  0.1413E+01  0.1770E+01  0.1402E+01  0.1305E+01
      4.271 -0.7927E-01  0.1507E+01  0.1397E+01  0.1403E+01
      4.336  0.5095E+00 -0.7435E-01  0.1430E+01  0.1398E+01
      4.400  0.1239E+01  0.6160E+00  0.1510E+01  0.1438E+01
      4.465  0.4400E+00  0.1173E+01  0.1538E+01  0.1513E+01
      4.529  0.5307E+00  0.3846E+00  0.1573E+01  0.1538E+01
      4.594  0.2009E+01  0.4944E+00  0.1702E+01  0.1570E+01
      4.658  0.1346E+01  0.1916E+01  0.1789E+01  0.1694E+01
      4.723  0.6905E+00  0.1418E+01  0.1834E+01  0.1785E+01
      4.787  0.2853E+00  0.6707E+00  0.1852E+01  0.1829E+01
      4.852  0.5150E-01  0.3457E+00  0.1855E+01  0.1851E+01
      4.916  0.6026E+00  0.1615E+00  0.1894E+01  0.1861E+01
      4.981  0.1073E+01  0.5478E+00  0.1964E+01  0.1897E+01
      5.045  0.5760E+00  0.1057E+01  0.2001E+01  0.1965E+01
      5.110  0.8182E+00  0.4998E+00  0.2053E+01  0.1997E+01
      5.174  0.2780E+00  0.8640E+00  0.2071E+01  0.2053E+01
      5.239  0.5846E+00  0.3156E+00  0.2109E+01  0.2073E+01
      5.304 -0.1309E-01  0.5664E+00  0.2108E+01  0.2110E+01
      5.368  0.1110E+01 -0.3898E-01  0.2180E+01  0.2107E+01
      5.433  0.2102E+01  0.1021E+01  0.2316E+01  0.2173E+01
      5.497  0.1424E+01  0.1767E+01  0.2407E+01  0.2287E+01
      5.562  0.4325E+00  0.1989E+01  0.2435E+01  0.2416E+01
      5.626  0.7833E+00  0.3347E+00  0.2486E+01  0.2437E+01
      5.691  0.1121E+01  0.3231E+00  0.2558E+01  0.2458E+01
      5.755  0.1061E+01  0.1818E+01  0.2627E+01  0.2575E+01
      5.820  0.4310E-01  0.8116E+00  0.2630E+01  0.2628E+01
      5.884  0.3837E+00  0.1225E+00  0.2654E+01  0.2636E+01
      5.949  0.4287E+00  0.3141E+00  0.2682E+01  0.2656E+01
      6.013  0.3208E+00  0.5081E+00  0.2703E+01  0.2689E+01
      6.078  0.3494E+00  0.2039E+00  0.2725E+01  0.2702E+01
      6.142  0.1105E+01  0.5180E+00  0.2797E+01  0.2735E+01
      6.207  0.1400E+00  0.9875E+00  0.2806E+01  0.2799E+01
      6.272  0.3995E-01  0.9323E-01  0.2808E+01  0.2805E+01
      6.336  0.1035E+00  0.4894E-01  0.2815E+01  0.2808E+01
      6.401  0.6963E+00  0.2240E+00  0.2860E+01  0.2823E+01
      6.465  0.6624E+00  0.3440E+00  0.2903E+01  0.2845E+01
      6.530  0.2000E-01  0.8906E+00  0.2904E+01  0.2902E+01
      6.594  0.1539E+00  0.7423E-01  0.2914E+01  0.2907E+01
      6.659  0.5767E-02  0.1148E+00  0.2914E+01  0.2914E+01
      6.723 -0.1121E-01 -0.5932E-02  0.2913E+01  0.2914E+01
      6.788  0.1285E+00 -0.2462E-02  0.2922E+01  0.2914E+01
      6.852  0.2561E+00  0.6256E-02  0.2938E+01  0.2914E+01
      6.917 -0.1074E-01  0.3110E+00  0.2938E+01  0.2934E+01
      6.981 -0.7330E-03  0.5349E-01  0.2938E+01  0.2938E+01
      7.046 -0.5227E-06 -0.5412E-02  0.2938E+01  0.2938E+01
      7.111 -0.1085E-10 -0.2190E-04  0.2938E+01  0.2938E+01
      7.175 -0.7609E-11 -0.2202E-08  0.2937E+01  0.2938E+01
      7.240 -0.4880E-06 -0.4308E-10  0.2937E+01  0.2937E+01
      7.304 -0.9265E-03 -0.1714E-05  0.2937E+01  0.2937E+01
      7.369 -0.2466E-01 -0.1961E-02  0.2936E+01  0.2937E+01
      7.433  0.4519E+00 -0.1696E-01  0.2965E+01  0.2936E+01
      7.498  0.3159E+00  0.5476E+00  0.2985E+01  0.2972E+01
      7.562  0.1916E-01  0.2018E+00  0.2987E+01  0.2985E+01
      7.627  0.8030E+00  0.1290E+00  0.3038E+01  0.2993E+01
      7.691  0.1426E+00  0.7676E+00  0.3048E+01  0.3043E+01
      7.756 -0.5302E-01  0.6818E-01  0.3044E+01  0.3047E+01
      7.820  0.8688E+00  0.3323E-01  0.3100E+01  0.3049E+01
      7.885  0.5034E+00  0.1084E+01  0.3133E+01  0.3119E+01
      7.949  0.7171E+00  0.2782E+00  0.3179E+01  0.3137E+01
      8.014  0.2074E+00  0.7323E+00  0.3192E+01  0.3184E+01
      8.079 -0.3980E-01  0.1219E+00  0.3190E+01  0.3192E+01
      8.143  0.3299E+00 -0.3578E-01  0.3211E+01  0.3190E+01
      8.208  0.4561E+00  0.4610E+00  0.3241E+01  0.3220E+01
      8.272  0.1009E+01  0.3494E+00  0.3306E+01  0.3242E+01
      8.337  0.1105E+01  0.1220E+01  0.3377E+01  0.3321E+01
      8.401  0.3885E-01  0.9188E+00  0.3379E+01  0.3380E+01
      8.466 -0.1036E-01 -0.1396E-01  0.3379E+01  0.3379E+01
      8.530 -0.4969E-01 -0.8548E-02  0.3376E+01  0.3379E+01
      8.595  0.7713E+00 -0.3352E-01  0.3425E+01  0.3376E+01
      8.659  0.9234E+00  0.1077E+01  0.3485E+01  0.3446E+01
      8.724  0.5050E+00  0.7363E+00  0.3518E+01  0.3494E+01
      8.788  0.7385E+00  0.4205E+00  0.3565E+01  0.3521E+01
      8.853  0.7830E+00  0.9649E+00  0.3616E+01  0.3583E+01
      8.918 -0.3658E-01  0.5057E+00  0.3613E+01  0.3616E+01
      8.982 -0.5016E-02 -0.3475E-01  0.3613E+01  0.3613E+01
      9.047  0.2964E-01 -0.5596E-02  0.3615E+01  0.3613E+01
      9.111  0.1105E+00  0.5936E-01  0.3622E+01  0.3617E+01
      9.176  0.5874E+00  0.8550E-01  0.3660E+01  0.3622E+01
      9.240  0.9578E+00  0.9974E+00  0.3722E+01  0.3687E+01
      9.305 -0.8726E-01  0.5326E+00  0.3716E+01  0.3721E+01
      9.369  0.7249E+00 -0.4044E-01  0.3763E+01  0.3718E+01
      9.434  0.6388E+00  0.9765E+00  0.3804E+01  0.3781E+01
      9.498  0.9052E+00  0.5525E+00  0.3863E+01  0.3817E+01
      9.563  0.4572E+00  0.9766E+00  0.3892E+01  0.3880E+01
      9.627  0.6337E+00  0.2952E+00  0.3933E+01  0.3899E+01
      9.692  0.1056E+01  0.8903E+00  0.4001E+01  0.3957E+01
      9.756  0.4809E-01  0.8129E+00  0.4004E+01  0.4009E+01
      9.821  0.8620E+00 -0.1048E+00  0.4060E+01  0.4002E+01
      9.886  0.2312E+01  0.1898E+01  0.4209E+01  0.4125E+01
      9.950 -0.2647E-01  0.1366E+01  0.4207E+01  0.4213E+01
     10.015  0.1088E+00 -0.7514E-01  0.4214E+01  0.4208E+01
     10.079  0.1038E+00  0.1398E+00  0.4221E+01  0.4217E+01
     10.144  0.6083E+00  0.2141E+00  0.4260E+01  0.4231E+01
     10.208  0.5263E+00  0.5985E+00  0.4294E+01  0.4270E+01
     10.273  0.4124E+00  0.5806E+00  0.4321E+01  0.4307E+01
     10.337  0.2045E+01  0.5894E+00  0.4453E+01  0.4345E+01
     10.402  0.2212E+01  0.2681E+01  0.4596E+01  0.4518E+01
     10.466  0.2495E+00  0.1395E+01  0.4612E+01  0.4608E+01
     10.531  0.1847E+01  0.2972E+00  0.4731E+01  0.4627E+01
     10.595  0.2477E+01  0.2880E+01  0.4891E+01  0.4813E+01
     10.660  0.3138E+00  0.1409E+01  0.4911E+01  0.4904E+01
     10.724  0.4459E+00  0.2394E+00  0.4940E+01  0.4920E+01
     10.789  0.9030E+00  0.5881E+00  0.4998E+01  0.4957E+01
     10.854  0.5264E+00  0.8991E+00  0.5032E+01  0.5016E+01
     10.918  0.2207E+00  0.2662E+00  0.5046E+01  0.5033E+01
     10.983  0.1321E+00  0.2824E+00  0.5055E+01  0.5051E+01
     11.047  0.6496E-01  0.5073E-01  0.5059E+01  0.5054E+01
     11.112  0.4072E+00  0.1764E+00  0.5085E+01  0.5066E+01
     11.176  0.3075E-01  0.3166E+00  0.5087E+01  0.5086E+01
     11.241  0.6285E+00  0.1554E+00  0.5128E+01  0.5096E+01
     11.305  0.6669E-01  0.5806E+00  0.5132E+01  0.5134E+01
     11.370  0.2228E+00 -0.3369E-01  0.5147E+01  0.5131E+01
     11.434  0.5337E+00  0.4411E+00  0.5181E+01  0.5160E+01
     11.499 -0.1908E-01  0.3319E+00  0.5180E+01  0.5181E+01
     11.563 -0.1742E-02 -0.2320E-01  0.5180E+01  0.5180E+01
     11.628 -0.1400E-05 -0.3785E-03  0.5180E+01  0.5180E+01
     11.693 -0.3252E-10 -0.1162E-06  0.5180E+01  0.5180E+01
     11.757 -0.1168E-17 -0.1083E-11  0.5180E+01  0.5180E+01
     11.822 -0.2165E-11 -0.1506E-14  0.5180E+01  0.5180E+01
     11.886 -0.1379E-06 -0.5854E-09  0.5180E+01  0.5180E+01
     11.951 -0.2936E-03 -0.7485E-05  0.5180E+01  0.5180E+01
     12.015 -0.2094E-01 -0.3062E-02  0.5178E+01  0.5179E+01
     12.080  0.2293E+00 -0.1161E-01  0.5193E+01  0.5179E+01
     12.144  0.1321E+01  0.6325E+00  0.5278E+01  0.5220E+01
     12.209  0.1194E+00  0.9799E+00  0.5286E+01  0.5283E+01
     12.273 -0.4623E-01  0.3851E-01  0.5283E+01  0.5285E+01
     12.338  0.4786E+00  0.1510E-01  0.5314E+01  0.5286E+01
     12.402  0.1565E+01  0.8166E+00  0.5415E+01  0.5339E+01
     12.467  0.1014E+01  0.1715E+01  0.5480E+01  0.5450E+01
     12.531  0.5456E+00  0.7684E+00  0.5516E+01  0.5499E+01
     12.596  0.4345E+00  0.3073E+00  0.5544E+01  0.5519E+01
     12.661  0.1101E+01  0.5338E+00  0.5615E+01  0.5553E+01
     12.725 -0.3434E-01  0.9189E+00  0.5613E+01  0.5613E+01
     12.790  0.1969E+00 -0.2851E-03  0.5625E+01  0.5613E+01
     12.854  0.5584E+00  0.5656E+00  0.5661E+01  0.5649E+01
     12.919 -0.1498E-01  0.1849E+00  0.5660E+01  0.5661E+01
     12.983 -0.2150E-02 -0.1576E-01  0.5660E+01  0.5660E+01
     13.048 -0.1281E-03 -0.1069E-03  0.5660E+01  0.5660E+01
     13.112 -0.6088E-02 -0.1848E-04  0.5660E+01  0.5660E+01
     13.177  0.9243E-01 -0.3397E-02  0.5666E+01  0.5660E+01
     13.241  0.1018E+00  0.3747E-01  0.5672E+01  0.5662E+01
     13.306 -0.7528E-02  0.1492E+00  0.5672E+01  0.5672E+01
     13.370 -0.5248E-02 -0.2389E-02  0.5671E+01  0.5672E+01
     13.435  0.2891E+00 -0.3213E-02  0.5690E+01  0.5672E+01
     13.499  0.8815E-01  0.2968E+00  0.5696E+01  0.5691E+01
     13.564 -0.7616E-02  0.7731E-01  0.5695E+01  0.5696E+01
     13.629 -0.4899E-04 -0.6944E-02  0.5695E+01  0.5695E+01
     13.693 -0.4290E-05 -0.3893E-04  0.5695E+01  0.5695E+01
     13.758 -0.1986E-02 -0.6735E-05  0.5695E+01  0.5695E+01
     13.822  0.1132E-01 -0.2502E-02  0.5696E+01  0.5695E+01
     13.887  0.1995E+00  0.1618E-01  0.5709E+01  0.5696E+01
     13.951  0.2245E+00  0.2284E+00  0.5723E+01  0.5711E+01
     14.016  0.1844E+00  0.3326E+00  0.5735E+01  0.5732E+01
     14.080 -0.1224E-01  0.3503E-01  0.5734E+01  0.5735E+01
     14.145 -0.2874E-03 -0.4339E-02  0.5734E+01  0.5734E+01
     14.209 -0.8514E-02 -0.3005E-03  0.5734E+01  0.5734E+01
     14.274  0.7223E-01 -0.2176E-01  0.5738E+01  0.5733E+01
     14.338  0.6354E+00  0.2966E+00  0.5779E+01  0.5752E+01
     14.403  0.3310E-01  0.4768E+00  0.5782E+01  0.5783E+01
     14.468 -0.5828E-02 -0.2384E-01  0.5781E+01  0.5781E+01
     14.532 -0.1232E-04 -0.1116E-02  0.5781E+01  0.5781E+01
     14.597 -0.6968E-09 -0.6632E-06  0.5781E+01  0.5781E+01
     14.661 -0.7830E-14 -0.1159E-10  0.5781E+01  0.5781E+01
     14.726 -0.2886E-08 -0.1389E-12  0.5781E+01  0.5781E+01
     14.790 -0.4081E-04 -0.2974E-07  0.5781E+01  0.5781E+01
     14.855 -0.1506E-01 -0.1985E-03  0.5780E+01  0.5781E+01
     14.919  0.1154E+00 -0.3062E-01  0.5788E+01  0.5779E+01
     14.984  0.1276E+01  0.3551E+00  0.5870E+01  0.5802E+01
     15.048  0.8993E-01  0.1154E+01  0.5876E+01  0.5877E+01
     15.113 -0.1331E-01 -0.2086E-01  0.5875E+01  0.5875E+01
     15.177 -0.3260E-03 -0.5118E-02  0.5875E+01  0.5875E+01
     15.242 -0.2205E-01 -0.1905E-02  0.5874E+01  0.5875E+01
     15.306  0.2390E+00 -0.1974E-01  0.5889E+01  0.5874E+01
     15.371  0.1387E+01  0.5220E+00  0.5978E+01  0.5907E+01
     15.436  0.1064E+00  0.1213E+01  0.5985E+01  0.5986E+01
     15.500 -0.1511E-01 -0.1202E-01  0.5984E+01  0.5985E+01
     15.565 -0.3242E-02 -0.6110E-02  0.5984E+01  0.5984E+01
     15.629  0.2949E-01 -0.3868E-02  0.5986E+01  0.5984E+01
     15.694  0.2101E+00  0.3952E-01  0.6000E+01  0.5987E+01
     15.758  0.7448E-02  0.2053E+00  0.6000E+01  0.6000E+01
     15.823 -0.1688E-02  0.2461E-02  0.6000E+01  0.6000E+01
     15.887 -0.3140E-05 -0.1323E-02  0.6000E+01  0.6000E+01
     15.952 -0.1583E-09 -0.1995E-05  0.6000E+01  0.6000E+01
     16.016 -0.2688E-15 -0.8303E-10  0.6000E+01  0.6000E+01
     16.081  0.0000E+00 -0.1075E-15  0.6000E+01  0.6000E+01
     16.145  0.0000E+00  0.0000E+00  0.6000E+01  0.6000E+01
     16.210  0.0000E+00  0.0000E+00  0.6000E+01  0.6000E+01
     16.275  0.0000E+00  0.0000E+00  0.6000E+01  0.6000E+01
     16.339  0.0000E+00  0.0000E+00  0.6000E+01  0.6000E+01
     16.404  0.0000E+00  0.0000E+00  0.6000E+01  0.6000E+01
     16.468  0.0000E+00  0.0000E+00  0.6000E+01  0.6000E+01
     16.533  0.0000E+00  0.0000E+00  0.6000E+01  0.6000E+01
     16.597  0.0000E+00  0.0000E+00  0.6000E+01  0.6000E+01
     16.59718905     -2.76336865  301      5.68394877      1.00000000
     -2.763  0.0000E+00  0.0000E+00  0.0000E+00  0.0000E+00  0.0000E+00  0.0000E+00  0.0000E+00  0.0000E+00  0.0000E+00  0.0000E+00  0.0000E+00  0.0000E+00  0.0000E+00  0.0000E+00  0.0000E+00  0.0000E+00  0.0000E+00  0.0000E+00
     -2.699  0.0000E+00  0.0000E+00  0.0000E+00  0.0000E+00  0.0000E+00  0.0000E+00  0.0000E+00  0.0000E+00  0.0000E+00  0.0000E+00  0.0000E+00  0.0000E+00  0.0000E+00  0.0000E+00  0.0000E+00  0.0000E+00  0.0000E+00  0.0000E+00
     -2.634  0.0000E+00  0.0000E+00  0.0000E+00  0.0000E+00  0.0000E+00  0.0000E+00  0.0000E+00  0.0000E+00  0.0000E+00  0.0000E+00  0.0000E+00  0.0000E+00  0.0000E+00  0.0000E+00  0.0000E+00  0.0000E+00  0.0000E+00  0.0000E+00
     -2.570  0.0000E+00  0.0000E+00  0.0000E+00  0.0000E+00  0.0000E+00  0.0000E+00  0.0000E+00  0.0000E+00  0.0000E+00  0.0000E+00  0.0000E+00  0.0000E+00  0.0000E+00  0.0000E+00  0.0000E+00  0.0000E+00  0.0000E+00  0.0000E+00
     -2.505  0.0000E+00  0.0000E+00  0.0000E+00  0.0000E+00  0.0000E+00  0.0000E+00  0.0000E+00  0.0000E+00  0.0000E+00  0.0000E+00  0.0000E+00  0.0000E+00  0.0000E+00  0.0000E+00  0.0000E+00  0.0000E+00  0.0000E+00  0.0000E+00
     -2.441  0.0000E+00  0.0000E+00  0.0000E+00  0.0000E+00  0.0000E+00  0.0000E+00  0.0000E+00  0.0000E+00  0.0000E+00  0.0000E+00  0.0000E+00  0.0000E+00  0.0000E+00  0.0000E+00  0.0000E+00  0.0000E+00  0.0000E+00  0.0000E+00
     -2.376  0.0000E+00  0.0000E+00  0.0000E+00  0.0000E+00  0.0000E+00  0.0000E+00  0.0000E+00  0.0000E+00  0.0000E+00  0.0000E+00  0.0000E+00  0.0000E+00  0.0000E+00  0.0000E+00  0.0000E+00  0.0000E+00  0.0000E+00  0.0000E+00
     -2.312 -0.5029E-32  0.0000E+00 -0.2615E-34  0.0000E+00 -0.7844E-34  0.0000E+00 -0.5230E-34  0.0000E+00 -0.5685E-36  0.0000E+00 -0.8527E-36  0.0000E+00 -0.2132E-36  0.0000E+00 -0.1705E-35  0.0000E+00 -0.7106E-37  0.0000E+00
     -2.247 -0.3235E-23 -0.2561E-36 -0.1682E-25 -0.1335E-38 -0.5046E-25 -0.4006E-38 -0.3364E-25 -0.2670E-38 -0.3656E-27 -0.2908E-40 -0.5485E-27 -0.4361E-40 -0.1371E-27 -0.1090E-40 -0.1097E-26 -0.8724E-40 -0.4571E-28 -0.3635E-41
     -2.183 -0.7200E-16 -0.7106E-27 -0.3744E-18 -0.3705E-29 -0.1123E-17 -0.1112E-28 -0.7487E-18 -0.7410E-29 -0.8138E-20 -0.8069E-31 -0.1221E-19 -0.1210E-30 -0.3052E-20 -0.3026E-31 -0.2442E-19 -0.2421E-30 -0.1017E-20 -0.1009E-31
     -2.118 -0.5217E-10 -0.6854E-19 -0.2712E-12 -0.3574E-21 -0.8137E-12 -0.1072E-20 -0.5425E-12 -0.7147E-21 -0.5897E-14 -0.7783E-23 -0.8845E-14 -0.1167E-22 -0.2211E-14 -0.2918E-23 -0.1769E-13 -0.2335E-22 -0.7371E-15 -0.9729E-24
     -2.053 -0.1254E-05 -0.2189E-12 -0.6517E-08 -0.1141E-14 -0.1955E-07 -0.3424E-14 -0.1303E-07 -0.2283E-14 -0.1417E-09 -0.2486E-16 -0.2125E-09 -0.3729E-16 -0.5313E-10 -0.9321E-17 -0.4250E-09 -0.7458E-16 -0.1771E-10 -0.3108E-17
     -1.989 -0.8315E-03 -0.2368E-07 -0.4323E-05 -0.1235E-09 -0.1297E-04 -0.3704E-09 -0.8646E-05 -0.2470E-09 -0.9398E-07 -0.2689E-11 -0.1410E-06 -0.4033E-11 -0.3524E-07 -0.1008E-11 -0.2819E-06 -0.8068E-11 -0.1175E-07 -0.3362E-12
     -1.924  0.1546E-02 -0.7782E-04  0.8038E-05 -0.4058E-06  0.2411E-04 -0.1217E-05  0.1607E-04 -0.8116E-06  0.1747E-06 -0.8838E-08  0.2621E-06 -0.1325E-07  0.6552E-07 -0.3314E-08  0.5242E-06 -0.2651E-07  0.2184E-07 -0.1105E-08
     -1.860  0.1290E+00 -0.4827E-02  0.6708E-03 -0.2517E-04  0.2012E-02 -0.7551E-04  0.1342E-02 -0.5034E-04  0.1458E-04 -0.5482E-06  0.2187E-04 -0.8222E-06  0.5468E-05 -0.2055E-06  0.4375E-04 -0.1645E-05  0.1823E-05 -0.6852E-07
     -1.795  0.2483E-01  0.6885E-01  0.1291E-03  0.3590E-03  0.3872E-03  0.1077E-02  0.2582E-03  0.7180E-03  0.2806E-05  0.7819E-05  0.4209E-05  0.1173E-04  0.1052E-05  0.2932E-05  0.8419E-05  0.2346E-04  0.3508E-06  0.9774E-06
     -1.731 -0.2425E-02  0.9299E-01 -0.1261E-04  0.4849E-03 -0.3783E-04  0.1455E-02 -0.2522E-04  0.9697E-03 -0.2741E-06  0.1056E-04 -0.4112E-06  0.1584E-04 -0.1028E-06  0.3959E-05 -0.8224E-06  0.3168E-04 -0.3426E-07  0.1320E-05
     -1.666 -0.1067E-04 -0.5173E-02 -0.5545E-07 -0.2697E-04 -0.1664E-06 -0.8091E-04 -0.1109E-06 -0.5394E-04 -0.1206E-08 -0.5874E-06 -0.1808E-08 -0.8810E-06 -0.4521E-09 -0.2202E-06 -0.3617E-08 -0.1762E-05 -0.1507E-09 -0.7343E-07
     -1.602 -0.1152E-08 -0.1845E-03 -0.5989E-11 -0.9622E-06 -0.1797E-10 -0.2886E-05 -0.1198E-10 -0.1924E-05 -0.1302E-12 -0.2095E-07 -0.1953E-12 -0.3143E-07 -0.4882E-13 -0.7857E-08 -0.3906E-12 -0.6286E-07 -0.1628E-13 -0.2619E-08
     -1.537 -0.6359E-14 -0.9434E-07 -0.6865E-16 -0.4919E-09 -0.2060E-15 -0.1476E-08 -0.6488E-16 -0.9838E-09 -0.2544E-17 -0.1071E-10 -0.1327E-16 -0.1607E-10 -0.7256E-17 -0.4017E-11 -0.7631E-17 -0.3214E-10 -0.3180E-18 -0.1339E-11
     -1.473 -0.8489E-09 -0.1430E-11 -0.1679E-10 -0.7457E-14 -0.5038E-10 -0.2237E-13 -0.8397E-11 -0.1491E-13 -0.7308E-12 -0.1624E-15 -0.4385E-11 -0.2436E-15 -0.2466E-11 -0.6090E-16 -0.2192E-11 -0.4872E-15 -0.9134E-13 -0.2030E-16
     -1.408 -0.9352E-05 -0.5277E-11 -0.1850E-06 -0.1047E-12 -0.5551E-06 -0.3140E-12 -0.9251E-07 -0.5233E-13 -0.8051E-08 -0.4590E-14 -0.4830E-07 -0.2754E-13 -0.2717E-07 -0.1549E-13 -0.2415E-07 -0.1377E-13 -0.1006E-08 -0.5737E-15
     -1.344 -0.2600E-02 -0.2602E-06 -0.5143E-04 -0.5160E-08 -0.1543E-03 -0.1548E-07 -0.2571E-04 -0.2580E-08 -0.2238E-05 -0.2263E-09 -0.1343E-04 -0.1358E-08 -0.7552E-05 -0.7638E-09 -0.6713E-05 -0.6789E-09 -0.2797E-06 -0.2829E-10
     -1.279  0.2425E-01 -0.3740E-03  0.4797E-03 -0.7417E-05  0.1439E-02 -0.2225E-04  0.2398E-03 -0.3709E-05  0.2087E-04 -0.3253E-06  0.1252E-03 -0.1952E-05  0.7044E-04 -0.1098E-05  0.6262E-04 -0.9759E-06  0.2609E-05 -0.4066E-07
     -1.215  0.1670E+00 -0.5788E-02  0.3304E-02 -0.1148E-03  0.9913E-02 -0.3444E-03  0.1652E-02 -0.5740E-04  0.1438E-03 -0.5034E-05  0.8626E-03 -0.3021E-04  0.4852E-03 -0.1699E-04  0.4313E-03 -0.1510E-04  0.1797E-04 -0.6293E-06
     -1.150  0.5488E-02  0.1343E+00  0.1086E-03  0.2663E-02  0.3257E-03  0.7990E-02  0.5428E-04  0.1332E-02  0.4724E-05  0.1168E-03  0.2834E-04  0.7008E-03  0.1594E-04  0.3942E-03  0.1417E-04  0.3504E-03  0.5905E-06  0.1460E-04
     -1.085 -0.1313E-02  0.6939E-01 -0.2597E-04  0.1376E-02 -0.7791E-04  0.4129E-02 -0.1299E-04  0.6881E-03 -0.1130E-05  0.6035E-04 -0.6780E-05  0.3621E-03 -0.3814E-05  0.2037E-03 -0.3390E-05  0.1811E-03 -0.1413E-06  0.7544E-05
     -1.021 -0.2390E-05 -0.5321E-02 -0.4728E-07 -0.1055E-03 -0.1418E-06 -0.3166E-03 -0.2364E-07 -0.5277E-04 -0.2057E-08 -0.4628E-05 -0.1234E-07 -0.2777E-04 -0.6944E-08 -0.1562E-04 -0.6172E-08 -0.1388E-04 -0.2572E-09 -0.5785E-06
     -0.956 -0.1182E-09 -0.5731E-04 -0.2338E-11 -0.1137E-05 -0.7013E-11 -0.3410E-05 -0.1169E-11 -0.5683E-06 -0.1017E-12 -0.4984E-07 -0.6103E-12 -0.2991E-06 -0.3433E-12 -0.1682E-06 -0.3051E-12 -0.1495E-06 -0.1272E-13 -0.6231E-08
     -0.892 -0.7788E-09 -0.1290E-07 -0.3399E-10 -0.2558E-09 -0.1360E-10 -0.7675E-09 -0.6798E-10 -0.1279E-09 -0.1504E-10 -0.1122E-10 -0.1294E-11 -0.6732E-10 -0.6305E-11 -0.3787E-10 -0.2587E-11 -0.3366E-10 -0.1880E-11 -0.1402E-11
     -0.827 -0.1219E-04 -0.4570E-11 -0.5320E-06 -0.1978E-12 -0.2128E-06 -0.8382E-13 -0.1064E-05 -0.3928E-12 -0.2354E-06 -0.8748E-13 -0.2025E-07 -0.7950E-14 -0.9867E-07 -0.3707E-13 -0.4049E-07 -0.1520E-13 -0.2943E-07 -0.1093E-13
     -0.763 -0.5038E-02 -0.3064E-06 -0.2199E-03 -0.1340E-07 -0.8796E-04 -0.5368E-08 -0.4398E-03 -0.2680E-07 -0.9731E-04 -0.5976E-08 -0.8369E-05 -0.5117E-09 -0.4079E-04 -0.2517E-08 -0.1674E-04 -0.1024E-08 -0.1216E-04 -0.7470E-09
     -0.698  0.3440E-01 -0.6223E-03  0.1501E-02 -0.2722E-04  0.6006E-03 -0.1090E-04  0.3003E-02 -0.5445E-04  0.6645E-03 -0.1214E-04  0.5714E-04 -0.1040E-05  0.2785E-03 -0.5113E-05  0.1143E-03 -0.2079E-05  0.8306E-04 -0.1518E-05
     -0.634  0.4785E+00 -0.1861E-01  0.2089E-01 -0.8140E-03  0.8355E-02 -0.3261E-03  0.4177E-01 -0.1628E-02  0.9243E-02 -0.3630E-03  0.7949E-03 -0.3108E-04  0.3874E-02 -0.1529E-03  0.1590E-02 -0.6217E-04  0.1155E-02 -0.4538E-04
     -0.569  0.4253E-01  0.3269E+00  0.1856E-02  0.1430E-01  0.7426E-03  0.5728E-02  0.3713E-02  0.2860E-01  0.8215E-03  0.6378E-02  0.7065E-04  0.5461E-03  0.3443E-03  0.2686E-02  0.1413E-03  0.1092E-02  0.1027E-03  0.7972E-03
     -0.505 -0.5597E-02  0.2529E+00 -0.2443E-03  0.1106E-01 -0.9771E-04  0.4431E-02 -0.4885E-03  0.2213E-01 -0.1081E-03  0.4934E-02 -0.9297E-05  0.4225E-03 -0.4531E-04  0.2078E-02 -0.1859E-04  0.8449E-03 -0.1351E-04  0.6167E-03
     -0.440 -0.1503E-04 -0.1751E-01 -0.6561E-06 -0.7660E-03 -0.2624E-06 -0.3068E-03 -0.1312E-05 -0.1532E-02 -0.2903E-06 -0.3416E-03 -0.2497E-07 -0.2925E-04 -0.1217E-06 -0.1439E-03 -0.4994E-07 -0.5851E-04 -0.3629E-07 -0.4270E-04
     -0.376 -0.1055E-08 -0.2975E-03 -0.4603E-10 -0.1301E-04 -0.1841E-10 -0.5212E-05 -0.9205E-10 -0.2602E-04 -0.2037E-10 -0.5803E-05 -0.1752E-11 -0.4969E-06 -0.8537E-11 -0.2444E-05 -0.3504E-11 -0.9938E-06 -0.2546E-11 -0.7253E-06
     -0.311 -0.2419E-14 -0.9396E-07 -0.1056E-15 -0.4110E-08 -0.4224E-16 -0.1646E-08 -0.2112E-15 -0.8221E-08 -0.4673E-16 -0.1833E-08 -0.4019E-17 -0.1570E-09 -0.1959E-16 -0.7720E-09 -0.8038E-17 -0.3139E-09 -0.5842E-17 -0.2291E-09
     -0.246  0.0000E+00 -0.9003E-12  0.0000E+00 -0.3938E-13  0.0000E+00 -0.1578E-13  0.0000E+00 -0.7876E-13  0.0000E+00 -0.1756E-13  0.0000E+00 -0.1504E-14  0.0000E+00 -0.7397E-14  0.0000E+00 -0.3008E-14  0.0000E+00 -0.2195E-14
     -0.182  0.0000E+00  0.0000E+00  0.0000E+00  0.0000E+00  0.0000E+00  0.0000E+00  0.0000E+00  0.0000E+00  0.0000E+00  0.0000E+00  0.0000E+00  0.0000E+00  0.0000E+00  0.0000E+00  0.0000E+00  0.0000E+00  0.0000E+00  0.0000E+00
     -0.117 -0.1369E-34  0.0000E+00 -0.5690E-36  0.0000E+00 -0.1707E-35  0.0000E+00 -0.9839E-36  0.0000E+00 -0.3126E-36  0.0000E+00 -0.3969E-36  0.0000E+00 -0.3024E-37  0.0000E+00 -0.9379E-36  0.0000E+00 -0.1818E-36  0.0000E+00
     -0.053 -0.2525E-25  0.0000E+00 -0.1050E-26  0.0000E+00 -0.3149E-26  0.0000E+00 -0.1815E-26  0.0000E+00 -0.5768E-27  0.0000E+00 -0.7323E-27  0.0000E+00 -0.5578E-28  0.0000E+00 -0.1730E-26  0.0000E+00 -0.3353E-27  0.0000E+00
      0.012 -0.1617E-17 -0.7746E-29 -0.6724E-19 -0.3225E-30 -0.2017E-18 -0.9676E-30 -0.1163E-18 -0.5570E-30 -0.3694E-19 -0.1789E-30 -0.4691E-19 -0.2274E-30 -0.3573E-20 -0.1718E-31 -0.1108E-18 -0.5367E-30 -0.2148E-19 -0.1048E-30
      0.076 -0.3416E-11 -0.1891E-20 -0.1420E-12 -0.7874E-22 -0.4261E-12 -0.2362E-21 -0.2456E-12 -0.1360E-21 -0.7803E-13 -0.4368E-22 -0.9908E-13 -0.5552E-22 -0.7547E-14 -0.4194E-23 -0.2341E-12 -0.1310E-21 -0.4536E-13 -0.2557E-22
      0.141 -0.2432E-06 -0.1541E-13 -0.1011E-07 -0.6417E-15 -0.3033E-07 -0.1925E-14 -0.1748E-07 -0.1108E-14 -0.5554E-08 -0.3560E-15 -0.7052E-08 -0.4525E-15 -0.5372E-09 -0.3418E-16 -0.1666E-07 -0.1068E-14 -0.3229E-08 -0.2084E-15
      0.205 -0.5154E-03 -0.4297E-08 -0.2143E-04 -0.1789E-09 -0.6428E-04 -0.5367E-09 -0.3705E-04 -0.3090E-09 -0.1177E-04 -0.9924E-10 -0.1495E-04 -0.1262E-09 -0.1138E-05 -0.9529E-11 -0.3531E-04 -0.2977E-09 -0.6843E-05 -0.5810E-10
      0.270 -0.1654E-01 -0.3765E-04 -0.6875E-03 -0.1568E-05 -0.2062E-02 -0.4703E-05 -0.1189E-02 -0.2707E-05 -0.3777E-03 -0.8697E-06 -0.4796E-03 -0.1106E-05 -0.3653E-04 -0.8351E-07 -0.1133E-02 -0.2609E-05 -0.2196E-03 -0.5092E-06
      0.334  0.2835E+00 -0.8029E-02  0.1178E-01 -0.3343E-03  0.3535E-01 -0.1003E-02  0.2037E-01 -0.5774E-03  0.6476E-02 -0.1855E-03  0.8222E-02 -0.2357E-03  0.6258E-03 -0.1781E-04  0.1943E-01 -0.5564E-03  0.3766E-02 -0.1086E-03
      0.399  0.2263E+00  0.8424E-01  0.9369E-02  0.3508E-02  0.2811E-01  0.1052E-01  0.1614E-01  0.6057E-02  0.5210E-02  0.1946E-02  0.6603E-02  0.2473E-02  0.4895E-03  0.1868E-03  0.1563E-01  0.5837E-02  0.3053E-02  0.1139E-02
      0.463  0.5488E-01  0.4008E+00  0.2971E-02  0.1667E-01  0.8912E-02  0.5002E-01  0.6119E-02  0.2876E-01  0.5416E-03  0.9277E-02  0.8951E-03  0.1179E-01  0.3030E-03  0.8841E-03  0.1625E-02  0.2783E-01 -0.9619E-04  0.5443E-02