    1    1    1    2
  0.1813235E+02  0.2866544E-09  0.2866544E-09  0.2866544E-09  0.5000000E-15
  1.000000000000000E-004
  CAR 
 unknown system                          
    5   26    6
 
  0.6250000E-01  0.6250000E-01  0.6250000E-01  0.1562500E-01
   1       -1.252399     -1.160069
   2        5.843997      5.894089
   3        5.843997      5.894089
   4        7.584317      7.628466
   5        9.359779      9.409259
   6        9.359779      9.409259
 
  0.1875000E+00  0.6250000E-01  0.6250000E-01  0.4687500E-01
   1        0.331108      0.421315
   2        4.974556      5.028949
   3        5.195977      5.257652
   4        9.182828      9.229336
   5        9.667732      9.710804
   6        9.819119      9.865184
 
  0.3125000E+00  0.6250000E-01  0.6250000E-01  0.4687500E-01
   1        1.541304      1.621809
   2        4.322656      4.379362
   3        5.626830      5.707801
   4        9.604232      9.647004
   5       10.287667     10.329230
   6       12.329915     12.371065
 
  0.4375000E+00  0.6250000E-01  0.6250000E-01  0.2343750E-01
   1        1.670126      1.745841
   2        4.088978      4.146392
   3        6.798354      6.892128
   4        9.656006      9.698726
   5       10.549408     10.587314
   6       13.950128     13.986936
 
 -0.6250000E-01  0.6250000E-01  0.6250000E-01  0.1171875E-01
   1       -1.883343     -1.790703
   2        6.345235      6.391599
   3        6.345236      6.391601
   4        6.556965      6.601822
   5        9.069791      9.122354
   6        9.828319      9.875225
 
  0.1875000E+00  0.1875000E+00  0.6250000E-01  0.4687500E-01
   1        1.955840      2.041313
   2        4.399098      4.464384
   3        4.642228      4.704565
   4        9.458251      9.502895
   5       10.325179     10.365347
   6       12.371951     12.417208
 
  0.3125000E+00  0.1875000E+00  0.6250000E-01  0.9375000E-01
   1        2.666484      2.740547
   2        4.157358      4.221183
   3        5.417828      5.498129
   4        9.842593      9.885002
   5       10.548106     10.586862
   6       14.950530     15.001289
 
 -0.1875000E+00  0.1875000E+00  0.6250000E-01  0.4687500E-01
   1       -0.665113     -0.573137
   2        5.705378      5.755405
   3        5.946162      6.001823
   4        7.811244      7.854934
   5        8.307380      8.361335
   6       10.113404     10.157981
 
  0.3125000E+00  0.3125000E+00  0.6250000E-01  0.1562500E-01
   1        3.261852      3.327572
   2        4.732207      4.808140
   3        4.732208      4.808141
   4       10.351452     10.391233
   5       10.351453     10.391234
   6       13.857211     13.918056
 
 -0.3125000E+00  0.3125000E+00  0.6250000E-01  0.4687500E-01
   1        0.933328      1.019641
   2        4.881142      4.934796
   3        5.428808      5.502362
   4        8.776629      8.826153
   5       10.200363     10.240454
   6       10.367265     10.409002
 
 -0.1875000E+00  0.3125000E+00  0.6250000E-01  0.4687500E-01
   1        0.816809      0.906671
   2        5.089831      5.153530
   3        5.512825      5.568192
   4        7.919358      7.971814
   5        9.503236      9.546544
   6       10.585503     10.625923
 
 -0.4375000E+00  0.4375000E+00  0.6250000E-01  0.4687500E-01
   1        1.463420      1.540659
   2        4.377792      4.433273
   3        6.398142      6.487786
   4        9.183647      9.231990
   5       10.801283     10.845703
   6       12.804857     12.837352
 
 -0.3125000E+00  0.4375000E+00  0.6250000E-01  0.9375000E-01
   1        2.058566      2.139073
   2        4.536127      4.602924
   3        5.348145      5.417248
   4        8.594494      8.645052
   5       10.520737     10.562103
   6       12.407516     12.451064
 
 -0.4375000E+00 -0.4375000E+00  0.6250000E-01  0.4687500E-01
   1        2.205301      2.280509
   2        4.575265      4.634327
   3        5.620999      5.704787
   4        8.678857      8.729581
   5       11.213332     11.258913
   6       14.303081     14.345756
 
 -0.3125000E+00 -0.4375000E+00  0.6250000E-01  0.4687500E-01
   1        3.201206      3.271732
   2        4.115305      4.190011
   3        4.962299      5.035606
   4        9.367963      9.414818
   5       10.349391     10.394267
   6       15.342509     15.388498
 
  0.1875000E+00  0.1875000E+00  0.1875000E+00  0.1562500E-01
   1        3.709905      3.792920
   2        4.137403      4.203325
   3        4.137403      4.203325
   4       10.401588     10.440306
   5       10.401588     10.440306
   6       15.303299     15.343562
 
  0.3125000E+00  0.1875000E+00  0.1875000E+00  0.2343750E-01
   1        3.811477      3.883767
   2        4.091103      4.157161
   3        5.058975      5.135720
   4       10.497630     10.535768
   5       10.668673     10.705559
   6       13.417367     13.479810
 
 -0.1875000E+00  0.1875000E+00  0.1875000E+00  0.1171875E-01
   1        0.459688      0.551610
   2        6.194326      6.260867
   3        6.432073      6.484271
   4        6.432073      6.484272
   5        7.815438      7.858659
   6       10.765092     10.804387
 
 -0.3125000E+00  0.3125000E+00  0.1875000E+00  0.4687500E-01
   1        1.958570      2.046393
   2        4.655387      4.727217
   3        6.106599      6.160299
   4        7.428027      7.483646
   5        9.844483      9.885756
   6       10.736177     10.780800
 
 -0.4375000E+00  0.4375000E+00  0.1875000E+00  0.4687500E-01
   1        2.451394      2.529040
   2        4.582707      4.662595
   3        5.706559      5.761421
   4        7.606058      7.663949
   5       12.120125     12.179343
   6       12.496412     12.530321
 
 -0.3125000E+00  0.4375000E+00  0.1875000E+00  0.4687500E-01
   1        3.023206      3.105600
   2        3.673074      3.746972
   3        6.085151      6.144470
   4        8.274293      8.327259
   5       10.322773     10.371807
   6       12.604807     12.652430
 
 -0.4375000E+00 -0.4375000E+00  0.1875000E+00  0.4687500E-01
   1        3.086780      3.163015
   2        3.828694      3.906904
   3        5.442011      5.503136
   4        8.802136      8.855222
   5       11.382450     11.429888
   6       15.336423     15.392822
 
 -0.3125000E+00  0.3125000E+00  0.3125000E+00  0.1171875E-01
   1        2.828425      2.913359
   2        3.532856      3.606460
   3        7.808123      7.863323
   4        7.808123      7.863324
   5       10.004584     10.044082
   6       10.472278     10.532515
 
 -0.4375000E+00  0.4375000E+00  0.3125000E+00  0.4687500E-01
   1        2.709622      2.786122
   2        2.988337      3.066203
   3        8.147119      8.200766
   4        8.240437      8.300179
   5       12.104793     12.140146
   6       12.618923     12.689674
 
 -0.4375000E+00 -0.4375000E+00  0.3125000E+00  0.1562500E-01
   1        2.543453      2.620069
   2        2.543453      2.620070
   3        7.952683      8.011687
   4       11.071217     11.120820
   5       11.071219     11.120820
   6       15.656180     15.717164
 
 -0.4375000E+00  0.4375000E+00  0.4375000E+00  0.1171875E-01
   1        2.085705      2.162005
   2        2.153159      2.230112
   3       10.909672     10.960364
   4       10.909673     10.960365
   5       12.073938     12.108260
   6       13.178313     13.261525
