    1    1    1    1
  0.1813235E+02  0.2866544E-09  0.2866544E-09  0.2866544E-09  0.5000000E-15
  1.000000000000000E-004
  CAR 
 unknown system                          
    5   26    6
 
  0.6250000E-01  0.6250000E-01  0.6250000E-01  0.1562500E-01
   1       -1.205365
   2        5.862666
   3        5.862666
   4        7.598839
   5        9.378508
   6        9.378508
 
  0.1875000E+00  0.6250000E-01  0.6250000E-01  0.4687500E-01
   1        0.376605
   2        4.996107
   3        5.222301
   4        9.199409
   5        9.681217
   6        9.835523
 
  0.3125000E+00  0.6250000E-01  0.6250000E-01  0.4687500E-01
   1        1.580431
   2        4.345753
   3        5.665492
   4        9.618250
   5       10.301046
   6       12.341610
 
  0.4375000E+00  0.6250000E-01  0.6250000E-01  0.2343750E-01
   1        1.706144
   2        4.112550
   3        6.844922
   4        9.670157
   5       10.560347
   6       13.958546
 
 -0.6250000E-01  0.6250000E-01  0.6250000E-01  0.1171875E-01
   1       -1.836039
   2        6.361391
   3        6.361392
   4        6.572121
   5        9.090617
   6        9.845380
 
  0.1875000E+00  0.1875000E+00  0.6250000E-01  0.4687500E-01
   1        1.998083
   2        4.427818
   3        4.668904
   4        9.473554
   5       10.337627
   6       12.386390
 
  0.3125000E+00  0.1875000E+00  0.6250000E-01  0.9375000E-01
   1        2.701223
   2        4.185053
   3        5.455941
   4        9.856401
   5       10.559558
   6       14.968271
 
 -0.1875000E+00  0.1875000E+00  0.6250000E-01  0.4687500E-01
   1       -0.618370
   2        5.723997
   3        5.968506
   4        7.825431
   5        8.328999
   6       10.128859
 
  0.3125000E+00  0.3125000E+00  0.6250000E-01  0.1562500E-01
   1        3.291010
   2        4.767615
   3        4.767615
   4       10.363428
   5       10.363428
   6       13.884146
 
 -0.3125000E+00  0.3125000E+00  0.6250000E-01  0.4687500E-01
   1        0.976273
   2        4.902205
   3        5.462887
   4        8.795032
   5       10.211771
   6       10.380789
 
 -0.1875000E+00  0.3125000E+00  0.6250000E-01  0.4687500E-01
   1        0.862028
   2        5.117634
   3        5.534901
   4        7.939784
   5        9.516887
   6       10.598157
 
 -0.4375000E+00  0.4375000E+00  0.6250000E-01  0.4687500E-01
   1        1.500479
   2        4.400091
   3        6.442367
   4        9.201369
   5       10.816337
   6       12.810671
 
 -0.3125000E+00  0.4375000E+00  0.6250000E-01  0.9375000E-01
   1        2.097632
   2        4.565938
   3        5.379149
   4        8.613498
   5       10.533836
   6       12.420953
 
 -0.4375000E+00 -0.4375000E+00  0.6250000E-01  0.4687500E-01
   1        2.240939
   2        4.599881
   3        5.661574
   4        8.698234
   5       11.228700
   6       14.315486
 
 -0.3125000E+00 -0.4375000E+00  0.6250000E-01  0.4687500E-01
   1        3.233631
   2        4.150304
   3        4.996131
   4        9.384339
   5       10.364553
   6       15.358165
 
  0.1875000E+00  0.1875000E+00  0.1875000E+00  0.1562500E-01
   1        3.750202
   2        4.166420
   3        4.166420
   4       10.413023
   5       10.413023
   6       15.312342
 
  0.3125000E+00  0.1875000E+00  0.1875000E+00  0.2343750E-01
   1        3.844700
   2        4.120157
   3        5.094715
   4       10.508694
   5       10.678934
   6       13.445536
 
 -0.1875000E+00  0.1875000E+00  0.1875000E+00  0.1171875E-01
   1        0.506262
   2        6.224417
   3        6.451959
   4        6.451960
   5        7.829336
   6       10.777020
 
 -0.3125000E+00  0.3125000E+00  0.1875000E+00  0.4687500E-01
   1        2.002341
   2        4.688811
   3        6.127502
   4        7.450160
   5        9.856739
   6       10.751635
 
 -0.4375000E+00  0.4375000E+00  0.1875000E+00  0.4687500E-01
   1        2.488624
   2        4.621123
   3        5.728264
   4        7.630087
   5       12.144510
   6       12.503236
 
 -0.3125000E+00  0.4375000E+00  0.1875000E+00  0.4687500E-01
   1        3.063366
   2        3.707906
   3        6.109817
   4        8.294512
   5       10.340707
   6       12.621125
 
 -0.4375000E+00 -0.4375000E+00  0.1875000E+00  0.4687500E-01
   1        3.123084
   2        3.866138
   3        5.468041
   4        8.822523
   5       11.398604
   6       15.357994
 
 -0.3125000E+00  0.3125000E+00  0.3125000E+00  0.1171875E-01
   1        2.870244
   2        3.567655
   3        7.829726
   4        7.829726
   5       10.015655
   6       10.498113
 
 -0.4375000E+00  0.4375000E+00  0.3125000E+00  0.4687500E-01
   1        2.746245
   2        3.025739
   3        8.167678
   4        8.265281
   5       12.112661
   6       12.650892
 
 -0.4375000E+00 -0.4375000E+00  0.3125000E+00  0.1562500E-01
   1        2.580163
   2        2.580163
   3        7.976948
   4       11.088720
   5       11.088721
   6       15.681891
 
 -0.4375000E+00  0.4375000E+00  0.4375000E+00  0.1171875E-01
   1        2.122312
   2        2.190134
   3       10.927889
   4       10.927889
   5       12.081119
   6       13.218428
