       N       E                     dE             d eps       ncg     rms          rms(c)
DAV:   1    -0.326343526470E+01   -0.32634E+01   -0.14802E+03   324   0.418E+02
DAV:   2    -0.123125686132E+02   -0.90491E+01   -0.85826E+01   546   0.686E+01
DAV:   3    -0.123624178952E+02   -0.49849E-01   -0.49849E-01   312   0.703E+00
DAV:   4    -0.123625150025E+02   -0.97107E-04   -0.97108E-04   426   0.253E-01
DAV:   5    -0.123625151426E+02   -0.14014E-06   -0.13998E-06   264   0.811E-03    0.334E+00
DAV:   6    -0.120051513868E+02    0.35736E+00   -0.21863E-01   360   0.349E+00    0.186E+00
DAV:   7    -0.118368249596E+02    0.16833E+00   -0.39167E-01   378   0.451E+00    0.206E-01
DAV:   8    -0.118376586188E+02   -0.83366E-03   -0.11015E-03   348   0.328E-01    0.273E-01
DAV:   9    -0.118359030610E+02    0.17556E-02   -0.56321E-03   324   0.569E-01    0.179E-02
DAV:  10    -0.118358858427E+02    0.17218E-04   -0.41712E-05   228   0.523E-02
   1 F= -.11835886E+02 E0= -.11835684E+02  d E =-.606695E-03
