       N       E                     dE             d eps       ncg     rms          rms(c)
DAV:   1     0.104922640077E+02    0.10492E+02   -0.20685E+03   654   0.549E+02
DAV:   2    -0.121301961717E+01   -0.11705E+02   -0.10147E+02  1092   0.749E+01
DAV:   3    -0.129403795903E+01   -0.81018E-01   -0.78543E-01   636   0.864E+00
DAV:   4    -0.129452250667E+01   -0.48455E-03   -0.48391E-03   834   0.410E-01
DAV:   5    -0.129452528699E+01   -0.27803E-05   -0.27808E-05   558   0.222E-02    0.753E+00
DAV:   6    -0.116879899776E+02   -0.10393E+02   -0.33511E+00   660   0.887E+00    0.381E+00
DAV:   7    -0.117650820167E+02   -0.77092E-01   -0.24987E-02   702   0.144E+00    0.335E+00
DAV:   8    -0.116629601418E+02    0.10212E+00   -0.40416E-01   672   0.488E+00    0.257E+00
DAV:   9    -0.117939023971E+02   -0.13094E+00   -0.11916E-01   732   0.296E+00    0.985E-01
DAV:  10    -0.118296379296E+02   -0.35736E-01   -0.85049E-03   708   0.671E-01    0.406E-01
DAV:  11    -0.118352071663E+02   -0.55692E-02   -0.10998E-03   720   0.266E-01    0.213E-01
DAV:  12    -0.118358434400E+02   -0.63627E-03   -0.15131E-04   360   0.884E-02    0.122E-01
DAV:  13    -0.118360011155E+02   -0.15768E-03   -0.75833E-04   684   0.203E-01    0.110E-01
DAV:  14    -0.118361556097E+02   -0.15449E-03   -0.43004E-04   684   0.159E-01    0.293E-02
DAV:  15    -0.118361621656E+02   -0.65559E-05   -0.73004E-05   324   0.589E-02
   1 F= -.11836162E+02 E0= -.11836127E+02  d E =-.105166E-03  mag=     0.1194
