 vasp.5.2.12 11Nov11 complex                                                    
  
 executed on             LinuxIFC date 2012.10.14  15:40:41
 running on    1 nodes
 distr:  one band on    1 nodes,    1 groups


--------------------------------------------------------------------------------------------------------


 INCAR:
 POTCAR:    PAW_PBE Ta 17Jan2003                  
 POTCAR:    PAW_PBE Ta 17Jan2003                  
   VRHFIN =Ta:  6s5d                                                            
   LEXCH  = PE                                                                  
   EATOM  =   130.6506 eV,    9.6025 Ry                                         
                                                                                
   TITEL  = PAW_PBE Ta 17Jan2003                                                
   LULTRA =        F    use ultrasoft PP ?                                      
   IUNSCR =        1    unscreen: 0-lin 1-nonlin 2-no                           
   RPACOR =    2.330    partial core radius                                     
   POMASS =  180.948; ZVAL   =    5.000    mass and valenz                      
   RCORE  =    2.900    outmost cutoff radius                                   
   RWIGS  =    2.840; RWIGS  =    1.503    wigner-seitz radius (au A)           
   ENMAX  =  223.667; ENMIN  =  167.750 eV                                      
   RCLOC  =    2.205    cutoff for local pot                                    
   LCOR   =        T    correct aug charges                                     
   LPAW   =        T    paw PP                                                  
   EAUG   =  332.075                                                            
   DEXC   =    -.049                                                            
   RMAX   =    3.083    core radius for proj-oper                               
   RAUG   =    1.300    factor for augmentation sphere                          
   RDEP   =    3.060    radius for radial grids                                 
   QCUT   =   -4.055; QGAM   =    8.109    optimization parameters              
                                                                                
   Description                                                                  
     l     E      TYP  RCUT    TYP  RCUT                                        
     2   .000     23  2.500                                                     
     2   .000     23  2.500                                                     
     0   .000     23  2.500                                                     
     0   .000     23  2.500                                                     
     1   .000     23  2.900                                                     
     1  2.000     23  2.900                                                     
     3   .000      7   .000                                                     
  local pseudopotential read in
  partial core-charges read in
  atomic valenz-charges read in
  non local Contribution for L=           2  read in
    real space projection operators read in
  non local Contribution for L=           2  read in
    real space projection operators read in
  non local Contribution for L=           0  read in
    real space projection operators read in
  non local Contribution for L=           0  read in
    real space projection operators read in
  non local Contribution for L=           1  read in
    real space projection operators read in
  non local Contribution for L=           1  read in
    real space projection operators read in
    PAW grid and wavefunctions read in
 
   number of l-projection  operators is LMAX  =           6
   number of lm-projection operators is LMMAX =          18
 
  PAW_PBE Ta 17Jan2003                  :
 energy of atom  1       EATOM= -130.6506
 kinetic energy error for atom=    0.0044 (will be added to EATOM!!)
 
 
 POSCAR: Ta                                      
  positions in cartesian coordinates
  No initial velocities read in
 exchange correlation table for  LEXCH =        8
   RHO(1)=    0.500       N(1)  =     2000
   RHO(2)=  100.500       N(2)  =     4000
 


--------------------------------------------------------------------------------------------------------


 ion  position               nearest neighbor table
   1  0.000  0.000  0.000-
 
  LATTYP: Found a body centered cubic cell.
 ALAT       =     3.3100000000
  
  Lattice vectors:
  
 A1 = (   2.8665440865,   0.0000000000,   0.0000000000)
 A2 = (  -0.9555146955,   2.7026036829,   0.0000000000)
 A3 = (  -0.9555146955,  -1.3513018414,   2.3405234457)
 Subroutine PRICEL returns:
 Original cell was already a primitive cell.
 

Analysis of symmetry for initial positions (statically):

 Routine SETGRP: Setting up the symmetry group for a 
 body centered cubic supercell.


 Subroutine GETGRP returns: Found 48 space group operations
 (whereof 48 operations were pure point group operations)
 out of a pool of 48 trial point group operations.


The static configuration has the point symmetry O_h .

Analysis of symmetry for dynamics (positions and initial velocities):

 Subroutine DYNSYM returns: Found 48 space group operations
 (whereof 48 operations were pure point group operations)
 out of a pool of 48 trial space group operations
 (whereof 48 operations were pure point group operations)
 and found also     1 'primitive' translations


The dynamic configuration has the point symmetry O_h .
 
 
 KPOINTS: KPOINTS created by Atomic Simulation Env

Automatic generation of k-mesh.
 
 Subroutine IBZKPT returns following result:
 ===========================================
 
 Found     26 irreducible k-points:
 
 Following reciprocal coordinates:
            Coordinates               Weight
  0.062500  0.062500  0.062500      8.000000
  0.187500  0.062500  0.062500     24.000000
  0.312500  0.062500  0.062500     24.000000
  0.437500  0.062500  0.062500     12.000000
 -0.062500  0.062500  0.062500      6.000000
  0.187500  0.187500  0.062500     24.000000
  0.312500  0.187500  0.062500     48.000000
 -0.187500  0.187500  0.062500     24.000000
  0.312500  0.312500  0.062500      8.000000
 -0.312500  0.312500  0.062500     24.000000
 -0.187500  0.312500  0.062500     24.000000
 -0.437500  0.437500  0.062500     24.000000
 -0.312500  0.437500  0.062500     48.000000
 -0.437500 -0.437500  0.062500     24.000000
 -0.312500 -0.437500  0.062500     24.000000
  0.187500  0.187500  0.187500      8.000000
  0.312500  0.187500  0.187500     12.000000
 -0.187500  0.187500  0.187500      6.000000
 -0.312500  0.312500  0.187500     24.000000
 -0.437500  0.437500  0.187500     24.000000
 -0.312500  0.437500  0.187500     24.000000
 -0.437500 -0.437500  0.187500     24.000000
 -0.312500  0.312500  0.312500      6.000000
 -0.437500  0.437500  0.312500     24.000000
 -0.437500 -0.437500  0.312500      8.000000
 -0.437500  0.437500  0.437500      6.000000
 
 Following cartesian coordinates:
            Coordinates               Weight
  0.021803  0.030834  0.053407      8.000000
  0.065410  0.046252  0.080110     24.000000
  0.109016  0.061669  0.106814     24.000000
  0.152623  0.077086  0.133517     12.000000
 -0.021803  0.015417  0.026703      6.000000
  0.065410  0.092503  0.106814     24.000000
  0.109016  0.107921  0.133517     48.000000
 -0.065410  0.046252  0.026703     24.000000
  0.109016  0.154172  0.160221      8.000000
 -0.109016  0.077086  0.026703     24.000000
 -0.065410  0.092503  0.053407     24.000000
 -0.152623  0.107921  0.026703     24.000000
 -0.109016  0.123338  0.053407     48.000000
 -0.152623 -0.215841 -0.160221     24.000000
 -0.109016 -0.200424 -0.133517     24.000000
  0.065410  0.092503  0.160221      8.000000
  0.109016  0.107921  0.186924     12.000000
 -0.065410  0.046252  0.080110      6.000000
 -0.109016  0.077086  0.080110     24.000000
 -0.152623  0.107921  0.080110     24.000000
 -0.109016  0.123338  0.106814     24.000000
 -0.152623 -0.215841 -0.106814     24.000000
 -0.109016  0.077086  0.133517      6.000000
 -0.152623  0.107921  0.133517     24.000000
 -0.152623 -0.215841 -0.053407      8.000000
 -0.152623  0.107921  0.186924      6.000000
 


--------------------------------------------------------------------------------------------------------




 Dimension of arrays:
   k-points           NKPTS =     26   k-points in BZ     NKDIM =     26   number of bands    NBANDS=      6
   number of dos      NEDOS =    301   number of ions     NIONS =      1
   non local maximal  LDIM  =      6   non local SUM 2l+1 LMDIM =     18
   total plane-waves  NPLWV =   5832
   max r-space proj   IRMAX =      1   max aug-charges    IRDMAX=  22091
   dimension x,y,z NGX =    18 NGY =   18 NGZ =   18
   dimension x,y,z NGXF=    36 NGYF=   36 NGZF=   36
   support grid    NGXF=    36 NGYF=   36 NGZF=   36
   ions per type =               1
 NGX,Y,Z   is equivalent  to a cutoff of  10.44, 10.44, 10.44 a.u.
 NGXF,Y,Z  is equivalent  to a cutoff of  20.88, 20.88, 20.88 a.u.


 I would recommend the setting:
   dimension x,y,z NGX =    17 NGY =   17 NGZ =   17
 SYSTEM =  unknown system                          
 POSCAR =  Ta                                      

 Startparameter for this run:
   NWRITE =      2    write-flag & timer
   PREC   = accura    normal or accurate (medium, high low for compatibility)
   ISTART =      0    job   : 0-new  1-cont  2-samecut
   ICHARG =      2    charge: 1-file 2-atom 10-const
   ISPIN  =      1    spin polarized calculation?
   LNONCOLLINEAR =      F non collinear calculations
   LSORBIT =      F    spin-orbit coupling
   INIWAV =      1    electr: 0-lowe 1-rand  2-diag
   LASPH  =      F    aspherical Exc in radial PAW
   METAGGA=      F    non-selfconsistent MetaGGA calc.

 Electronic Relaxation 1
   ENCUT  =  350.0 eV  25.72 Ry    5.07 a.u.   4.37  4.37  4.37*2*pi/ulx,y,z
   ENINI  =  350.0     initial cutoff
   ENAUG  =  332.1 eV  augmentation charge cutoff
   NELM   =     60;   NELMIN=  2; NELMDL= -5     # of ELM steps 
   EDIFF  = 0.1E-03   stopping-criterion for ELM
   LREAL  =      F    real-space projection
   NLSPLINE    = F    spline interpolate recip. space projectors
   LCOMPAT=      F    compatible to vasp.4.4
   GGA_COMPAT  = T    GGA compatible to vasp.4.4-vasp.4.6
   LMAXPAW     = -100 max onsite density
   LMAXMIX     =    2 max onsite mixed and CHGCAR
   VOSKOWN=      0    Vosko Wilk Nusair interpolation
   ROPT   =    0.00000
 Ionic relaxation
   EDIFFG = 0.1E-02   stopping-criterion for IOM
   NSW    =      0    number of steps for IOM
   NBLOCK =      1;   KBLOCK =      1    inner block; outer block 
   IBRION =     -1    ionic relax: 0-MD 1-quasi-New 2-CG
   NFREE  =      0    steps in history (QN), initial steepest desc. (CG)
   ISIF   =      2    stress and relaxation
   IWAVPR =     10    prediction:  0-non 1-charg 2-wave 3-comb
   ISYM   =      2    0-nonsym 1-usesym 2-fastsym
   LCORR  =      T    Harris-Foulkes like correction to forces

   POTIM  = 0.5000    time-step for ionic-motion
   TEIN   =    0.0    initial temperature
   TEBEG  =    0.0;   TEEND  =   0.0 temperature during run
   SMASS  =  -3.00    Nose mass-parameter (am)
   estimated Nose-frequenzy (Omega)   =  0.10E-29 period in steps =****** mass=  -0.188E-27a.u.
   SCALEE = 1.0000    scale energy and forces
   NPACO  =    256;   APACO  = 16.0  distance and # of slots for P.C.
   PSTRESS=    0.0 pullay stress

  Mass of Ions in am
   POMASS = 180.95
  Ionic Valenz
   ZVAL   =   5.00
  Atomic Wigner-Seitz radii
   RWIGS  =  -1.00
  virtual crystal weights 
   VCA    =   1.00
   NELECT =       5.0000    total number of electrons
   NUPDOWN=      -1.0000    fix difference up-down

 DOS related values:
   EMIN   =  10.00;   EMAX   =-10.00  energy-range for DOS
   EFERMI =   0.00
   ISMEAR =     1;   SIGMA  =   0.05  broadening in eV -4-tet -1-fermi 0-gaus

 Electronic relaxation 2 (details)
   IALGO  =     38    algorithm
   LDIAG  =      T    sub-space diagonalisation (order eigenvalues)
   LSUBROT=      T    optimize rotation matrix (better conditioning)
   TURBO    =      0    0=normal 1=particle mesh
   IRESTART =      0    0=no restart 2=restart with 2 vectors
   NREBOOT  =      0    no. of reboots
   NMIN     =      0    reboot dimension
   EREF     =   0.00    reference energy to select bands
   IMIX   =      4    mixing-type and parameters
     AMIX     =   0.40;   BMIX     =  1.00
     AMIX_MAG =   1.60;   BMIX_MAG =  1.00
     AMIN     =   0.10
     WC   =   100.;   INIMIX=   1;  MIXPRE=   1

 Intra band minimization:
   WEIMIN = 0.0000     energy-eigenvalue tresh-hold
   EBREAK =  0.42E-05  absolut break condition
   DEPER  =   0.30     relativ break condition  

   TIME   =   0.40     timestep for ELM

  volume/ion in A,a.u.               =      18.13       122.36
  Fermi-wavevector in a.u.,A,eV,Ry     =   1.065566  2.013627 15.448462  1.135430
  Thomas-Fermi vector in A             =   2.201121
 
 Write flags
   LWAVE  =      T    write WAVECAR
   LCHARG =      T    write CHGCAR
   LVTOT  =      F    write LOCPOT, total local potential
   LVHAR  =      F    write LOCPOT, Hartree potential only
   LELF   =      F    write electronic localiz. function (ELF)
   LORBIT =      0    0 simple, 1 ext, 2 COOP (PROOUT)


 Dipole corrections
   LMONO  =      F    monopole corrections only (constant potential shift)
   LDIPOL =      F    correct potential (dipole corrections)
   IDIPOL =      0    1-x, 2-y, 3-z, 4-all directions 
   EPSILON=  1.0000000 bulk dielectric constant

 Exchange correlation treatment:
   GGA     =    --    GGA type
   LEXCH   =     8    internal setting for exchange type
   VOSKOWN=      0    Vosko Wilk Nusair interpolation
   LHFCALC =     F    Hartree Fock is set to
   LHFONE  =     F    Hartree Fock one center treatment
   AEXX    =    0.0000 exact exchange contribution

 Linear response parameters
   LEPSILON=     F    determine dielectric tensor
   LRPA    =     F    only Hartree local field effects (RPA)
   LNABLA  =     F    use nabla operator in PAW spheres
   LVEL    =     F    velocity operator in full k-point grid
   LINTERFAST=   F  fast interpolation
   KINTER  =     0    interpolate to denser k-point grid
   CSHIFT  =0.1000    complex shift for real part using Kramers Kronig
   OMEGAMAX=  -1.0    maximum frequency
   RTIME   =    0.100 relaxation time in fs

 Orbital magnetization related:
   ORBITALMAG=     F  switch on orbital magnetization
   LCHIMAG   =     F  perturbation theory with respect to B field
   DQ        =  0.001000  dq finite difference perturbation B field



--------------------------------------------------------------------------------------------------------


 Static calculation
 charge density and potential will be updated during run
 non-spin polarized calculation
 Variant of blocked Davidson
 Davidson routine will perform the subspace rotation
 perform sub-space diagonalisation
    after iterative eigenvector-optimisation
 modified Broyden-mixing scheme, WC =      100.0
 initial mixing is a Kerker type mixing with AMIX =  0.4000 and BMIX =      1.0000
 Hartree-type preconditioning will be used
 using additional bands            3
 reciprocal scheme for non local part
 use partial core corrections
 calculate Harris-corrections to forces 
   (improved forces if not selfconsistent)
 use gradient corrections 
 use of overlap-Matrix (Vanderbilt PP)
 Methfessel and Paxton  Order N= 1 SIGMA  =   0.05


--------------------------------------------------------------------------------------------------------


  energy-cutoff  :      350.00
  volume of cell :       18.13
      direct lattice vectors                 reciprocal lattice vectors
     2.866544087  0.000000000  0.000000000     0.348852126  0.123337852  0.213627426
    -0.955514696  2.702603683  0.000000000     0.000000000  0.370013556  0.213627426
    -0.955514696 -1.351301841  2.340523446     0.000000000  0.000000000  0.427254853

  length of vectors
     2.866544087  2.866544087  2.866544087     0.427254853  0.427254853  0.427254853


 
 k-points in units of 2pi/SCALE and weight: KPOINTS created by Atomic Simulation Env
   0.02180326  0.03083446  0.05340686       0.016
   0.06540977  0.04625169  0.08011028       0.047
   0.10901629  0.06166893  0.10681371       0.047
   0.15262281  0.07708616  0.13351714       0.023
  -0.02180326  0.01541723  0.02670343       0.012
   0.06540977  0.09250339  0.10681371       0.047
   0.10901629  0.10792062  0.13351714       0.094
  -0.06540977  0.04625169  0.02670343       0.047
   0.10901629  0.15417232  0.16022057       0.016
  -0.10901629  0.07708616  0.02670343       0.047
  -0.06540977  0.09250339  0.05340686       0.047
  -0.15262281  0.10792062  0.02670343       0.047
  -0.10901629  0.12333785  0.05340686       0.094
  -0.15262281 -0.21584124 -0.16022057       0.047
  -0.10901629 -0.20042401 -0.13351714       0.047
   0.06540977  0.09250339  0.16022057       0.016
   0.10901629  0.10792062  0.18692400       0.023
  -0.06540977  0.04625169  0.08011028       0.012
  -0.10901629  0.07708616  0.08011028       0.047
  -0.15262281  0.10792062  0.08011028       0.047
  -0.10901629  0.12333785  0.10681371       0.047
  -0.15262281 -0.21584124 -0.10681371       0.047
  -0.10901629  0.07708616  0.13351714       0.012
  -0.15262281  0.10792062  0.13351714       0.047
  -0.15262281 -0.21584124 -0.05340686       0.016
  -0.15262281  0.10792062  0.18692400       0.012
 
 k-points in reciprocal lattice and weights: KPOINTS created by Atomic Simulation Env
   0.06250000  0.06250000  0.06250000       0.016
   0.18750000  0.06250000  0.06250000       0.047
   0.31250000  0.06250000  0.06250000       0.047
   0.43750000  0.06250000  0.06250000       0.023
  -0.06250000  0.06250000  0.06250000       0.012
   0.18750000  0.18750000  0.06250000       0.047
   0.31250000  0.18750000  0.06250000       0.094
  -0.18750000  0.18750000  0.06250000       0.047
   0.31250000  0.31250000  0.06250000       0.016
  -0.31250000  0.31250000  0.06250000       0.047
  -0.18750000  0.31250000  0.06250000       0.047
  -0.43750000  0.43750000  0.06250000       0.047
  -0.31250000  0.43750000  0.06250000       0.094
  -0.43750000 -0.43750000  0.06250000       0.047
  -0.31250000 -0.43750000  0.06250000       0.047
   0.18750000  0.18750000  0.18750000       0.016
   0.31250000  0.18750000  0.18750000       0.023
  -0.18750000  0.18750000  0.18750000       0.012
  -0.31250000  0.31250000  0.18750000       0.047
  -0.43750000  0.43750000  0.18750000       0.047
  -0.31250000  0.43750000  0.18750000       0.047
  -0.43750000 -0.43750000  0.18750000       0.047
  -0.31250000  0.31250000  0.31250000       0.012
  -0.43750000  0.43750000  0.31250000       0.047
  -0.43750000 -0.43750000  0.31250000       0.016
  -0.43750000  0.43750000  0.43750000       0.012
 
 position of ions in fractional coordinates (direct lattice) 
   0.00000000  0.00000000  0.00000000
 
 position of ions in cartesian coordinates  (Angst):
   0.00000000  0.00000000  0.00000000
 


--------------------------------------------------------------------------------------------------------


 k-point  1 :  0.06250.06250.0625  plane waves:     270
 k-point  2 :  0.18750.06250.0625  plane waves:     273
 k-point  3 :  0.31250.06250.0625  plane waves:     273
 k-point  4 :  0.43750.06250.0625  plane waves:     268
 k-point  5 :  -.06250.06250.0625  plane waves:     269
 k-point  6 :  0.18750.18750.0625  plane waves:     269
 k-point  7 :  0.31250.18750.0625  plane waves:     274
 k-point  8 :  -.18750.18750.0625  plane waves:     267
 k-point  9 :  0.31250.31250.0625  plane waves:     273
 k-point 10 :  -.31250.31250.0625  plane waves:     273
 k-point 11 :  -.18750.31250.0625  plane waves:     271
 k-point 12 :  -.43750.43750.0625  plane waves:     273
 k-point 13 :  -.31250.43750.0625  plane waves:     271
 k-point 14 :  -.4375-.43750.0625  plane waves:     268
 k-point 15 :  -.3125-.43750.0625  plane waves:     272
 k-point 16 :  0.18750.18750.1875  plane waves:     273
 k-point 17 :  0.31250.18750.1875  plane waves:     268
 k-point 18 :  -.18750.18750.1875  plane waves:     269
 k-point 19 :  -.31250.31250.1875  plane waves:     268
 k-point 20 :  -.43750.43750.1875  plane waves:     273
 k-point 21 :  -.31250.43750.1875  plane waves:     270
 k-point 22 :  -.4375-.43750.1875  plane waves:     266
 k-point 23 :  -.31250.31250.3125  plane waves:     269
 k-point 24 :  -.43750.43750.3125  plane waves:     260
 k-point 25 :  -.4375-.43750.3125  plane waves:     261
 k-point 26 :  -.43750.43750.4375  plane waves:     257

 maximum and minimum number of plane-waves per node :       274      257

 maximum number of plane-waves:       274
 maximum index in each direction: 
   IXMAX=    4   IYMAX=    4   IZMAX=    4
   IXMIN=   -4   IYMIN=   -4   IZMIN=   -4

 NGX is ok and might be reduce to  18
 NGY is ok and might be reduce to  18
 NGZ is ok and might be reduce to  18

 serial   3D FFT for wavefunctions
 parallel 3D FFT for charge:
    minimum data exchange during FFTs selected (reduces bandwidth)


 total amount of memory used by VASP on root node    36009. kBytes
========================================================================

   base      :      30000. kBytes
   nonl-proj :       1030. kBytes
   fftplans  :       1676. kBytes
   grid      :       2560. kBytes
   one-center:         15. kBytes
   wavefun   :        728. kBytes
 
 Broyden mixing: mesh for mixing (old mesh)
   NGX =  9   NGY =  9   NGZ =  9
  (NGX  = 36   NGY  = 36   NGZ  = 36)
  gives a total of    729 points

 initial charge density was supplied:
 charge density of overlapping atoms calculated
 number of electron       5.0000000 magnetization 
 keeping initial charge density in first step


--------------------------------------------------------------------------------------------------------


 Maximum index for augmentation-charges        21187 (set IRDMAX)


--------------------------------------------------------------------------------------------------------


 First call to EWALD:  gamma=   0.675
 Maximum number of real-space cells 3x 3x 3
 Maximum number of reciprocal cells 3x 3x 3

    FEWALD:  cpu time    0.00: real time    0.00


----------------------------------------- Iteration    1(   1)  ---------------------------------------


    POTLOK:  cpu time    0.06: real time    0.06
    SETDIJ:  cpu time    0.02: real time    0.02
     EDDAV:  cpu time    0.30: real time    0.30
       DOS:  cpu time    0.00: real time    0.00
    --------------------------------------------
      LOOP:  cpu time    0.38: real time    0.56

 eigenvalue-minimisations  :   324
 total energy-change (2. order) :-0.3263435E+01  (-0.1480235E+03)
 number of electron       5.0000000 magnetization 
 augmentation part        5.0000000 magnetization 

 Free energy of the ion-electron system (eV)
  ---------------------------------------------------
  alpha Z        PSCENC =        30.58334069
  Ewald energy   TEWEN  =      -197.90100875
  -1/2 Hartree   DENC   =        -2.50452612
  -exchange  EXHF       =         0.00000000
  -V(xc)+E(xc)   XCENC  =       -66.68582567
  PAW double counting   =       148.27821850      -73.99089003
  entropy T*S    EENTRO =        -0.00078595
  eigenvalues    EBANDS =        28.31182726
  atomic energy  EATOM  =       130.64621481
  ---------------------------------------------------
  free energy    TOTEN  =        -3.26343526 eV

  energy without entropy =       -3.26264932  energy(sigma->0) =       -3.26317328


--------------------------------------------------------------------------------------------------------




----------------------------------------- Iteration    1(   2)  ---------------------------------------


     EDDAV:  cpu time    0.45: real time    0.45
       DOS:  cpu time    0.00: real time    0.00
    --------------------------------------------
      LOOP:  cpu time    0.46: real time    0.49

 eigenvalue-minimisations  :   546
 total energy-change (2. order) :-0.9049133E+01  (-0.8582594E+01)
 number of electron       5.0000000 magnetization 
 augmentation part        5.0000000 magnetization 

 Free energy of the ion-electron system (eV)
  ---------------------------------------------------
  alpha Z        PSCENC =        30.58334069
  Ewald energy   TEWEN  =      -197.90100875
  -1/2 Hartree   DENC   =        -2.50452612
  -exchange  EXHF       =         0.00000000
  -V(xc)+E(xc)   XCENC  =       -66.68582567
  PAW double counting   =       148.27821850      -73.99089003
  entropy T*S    EENTRO =        -0.00058335
  eigenvalues    EBANDS =        19.26249131
  atomic energy  EATOM  =       130.64621481
  ---------------------------------------------------
  free energy    TOTEN  =       -12.31256861 eV

  energy without entropy =      -12.31198526  energy(sigma->0) =      -12.31237416


--------------------------------------------------------------------------------------------------------




----------------------------------------- Iteration    1(   3)  ---------------------------------------


     EDDAV:  cpu time    0.29: real time    0.29
       DOS:  cpu time    0.00: real time    0.00
    --------------------------------------------
      LOOP:  cpu time    0.29: real time    0.33

 eigenvalue-minimisations  :   312
 total energy-change (2. order) :-0.4984928E-01  (-0.4984929E-01)
 number of electron       5.0000000 magnetization 
 augmentation part        5.0000000 magnetization 

 Free energy of the ion-electron system (eV)
  ---------------------------------------------------
  alpha Z        PSCENC =        30.58334069
  Ewald energy   TEWEN  =      -197.90100875
  -1/2 Hartree   DENC   =        -2.50452612
  -exchange  EXHF       =         0.00000000
  -V(xc)+E(xc)   XCENC  =       -66.68582567
  PAW double counting   =       148.27821850      -73.99089003
  entropy T*S    EENTRO =        -0.00058313
  eigenvalues    EBANDS =        19.21264181
  atomic energy  EATOM  =       130.64621481
  ---------------------------------------------------
  free energy    TOTEN  =       -12.36241790 eV

  energy without entropy =      -12.36183476  energy(sigma->0) =      -12.36222352


--------------------------------------------------------------------------------------------------------




----------------------------------------- Iteration    1(   4)  ---------------------------------------


     EDDAV:  cpu time    0.37: real time    0.37
       DOS:  cpu time    0.00: real time    0.00
    --------------------------------------------
      LOOP:  cpu time    0.37: real time    0.39

 eigenvalue-minimisations  :   426
 total energy-change (2. order) :-0.9710732E-04  (-0.9710759E-04)
 number of electron       5.0000000 magnetization 
 augmentation part        5.0000000 magnetization 

 Free energy of the ion-electron system (eV)
  ---------------------------------------------------
  alpha Z        PSCENC =        30.58334069
  Ewald energy   TEWEN  =      -197.90100875
  -1/2 Hartree   DENC   =        -2.50452612
  -exchange  EXHF       =         0.00000000
  -V(xc)+E(xc)   XCENC  =       -66.68582567
  PAW double counting   =       148.27821850      -73.99089003
  entropy T*S    EENTRO =        -0.00058313
  eigenvalues    EBANDS =        19.21254470
  atomic energy  EATOM  =       130.64621481
  ---------------------------------------------------
  free energy    TOTEN  =       -12.36251500 eV

  energy without entropy =      -12.36193187  energy(sigma->0) =      -12.36232062


--------------------------------------------------------------------------------------------------------




----------------------------------------- Iteration    1(   5)  ---------------------------------------


     EDDAV:  cpu time    0.26: real time    0.26
       DOS:  cpu time    0.00: real time    0.00
    CHARGE:  cpu time    0.04: real time    0.04
    MIXING:  cpu time    0.00: real time    0.00
    --------------------------------------------
      LOOP:  cpu time    0.30: real time    0.33

 eigenvalue-minimisations  :   264
 total energy-change (2. order) :-0.1401428E-06  (-0.1399777E-06)
 number of electron       5.0000001 magnetization 
 augmentation part        0.3505999 magnetization 

 Broyden mixing:
  rms(total) = 0.33370E+00    rms(broyden)= 0.33370E+00
  rms(prec ) = 0.14478E+01
  weight for this iteration     100.00

 Free energy of the ion-electron system (eV)
  ---------------------------------------------------
  alpha Z        PSCENC =        30.58334069
  Ewald energy   TEWEN  =      -197.90100875
  -1/2 Hartree   DENC   =        -2.50452612
  -exchange  EXHF       =         0.00000000
  -V(xc)+E(xc)   XCENC  =       -66.68582567
  PAW double counting   =       148.27821850      -73.99089003
  entropy T*S    EENTRO =        -0.00058313
  eigenvalues    EBANDS =        19.21254456
  atomic energy  EATOM  =       130.64621481
  ---------------------------------------------------
  free energy    TOTEN  =       -12.36251514 eV

  energy without entropy =      -12.36193201  energy(sigma->0) =      -12.36232076


--------------------------------------------------------------------------------------------------------




----------------------------------------- Iteration    1(   6)  ---------------------------------------


    POTLOK:  cpu time    0.06: real time    0.06
    SETDIJ:  cpu time    0.01: real time    0.02
     EDDAV:  cpu time    0.32: real time    0.40
       DOS:  cpu time    0.00: real time    0.00
    CHARGE:  cpu time    0.04: real time    0.04
    MIXING:  cpu time    0.00: real time    0.00
    --------------------------------------------
      LOOP:  cpu time    0.44: real time    0.57

 eigenvalue-minimisations  :   360
 total energy-change (2. order) : 0.3573638E+00  (-0.2186308E-01)
 number of electron       5.0000001 magnetization 
 augmentation part        0.3694343 magnetization 

 Broyden mixing:
  rms(total) = 0.18550E+00    rms(broyden)= 0.18550E+00
  rms(prec ) = 0.80346E+00
  weight for this iteration     100.00

 eigenvalues of (default mixing * dielectric matrix)
  average eigenvalue GAMMA=   2.2483
  2.2483

 Free energy of the ion-electron system (eV)
  ---------------------------------------------------
  alpha Z        PSCENC =        30.58334069
  Ewald energy   TEWEN  =      -197.90100875
  -1/2 Hartree   DENC   =        -1.39514230
  -exchange  EXHF       =         0.00000000
  -V(xc)+E(xc)   XCENC  =       -66.37944224
  PAW double counting   =       162.53673493      -88.65472523
  entropy T*S    EENTRO =        -0.00008240
  eigenvalues    EBANDS =        18.55895910
  atomic energy  EATOM  =       130.64621481
  ---------------------------------------------------
  free energy    TOTEN  =       -12.00515139 eV

  energy without entropy =      -12.00506899  energy(sigma->0) =      -12.00512392


--------------------------------------------------------------------------------------------------------




----------------------------------------- Iteration    1(   7)  ---------------------------------------


    POTLOK:  cpu time    0.06: real time    0.06
    SETDIJ:  cpu time    0.02: real time    0.02
     EDDAV:  cpu time    0.34: real time    0.34
       DOS:  cpu time    0.00: real time    0.00
    CHARGE:  cpu time    0.04: real time    0.04
    MIXING:  cpu time    0.00: real time    0.00
    --------------------------------------------
      LOOP:  cpu time    0.45: real time    0.50

 eigenvalue-minimisations  :   378
 total energy-change (2. order) : 0.1683264E+00  (-0.3916738E-01)
 number of electron       5.0000001 magnetization 
 augmentation part        0.3986865 magnetization 

 Broyden mixing:
  rms(total) = 0.20572E-01    rms(broyden)= 0.20561E-01
  rms(prec ) = 0.72319E-01
  weight for this iteration     100.00

 eigenvalues of (default mixing * dielectric matrix)
  average eigenvalue GAMMA=   1.4860
  2.2917  0.6803

 Free energy of the ion-electron system (eV)
  ---------------------------------------------------
  alpha Z        PSCENC =        30.58334069
  Ewald energy   TEWEN  =      -197.90100875
  -1/2 Hartree   DENC   =        -0.46892555
  -exchange  EXHF       =         0.00000000
  -V(xc)+E(xc)   XCENC  =       -65.94044768
  PAW double counting   =       186.49204786     -113.07874112
  entropy T*S    EENTRO =        -0.00078940
  eigenvalues    EBANDS =        17.83148419
  atomic energy  EATOM  =       130.64621481
  ---------------------------------------------------
  free energy    TOTEN  =       -11.83682496 eV

  energy without entropy =      -11.83603556  energy(sigma->0) =      -11.83656183


--------------------------------------------------------------------------------------------------------




----------------------------------------- Iteration    1(   8)  ---------------------------------------


    POTLOK:  cpu time    0.06: real time    0.06
    SETDIJ:  cpu time    0.02: real time    0.02
     EDDAV:  cpu time    0.33: real time    0.42
       DOS:  cpu time    0.00: real time    0.00
    CHARGE:  cpu time    0.04: real time    0.04
    MIXING:  cpu time    0.00: real time    0.00
    --------------------------------------------
      LOOP:  cpu time    0.44: real time    0.55

 eigenvalue-minimisations  :   348
 total energy-change (2. order) :-0.8336592E-03  (-0.1101472E-03)
 number of electron       5.0000001 magnetization 
 augmentation part        0.3996069 magnetization 

 Broyden mixing:
  rms(total) = 0.27284E-01    rms(broyden)= 0.27284E-01
  rms(prec ) = 0.10155E+00
  weight for this iteration     100.00

 eigenvalues of (default mixing * dielectric matrix)
  average eigenvalue GAMMA=   1.9053
  0.9812  2.6726  2.0620

 Free energy of the ion-electron system (eV)
  ---------------------------------------------------
  alpha Z        PSCENC =        30.58334069
  Ewald energy   TEWEN  =      -197.90100875
  -1/2 Hartree   DENC   =        -0.44590885
  -exchange  EXHF       =         0.00000000
  -V(xc)+E(xc)   XCENC  =       -65.92553284
  PAW double counting   =       185.81340400     -112.40001065
  entropy T*S    EENTRO =        -0.00096062
  eigenvalues    EBANDS =        17.79280358
  atomic energy  EATOM  =       130.64621481
  ---------------------------------------------------
  free energy    TOTEN  =       -11.83765862 eV

  energy without entropy =      -11.83669800  energy(sigma->0) =      -11.83733841


--------------------------------------------------------------------------------------------------------




----------------------------------------- Iteration    1(   9)  ---------------------------------------


    POTLOK:  cpu time    0.06: real time    0.06
    SETDIJ:  cpu time    0.01: real time    0.02
     EDDAV:  cpu time    0.30: real time    0.30
       DOS:  cpu time    0.00: real time    0.00
    CHARGE:  cpu time    0.04: real time    0.04
    MIXING:  cpu time    0.00: real time    0.00
    --------------------------------------------
      LOOP:  cpu time    0.41: real time    0.50

 eigenvalue-minimisations  :   324
 total energy-change (2. order) : 0.1755558E-02  (-0.5632138E-03)
 number of electron       5.0000001 magnetization 
 augmentation part        0.3976970 magnetization 

 Broyden mixing:
  rms(total) = 0.17920E-02    rms(broyden)= 0.17917E-02
  rms(prec ) = 0.75490E-02
  weight for this iteration     100.00

 eigenvalues of (default mixing * dielectric matrix)
  average eigenvalue GAMMA=   1.6091
  2.5659  2.1370  0.9326  0.8011

 Free energy of the ion-electron system (eV)
  ---------------------------------------------------
  alpha Z        PSCENC =        30.58334069
  Ewald energy   TEWEN  =      -197.90100875
  -1/2 Hartree   DENC   =        -0.51571143
  -exchange  EXHF       =         0.00000000
  -V(xc)+E(xc)   XCENC  =       -65.96274691
  PAW double counting   =       192.60819759     -119.24096791
  entropy T*S    EENTRO =        -0.00065239
  eigenvalues    EBANDS =        17.94743124
  atomic energy  EATOM  =       130.64621481
  ---------------------------------------------------
  free energy    TOTEN  =       -11.83590306 eV

  energy without entropy =      -11.83525067  energy(sigma->0) =      -11.83568560


--------------------------------------------------------------------------------------------------------




----------------------------------------- Iteration    1(  10)  ---------------------------------------


    POTLOK:  cpu time    0.06: real time    0.06
    SETDIJ:  cpu time    0.01: real time    0.02
     EDDAV:  cpu time    0.24: real time    0.24
       DOS:  cpu time    0.00: real time    0.00
    --------------------------------------------
      LOOP:  cpu time    0.31: real time    0.35

 eigenvalue-minimisations  :   228
 total energy-change (2. order) : 0.1721837E-04  (-0.4171243E-05)
 number of electron       5.0000001 magnetization 
 augmentation part        0.3976970 magnetization 

 Free energy of the ion-electron system (eV)
  ---------------------------------------------------
  alpha Z        PSCENC =        30.58334069
  Ewald energy   TEWEN  =      -197.90100875
  -1/2 Hartree   DENC   =        -0.52241066
  -exchange  EXHF       =         0.00000000
  -V(xc)+E(xc)   XCENC  =       -65.96714566
  PAW double counting   =       192.67000443     -119.29832920
  entropy T*S    EENTRO =        -0.00060669
  eigenvalues    EBANDS =        17.95405518
  atomic energy  EATOM  =       130.64621481
  ---------------------------------------------------
  free energy    TOTEN  =       -11.83588584 eV

  energy without entropy =      -11.83527915  energy(sigma->0) =      -11.83568361


--------------------------------------------------------------------------------------------------------




 average (electrostatic) potential at core
  the test charge radii are     1.2538
  (the norm of the test charge is              1.0000)
       1 -35.1011
 
 
 
 E-fermi :   5.6753     XC(G=0): -12.3813     alpha+bet :-13.5035


 k-point   1 :       0.0625    0.0625    0.0625
  band No.  band energies     occupation 
      1      -1.2054      2.00000
      2       5.8627      0.00000
      3       5.8627      0.00000
      4       7.5988      0.00000
      5       9.3785      0.00000
      6       9.3785      0.00000

 k-point   2 :       0.1875    0.0625    0.0625
  band No.  band energies     occupation 
      1       0.3766      2.00000
      2       4.9961      2.00000
      3       5.2223      2.00000
      4       9.1994      0.00000
      5       9.6812      0.00000
      6       9.8355      0.00000

 k-point   3 :       0.3125    0.0625    0.0625
  band No.  band energies     occupation 
      1       1.5804      2.00000
      2       4.3458      2.00000
      3       5.6655      1.32513
      4       9.6182      0.00000
      5      10.3010      0.00000
      6      12.3416      0.00000

 k-point   4 :       0.4375    0.0625    0.0625
  band No.  band energies     occupation 
      1       1.7061      2.00000
      2       4.1125      2.00000
      3       6.8449      0.00000
      4       9.6702      0.00000
      5      10.5603      0.00000
      6      13.9585      0.00000

 k-point   5 :      -0.0625    0.0625    0.0625
  band No.  band energies     occupation 
      1      -1.8360      2.00000
      2       6.3614      0.00000
      3       6.3614      0.00000
      4       6.5721      0.00000
      5       9.0906      0.00000
      6       9.8454      0.00000

 k-point   6 :       0.1875    0.1875    0.0625
  band No.  band energies     occupation 
      1       1.9981      2.00000
      2       4.4278      2.00000
      3       4.6689      2.00000
      4       9.4736      0.00000
      5      10.3376      0.00000
      6      12.3864      0.00000

 k-point   7 :       0.3125    0.1875    0.0625
  band No.  band energies     occupation 
      1       2.7012      2.00000
      2       4.1851      2.00000
      3       5.4559      2.00000
      4       9.8564      0.00000
      5      10.5596      0.00000
      6      14.9683      0.00000

 k-point   8 :      -0.1875    0.1875    0.0625
  band No.  band energies     occupation 
      1      -0.6184      2.00000
      2       5.7240     -0.04440
      3       5.9685      0.00000
      4       7.8254      0.00000
      5       8.3290      0.00000
      6      10.1289      0.00000

 k-point   9 :       0.3125    0.3125    0.0625
  band No.  band energies     occupation 
      1       3.2910      2.00000
      2       4.7676      2.00000
      3       4.7676      2.00000
      4      10.3634      0.00000
      5      10.3634      0.00000
      6      13.8841      0.00000

 k-point  10 :      -0.3125    0.3125    0.0625
  band No.  band energies     occupation 
      1       0.9763      2.00000
      2       4.9022      2.00000
      3       5.4629      2.00000
      4       8.7950      0.00000
      5      10.2118      0.00000
      6      10.3808      0.00000

 k-point  11 :      -0.1875    0.3125    0.0625
  band No.  band energies     occupation 
      1       0.8620      2.00000
      2       5.1176      2.00000
      3       5.5349      2.00052
      4       7.9398      0.00000
      5       9.5169      0.00000
      6      10.5982      0.00000

 k-point  12 :      -0.4375    0.4375    0.0625
  band No.  band energies     occupation 
      1       1.5005      2.00000
      2       4.4001      2.00000
      3       6.4424      0.00000
      4       9.2014      0.00000
      5      10.8163      0.00000
      6      12.8107      0.00000

 k-point  13 :      -0.3125    0.4375    0.0625
  band No.  band energies     occupation 
      1       2.0976      2.00000
      2       4.5659      2.00000
      3       5.3791      2.00000
      4       8.6135      0.00000
      5      10.5338      0.00000
      6      12.4210      0.00000

 k-point  14 :      -0.4375   -0.4375    0.0625
  band No.  band energies     occupation 
      1       2.2409      2.00000
      2       4.5999      2.00000
      3       5.6616      1.44588
      4       8.6982      0.00000
      5      11.2287      0.00000
      6      14.3155      0.00000

 k-point  15 :      -0.3125   -0.4375    0.0625
  band No.  band energies     occupation 
      1       3.2336      2.00000
      2       4.1503      2.00000
      3       4.9961      2.00000
      4       9.3843      0.00000
      5      10.3646      0.00000
      6      15.3582      0.00000

 k-point  16 :       0.1875    0.1875    0.1875
  band No.  band energies     occupation 
      1       3.7502      2.00000
      2       4.1664      2.00000
      3       4.1664      2.00000
      4      10.4130      0.00000
      5      10.4130      0.00000
      6      15.3123      0.00000

 k-point  17 :       0.3125    0.1875    0.1875
  band No.  band energies     occupation 
      1       3.8447      2.00000
      2       4.1202      2.00000
      3       5.0947      2.00000
      4      10.5087      0.00000
      5      10.6789      0.00000
      6      13.4455      0.00000

 k-point  18 :      -0.1875    0.1875    0.1875
  band No.  band energies     occupation 
      1       0.5063      2.00000
      2       6.2244      0.00000
      3       6.4520      0.00000
      4       6.4520      0.00000
      5       7.8293      0.00000
      6      10.7770      0.00000

 k-point  19 :      -0.3125    0.3125    0.1875
  band No.  band energies     occupation 
      1       2.0023      2.00000
      2       4.6888      2.00000
      3       6.1275      0.00000
      4       7.4502      0.00000
      5       9.8567      0.00000
      6      10.7516      0.00000

 k-point  20 :      -0.4375    0.4375    0.1875
  band No.  band energies     occupation 
      1       2.4886      2.00000
      2       4.6211      2.00000
      3       5.7283     -0.06046
      4       7.6301      0.00000
      5      12.1445      0.00000
      6      12.5032      0.00000

 k-point  21 :      -0.3125    0.4375    0.1875
  band No.  band energies     occupation 
      1       3.0634      2.00000
      2       3.7079      2.00000
      3       6.1098      0.00000
      4       8.2945      0.00000
      5      10.3407      0.00000
      6      12.6211      0.00000

 k-point  22 :      -0.4375   -0.4375    0.1875
  band No.  band energies     occupation 
      1       3.1231      2.00000
      2       3.8661      2.00000
      3       5.4680      2.00000
      4       8.8225      0.00000
      5      11.3986      0.00000
      6      15.3580      0.00000

 k-point  23 :      -0.3125    0.3125    0.3125
  band No.  band energies     occupation 
      1       2.8702      2.00000
      2       3.5677      2.00000
      3       7.8297      0.00000
      4       7.8297      0.00000
      5      10.0157      0.00000
      6      10.4981      0.00000

 k-point  24 :      -0.4375    0.4375    0.3125
  band No.  band energies     occupation 
      1       2.7462      2.00000
      2       3.0257      2.00000
      3       8.1677      0.00000
      4       8.2653      0.00000
      5      12.1127      0.00000
      6      12.6509      0.00000

 k-point  25 :      -0.4375   -0.4375    0.3125
  band No.  band energies     occupation 
      1       2.5802      2.00000
      2       2.5802      2.00000
      3       7.9769      0.00000
      4      11.0887      0.00000
      5      11.0887      0.00000
      6      15.6819      0.00000

 k-point  26 :      -0.4375    0.4375    0.4375
  band No.  band energies     occupation 
      1       2.1223      2.00000
      2       2.1901      2.00000
      3      10.9279      0.00000
      4      10.9279      0.00000
      5      12.0811      0.00000
      6      13.2184      0.00000


--------------------------------------------------------------------------------------------------------


 soft charge-density along one line, spin component           1
         0         1         2         3         4         5         6         7         8         9
 total charge-density along one line
 
 pseudopotential strength for first ion, spin component:           1
 -6.575   0.000   0.002   0.000   0.001   0.089   0.000   0.000
  0.000  -6.573   0.000   0.002   0.000   0.000   0.089   0.000
  0.002   0.000  -6.573   0.000  -0.001   0.000   0.000   0.089
  0.000   0.002   0.000  -6.575   0.000   0.000   0.000   0.000
  0.001   0.000  -0.001   0.000  -6.572   0.000   0.000   0.000
  0.089   0.000   0.000   0.000   0.000   0.071   0.000   0.000
  0.000   0.089   0.000   0.000   0.000   0.000   0.071   0.000
  0.000   0.000   0.089   0.000   0.000   0.000   0.000   0.071
  0.000   0.000   0.000   0.089   0.000   0.000   0.000   0.000
  0.000   0.000   0.000   0.000   0.089   0.000   0.000   0.000
  0.000   0.000   0.000   0.000   0.000   0.000   0.000   0.000
  0.000   0.000   0.000   0.000   0.000   0.000   0.000   0.000
  0.000   0.000   0.000   0.000   0.000   0.000   0.000   0.000
  0.000   0.000   0.000   0.000   0.000   0.000   0.000   0.000
  0.000   0.000   0.000   0.000   0.000   0.000   0.000   0.000
  0.000   0.000   0.000   0.000   0.000   0.000   0.000   0.000
  0.000   0.000   0.000   0.000   0.000   0.000   0.000   0.000
  0.000   0.000   0.000   0.000   0.000   0.000   0.000   0.000
 total augmentation occupancy for first ion, spin component:           1
  0.633   0.000   0.072   0.000   0.042  -0.511   0.000  -0.016   0.000  -0.009   0.000   0.000   0.000   0.000   0.000   0.000
  0.000   0.692   0.000   0.083   0.000   0.000  -0.524   0.000  -0.019   0.000   0.000   0.000   0.000   0.000   0.000   0.000
  0.072   0.000   0.707   0.000  -0.025  -0.016   0.000  -0.527   0.000   0.006   0.000   0.000   0.000   0.000   0.000   0.000
  0.000   0.083   0.000   0.633   0.000   0.000  -0.019   0.000  -0.511   0.000   0.000   0.000   0.000   0.000   0.000   0.000
  0.042   0.000  -0.025   0.000   0.736  -0.009   0.000   0.006   0.000  -0.534   0.000   0.000   0.000   0.000   0.000   0.000
 -0.511   0.000  -0.016   0.000  -0.009   0.455   0.000  -0.016   0.000  -0.009   0.000   0.000   0.000   0.000   0.000   0.000
  0.000  -0.524   0.000  -0.019   0.000   0.000   0.442   0.000  -0.019   0.000   0.000   0.000   0.000   0.000   0.000   0.000
 -0.016   0.000  -0.527   0.000   0.006  -0.016   0.000   0.439   0.000   0.006   0.000   0.000   0.000   0.000   0.000   0.000
  0.000  -0.019   0.000  -0.511   0.000   0.000  -0.019   0.000   0.455   0.000   0.000   0.000   0.000   0.000   0.000   0.000
 -0.009   0.000   0.006   0.000  -0.534  -0.009   0.000   0.006   0.000   0.432   0.000   0.000   0.000   0.000   0.000   0.000
  0.000   0.000   0.000   0.000   0.000   0.000   0.000   0.000   0.000   0.000   1.418  -0.287   0.000   0.000   0.000   0.000
  0.000   0.000   0.000   0.000   0.000   0.000   0.000   0.000   0.000   0.000  -0.287   0.063   0.000   0.000   0.000   0.000
  0.000   0.000   0.000   0.000   0.000   0.000   0.000   0.000   0.000   0.000   0.000   0.000   0.322   0.000   0.000   0.012
  0.000   0.000   0.000   0.000   0.000   0.000   0.000   0.000   0.000   0.000   0.000   0.000   0.000   0.322   0.000   0.000
  0.000   0.000   0.000   0.000   0.000   0.000   0.000   0.000   0.000   0.000   0.000   0.000   0.000   0.000   0.322   0.000
  0.000   0.000   0.000   0.000   0.000   0.000   0.000   0.000   0.000   0.000   0.000   0.000   0.012   0.000   0.000   0.001
  0.000   0.000   0.000   0.000   0.000   0.000   0.000   0.000   0.000   0.000   0.000   0.000   0.000   0.012   0.000   0.000
  0.000   0.000   0.000   0.000   0.000   0.000   0.000   0.000   0.000   0.000   0.000   0.000   0.000   0.000   0.012   0.000


------------------------ aborting loop because EDIFF is reached ----------------------------------------


    CHARGE:  cpu time    0.04: real time    0.04
    FORLOC:  cpu time    0.00: real time    0.00
    FORNL :  cpu time    0.08: real time    0.09
    STRESS:  cpu time    0.20: real time    0.20
    FORCOR:  cpu time    0.06: real time    0.06
    FORHAR:  cpu time    0.01: real time    0.02
    MIXING:  cpu time    0.00: real time    0.00

  FORCE on cell =-STRESS in cart. coord.  units (eV):
  Direction    XX          YY          ZZ          XY          YZ          ZX
  --------------------------------------------------------------------------------------
  Alpha Z    30.58334    30.58334    30.58334
  Ewald     -65.96700   -65.96700   -65.96700     0.00000     0.00000     0.00000
  Hartree     0.17386     0.17386     0.17386     0.00000     0.00000     0.00000
  E(xc)     -22.40985   -22.40985   -22.40985     0.00000     0.00000     0.00000
  Local       3.67409     3.67409     3.67409     0.00000     0.00000     0.00000
  n-local    -6.65185    -7.20414    -4.32809     1.83453    -2.12696    -1.48040
  augment     2.89945     2.89945     2.89945     0.00000     0.00000     0.00000
  Kinetic    59.45493    58.34014    54.22125    -0.56217     2.49934     1.90178
  Fock        0.00000     0.00000     0.00000     0.00000     0.00000     0.00000
  -------------------------------------------------------------------------------------
  Total       0.23129     0.23129     0.23129     0.00000     0.00000     0.00000
  in kB      20.43696    20.43696    20.43696     0.00000     0.00000     0.00000
  external pressure =       20.44 kB  Pullay stress =        0.00 kB


 VOLUME and BASIS-vectors are now :
 -----------------------------------------------------------------------------
  energy-cutoff  :      350.00
  volume of cell :       18.13
      direct lattice vectors                 reciprocal lattice vectors
     2.866544087  0.000000000  0.000000000     0.348852126  0.123337852  0.213627426
    -0.955514696  2.702603683  0.000000000     0.000000000  0.370013556  0.213627426
    -0.955514696 -1.351301841  2.340523446     0.000000000  0.000000000  0.427254853

  length of vectors
     2.866544087  2.866544087  2.866544087     0.427254853  0.427254853  0.427254853


 FORCES acting on ions
    electron-ion (+dipol)            ewald-force                    non-local-force                 convergence-correction
 -----------------------------------------------------------------------------------------------
   0.233E-14 0.116E-14 0.404E-14   -.279E-15 -.214E-15 0.640E-15   0.364E-22 0.662E-23 0.000E+00   -.754E-15 -.351E-15 -.152E-15
 -----------------------------------------------------------------------------------------------
   0.233E-14 0.116E-14 0.404E-14   -.279E-15 -.214E-15 0.640E-15   0.364E-22 0.662E-23 0.000E+00   -.754E-15 -.351E-15 -.152E-15
 
 
 POSITION                                       TOTAL-FORCE (eV/Angst)
 -----------------------------------------------------------------------------------
      0.00000      0.00000      0.00000         0.000000      0.000000      0.000000
 -----------------------------------------------------------------------------------
    total drift:                                0.000000      0.000000      0.000000


--------------------------------------------------------------------------------------------------------



  FREE ENERGIE OF THE ION-ELECTRON SYSTEM (eV)
  ---------------------------------------------------
  free  energy   TOTEN  =       -11.835886 eV

  energy  without entropy=      -11.835279  energy(sigma->0) =      -11.835684
 


--------------------------------------------------------------------------------------------------------


    POTLOK:  cpu time    0.07: real time    0.07


--------------------------------------------------------------------------------------------------------


 writing wavefunctions
     LOOP+:  cpu time    4.45: real time    6.22
    4ORBIT:  cpu time    0.00: real time    0.00

 total amount of memory used by VASP on root node    36009. kBytes
========================================================================

   base      :      30000. kBytes
   nonl-proj :       1030. kBytes
   fftplans  :       1676. kBytes
   grid      :       2560. kBytes
   one-center:         15. kBytes
   wavefun   :        728. kBytes
 
  
  
 General timing and accounting informations for this job:
 ========================================================
  
                  Total CPU time used (sec):        4.790
                            User time (sec):        4.719
                          System time (sec):        0.071
                         Elapsed time (sec):       11.215
  
                   Maximum memory used (kb):           0.
                   Average memory used (kb):           0.
  
                          Minor page faults:         7671
                          Major page faults:            0
                 Voluntary context switches:         1002
