 vasp.5.2.12 11Nov11 complex                                                    
  
 executed on             LinuxIFC date 2012.10.17  10:14:54
 running on    1 nodes
 distr:  one band on    1 nodes,    1 groups


--------------------------------------------------------------------------------------------------------


 INCAR:
 POTCAR:    PAW_PBE Ta 17Jan2003                  
 POTCAR:    PAW_PBE Ta 17Jan2003                  
   VRHFIN =Ta:  6s5d                                                            
   LEXCH  = PE                                                                  
   EATOM  =   130.6506 eV,    9.6025 Ry                                         
                                                                                
   TITEL  = PAW_PBE Ta 17Jan2003                                                
   LULTRA =        F    use ultrasoft PP ?                                      
   IUNSCR =        1    unscreen: 0-lin 1-nonlin 2-no                           
   RPACOR =    2.330    partial core radius                                     
   POMASS =  180.948; ZVAL   =    5.000    mass and valenz                      
   RCORE  =    2.900    outmost cutoff radius                                   
   RWIGS  =    2.840; RWIGS  =    1.503    wigner-seitz radius (au A)           
   ENMAX  =  223.667; ENMIN  =  167.750 eV                                      
   RCLOC  =    2.205    cutoff for local pot                                    
   LCOR   =        T    correct aug charges                                     
   LPAW   =        T    paw PP                                                  
   EAUG   =  332.075                                                            
   DEXC   =    -.049                                                            
   RMAX   =    3.083    core radius for proj-oper                               
   RAUG   =    1.300    factor for augmentation sphere                          
   RDEP   =    3.060    radius for radial grids                                 
   QCUT   =   -4.055; QGAM   =    8.109    optimization parameters              
                                                                                
   Description                                                                  
     l     E      TYP  RCUT    TYP  RCUT                                        
     2   .000     23  2.500                                                     
     2   .000     23  2.500                                                     
     0   .000     23  2.500                                                     
     0   .000     23  2.500                                                     
     1   .000     23  2.900                                                     
     1  2.000     23  2.900                                                     
     3   .000      7   .000                                                     
  local pseudopotential read in
  partial core-charges read in
  atomic valenz-charges read in
  non local Contribution for L=           2  read in
    real space projection operators read in
  non local Contribution for L=           2  read in
    real space projection operators read in
  non local Contribution for L=           0  read in
    real space projection operators read in
  non local Contribution for L=           0  read in
    real space projection operators read in
  non local Contribution for L=           1  read in
    real space projection operators read in
  non local Contribution for L=           1  read in
    real space projection operators read in
    PAW grid and wavefunctions read in
 
   number of l-projection  operators is LMAX  =           6
   number of lm-projection operators is LMMAX =          18
 
  PAW_PBE Ta 17Jan2003                  :
 energy of atom  1       EATOM= -130.6506
 kinetic energy error for atom=    0.0044 (will be added to EATOM!!)
 
 
 POSCAR: Ta                                      
  positions in cartesian coordinates
  No initial velocities read in
 exchange correlation table for  LEXCH =        8
   RHO(1)=    0.500       N(1)  =     2000
   RHO(2)=  100.500       N(2)  =     4000
 


--------------------------------------------------------------------------------------------------------


 ion  position               nearest neighbor table
   1  0.000  0.000  0.000-
 
  LATTYP: Found a body centered cubic cell.
 ALAT       =     3.3100000000
  
  Lattice vectors:
  
 A1 = (   2.8665440865,   0.0000000000,   0.0000000000)
 A2 = (  -0.9555146955,   2.7026036829,   0.0000000000)
 A3 = (  -0.9555146955,  -1.3513018414,   2.3405234457)
 Subroutine PRICEL returns:
 Original cell was already a primitive cell.
 

Analysis of symmetry for initial positions (statically):

 Routine SETGRP: Setting up the symmetry group for a 
 body centered cubic supercell.


 Subroutine GETGRP returns: Found 48 space group operations
 (whereof 48 operations were pure point group operations)
 out of a pool of 48 trial point group operations.


The static configuration has the point symmetry O_h .

Analysis of symmetry for dynamics (positions and initial velocities):

 Subroutine DYNSYM returns: Found 48 space group operations
 (whereof 48 operations were pure point group operations)
 out of a pool of 48 trial space group operations
 (whereof 48 operations were pure point group operations)
 and found also     1 'primitive' translations


The dynamic configuration has the point symmetry O_h .

Analysis of magnetic symmetry:

 Subroutine MAGSYM returns: Found 48 space group operations
 (whereof 48 operations were pure point group operations)
 out of a pool of 48 trial space group operations
 (whereof 48 operations were pure point group operations)
 and found also     1 'primitive' translations


The magnetic configuration has the point symmetry O_h .
 
 
 KPOINTS: KPOINTS created by Atomic Simulation Env

Automatic generation of k-mesh.
 
 Subroutine IBZKPT returns following result:
 ===========================================
 
 Found     26 irreducible k-points:
 
 Following reciprocal coordinates:
            Coordinates               Weight
  0.062500  0.062500  0.062500      8.000000
  0.187500  0.062500  0.062500     24.000000
  0.312500  0.062500  0.062500     24.000000
  0.437500  0.062500  0.062500     12.000000
 -0.062500  0.062500  0.062500      6.000000
  0.187500  0.187500  0.062500     24.000000
  0.312500  0.187500  0.062500     48.000000
 -0.187500  0.187500  0.062500     24.000000
  0.312500  0.312500  0.062500      8.000000
 -0.312500  0.312500  0.062500     24.000000
 -0.187500  0.312500  0.062500     24.000000
 -0.437500  0.437500  0.062500     24.000000
 -0.312500  0.437500  0.062500     48.000000
 -0.437500 -0.437500  0.062500     24.000000
 -0.312500 -0.437500  0.062500     24.000000
  0.187500  0.187500  0.187500      8.000000
  0.312500  0.187500  0.187500     12.000000
 -0.187500  0.187500  0.187500      6.000000
 -0.312500  0.312500  0.187500     24.000000
 -0.437500  0.437500  0.187500     24.000000
 -0.312500  0.437500  0.187500     24.000000
 -0.437500 -0.437500  0.187500     24.000000
 -0.312500  0.312500  0.312500      6.000000
 -0.437500  0.437500  0.312500     24.000000
 -0.437500 -0.437500  0.312500      8.000000
 -0.437500  0.437500  0.437500      6.000000
 
 Following cartesian coordinates:
            Coordinates               Weight
  0.021803  0.030834  0.053407      8.000000
  0.065410  0.046252  0.080110     24.000000
  0.109016  0.061669  0.106814     24.000000
  0.152623  0.077086  0.133517     12.000000
 -0.021803  0.015417  0.026703      6.000000
  0.065410  0.092503  0.106814     24.000000
  0.109016  0.107921  0.133517     48.000000
 -0.065410  0.046252  0.026703     24.000000
  0.109016  0.154172  0.160221      8.000000
 -0.109016  0.077086  0.026703     24.000000
 -0.065410  0.092503  0.053407     24.000000
 -0.152623  0.107921  0.026703     24.000000
 -0.109016  0.123338  0.053407     48.000000
 -0.152623 -0.215841 -0.160221     24.000000
 -0.109016 -0.200424 -0.133517     24.000000
  0.065410  0.092503  0.160221      8.000000
  0.109016  0.107921  0.186924     12.000000
 -0.065410  0.046252  0.080110      6.000000
 -0.109016  0.077086  0.080110     24.000000
 -0.152623  0.107921  0.080110     24.000000
 -0.109016  0.123338  0.106814     24.000000
 -0.152623 -0.215841 -0.106814     24.000000
 -0.109016  0.077086  0.133517      6.000000
 -0.152623  0.107921  0.133517     24.000000
 -0.152623 -0.215841 -0.053407      8.000000
 -0.152623  0.107921  0.186924      6.000000
 


--------------------------------------------------------------------------------------------------------




 Dimension of arrays:
   k-points           NKPTS =     26   k-points in BZ     NKDIM =     26   number of bands    NBANDS=      6
   number of dos      NEDOS =    301   number of ions     NIONS =      1
   non local maximal  LDIM  =      6   non local SUM 2l+1 LMDIM =     18
   total plane-waves  NPLWV =   5832
   max r-space proj   IRMAX =      1   max aug-charges    IRDMAX=  22091
   dimension x,y,z NGX =    18 NGY =   18 NGZ =   18
   dimension x,y,z NGXF=    36 NGYF=   36 NGZF=   36
   support grid    NGXF=    36 NGYF=   36 NGZF=   36
   ions per type =               1
 NGX,Y,Z   is equivalent  to a cutoff of  10.44, 10.44, 10.44 a.u.
 NGXF,Y,Z  is equivalent  to a cutoff of  20.88, 20.88, 20.88 a.u.


 I would recommend the setting:
   dimension x,y,z NGX =    17 NGY =   17 NGZ =   17
 SYSTEM =  unknown system                          
 POSCAR =  Ta                                      

 Startparameter for this run:
   NWRITE =      2    write-flag & timer
   PREC   = accura    normal or accurate (medium, high low for compatibility)
   ISTART =      0    job   : 0-new  1-cont  2-samecut
   ICHARG =      2    charge: 1-file 2-atom 10-const
   ISPIN  =      2    spin polarized calculation?
   LNONCOLLINEAR =      F non collinear calculations
   LSORBIT =      F    spin-orbit coupling
   INIWAV =      1    electr: 0-lowe 1-rand  2-diag
   LASPH  =      F    aspherical Exc in radial PAW
   METAGGA=      F    non-selfconsistent MetaGGA calc.

 Electronic Relaxation 1
   ENCUT  =  350.0 eV  25.72 Ry    5.07 a.u.   4.37  4.37  4.37*2*pi/ulx,y,z
   ENINI  =  350.0     initial cutoff
   ENAUG  =  332.1 eV  augmentation charge cutoff
   NELM   =     60;   NELMIN=  2; NELMDL= -5     # of ELM steps 
   EDIFF  = 0.1E-03   stopping-criterion for ELM
   LREAL  =      F    real-space projection
   NLSPLINE    = F    spline interpolate recip. space projectors
   LCOMPAT=      F    compatible to vasp.4.4
   GGA_COMPAT  = T    GGA compatible to vasp.4.4-vasp.4.6
   LMAXPAW     = -100 max onsite density
   LMAXMIX     =    2 max onsite mixed and CHGCAR
   VOSKOWN=      0    Vosko Wilk Nusair interpolation
   ROPT   =    0.00000
 Ionic relaxation
   EDIFFG = 0.1E-02   stopping-criterion for IOM
   NSW    =      0    number of steps for IOM
   NBLOCK =      1;   KBLOCK =      1    inner block; outer block 
   IBRION =     -1    ionic relax: 0-MD 1-quasi-New 2-CG
   NFREE  =      0    steps in history (QN), initial steepest desc. (CG)
   ISIF   =      2    stress and relaxation
   IWAVPR =     10    prediction:  0-non 1-charg 2-wave 3-comb
   ISYM   =      2    0-nonsym 1-usesym 2-fastsym
   LCORR  =      T    Harris-Foulkes like correction to forces

   POTIM  = 0.5000    time-step for ionic-motion
   TEIN   =    0.0    initial temperature
   TEBEG  =    0.0;   TEEND  =   0.0 temperature during run
   SMASS  =  -3.00    Nose mass-parameter (am)
   estimated Nose-frequenzy (Omega)   =  0.10E-29 period in steps =****** mass=  -0.188E-27a.u.
   SCALEE = 1.0000    scale energy and forces
   NPACO  =    256;   APACO  = 16.0  distance and # of slots for P.C.
   PSTRESS=    0.0 pullay stress

  Mass of Ions in am
   POMASS = 180.95
  Ionic Valenz
   ZVAL   =   5.00
  Atomic Wigner-Seitz radii
   RWIGS  =  -1.00
  virtual crystal weights 
   VCA    =   1.00
   NELECT =       5.0000    total number of electrons
   NUPDOWN=      -1.0000    fix difference up-down

 DOS related values:
   EMIN   =  10.00;   EMAX   =-10.00  energy-range for DOS
   EFERMI =   0.00
   ISMEAR =     1;   SIGMA  =   0.05  broadening in eV -4-tet -1-fermi 0-gaus

 Electronic relaxation 2 (details)
   IALGO  =     38    algorithm
   LDIAG  =      T    sub-space diagonalisation (order eigenvalues)
   LSUBROT=      T    optimize rotation matrix (better conditioning)
   TURBO    =      0    0=normal 1=particle mesh
   IRESTART =      0    0=no restart 2=restart with 2 vectors
   NREBOOT  =      0    no. of reboots
   NMIN     =      0    reboot dimension
   EREF     =   0.00    reference energy to select bands
   IMIX   =      4    mixing-type and parameters
     AMIX     =   0.40;   BMIX     =  1.00
     AMIX_MAG =   1.60;   BMIX_MAG =  1.00
     AMIN     =   0.10
     WC   =   100.;   INIMIX=   1;  MIXPRE=   1

 Intra band minimization:
   WEIMIN = 0.0000     energy-eigenvalue tresh-hold
   EBREAK =  0.42E-05  absolut break condition
   DEPER  =   0.30     relativ break condition  

   TIME   =   0.40     timestep for ELM

  volume/ion in A,a.u.               =      18.13       122.36
  Fermi-wavevector in a.u.,A,eV,Ry     =   1.065566  2.013627 15.448462  1.135430
  Thomas-Fermi vector in A             =   2.201121
 
 Write flags
   LWAVE  =      T    write WAVECAR
   LCHARG =      T    write CHGCAR
   LVTOT  =      F    write LOCPOT, total local potential
   LVHAR  =      F    write LOCPOT, Hartree potential only
   LELF   =      F    write electronic localiz. function (ELF)
   LORBIT =     11    0 simple, 1 ext, 2 COOP (PROOUT)


 Dipole corrections
   LMONO  =      F    monopole corrections only (constant potential shift)
   LDIPOL =      F    correct potential (dipole corrections)
   IDIPOL =      0    1-x, 2-y, 3-z, 4-all directions 
   EPSILON=  1.0000000 bulk dielectric constant

 Exchange correlation treatment:
   GGA     =    --    GGA type
   LEXCH   =     8    internal setting for exchange type
   VOSKOWN=      0    Vosko Wilk Nusair interpolation
   LHFCALC =     F    Hartree Fock is set to
   LHFONE  =     F    Hartree Fock one center treatment
   AEXX    =    0.0000 exact exchange contribution

 Linear response parameters
   LEPSILON=     F    determine dielectric tensor
   LRPA    =     F    only Hartree local field effects (RPA)
   LNABLA  =     F    use nabla operator in PAW spheres
   LVEL    =     F    velocity operator in full k-point grid
   LINTERFAST=   F  fast interpolation
   KINTER  =     0    interpolate to denser k-point grid
   CSHIFT  =0.1000    complex shift for real part using Kramers Kronig
   OMEGAMAX=  -1.0    maximum frequency
   RTIME   =    0.100 relaxation time in fs

 Orbital magnetization related:
   ORBITALMAG=     F  switch on orbital magnetization
   LCHIMAG   =     F  perturbation theory with respect to B field
   DQ        =  0.001000  dq finite difference perturbation B field



--------------------------------------------------------------------------------------------------------


 Static calculation
 charge density and potential will be updated during run
 spin polarized calculation
 Variant of blocked Davidson
 Davidson routine will perform the subspace rotation
 perform sub-space diagonalisation
    after iterative eigenvector-optimisation
 modified Broyden-mixing scheme, WC =      100.0
 initial mixing is a Kerker type mixing with AMIX =  0.4000 and BMIX =      1.0000
 Hartree-type preconditioning will be used
 using additional bands            3
 reciprocal scheme for non local part
 use partial core corrections
 calculate Harris-corrections to forces 
   (improved forces if not selfconsistent)
 use gradient corrections 
 use of overlap-Matrix (Vanderbilt PP)
 Methfessel and Paxton  Order N= 1 SIGMA  =   0.05


--------------------------------------------------------------------------------------------------------


  energy-cutoff  :      350.00
  volume of cell :       18.13
      direct lattice vectors                 reciprocal lattice vectors
     2.866544087  0.000000000  0.000000000     0.348852126  0.123337852  0.213627426
    -0.955514696  2.702603683  0.000000000     0.000000000  0.370013556  0.213627426
    -0.955514696 -1.351301841  2.340523446     0.000000000  0.000000000  0.427254853

  length of vectors
     2.866544087  2.866544087  2.866544087     0.427254853  0.427254853  0.427254853


 
 k-points in units of 2pi/SCALE and weight: KPOINTS created by Atomic Simulation Env
   0.02180326  0.03083446  0.05340686       0.016
   0.06540977  0.04625169  0.08011028       0.047
   0.10901629  0.06166893  0.10681371       0.047
   0.15262281  0.07708616  0.13351714       0.023
  -0.02180326  0.01541723  0.02670343       0.012
   0.06540977  0.09250339  0.10681371       0.047
   0.10901629  0.10792062  0.13351714       0.094
  -0.06540977  0.04625169  0.02670343       0.047
   0.10901629  0.15417232  0.16022057       0.016
  -0.10901629  0.07708616  0.02670343       0.047
  -0.06540977  0.09250339  0.05340686       0.047
  -0.15262281  0.10792062  0.02670343       0.047
  -0.10901629  0.12333785  0.05340686       0.094
  -0.15262281 -0.21584124 -0.16022057       0.047
  -0.10901629 -0.20042401 -0.13351714       0.047
   0.06540977  0.09250339  0.16022057       0.016
   0.10901629  0.10792062  0.18692400       0.023
  -0.06540977  0.04625169  0.08011028       0.012
  -0.10901629  0.07708616  0.08011028       0.047
  -0.15262281  0.10792062  0.08011028       0.047
  -0.10901629  0.12333785  0.10681371       0.047
  -0.15262281 -0.21584124 -0.10681371       0.047
  -0.10901629  0.07708616  0.13351714       0.012
  -0.15262281  0.10792062  0.13351714       0.047
  -0.15262281 -0.21584124 -0.05340686       0.016
  -0.15262281  0.10792062  0.18692400       0.012
 
 k-points in reciprocal lattice and weights: KPOINTS created by Atomic Simulation Env
   0.06250000  0.06250000  0.06250000       0.016
   0.18750000  0.06250000  0.06250000       0.047
   0.31250000  0.06250000  0.06250000       0.047
   0.43750000  0.06250000  0.06250000       0.023
  -0.06250000  0.06250000  0.06250000       0.012
   0.18750000  0.18750000  0.06250000       0.047
   0.31250000  0.18750000  0.06250000       0.094
  -0.18750000  0.18750000  0.06250000       0.047
   0.31250000  0.31250000  0.06250000       0.016
  -0.31250000  0.31250000  0.06250000       0.047
  -0.18750000  0.31250000  0.06250000       0.047
  -0.43750000  0.43750000  0.06250000       0.047
  -0.31250000  0.43750000  0.06250000       0.094
  -0.43750000 -0.43750000  0.06250000       0.047
  -0.31250000 -0.43750000  0.06250000       0.047
   0.18750000  0.18750000  0.18750000       0.016
   0.31250000  0.18750000  0.18750000       0.023
  -0.18750000  0.18750000  0.18750000       0.012
  -0.31250000  0.31250000  0.18750000       0.047
  -0.43750000  0.43750000  0.18750000       0.047
  -0.31250000  0.43750000  0.18750000       0.047
  -0.43750000 -0.43750000  0.18750000       0.047
  -0.31250000  0.31250000  0.31250000       0.012
  -0.43750000  0.43750000  0.31250000       0.047
  -0.43750000 -0.43750000  0.31250000       0.016
  -0.43750000  0.43750000  0.43750000       0.012
 
 position of ions in fractional coordinates (direct lattice) 
   0.00000000  0.00000000  0.00000000
 
 position of ions in cartesian coordinates  (Angst):
   0.00000000  0.00000000  0.00000000
 


--------------------------------------------------------------------------------------------------------


 k-point  1 :  0.06250.06250.0625  plane waves:     270
 k-point  2 :  0.18750.06250.0625  plane waves:     273
 k-point  3 :  0.31250.06250.0625  plane waves:     273
 k-point  4 :  0.43750.06250.0625  plane waves:     268
 k-point  5 :  -.06250.06250.0625  plane waves:     269
 k-point  6 :  0.18750.18750.0625  plane waves:     269
 k-point  7 :  0.31250.18750.0625  plane waves:     274
 k-point  8 :  -.18750.18750.0625  plane waves:     267
 k-point  9 :  0.31250.31250.0625  plane waves:     273
 k-point 10 :  -.31250.31250.0625  plane waves:     273
 k-point 11 :  -.18750.31250.0625  plane waves:     271
 k-point 12 :  -.43750.43750.0625  plane waves:     273
 k-point 13 :  -.31250.43750.0625  plane waves:     271
 k-point 14 :  -.4375-.43750.0625  plane waves:     268
 k-point 15 :  -.3125-.43750.0625  plane waves:     272
 k-point 16 :  0.18750.18750.1875  plane waves:     273
 k-point 17 :  0.31250.18750.1875  plane waves:     268
 k-point 18 :  -.18750.18750.1875  plane waves:     269
 k-point 19 :  -.31250.31250.1875  plane waves:     268
 k-point 20 :  -.43750.43750.1875  plane waves:     273
 k-point 21 :  -.31250.43750.1875  plane waves:     270
 k-point 22 :  -.4375-.43750.1875  plane waves:     266
 k-point 23 :  -.31250.31250.3125  plane waves:     269
 k-point 24 :  -.43750.43750.3125  plane waves:     260
 k-point 25 :  -.4375-.43750.3125  plane waves:     261
 k-point 26 :  -.43750.43750.4375  plane waves:     257

 maximum and minimum number of plane-waves per node :       274      257

 maximum number of plane-waves:       274
 maximum index in each direction: 
   IXMAX=    4   IYMAX=    4   IZMAX=    4
   IXMIN=   -4   IYMIN=   -4   IZMIN=   -4

 NGX is ok and might be reduce to  18
 NGY is ok and might be reduce to  18
 NGZ is ok and might be reduce to  18

 serial   3D FFT for wavefunctions
 parallel 3D FFT for charge:
    minimum data exchange during FFTs selected (reduces bandwidth)


 total amount of memory used by VASP on root node    38175. kBytes
========================================================================

   base      :      30000. kBytes
   nonl-proj :       1030. kBytes
   fftplans  :       1676. kBytes
   grid      :       3981. kBytes
   one-center:         31. kBytes
   wavefun   :       1457. kBytes
 
 Broyden mixing: mesh for mixing (old mesh)
   NGX =  9   NGY =  9   NGZ =  9
  (NGX  = 36   NGY  = 36   NGZ  = 36)
  gives a total of    729 points

 initial charge density was supplied:
 charge density of overlapping atoms calculated
 number of electron       5.0000000 magnetization       6.0000000
 keeping initial charge density in first step


--------------------------------------------------------------------------------------------------------


 Maximum index for augmentation-charges        21187 (set IRDMAX)


--------------------------------------------------------------------------------------------------------


 First call to EWALD:  gamma=   0.675
 Maximum number of real-space cells 3x 3x 3
 Maximum number of reciprocal cells 3x 3x 3

    FEWALD:  cpu time    0.00: real time    0.01


----------------------------------------- Iteration    1(   1)  ---------------------------------------


    POTLOK:  cpu time    0.15: real time    0.15
    SETDIJ:  cpu time    0.04: real time    0.04
     EDDAV:  cpu time    0.61: real time    0.61
       DOS:  cpu time    0.00: real time    0.00
    --------------------------------------------
      LOOP:  cpu time    0.80: real time    0.85

 eigenvalue-minimisations  :   654
 total energy-change (2. order) : 0.1049226E+02  (-0.2068492E+03)
 number of electron       5.0000000 magnetization       6.0000000
 augmentation part        5.0000000 magnetization       6.0000000

 Free energy of the ion-electron system (eV)
  ---------------------------------------------------
  alpha Z        PSCENC =        30.58334069
  Ewald energy   TEWEN  =      -197.90100875
  -1/2 Hartree   DENC   =        -2.50452612
  -exchange  EXHF       =         0.00000000
  -V(xc)+E(xc)   XCENC  =       -60.69825643
  PAW double counting   =       143.51874798      -69.33493833
  entropy T*S    EENTRO =        -0.00024151
  eigenvalues    EBANDS =        36.18293167
  atomic energy  EATOM  =       130.64621481
  ---------------------------------------------------
  free energy    TOTEN  =        10.49226401 eV

  energy without entropy =       10.49250551  energy(sigma->0) =       10.49234451


--------------------------------------------------------------------------------------------------------




----------------------------------------- Iteration    1(   2)  ---------------------------------------


     EDDAV:  cpu time    0.91: real time    0.91
       DOS:  cpu time    0.00: real time    0.00
    --------------------------------------------
      LOOP:  cpu time    0.92: real time    0.92

 eigenvalue-minimisations  :  1092
 total energy-change (2. order) :-0.1170528E+02  (-0.1014744E+02)
 number of electron       5.0000000 magnetization       6.0000000
 augmentation part        5.0000000 magnetization       6.0000000

 Free energy of the ion-electron system (eV)
  ---------------------------------------------------
  alpha Z        PSCENC =        30.58334069
  Ewald energy   TEWEN  =      -197.90100875
  -1/2 Hartree   DENC   =        -2.50452612
  -exchange  EXHF       =         0.00000000
  -V(xc)+E(xc)   XCENC  =       -60.69825643
  PAW double counting   =       143.51874798      -69.33493833
  entropy T*S    EENTRO =        -0.00016591
  eigenvalues    EBANDS =        24.47757245
  atomic energy  EATOM  =       130.64621481
  ---------------------------------------------------
  free energy    TOTEN  =        -1.21301962 eV

  energy without entropy =       -1.21285370  energy(sigma->0) =       -1.21296431


--------------------------------------------------------------------------------------------------------




----------------------------------------- Iteration    1(   3)  ---------------------------------------


     EDDAV:  cpu time    0.59: real time    0.59
       DOS:  cpu time    0.00: real time    0.00
    --------------------------------------------
      LOOP:  cpu time    0.59: real time    0.61

 eigenvalue-minimisations  :   636
 total energy-change (2. order) :-0.8101834E-01  (-0.7854316E-01)
 number of electron       5.0000000 magnetization       6.0000000
 augmentation part        5.0000000 magnetization       6.0000000

 Free energy of the ion-electron system (eV)
  ---------------------------------------------------
  alpha Z        PSCENC =        30.58334069
  Ewald energy   TEWEN  =      -197.90100875
  -1/2 Hartree   DENC   =        -2.50452612
  -exchange  EXHF       =         0.00000000
  -V(xc)+E(xc)   XCENC  =       -60.69825643
  PAW double counting   =       143.51874798      -69.33493833
  entropy T*S    EENTRO =        -0.00040039
  eigenvalues    EBANDS =        24.39678858
  atomic energy  EATOM  =       130.64621481
  ---------------------------------------------------
  free energy    TOTEN  =        -1.29403796 eV

  energy without entropy =       -1.29363757  energy(sigma->0) =       -1.29390450


--------------------------------------------------------------------------------------------------------




----------------------------------------- Iteration    1(   4)  ---------------------------------------


     EDDAV:  cpu time    0.72: real time    0.72
       DOS:  cpu time    0.00: real time    0.00
    --------------------------------------------
      LOOP:  cpu time    0.73: real time    1.28

 eigenvalue-minimisations  :   834
 total energy-change (2. order) :-0.4845476E-03  (-0.4839116E-03)
 number of electron       5.0000000 magnetization       6.0000000
 augmentation part        5.0000000 magnetization       6.0000000

 Free energy of the ion-electron system (eV)
  ---------------------------------------------------
  alpha Z        PSCENC =        30.58334069
  Ewald energy   TEWEN  =      -197.90100875
  -1/2 Hartree   DENC   =        -2.50452612
  -exchange  EXHF       =         0.00000000
  -V(xc)+E(xc)   XCENC  =       -60.69825643
  PAW double counting   =       143.51874798      -69.33493833
  entropy T*S    EENTRO =        -0.00041937
  eigenvalues    EBANDS =        24.39632302
  atomic energy  EATOM  =       130.64621481
  ---------------------------------------------------
  free energy    TOTEN  =        -1.29452251 eV

  energy without entropy =       -1.29410313  energy(sigma->0) =       -1.29438272


--------------------------------------------------------------------------------------------------------




----------------------------------------- Iteration    1(   5)  ---------------------------------------


     EDDAV:  cpu time    0.54: real time    0.54
       DOS:  cpu time    0.00: real time    0.00
    CHARGE:  cpu time    0.08: real time    0.08
    MIXING:  cpu time    0.00: real time    0.00
    --------------------------------------------
      LOOP:  cpu time    0.62: real time    0.65

 eigenvalue-minimisations  :   558
 total energy-change (2. order) :-0.2780321E-05  (-0.2780845E-05)
 number of electron       5.0000001 magnetization       2.0329204
 augmentation part        0.4561467 magnetization      -0.8161024

 Broyden mixing:
  rms(total) = 0.75307E+00    rms(broyden)= 0.75307E+00
  rms(prec ) = 0.96028E+00
  weight for this iteration     100.00

 Free energy of the ion-electron system (eV)
  ---------------------------------------------------
  alpha Z        PSCENC =        30.58334069
  Ewald energy   TEWEN  =      -197.90100875
  -1/2 Hartree   DENC   =        -2.50452612
  -exchange  EXHF       =         0.00000000
  -V(xc)+E(xc)   XCENC  =       -60.69825643
  PAW double counting   =       143.51874798      -69.33493833
  entropy T*S    EENTRO =        -0.00041947
  eigenvalues    EBANDS =        24.39632033
  atomic energy  EATOM  =       130.64621481
  ---------------------------------------------------
  free energy    TOTEN  =        -1.29452529 eV

  energy without entropy =       -1.29410582  energy(sigma->0) =       -1.29438546


--------------------------------------------------------------------------------------------------------




----------------------------------------- Iteration    1(   6)  ---------------------------------------


    POTLOK:  cpu time    0.14: real time    0.14
    SETDIJ:  cpu time    0.03: real time    0.03
     EDDAV:  cpu time    0.60: real time    0.61
       DOS:  cpu time    0.00: real time    0.00
    CHARGE:  cpu time    0.07: real time    0.07
    MIXING:  cpu time    0.00: real time    0.00
    --------------------------------------------
      LOOP:  cpu time    0.86: real time    0.87

 eigenvalue-minimisations  :   660
 total energy-change (2. order) :-0.1039346E+02  (-0.3351105E+00)
 number of electron       5.0000001 magnetization       1.7699280
 augmentation part        0.3723568 magnetization       0.9872811

 Broyden mixing:
  rms(total) = 0.38136E+00    rms(broyden)= 0.38135E+00
  rms(prec ) = 0.11031E+01
  weight for this iteration     100.00

 eigenvalues of (default mixing * dielectric matrix)
  average eigenvalue GAMMA=   1.5227
  1.5227

 Free energy of the ion-electron system (eV)
  ---------------------------------------------------
  alpha Z        PSCENC =        30.58334069
  Ewald energy   TEWEN  =      -197.90100875
  -1/2 Hartree   DENC   =        -2.00536591
  -exchange  EXHF       =         0.00000000
  -V(xc)+E(xc)   XCENC  =       -66.14530105
  PAW double counting   =       163.83436452      -89.89076307
  entropy T*S    EENTRO =        -0.00019677
  eigenvalues    EBANDS =        19.19072555
  atomic energy  EATOM  =       130.64621481
  ---------------------------------------------------
  free energy    TOTEN  =       -11.68798998 eV

  energy without entropy =      -11.68779320  energy(sigma->0) =      -11.68792439


--------------------------------------------------------------------------------------------------------




----------------------------------------- Iteration    1(   7)  ---------------------------------------


    POTLOK:  cpu time    0.14: real time    0.14
    SETDIJ:  cpu time    0.03: real time    0.03
     EDDAV:  cpu time    0.64: real time    0.64
       DOS:  cpu time    0.00: real time    0.00
    CHARGE:  cpu time    0.07: real time    0.07
    MIXING:  cpu time    0.00: real time    0.00
    --------------------------------------------
      LOOP:  cpu time    0.89: real time    0.91

 eigenvalue-minimisations  :   702
 total energy-change (2. order) :-0.7709204E-01  (-0.2498664E-02)
 number of electron       5.0000001 magnetization       1.6353980
 augmentation part        0.3723306 magnetization       0.9118580

 Broyden mixing:
  rms(total) = 0.33474E+00    rms(broyden)= 0.33474E+00
  rms(prec ) = 0.10301E+01
  weight for this iteration     100.00

 eigenvalues of (default mixing * dielectric matrix)
  average eigenvalue GAMMA=   1.0638
  1.0638  1.0638

 Free energy of the ion-electron system (eV)
  ---------------------------------------------------
  alpha Z        PSCENC =        30.58334069
  Ewald energy   TEWEN  =      -197.90100875
  -1/2 Hartree   DENC   =        -1.87576929
  -exchange  EXHF       =         0.00000000
  -V(xc)+E(xc)   XCENC  =       -66.21391048
  PAW double counting   =       166.20229275      -92.29607552
  entropy T*S    EENTRO =         0.00023843
  eigenvalues    EBANDS =        19.08959533
  atomic energy  EATOM  =       130.64621481
  ---------------------------------------------------
  free energy    TOTEN  =       -11.76508202 eV

  energy without entropy =      -11.76532045  energy(sigma->0) =      -11.76516149


--------------------------------------------------------------------------------------------------------




----------------------------------------- Iteration    1(   8)  ---------------------------------------


    POTLOK:  cpu time    0.14: real time    0.14
    SETDIJ:  cpu time    0.03: real time    0.04
     EDDAV:  cpu time    0.61: real time    0.61
       DOS:  cpu time    0.00: real time    0.00
    CHARGE:  cpu time    0.07: real time    0.07
    MIXING:  cpu time    0.00: real time    0.00
    --------------------------------------------
      LOOP:  cpu time    0.86: real time    0.88

 eigenvalue-minimisations  :   672
 total energy-change (2. order) : 0.1021219E+00  (-0.4041565E-01)
 number of electron       5.0000001 magnetization       0.7183806
 augmentation part        0.3945962 magnetization       0.0714544

 Broyden mixing:
  rms(total) = 0.25737E+00    rms(broyden)= 0.25737E+00
  rms(prec ) = 0.40893E+00
  weight for this iteration     100.00

 eigenvalues of (default mixing * dielectric matrix)
  average eigenvalue GAMMA=   1.1327
  1.3930  1.3930  0.6121

 Free energy of the ion-electron system (eV)
  ---------------------------------------------------
  alpha Z        PSCENC =        30.58334069
  Ewald energy   TEWEN  =      -197.90100875
  -1/2 Hartree   DENC   =        -0.92578640
  -exchange  EXHF       =         0.00000000
  -V(xc)+E(xc)   XCENC  =       -65.93500551
  PAW double counting   =       175.59467969     -101.98673184
  entropy T*S    EENTRO =        -0.00032745
  eigenvalues    EBANDS =        18.26166461
  atomic energy  EATOM  =       130.64621481
  ---------------------------------------------------
  free energy    TOTEN  =       -11.66296014 eV

  energy without entropy =      -11.66263270  energy(sigma->0) =      -11.66285099


--------------------------------------------------------------------------------------------------------




----------------------------------------- Iteration    1(   9)  ---------------------------------------


    POTLOK:  cpu time    0.14: real time    0.14
    SETDIJ:  cpu time    0.03: real time    0.03
     EDDAV:  cpu time    0.66: real time    0.66
       DOS:  cpu time    0.00: real time    0.00
    CHARGE:  cpu time    0.07: real time    0.07
    MIXING:  cpu time    0.00: real time    0.00
    --------------------------------------------
      LOOP:  cpu time    0.90: real time    0.92

 eigenvalue-minimisations  :   732
 total energy-change (2. order) :-0.1309423E+00  (-0.1191562E-01)
 number of electron       5.0000001 magnetization       0.3539759
 augmentation part        0.3990166 magnetization       0.0646918

 Broyden mixing:
  rms(total) = 0.98539E-01    rms(broyden)= 0.98538E-01
  rms(prec ) = 0.11789E+00
  weight for this iteration     100.00

 eigenvalues of (default mixing * dielectric matrix)
  average eigenvalue GAMMA=   1.1104
  1.9579  1.0941  0.6949  0.6949

 Free energy of the ion-electron system (eV)
  ---------------------------------------------------
  alpha Z        PSCENC =        30.58334069
  Ewald energy   TEWEN  =      -197.90100875
  -1/2 Hartree   DENC   =        -0.61823584
  -exchange  EXHF       =         0.00000000
  -V(xc)+E(xc)   XCENC  =       -65.98235514
  PAW double counting   =       185.82939027     -112.34387236
  entropy T*S    EENTRO =        -0.00073218
  eigenvalues    EBANDS =        17.99335610
  atomic energy  EATOM  =       130.64621481
  ---------------------------------------------------
  free energy    TOTEN  =       -11.79390240 eV

  energy without entropy =      -11.79317022  energy(sigma->0) =      -11.79365834


--------------------------------------------------------------------------------------------------------




----------------------------------------- Iteration    1(  10)  ---------------------------------------


    POTLOK:  cpu time    0.14: real time    0.14
    SETDIJ:  cpu time    0.03: real time    0.03
     EDDAV:  cpu time    0.64: real time    0.65
       DOS:  cpu time    0.00: real time    0.00
    CHARGE:  cpu time    0.08: real time    0.08
    MIXING:  cpu time    0.00: real time    0.00
    --------------------------------------------
      LOOP:  cpu time    0.90: real time    0.98

 eigenvalue-minimisations  :   708
 total energy-change (2. order) :-0.3573553E-01  (-0.8504932E-03)
 number of electron       5.0000001 magnetization       0.2053770
 augmentation part        0.3981451 magnetization       0.0291502

 Broyden mixing:
  rms(total) = 0.40576E-01    rms(broyden)= 0.40575E-01
  rms(prec ) = 0.48263E-01
  weight for this iteration     100.00

 eigenvalues of (default mixing * dielectric matrix)
  average eigenvalue GAMMA=   1.1023
  2.1867  1.0903  0.8002  0.8002  0.6342

 Free energy of the ion-electron system (eV)
  ---------------------------------------------------
  alpha Z        PSCENC =        30.58334069
  Ewald energy   TEWEN  =      -197.90100875
  -1/2 Hartree   DENC   =        -0.56339951
  -exchange  EXHF       =         0.00000000
  -V(xc)+E(xc)   XCENC  =       -65.98118769
  PAW double counting   =       188.51974524     -115.07231762
  entropy T*S    EENTRO =        -0.00008734
  eigenvalues    EBANDS =        17.93906224
  atomic energy  EATOM  =       130.64621481
  ---------------------------------------------------
  free energy    TOTEN  =       -11.82963793 eV

  energy without entropy =      -11.82955059  energy(sigma->0) =      -11.82960882


--------------------------------------------------------------------------------------------------------




----------------------------------------- Iteration    1(  11)  ---------------------------------------


    POTLOK:  cpu time    0.14: real time    0.14
    SETDIJ:  cpu time    0.04: real time    0.04
     EDDAV:  cpu time    0.65: real time    0.65
       DOS:  cpu time    0.00: real time    0.00
    CHARGE:  cpu time    0.08: real time    0.08
    MIXING:  cpu time    0.00: real time    0.00
    --------------------------------------------
      LOOP:  cpu time    0.91: real time    0.92

 eigenvalue-minimisations  :   720
 total energy-change (2. order) :-0.5569237E-02  (-0.1099815E-03)
 number of electron       5.0000001 magnetization       0.1742819
 augmentation part        0.3987278 magnetization       0.0578316

 Broyden mixing:
  rms(total) = 0.21284E-01    rms(broyden)= 0.21282E-01
  rms(prec ) = 0.24324E-01
  weight for this iteration     100.00

 eigenvalues of (default mixing * dielectric matrix)
  average eigenvalue GAMMA=   1.0572
  2.2585  0.8751  0.8751  0.6425  0.8460  0.8460

 Free energy of the ion-electron system (eV)
  ---------------------------------------------------
  alpha Z        PSCENC =        30.58334069
  Ewald energy   TEWEN  =      -197.90100875
  -1/2 Hartree   DENC   =        -0.54399767
  -exchange  EXHF       =         0.00000000
  -V(xc)+E(xc)   XCENC  =       -65.97575471
  PAW double counting   =       190.30449907     -116.88494515
  entropy T*S    EENTRO =         0.00007880
  eigenvalues    EBANDS =        17.93636574
  atomic energy  EATOM  =       130.64621481
  ---------------------------------------------------
  free energy    TOTEN  =       -11.83520717 eV

  energy without entropy =      -11.83528596  energy(sigma->0) =      -11.83523343


--------------------------------------------------------------------------------------------------------




----------------------------------------- Iteration    1(  12)  ---------------------------------------


    POTLOK:  cpu time    0.14: real time    0.14
    SETDIJ:  cpu time    0.04: real time    0.04
     EDDAV:  cpu time    0.41: real time    0.41
       DOS:  cpu time    0.00: real time    0.00
    CHARGE:  cpu time    0.08: real time    0.08
    MIXING:  cpu time    0.00: real time    0.00
    --------------------------------------------
      LOOP:  cpu time    0.67: real time    0.69

 eigenvalue-minimisations  :   360
 total energy-change (2. order) :-0.6362737E-03  (-0.1513084E-04)
 number of electron       5.0000001 magnetization       0.1586621
 augmentation part        0.3988919 magnetization       0.0395933

 Broyden mixing:
  rms(total) = 0.12151E-01    rms(broyden)= 0.12151E-01
  rms(prec ) = 0.16639E-01
  weight for this iteration     100.00

 eigenvalues of (default mixing * dielectric matrix)
  average eigenvalue GAMMA=   1.1079
  1.8949  1.8949  0.8671  0.8671  0.6338  0.7989  0.7989

 Free energy of the ion-electron system (eV)
  ---------------------------------------------------
  alpha Z        PSCENC =        30.58334069
  Ewald energy   TEWEN  =      -197.90100875
  -1/2 Hartree   DENC   =        -0.54186065
  -exchange  EXHF       =         0.00000000
  -V(xc)+E(xc)   XCENC  =       -65.97513323
  PAW double counting   =       190.75355786     -117.34009651
  entropy T*S    EENTRO =         0.00010083
  eigenvalues    EBANDS =        17.93904150
  atomic energy  EATOM  =       130.64621481
  ---------------------------------------------------
  free energy    TOTEN  =       -11.83584344 eV

  energy without entropy =      -11.83594427  energy(sigma->0) =      -11.83587705


--------------------------------------------------------------------------------------------------------




----------------------------------------- Iteration    1(  13)  ---------------------------------------


    POTLOK:  cpu time    0.14: real time    0.14
    SETDIJ:  cpu time    0.04: real time    0.04
     EDDAV:  cpu time    0.62: real time    0.62
       DOS:  cpu time    0.00: real time    0.00
    CHARGE:  cpu time    0.08: real time    0.08
    MIXING:  cpu time    0.00: real time    0.00
    --------------------------------------------
      LOOP:  cpu time    0.88: real time    0.90

 eigenvalue-minimisations  :   684
 total energy-change (2. order) :-0.1576755E-03  (-0.7583315E-04)
 number of electron       5.0000001 magnetization       0.1068169
 augmentation part        0.3979731 magnetization      -0.0076520

 Broyden mixing:
  rms(total) = 0.10958E-01    rms(broyden)= 0.10958E-01
  rms(prec ) = 0.23751E-01
  weight for this iteration     100.00

 eigenvalues of (default mixing * dielectric matrix)
  average eigenvalue GAMMA=   1.1790
  2.4419  2.0500  0.8577  0.8577  1.0078  0.7968  0.7968  0.6235

 Free energy of the ion-electron system (eV)
  ---------------------------------------------------
  alpha Z        PSCENC =        30.58334069
  Ewald energy   TEWEN  =      -197.90100875
  -1/2 Hartree   DENC   =        -0.56170674
  -exchange  EXHF       =         0.00000000
  -V(xc)+E(xc)   XCENC  =       -65.98605503
  PAW double counting   =       192.49830804     -119.10560935
  entropy T*S    EENTRO =         0.00001924
  eigenvalues    EBANDS =        17.99049596
  atomic energy  EATOM  =       130.64621481
  ---------------------------------------------------
  free energy    TOTEN  =       -11.83600112 eV

  energy without entropy =      -11.83602036  energy(sigma->0) =      -11.83600753


--------------------------------------------------------------------------------------------------------




----------------------------------------- Iteration    1(  14)  ---------------------------------------


    POTLOK:  cpu time    0.14: real time    0.14
    SETDIJ:  cpu time    0.04: real time    0.04
     EDDAV:  cpu time    0.62: real time    0.62
       DOS:  cpu time    0.00: real time    0.00
    CHARGE:  cpu time    0.08: real time    0.08
    MIXING:  cpu time    0.00: real time    0.00
    --------------------------------------------
      LOOP:  cpu time    0.88: real time    0.90

 eigenvalue-minimisations  :   684
 total energy-change (2. order) :-0.1544941E-03  (-0.4300401E-04)
 number of electron       5.0000001 magnetization       0.0983008
 augmentation part        0.3980719 magnetization       0.0016985

 Broyden mixing:
  rms(total) = 0.29347E-02    rms(broyden)= 0.29344E-02
  rms(prec ) = 0.78216E-02
  weight for this iteration     100.00

 eigenvalues of (default mixing * dielectric matrix)
  average eigenvalue GAMMA=   1.1119
  2.5907  1.6933  1.2506  0.7833  0.7833  0.8422  0.8422  0.6369  0.5851

 Free energy of the ion-electron system (eV)
  ---------------------------------------------------
  alpha Z        PSCENC =        30.58334069
  Ewald energy   TEWEN  =      -197.90100875
  -1/2 Hartree   DENC   =        -0.54067569
  -exchange  EXHF       =         0.00000000
  -V(xc)+E(xc)   XCENC  =       -65.97338196
  PAW double counting   =       193.33533644     -119.95373223
  entropy T*S    EENTRO =        -0.00012450
  eigenvalues    EBANDS =        17.96787557
  atomic energy  EATOM  =       130.64621481
  ---------------------------------------------------
  free energy    TOTEN  =       -11.83615561 eV

  energy without entropy =      -11.83603111  energy(sigma->0) =      -11.83611411


--------------------------------------------------------------------------------------------------------




----------------------------------------- Iteration    1(  15)  ---------------------------------------


    POTLOK:  cpu time    0.14: real time    0.14
    SETDIJ:  cpu time    0.04: real time    0.04
     EDDAV:  cpu time    0.39: real time    0.39
       DOS:  cpu time    0.00: real time    0.00
    --------------------------------------------
      LOOP:  cpu time    0.57: real time    0.59

 eigenvalue-minimisations  :   324
 total energy-change (2. order) :-0.6555915E-05  (-0.7300405E-05)
 number of electron       5.0000001 magnetization       0.0983008
 augmentation part        0.3980719 magnetization       0.0016985

 Free energy of the ion-electron system (eV)
  ---------------------------------------------------
  alpha Z        PSCENC =        30.58334069
  Ewald energy   TEWEN  =      -197.90100875
  -1/2 Hartree   DENC   =        -0.53823389
  -exchange  EXHF       =         0.00000000
  -V(xc)+E(xc)   XCENC  =       -65.97227073
  PAW double counting   =       193.28902853     -119.90726807
  entropy T*S    EENTRO =        -0.00010517
  eigenvalues    EBANDS =        17.96414040
  atomic energy  EATOM  =       130.64621481
  ---------------------------------------------------
  free energy    TOTEN  =       -11.83616217 eV

  energy without entropy =      -11.83605700  energy(sigma->0) =      -11.83612711


--------------------------------------------------------------------------------------------------------




 average (electrostatic) potential at core
  the test charge radii are     1.2538
  (the norm of the test charge is              1.0000)
       1 -35.0855
 
 
 
 E-fermi :   5.6839     XC(G=0): -12.3785     alpha+bet :-13.5035


 spin component 1

 k-point   1 :       0.0625    0.0625    0.0625
  band No.  band energies     occupation 
      1      -1.2524      1.00000
      2       5.8440     -0.00003
      3       5.8440     -0.00003
      4       7.5843      0.00000
      5       9.3598      0.00000
      6       9.3598      0.00000

 k-point   2 :       0.1875    0.0625    0.0625
  band No.  band energies     occupation 
      1       0.3311      1.00000
      2       4.9746      1.00000
      3       5.1960      1.00000
      4       9.1828      0.00000
      5       9.6677      0.00000
      6       9.8191      0.00000

 k-point   3 :       0.3125    0.0625    0.0625
  band No.  band energies     occupation 
      1       1.5413      1.00000
      2       4.3227      1.00000
      3       5.6268      1.03429
      4       9.6042      0.00000
      5      10.2877      0.00000
      6      12.3299      0.00000

 k-point   4 :       0.4375    0.0625    0.0625
  band No.  band energies     occupation 
      1       1.6701      1.00000
      2       4.0890      1.00000
      3       6.7984      0.00000
      4       9.6560      0.00000
      5      10.5494      0.00000
      6      13.9501      0.00000

 k-point   5 :      -0.0625    0.0625    0.0625
  band No.  band energies     occupation 
      1      -1.8833      1.00000
      2       6.3452      0.00000
      3       6.3452      0.00000
      4       6.5570      0.00000
      5       9.0698      0.00000
      6       9.8283      0.00000

 k-point   6 :       0.1875    0.1875    0.0625
  band No.  band energies     occupation 
      1       1.9558      1.00000
      2       4.3991      1.00000
      3       4.6422      1.00000
      4       9.4583      0.00000
      5      10.3252      0.00000
      6      12.3720      0.00000

 k-point   7 :       0.3125    0.1875    0.0625
  band No.  band energies     occupation 
      1       2.6665      1.00000
      2       4.1574      1.00000
      3       5.4178      1.00000
      4       9.8426      0.00000
      5      10.5481      0.00000
      6      14.9505      0.00000

 k-point   8 :      -0.1875    0.1875    0.0625
  band No.  band energies     occupation 
      1      -0.6651      1.00000
      2       5.7054      0.17160
      3       5.9462      0.00000
      4       7.8112      0.00000
      5       8.3074      0.00000
      6      10.1134      0.00000

 k-point   9 :       0.3125    0.3125    0.0625
  band No.  band energies     occupation 
      1       3.2619      1.00000
      2       4.7322      1.00000
      3       4.7322      1.00000
      4      10.3515      0.00000
      5      10.3515      0.00000
      6      13.8572      0.00000

 k-point  10 :      -0.3125    0.3125    0.0625
  band No.  band energies     occupation 
      1       0.9333      1.00000
      2       4.8811      1.00000
      3       5.4288      1.00000
      4       8.7766      0.00000
      5      10.2004      0.00000
      6      10.3673      0.00000

 k-point  11 :      -0.1875    0.3125    0.0625
  band No.  band energies     occupation 
      1       0.8168      1.00000
      2       5.0898      1.00000
      3       5.5128      1.00001
      4       7.9194      0.00000
      5       9.5032      0.00000
      6      10.5855      0.00000

 k-point  12 :      -0.4375    0.4375    0.0625
  band No.  band energies     occupation 
      1       1.4634      1.00000
      2       4.3778      1.00000
      3       6.3981      0.00000
      4       9.1836      0.00000
      5      10.8013      0.00000
      6      12.8049      0.00000

 k-point  13 :      -0.3125    0.4375    0.0625
  band No.  band energies     occupation 
      1       2.0586      1.00000
      2       4.5361      1.00000
      3       5.3481      1.00000
      4       8.5945      0.00000
      5      10.5207      0.00000
      6      12.4075      0.00000

 k-point  14 :      -0.4375   -0.4375    0.0625
  band No.  band energies     occupation 
      1       2.2053      1.00000
      2       4.5753      1.00000
      3       5.6210      1.03529
      4       8.6789      0.00000
      5      11.2133      0.00000
      6      14.3031      0.00000

 k-point  15 :      -0.3125   -0.4375    0.0625
  band No.  band energies     occupation 
      1       3.2012      1.00000
      2       4.1153      1.00000
      3       4.9623      1.00000
      4       9.3680      0.00000
      5      10.3494      0.00000
      6      15.3425      0.00000

 k-point  16 :       0.1875    0.1875    0.1875
  band No.  band energies     occupation 
      1       3.7099      1.00000
      2       4.1374      1.00000
      3       4.1374      1.00000
      4      10.4016      0.00000
      5      10.4016      0.00000
      6      15.3033      0.00000

 k-point  17 :       0.3125    0.1875    0.1875
  band No.  band energies     occupation 
      1       3.8115      1.00000
      2       4.0911      1.00000
      3       5.0590      1.00000
      4      10.4976      0.00000
      5      10.6687      0.00000
      6      13.4174      0.00000

 k-point  18 :      -0.1875    0.1875    0.1875
  band No.  band energies     occupation 
      1       0.4597      1.00000
      2       6.1943      0.00000
      3       6.4321      0.00000
      4       6.4321      0.00000
      5       7.8154      0.00000
      6      10.7651      0.00000

 k-point  19 :      -0.3125    0.3125    0.1875
  band No.  band energies     occupation 
      1       1.9586      1.00000
      2       4.6554      1.00000
      3       6.1066      0.00000
      4       7.4280      0.00000
      5       9.8445      0.00000
      6      10.7362      0.00000

 k-point  20 :      -0.4375    0.4375    0.1875
  band No.  band energies     occupation 
      1       2.4514      1.00000
      2       4.5827      1.00000
      3       5.7066      0.15727
      4       7.6061      0.00000
      5      12.1201      0.00000
      6      12.4964      0.00000

 k-point  21 :      -0.3125    0.4375    0.1875
  band No.  band energies     occupation 
      1       3.0232      1.00000
      2       3.6731      1.00000
      3       6.0852      0.00000
      4       8.2743      0.00000
      5      10.3228      0.00000
      6      12.6048      0.00000

 k-point  22 :      -0.4375   -0.4375    0.1875
  band No.  band energies     occupation 
      1       3.0868      1.00000
      2       3.8287      1.00000
      3       5.4420      1.00000
      4       8.8021      0.00000
      5      11.3824      0.00000
      6      15.3364      0.00000

 k-point  23 :      -0.3125    0.3125    0.3125
  band No.  band energies     occupation 
      1       2.8284      1.00000
      2       3.5329      1.00000
      3       7.8081      0.00000
      4       7.8081      0.00000
      5      10.0046      0.00000
      6      10.4723      0.00000

 k-point  24 :      -0.4375    0.4375    0.3125
  band No.  band energies     occupation 
      1       2.7096      1.00000
      2       2.9883      1.00000
      3       8.1471      0.00000
      4       8.2404      0.00000
      5      12.1048      0.00000
      6      12.6189      0.00000

 k-point  25 :      -0.4375   -0.4375    0.3125
  band No.  band energies     occupation 
      1       2.5435      1.00000
      2       2.5435      1.00000
      3       7.9527      0.00000
      4      11.0712      0.00000
      5      11.0712      0.00000
      6      15.6562      0.00000

 k-point  26 :      -0.4375    0.4375    0.4375
  band No.  band energies     occupation 
      1       2.0857      1.00000
      2       2.1532      1.00000
      3      10.9097      0.00000
      4      10.9097      0.00000
      5      12.0739      0.00000
      6      13.1783      0.00000

 spin component 2

 k-point   1 :       0.0625    0.0625    0.0625
  band No.  band energies     occupation 
      1      -1.1601      1.00000
      2       5.8941      0.00000
      3       5.8941      0.00000
      4       7.6285      0.00000
      5       9.4093      0.00000
      6       9.4093      0.00000

 k-point   2 :       0.1875    0.0625    0.0625
  band No.  band energies     occupation 
      1       0.4213      1.00000
      2       5.0289      1.00000
      3       5.2577      1.00000
      4       9.2293      0.00000
      5       9.7108      0.00000
      6       9.8652      0.00000

 k-point   3 :       0.3125    0.0625    0.0625
  band No.  band energies     occupation 
      1       1.6218      1.00000
      2       4.3794      1.00000
      3       5.7078      0.14277
      4       9.6470      0.00000
      5      10.3292      0.00000
      6      12.3711      0.00000

 k-point   4 :       0.4375    0.0625    0.0625
  band No.  band energies     occupation 
      1       1.7458      1.00000
      2       4.1464      1.00000
      3       6.8921      0.00000
      4       9.6987      0.00000
      5      10.5873      0.00000
      6      13.9869      0.00000

 k-point   5 :      -0.0625    0.0625    0.0625
  band No.  band energies     occupation 
      1      -1.7907      1.00000
      2       6.3916      0.00000
      3       6.3916      0.00000
      4       6.6018      0.00000
      5       9.1224      0.00000
      6       9.8752      0.00000

 k-point   6 :       0.1875    0.1875    0.0625
  band No.  band energies     occupation 
      1       2.0413      1.00000
      2       4.4644      1.00000
      3       4.7046      1.00000
      4       9.5029      0.00000
      5      10.3653      0.00000
      6      12.4172      0.00000

 k-point   7 :       0.3125    0.1875    0.0625
  band No.  band energies     occupation 
      1       2.7405      1.00000
      2       4.2212      1.00000
      3       5.4981      1.00000
      4       9.8850      0.00000
      5      10.5869      0.00000
      6      15.0013      0.00000

 k-point   8 :      -0.1875    0.1875    0.0625
  band No.  band energies     occupation 
      1      -0.5731      1.00000
      2       5.7554     -0.03066
      3       6.0018      0.00000
      4       7.8549      0.00000
      5       8.3613      0.00000
      6      10.1580      0.00000

 k-point   9 :       0.3125    0.3125    0.0625
  band No.  band energies     occupation 
      1       3.3276      1.00000
      2       4.8081      1.00000
      3       4.8081      1.00000
      4      10.3912      0.00000
      5      10.3912      0.00000
      6      13.9181      0.00000

 k-point  10 :      -0.3125    0.3125    0.0625
  band No.  band energies     occupation 
      1       1.0196      1.00000
      2       4.9348      1.00000
      3       5.5024      1.00000
      4       8.8262      0.00000
      5      10.2405      0.00000
      6      10.4090      0.00000

 k-point  11 :      -0.1875    0.3125    0.0625
  band No.  band energies     occupation 
      1       0.9067      1.00000
      2       5.1535      1.00000
      3       5.5682      1.00254
      4       7.9718      0.00000
      5       9.5465      0.00000
      6      10.6259      0.00000

 k-point  12 :      -0.4375    0.4375    0.0625
  band No.  band energies     occupation 
      1       1.5407      1.00000
      2       4.4333      1.00000
      3       6.4878      0.00000
      4       9.2320      0.00000
      5      10.8457      0.00000
      6      12.8374      0.00000

 k-point  13 :      -0.3125    0.4375    0.0625
  band No.  band energies     occupation 
      1       2.1391      1.00000
      2       4.6029      1.00000
      3       5.4172      1.00000
      4       8.6451      0.00000
      5      10.5621      0.00000
      6      12.4511      0.00000

 k-point  14 :      -0.4375   -0.4375    0.0625
  band No.  band energies     occupation 
      1       2.2805      1.00000
      2       4.6343      1.00000
      3       5.7048      0.17897
      4       8.7296      0.00000
      5      11.2589      0.00000
      6      14.3458      0.00000

 k-point  15 :      -0.3125   -0.4375    0.0625
  band No.  band energies     occupation 
      1       3.2717      1.00000
      2       4.1900      1.00000
      3       5.0356      1.00000
      4       9.4148      0.00000
      5      10.3943      0.00000
      6      15.3885      0.00000

 k-point  16 :       0.1875    0.1875    0.1875
  band No.  band energies     occupation 
      1       3.7929      1.00000
      2       4.2033      1.00000
      3       4.2033      1.00000
      4      10.4403      0.00000
      5      10.4403      0.00000
      6      15.3436      0.00000

 k-point  17 :       0.3125    0.1875    0.1875
  band No.  band energies     occupation 
      1       3.8838      1.00000
      2       4.1572      1.00000
      3       5.1357      1.00000
      4      10.5358      0.00000
      5      10.7056      0.00000
      6      13.4798      0.00000

 k-point  18 :      -0.1875    0.1875    0.1875
  band No.  band energies     occupation 
      1       0.5516      1.00000
      2       6.2609      0.00000
      3       6.4843      0.00000
      4       6.4843      0.00000
      5       7.8587      0.00000
      6      10.8044      0.00000

 k-point  19 :      -0.3125    0.3125    0.1875
  band No.  band energies     occupation 
      1       2.0464      1.00000
      2       4.7272      1.00000
      3       6.1603      0.00000
      4       7.4836      0.00000
      5       9.8858      0.00000
      6      10.7808      0.00000

 k-point  20 :      -0.4375    0.4375    0.1875
  band No.  band energies     occupation 
      1       2.5290      1.00000
      2       4.6626      1.00000
      3       5.7614     -0.02540
      4       7.6639      0.00000
      5      12.1793      0.00000
      6      12.5303      0.00000

 k-point  21 :      -0.3125    0.4375    0.1875
  band No.  band energies     occupation 
      1       3.1056      1.00000
      2       3.7470      1.00000
      3       6.1445      0.00000
      4       8.3273      0.00000
      5      10.3718      0.00000
      6      12.6524      0.00000

 k-point  22 :      -0.4375   -0.4375    0.1875
  band No.  band energies     occupation 
      1       3.1630      1.00000
      2       3.9069      1.00000
      3       5.5031      1.00000
      4       8.8552      0.00000
      5      11.4299      0.00000
      6      15.3928      0.00000

 k-point  23 :      -0.3125    0.3125    0.3125
  band No.  band energies     occupation 
      1       2.9134      1.00000
      2       3.6065      1.00000
      3       7.8633      0.00000
      4       7.8633      0.00000
      5      10.0441      0.00000
      6      10.5325      0.00000

 k-point  24 :      -0.4375    0.4375    0.3125
  band No.  band energies     occupation 
      1       2.7861      1.00000
      2       3.0662      1.00000
      3       8.2008      0.00000
      4       8.3002      0.00000
      5      12.1401      0.00000
      6      12.6897      0.00000

 k-point  25 :      -0.4375   -0.4375    0.3125
  band No.  band energies     occupation 
      1       2.6201      1.00000
      2       2.6201      1.00000
      3       8.0117      0.00000
      4      11.1208      0.00000
      5      11.1208      0.00000
      6      15.7172      0.00000

 k-point  26 :      -0.4375    0.4375    0.4375
  band No.  band energies     occupation 
      1       2.1620      1.00000
      2       2.2301      1.00000
      3      10.9604      0.00000
      4      10.9604      0.00000
      5      12.1083      0.00000
      6      13.2615      0.00000


--------------------------------------------------------------------------------------------------------


 soft charge-density along one line, spin component           1
         0         1         2         3         4         5         6         7         8         9
 total charge-density along one line
 
 soft charge-density along one line, spin component           2
         0         1         2         3         4         5         6         7         8         9
 total charge-density along one line
 
 pseudopotential strength for first ion, spin component:           1
 -6.574   0.000   0.002   0.000   0.001   0.089   0.000   0.000
  0.000  -6.572   0.000   0.003   0.000   0.000   0.089   0.000
  0.002   0.000  -6.572   0.000  -0.001   0.000   0.000   0.089
  0.000   0.003   0.000  -6.574   0.000   0.000   0.000   0.000
  0.001   0.000  -0.001   0.000  -6.571   0.000   0.000   0.000
  0.089   0.000   0.000   0.000   0.000   0.071   0.000   0.000
  0.000   0.089   0.000   0.000   0.000   0.000   0.071   0.000
  0.000   0.000   0.089   0.000   0.000   0.000   0.000   0.071
  0.000   0.000   0.000   0.089   0.000   0.000   0.000   0.000
  0.000   0.000   0.000   0.000   0.089   0.000   0.000   0.000
  0.000   0.000   0.000   0.000   0.000   0.000   0.000   0.000
  0.000   0.000   0.000   0.000   0.000   0.000   0.000   0.000
  0.000   0.000   0.000   0.000   0.000   0.000   0.000   0.000
  0.000   0.000   0.000   0.000   0.000   0.000   0.000   0.000
  0.000   0.000   0.000   0.000   0.000   0.000   0.000   0.000
  0.000   0.000   0.000   0.000   0.000   0.000   0.000   0.000
  0.000   0.000   0.000   0.000   0.000   0.000   0.000   0.000
  0.000   0.000   0.000   0.000   0.000   0.000   0.000   0.000
 pseudopotential strength for first ion, spin component:           2
 -6.576   0.000   0.002   0.000   0.001   0.089   0.000   0.000
  0.000  -6.574   0.000   0.003   0.000   0.000   0.089   0.000
  0.002   0.000  -6.573   0.000  -0.001   0.000   0.000   0.089
  0.000   0.003   0.000  -6.576   0.000   0.000   0.000   0.000
  0.001   0.000  -0.001   0.000  -6.572   0.000   0.000   0.000
  0.089   0.000   0.000   0.000   0.000   0.071   0.000   0.000
  0.000   0.089   0.000   0.000   0.000   0.000   0.071   0.000
  0.000   0.000   0.089   0.000   0.000   0.000   0.000   0.071
  0.000   0.000   0.000   0.089   0.000   0.000   0.000   0.000
  0.000   0.000   0.000   0.000   0.089   0.000   0.000   0.000
  0.000   0.000   0.000   0.000   0.000   0.000   0.000   0.000
  0.000   0.000   0.000   0.000   0.000   0.000   0.000   0.000
  0.000   0.000   0.000   0.000   0.000   0.000   0.000   0.000
  0.000   0.000   0.000   0.000   0.000   0.000   0.000   0.000
  0.000   0.000   0.000   0.000   0.000   0.000   0.000   0.000
  0.000   0.000   0.000   0.000   0.000   0.000   0.000   0.000
  0.000   0.000   0.000   0.000   0.000   0.000   0.000   0.000
  0.000   0.000   0.000   0.000   0.000   0.000   0.000   0.000
 total augmentation occupancy for first ion, spin component:           1
  0.632   0.000   0.076   0.000   0.044  -0.512   0.000  -0.018   0.000  -0.010   0.000   0.000   0.000   0.000   0.000   0.000
  0.000   0.694   0.000   0.088   0.000   0.000  -0.526   0.000  -0.020   0.000   0.000   0.000   0.000   0.000   0.000   0.000
  0.076   0.000   0.710   0.000  -0.027  -0.018   0.000  -0.530   0.000   0.006   0.000   0.000   0.000   0.000   0.000   0.000
  0.000   0.088   0.000   0.632   0.000   0.000  -0.020   0.000  -0.512   0.000   0.000   0.000   0.000   0.000   0.000   0.000
  0.044   0.000  -0.027   0.000   0.741  -0.010   0.000   0.006   0.000  -0.537   0.000   0.000   0.000   0.000   0.000   0.000
 -0.512   0.000  -0.018   0.000  -0.010   0.458   0.000  -0.016   0.000  -0.009   0.000   0.000   0.000   0.000   0.000   0.000
  0.000  -0.526   0.000  -0.020   0.000   0.000   0.445   0.000  -0.018   0.000   0.000   0.000   0.000   0.000   0.000   0.000
 -0.018   0.000  -0.530   0.000   0.006  -0.016   0.000   0.442   0.000   0.005   0.000   0.000   0.000   0.000   0.000   0.000
  0.000  -0.020   0.000  -0.512   0.000   0.000  -0.018   0.000   0.458   0.000   0.000   0.000   0.000   0.000   0.000   0.000
 -0.010   0.000   0.006   0.000  -0.537  -0.009   0.000   0.005   0.000   0.436   0.000   0.000   0.000   0.000   0.000   0.000
  0.000   0.000   0.000   0.000   0.000   0.000   0.000   0.000   0.000   0.000   1.417  -0.284   0.000   0.000   0.000   0.000
  0.000   0.000   0.000   0.000   0.000   0.000   0.000   0.000   0.000   0.000  -0.284   0.062   0.000   0.000   0.000   0.000
  0.000   0.000   0.000   0.000   0.000   0.000   0.000   0.000   0.000   0.000   0.000   0.000   0.319   0.000   0.000   0.012
  0.000   0.000   0.000   0.000   0.000   0.000   0.000   0.000   0.000   0.000   0.000   0.000   0.000   0.319   0.000   0.000
  0.000   0.000   0.000   0.000   0.000   0.000   0.000   0.000   0.000   0.000   0.000   0.000   0.000   0.000   0.319   0.000
  0.000   0.000   0.000   0.000   0.000   0.000   0.000   0.000   0.000   0.000   0.000   0.000   0.012   0.000   0.000   0.001
  0.000   0.000   0.000   0.000   0.000   0.000   0.000   0.000   0.000   0.000   0.000   0.000   0.000   0.012   0.000   0.000
  0.000   0.000   0.000   0.000   0.000   0.000   0.000   0.000   0.000   0.000   0.000   0.000   0.000   0.000   0.012   0.000
 total augmentation occupancy for first ion, spin component:           2
  0.011   0.000   0.001   0.000   0.000  -0.007   0.000   0.000   0.000   0.000   0.000   0.000   0.000   0.000   0.000   0.000
  0.000   0.011   0.000   0.001   0.000   0.000  -0.007   0.000   0.000   0.000   0.000   0.000   0.000   0.000   0.000   0.000
  0.001   0.000   0.011   0.000   0.000   0.000   0.000  -0.007   0.000   0.000   0.000   0.000   0.000   0.000   0.000   0.000
  0.000   0.001   0.000   0.011   0.000   0.000   0.000   0.000  -0.007   0.000   0.000   0.000   0.000   0.000   0.000   0.000
  0.000   0.000   0.000   0.000   0.012   0.000   0.000   0.000   0.000  -0.007   0.000   0.000   0.000   0.000   0.000   0.000
 -0.007   0.000   0.000   0.000   0.000   0.006   0.000   0.000   0.000   0.000   0.000   0.000   0.000   0.000   0.000   0.000
  0.000  -0.007   0.000   0.000   0.000   0.000   0.006   0.000   0.000   0.000   0.000   0.000   0.000   0.000   0.000   0.000
  0.000   0.000  -0.007   0.000   0.000   0.000   0.000   0.006   0.000   0.000   0.000   0.000   0.000   0.000   0.000   0.000
  0.000   0.000   0.000  -0.007   0.000   0.000   0.000   0.000   0.006   0.000   0.000   0.000   0.000   0.000   0.000   0.000
  0.000   0.000   0.000   0.000  -0.007   0.000   0.000   0.000   0.000   0.006   0.000   0.000   0.000   0.000   0.000   0.000
  0.000   0.000   0.000   0.000   0.000   0.000   0.000   0.000   0.000   0.000   0.004  -0.009   0.000   0.000   0.000   0.000
  0.000   0.000   0.000   0.000   0.000   0.000   0.000   0.000   0.000   0.000  -0.009   0.004   0.000   0.000   0.000   0.000
  0.000   0.000   0.000   0.000   0.000   0.000   0.000   0.000   0.000   0.000   0.000   0.000   0.018   0.000   0.000   0.001
  0.000   0.000   0.000   0.000   0.000   0.000   0.000   0.000   0.000   0.000   0.000   0.000   0.000   0.018   0.000   0.000
  0.000   0.000   0.000   0.000   0.000   0.000   0.000   0.000   0.000   0.000   0.000   0.000   0.000   0.000   0.018   0.000
  0.000   0.000   0.000   0.000   0.000   0.000   0.000   0.000   0.000   0.000   0.000   0.000   0.001   0.000   0.000   0.000
  0.000   0.000   0.000   0.000   0.000   0.000   0.000   0.000   0.000   0.000   0.000   0.000   0.000   0.001   0.000   0.000
  0.000   0.000   0.000   0.000   0.000   0.000   0.000   0.000   0.000   0.000   0.000   0.000   0.000   0.000   0.001   0.000


------------------------ aborting loop because EDIFF is reached ----------------------------------------


 


 total charge     
 
# of ion     s       p       d       tot
----------------------------------------
  1        0.717   0.740   3.299   4.756
 


 magnetization (x)
 
# of ion     s       p       d       tot
----------------------------------------
  1        0.005   0.039   0.049   0.093
 
    CHARGE:  cpu time    0.08: real time    0.08
    FORLOC:  cpu time    0.00: real time    0.00
    FORNL :  cpu time    0.19: real time    0.19
    STRESS:  cpu time    0.35: real time    0.35
    FORCOR:  cpu time    0.14: real time    0.14
    FORHAR:  cpu time    0.02: real time    0.02
    MIXING:  cpu time    0.00: real time    0.00

  FORCE on cell =-STRESS in cart. coord.  units (eV):
  Direction    XX          YY          ZZ          XY          YZ          ZX
  --------------------------------------------------------------------------------------
  Alpha Z    30.58334    30.58334    30.58334
  Ewald     -65.96700   -65.96700   -65.96700     0.00000     0.00000     0.00000
  Hartree     0.17722     0.17722     0.17722     0.00000     0.00000     0.00000
  E(xc)     -22.42190   -22.42190   -22.42190     0.00000     0.00000     0.00000
  Local       3.69546     3.69546     3.69546     0.00000     0.00000     0.00000
  n-local    -6.82412    -7.37145    -4.51401     1.78703    -2.11458    -1.47503
  augment     2.89983     2.89983     2.89983     0.00000     0.00000     0.00000
  Kinetic    59.41452    58.56770    54.37816    -0.32613     2.48160     1.84709
  Fock        0.00000     0.00000     0.00000     0.00000     0.00000     0.00000
  -------------------------------------------------------------------------------------
  Total       0.18389     0.18389     0.18389     0.00000     0.00000     0.00000
  in kB      16.24870    16.24870    16.24870     0.00000     0.00000     0.00000
  external pressure =       16.25 kB  Pullay stress =        0.00 kB


 VOLUME and BASIS-vectors are now :
 -----------------------------------------------------------------------------
  energy-cutoff  :      350.00
  volume of cell :       18.13
      direct lattice vectors                 reciprocal lattice vectors
     2.866544087  0.000000000  0.000000000     0.348852126  0.123337852  0.213627426
    -0.955514696  2.702603683  0.000000000     0.000000000  0.370013556  0.213627426
    -0.955514696 -1.351301841  2.340523446     0.000000000  0.000000000  0.427254853

  length of vectors
     2.866544087  2.866544087  2.866544087     0.427254853  0.427254853  0.427254853


 FORCES acting on ions
    electron-ion (+dipol)            ewald-force                    non-local-force                 convergence-correction
 -----------------------------------------------------------------------------------------------
   0.169E-14 0.645E-16 0.306E-14   -.279E-15 -.214E-15 0.640E-15   0.331E-23 -.331E-23 0.000E+00   -.466E-15 -.953E-16 0.103E-15
 -----------------------------------------------------------------------------------------------
   0.169E-14 0.645E-16 0.306E-14   -.279E-15 -.214E-15 0.640E-15   0.331E-23 -.331E-23 0.000E+00   -.466E-15 -.953E-16 0.103E-15
 
 
 POSITION                                       TOTAL-FORCE (eV/Angst)
 -----------------------------------------------------------------------------------
      0.00000      0.00000      0.00000         0.000000      0.000000      0.000000
 -----------------------------------------------------------------------------------
    total drift:                                0.000000      0.000000      0.000000


--------------------------------------------------------------------------------------------------------



  FREE ENERGIE OF THE ION-ELECTRON SYSTEM (eV)
  ---------------------------------------------------
  free  energy   TOTEN  =       -11.836162 eV

  energy  without entropy=      -11.836057  energy(sigma->0) =      -11.836127
 


--------------------------------------------------------------------------------------------------------


    POTLOK:  cpu time    0.18: real time    0.18


--------------------------------------------------------------------------------------------------------


 writing wavefunctions
     LOOP+:  cpu time   13.18: real time   14.11
    4ORBIT:  cpu time    0.00: real time    0.00
 


 total charge     
 
# of ion     s       p       d       tot
----------------------------------------
  1        0.717   0.740   3.299   4.756
 


 magnetization (x)
 
# of ion     s       p       d       tot
----------------------------------------
  1        0.005   0.039   0.049   0.093
 

 total amount of memory used by VASP on root node    38175. kBytes
========================================================================

   base      :      30000. kBytes
   nonl-proj :       1030. kBytes
   fftplans  :       1676. kBytes
   grid      :       3981. kBytes
   one-center:         31. kBytes
   wavefun   :       1457. kBytes
 
  
  
 General timing and accounting informations for this job:
 ========================================================
  
                  Total CPU time used (sec):       13.734
                            User time (sec):       13.531
                          System time (sec):        0.203
                         Elapsed time (sec):       14.807
  
                   Maximum memory used (kb):           0.
                   Average memory used (kb):           0.
  
                          Minor page faults:         8149
                          Major page faults:            0
                 Voluntary context switches:         4421
