<?xml version="1.0" encoding="ISO-8859-1"?>
<modeling>
 <generator>
  <i name="program" type="string">vasp </i>
  <i name="version" type="string">5.2.12  </i>
  <i name="subversion" type="string">11Nov11 complex                                                      parallel </i>
  <i name="platform" type="string">LinuxIFC </i>
  <i name="date" type="string">2012 10 14 </i>
  <i name="time" type="string">15:40:41 </i>
 </generator>
 <incar>
  <i type="string" name="PREC">accurate</i>
  <i name="ENCUT">    350.00000000</i>
  <i type="logical" name="LREAL"> F  </i>
  <i type="int" name="ISMEAR">     1</i>
  <i name="SIGMA">      0.05000000</i>
 </incar>
 <kpoints>
  <generation param="Monkhorst-Pack">
   <v type="int" name="divisions">       8        8        8 </v>
   <v name="usershift">      0.00000000       0.00000000       0.00000000 </v>
   <v name="genvec1">      0.12500000       0.00000000       0.00000000 </v>
   <v name="genvec2">      0.00000000       0.12500000       0.00000000 </v>
   <v name="genvec3">      0.00000000       0.00000000       0.12500000 </v>
   <v name="shift">      0.50000000       0.50000000       0.50000000 </v>
  </generation>
  <varray name="kpointlist" >
   <v>       0.06250000       0.06250000       0.06250000 </v>
   <v>       0.18750000       0.06250000       0.06250000 </v>
   <v>       0.31250000       0.06250000       0.06250000 </v>
   <v>       0.43750000       0.06250000       0.06250000 </v>
   <v>      -0.06250000       0.06250000       0.06250000 </v>
   <v>       0.18750000       0.18750000       0.06250000 </v>
   <v>       0.31250000       0.18750000       0.06250000 </v>
   <v>      -0.18750000       0.18750000       0.06250000 </v>
   <v>       0.31250000       0.31250000       0.06250000 </v>
   <v>      -0.31250000       0.31250000       0.06250000 </v>
   <v>      -0.18750000       0.31250000       0.06250000 </v>
   <v>      -0.43750000       0.43750000       0.06250000 </v>
   <v>      -0.31250000       0.43750000       0.06250000 </v>
   <v>      -0.43750000      -0.43750000       0.06250000 </v>
   <v>      -0.31250000      -0.43750000       0.06250000 </v>
   <v>       0.18750000       0.18750000       0.18750000 </v>
   <v>       0.31250000       0.18750000       0.18750000 </v>
   <v>      -0.18750000       0.18750000       0.18750000 </v>
   <v>      -0.31250000       0.31250000       0.18750000 </v>
   <v>      -0.43750000       0.43750000       0.18750000 </v>
   <v>      -0.31250000       0.43750000       0.18750000 </v>
   <v>      -0.43750000      -0.43750000       0.18750000 </v>
   <v>      -0.31250000       0.31250000       0.31250000 </v>
   <v>      -0.43750000       0.43750000       0.31250000 </v>
   <v>      -0.43750000      -0.43750000       0.31250000 </v>
   <v>      -0.43750000       0.43750000       0.43750000 </v>
  </varray>
  <varray name="weights" >
   <v>       0.01562500 </v>
   <v>       0.04687500 </v>
   <v>       0.04687500 </v>
   <v>       0.02343750 </v>
   <v>       0.01171875 </v>
   <v>       0.04687500 </v>
   <v>       0.09375000 </v>
   <v>       0.04687500 </v>
   <v>       0.01562500 </v>
   <v>       0.04687500 </v>
   <v>       0.04687500 </v>
   <v>       0.04687500 </v>
   <v>       0.09375000 </v>
   <v>       0.04687500 </v>
   <v>       0.04687500 </v>
   <v>       0.01562500 </v>
   <v>       0.02343750 </v>
   <v>       0.01171875 </v>
   <v>       0.04687500 </v>
   <v>       0.04687500 </v>
   <v>       0.04687500 </v>
   <v>       0.04687500 </v>
   <v>       0.01171875 </v>
   <v>       0.04687500 </v>
   <v>       0.01562500 </v>
   <v>       0.01171875 </v>
  </varray>
 </kpoints>
 <parameters>
  <separator name="general" >
   <i type="string" name="SYSTEM">unknown system</i>
   <i type="logical" name="LCOMPAT"> F  </i>
  </separator>
  <separator name="electronic" >
   <i type="string" name="PREC">accura</i>
   <i name="ENMAX">    350.00000000</i>
   <i name="ENAUG">    332.07500000</i>
   <i name="EDIFF">      0.00010000</i>
   <i type="int" name="IALGO">    38</i>
   <i type="int" name="IWAVPR">    10</i>
   <i type="int" name="NBANDS">     6</i>
   <i name="NELECT">      5.00000000</i>
   <i type="int" name="TURBO">     0</i>
   <i type="int" name="IRESTART">     0</i>
   <i type="int" name="NREBOOT">     0</i>
   <i type="int" name="NMIN">     0</i>
   <i name="EREF">      0.00000000</i>
   <separator name="electronic smearing" >
    <i type="int" name="ISMEAR">     1</i>
    <i name="SIGMA">      0.05000000</i>
    <i name="KSPACING">      0.50000000</i>
    <i type="logical" name="KGAMMA"> T  </i>
   </separator>
   <separator name="electronic projectors" >
    <i type="logical" name="LREAL"> F  </i>
    <v name="ROPT">      0.00000000</v>
    <i type="int" name="LMAXPAW">  -100</i>
    <i type="int" name="LMAXMIX">     2</i>
    <i type="logical" name="NLSPLINE"> F  </i>
   </separator>
   <separator name="electronic startup" >
    <i type="int" name="ISTART">     0</i>
    <i type="int" name="ICHARG">     2</i>
    <i type="int" name="INIWAV">     1</i>
   </separator>
   <separator name="electronic spin" >
    <i type="int" name="ISPIN">     1</i>
    <i type="logical" name="LNONCOLLINEAR"> F  </i>
    <v name="MAGMOM">      1.00000000</v>
    <i name="NUPDOWN">     -1.00000000</i>
    <i type="logical" name="LSORBIT"> F  </i>
    <v name="SAXIS">      0.00000000      0.00000000      1.00000000</v>
    <i type="logical" name="LSPIRAL"> F  </i>
    <v name="QSPIRAL">      0.00000000      0.00000000      0.00000000</v>
    <i type="logical" name="LZEROZ"> F  </i>
   </separator>
   <separator name="electronic exchange-correlation" >
    <i type="logical" name="LASPH"> F  </i>
    <i type="logical" name="LMETAGGA"> F  </i>
   </separator>
   <separator name="electronic convergence" >
    <i type="int" name="NELM">    60</i>
    <i type="int" name="NELMDL">    -5</i>
    <i type="int" name="NELMIN">     2</i>
    <i name="ENINI">    350.00000000</i>
    <separator name="electronic convergence detail" >
     <i type="logical" name="LDIAG"> T  </i>
     <i type="logical" name="LSUBROT"> T  </i>
     <i name="WEIMIN">      0.00000000</i>
     <i name="EBREAK">      0.00000417</i>
     <i name="DEPER">      0.30000000</i>
     <i type="int" name="NRMM">     4</i>
     <i name="TIME">      0.40000000</i>
    </separator>
   </separator>
   <separator name="electronic mixer" >
    <i name="AMIX">      0.40000000</i>
    <i name="BMIX">      1.00000000</i>
    <i name="AMIN">      0.10000000</i>
    <i name="AMIX_MAG">      1.60000000</i>
    <i name="BMIX_MAG">      1.00000000</i>
    <separator name="electronic mixer details" >
     <i type="int" name="IMIX">     4</i>
     <i type="int" name="MAXMIX">   -45</i>
     <i name="WC">    100.00000000</i>
     <i type="int" name="INIMIX">     1</i>
     <i type="int" name="MIXPRE">     1</i>
     <i type="int" name="MREMOVE">     5</i>
    </separator>
   </separator>
   <separator name="electronic dipolcorrection" >
    <i type="logical" name="LDIPOL"> F  </i>
    <i type="logical" name="LMONO"> F  </i>
    <i type="int" name="IDIPOL">     0</i>
    <i name="EPSILON">      1.00000000</i>
    <v name="DIPOL">   -100.00000000   -100.00000000   -100.00000000</v>
    <i name="EFIELD">      0.00000000</i>
   </separator>
  </separator>
  <separator name="grids" >
   <i type="int" name="NGX">    18</i>
   <i type="int" name="NGY">    18</i>
   <i type="int" name="NGZ">    18</i>
   <i type="int" name="NGXF">    36</i>
   <i type="int" name="NGYF">    36</i>
   <i type="int" name="NGZF">    36</i>
   <i type="logical" name="ADDGRID"> F  </i>
  </separator>
  <separator name="ionic" >
   <i type="int" name="NSW">     0</i>
   <i type="int" name="IBRION">    -1</i>
   <i type="int" name="ISIF">     2</i>
   <i name="PSTRESS">      0.00000000</i>
   <i name="EDIFFG">      0.00100000</i>
   <i type="int" name="NFREE">     0</i>
   <i name="POTIM">      0.50000000</i>
   <i name="SMASS">     -3.00000000</i>
   <i name="SCALEE">      1.00000000</i>
  </separator>
  <separator name="ionic md" >
   <i name="TEBEG">      0.00010000</i>
   <i name="TEEND">      0.00010000</i>
   <i type="int" name="NBLOCK">     1</i>
   <i type="int" name="KBLOCK">     1</i>
   <i type="int" name="NPACO">   256</i>
   <i name="APACO">     16.00000000</i>
  </separator>
  <separator name="symmetry" >
   <i type="int" name="ISYM">     2</i>
   <i name="SYMPREC">      0.00001000</i>
  </separator>
  <separator name="dos" >
   <i type="logical" name="LORBIT"> F  </i>
   <v name="RWIGS">     -1.00000000</v>
   <i type="int" name="NEDOS">   301</i>
   <i name="EMIN">     10.00000000</i>
   <i name="EMAX">    -10.00000000</i>
   <i name="EFERMI">      0.00000000</i>
  </separator>
  <separator name="writing" >
   <i type="int" name="NWRITE">     2</i>
   <i type="logical" name="LWAVE"> T  </i>
   <i type="logical" name="LCHARG"> T  </i>
   <i type="logical" name="LPARD"> F  </i>
   <i type="logical" name="LVTOT"> F  </i>
   <i type="logical" name="LVHAR"> F  </i>
   <i type="logical" name="LELF"> F  </i>
   <i type="logical" name="LOPTICS"> F  </i>
   <v name="STM">      0.00000000      0.00000000      0.00000000      0.00000000      0.00000000      0.00000000      0.00000000</v>
  </separator>
  <separator name="performance" >
   <i type="int" name="NPAR">     1</i>
   <i type="int" name="NSIM">     4</i>
   <i type="int" name="NBLK">    -1</i>
   <i type="logical" name="LPLANE"> T  </i>
   <i type="logical" name="LSCALAPACK"> F  </i>
   <i type="logical" name="LSCAAWARE"> F  </i>
   <i type="logical" name="LSCALU"> F  </i>
   <i type="logical" name="LASYNC"> F  </i>
   <i type="logical" name="LORBITALREAL"> F  </i>
  </separator>
  <separator name="miscellaneous" >
   <i type="int" name="IDIOT">     3</i>
   <i type="logical" name="LMUSIC"> F  </i>
   <v name="POMASS">    180.94800000</v>
   <v name="DARWINR">      0.00000000</v>
   <v name="DARWINV">      1.00000000</v>
   <i type="logical" name="LCORR"> T  </i>
  </separator>
  <i type="logical" name="GGA_COMPAT"> T  </i>
  <i type="logical" name="LBERRY"> F  </i>
  <i type="int" name="ICORELEVEL">     0</i>
  <i type="logical" name="LDAU"> F  </i>
  <i type="int" name="I_CONSTRAINED_M">     0</i>
  <separator name="electronic exchange-correlation" >
   <i type="string" name="GGA">--</i>
   <i type="int" name="VOSKOWN">     0</i>
   <i type="logical" name="LHFCALC"> F  </i>
   <i type="string" name="PRECFOCK"></i>
   <i type="logical" name="LHFONE"> F  </i>
   <i type="logical" name="LRHFCALC"> F  </i>
   <i type="logical" name="LTHOMAS"> F  </i>
   <i type="logical" name="LMODELHF"> F  </i>
   <i name="ENCUT4O">     -1.00000000</i>
   <i type="int" name="EXXOEP">     0</i>
   <i type="int" name="FOURORBIT">     0</i>
   <i name="AEXX">      0.00000000</i>
   <i name="HFALPHA">      0.00000000</i>
   <i name="ALDAX">      1.00000000</i>
   <i name="AGGAX">      1.00000000</i>
   <i name="ALDAC">      1.00000000</i>
   <i name="AGGAC">      1.00000000</i>
   <i type="int" name="NKREDX">     1</i>
   <i type="int" name="NKREDY">     1</i>
   <i type="int" name="NKREDZ">     1</i>
   <i type="logical" name="SHIFTRED"> F  </i>
   <i type="logical" name="ODDONLY"> F  </i>
   <i type="logical" name="EVENONLY"> F  </i>
   <i type="int" name="LMAXFOCK">     0</i>
   <i type="int" name="NMAXFOCKAE">     0</i>
   <i type="logical" name="LFOCKAEDFT"> F  </i>
   <i name="HFSCREEN">      0.00000000</i>
   <i name="HFSCREENC">      0.00000000</i>
  </separator>
  <separator name="vdW DFT" >
   <i type="logical" name="LUSE_VDW"> F  </i>
   <i name="Zab_VDW">     -0.84910000</i>
   <i name="PARAM1">      0.12340000</i>
   <i name="PARAM2">      1.00000000</i>
   <i name="PARAM3">      0.00000000</i>
  </separator>
  <separator name="model GW" >
   <i type="int" name="MODEL_GW">     0</i>
   <i name="MODEL_EPS0">     10.87940730</i>
   <i name="MODEL_ALPHA">      1.00000000</i>
  </separator>
  <separator name="linear response parameters" >
   <i type="logical" name="LEPSILON"> F  </i>
   <i type="logical" name="LRPA"> F  </i>
   <i type="logical" name="LNABLA"> F  </i>
   <i type="logical" name="LVEL"> F  </i>
   <i type="int" name="KINTER">     0</i>
   <i name="CSHIFT">      0.10000000</i>
   <i name="OMEGAMAX">     -1.00000000</i>
  </separator>
  <separator name="orbital magnetization" >
   <i type="logical" name="NUCIND"> F  </i>
   <v name="MAGPOS">      0.00000000      0.00000000      0.00000000</v>
   <i type="logical" name="LNICSALL"> T  </i>
   <i type="logical" name="ORBITALMAG"> F  </i>
   <i type="logical" name="LMAGBLOCH"> F  </i>
   <i type="logical" name="LCHIMAG"> F  </i>
   <i type="logical" name="LGAUGE"> T  </i>
   <i type="int" name="MAGATOM">     0</i>
   <v name="MAGDIPOL">      0.00000000      0.00000000      0.00000000</v>
   <v name="AVECCONST">      0.00000000      0.00000000      0.00000000</v>
  </separator>
  <separator name="response functions" >
   <i type="logical" name="LADDER"> F  </i>
   <i type="logical" name="LHARTREE"> T  </i>
   <i type="int" name="IBSE">     0</i>
   <i type="logical" name="LTCTE"> F  </i>
   <i type="logical" name="LTETE"> F  </i>
   <i type="logical" name="LFXCEPS"> F  </i>
   <i type="logical" name="L2ORDER"> F  </i>
   <i type="logical" name="LUSEW"> F  </i>
   <i name="ENCUTGW">     -2.00000000</i>
   <i name="ENCUTGWSOFT">     -2.00000000</i>
   <i name="ENCUTLF">     -1.00000000</i>
   <i type="int" name="LMAXMP2">    -1</i>
   <i name="SCISSOR">      0.00000000</i>
   <i type="int" name="NOMEGA">     0</i>
   <i type="int" name="NOMEGAR">     0</i>
   <i type="int" name="NBANDSGW">    -1</i>
   <i type="int" name="NBANDSO">    -1</i>
   <i type="int" name="NBANDSV">    -1</i>
   <i name="OPTEMAX">      0.00000000</i>
   <i type="int" name="NELM">     1</i>
   <i type="int" name="DIM">     3</i>
   <i type="int" name="ANTIRES">     0</i>
   <i name="OMEGAMAX">    -30.00000000</i>
   <i name="OMEGATL">   -200.00000000</i>
   <i type="int" name="OMEGAGRID">     0</i>
   <i name="CSHIFT">     -0.10000000</i>
   <i type="logical" name="SELFENERGY"> F  </i>
   <i type="logical" name="LSPECTRAL"> F  </i>
   <i type="logical" name="ODDONLYGW"> F  </i>
   <i type="logical" name="EVENONLYGW"> F  </i>
   <i type="int" name="NKREDLFX">     1</i>
   <i type="int" name="NKREDLFY">     1</i>
   <i type="int" name="NKREDLFZ">     1</i>
   <i type="int" name="MAXMEM">  1800</i>
   <i type="int" name="TELESCOPE">     0</i>
  </separator>
 </parameters>
 <atominfo>
  <atoms>       1 </atoms>
  <types>       1 </types>
  <array name="atoms" >
   <dimension dim="1">ion</dimension>
   <field type="string">element</field>
   <field type="int">atomtype</field>
   <set>
    <rc><c>Ta</c><c>   1</c></rc>
   </set>
  </array>
  <array name="atomtypes" >
   <dimension dim="1">type</dimension>
   <field type="int">atomspertype</field>
   <field type="string">element</field>
   <field>mass</field>
   <field>valence</field>
   <field type="string">pseudopotential</field>
   <set>
    <rc><c>   1</c><c>Ta</c><c>    180.94800000</c><c>      5.00000000</c><c>  PAW_PBE Ta 17Jan2003                  </c></rc>
   </set>
  </array>
 </atominfo>
 <structure name="initialpos" >
  <crystal>
   <varray name="basis" >
    <v>       2.86654409       0.00000000       0.00000000 </v>
    <v>      -0.95551470       2.70260368       0.00000000 </v>
    <v>      -0.95551470      -1.35130184       2.34052345 </v>
   </varray>
   <i name="volume">     18.13234550 </i>
   <varray name="rec_basis" >
    <v>       0.34885213       0.12333785       0.21362743 </v>
    <v>       0.00000000       0.37001356       0.21362743 </v>
    <v>       0.00000000       0.00000000       0.42725485 </v>
   </varray>
  </crystal>
  <varray name="positions" >
   <v>       0.00000000       0.00000000       0.00000000 </v>
  </varray>
 </structure>
 <calculation>
  <scstep>
   <time name="dav">    0.30    0.30</time>
   <time name="total">    0.38    0.56</time>
   <energy>
    <i name="alphaZ">     30.58334069 </i>
    <i name="ewald">   -197.90100875 </i>
    <i name="hartreedc">     -2.50452612 </i>
    <i name="XCdc">    -66.68582567 </i>
    <i name="pawpsdc">    148.27821850 </i>
    <i name="pawaedc">    -73.99089003 </i>
    <i name="eentropy">     -0.00078595 </i>
    <i name="bandstr">     28.31182726 </i>
    <i name="atom">    130.64621481 </i>
    <i name="e_fr_energy">     -3.26343526 </i>
    <i name="e_wo_entrp">     -3.26264932 </i>
    <i name="e_0_energy">     -3.26317328 </i>
   </energy>
  </scstep>
  <scstep>
   <time name="dav">    0.45    0.45</time>
   <time name="total">    0.46    0.49</time>
   <energy>
    <i name="e_fr_energy">    -12.31256861 </i>
    <i name="e_wo_entrp">    -12.31198526 </i>
    <i name="e_0_energy">    -12.31237416 </i>
   </energy>
  </scstep>
  <scstep>
   <time name="dav">    0.29    0.29</time>
   <time name="total">    0.29    0.33</time>
   <energy>
    <i name="e_fr_energy">    -12.36241790 </i>
    <i name="e_wo_entrp">    -12.36183476 </i>
    <i name="e_0_energy">    -12.36222352 </i>
   </energy>
  </scstep>
  <scstep>
   <time name="dav">    0.37    0.37</time>
   <time name="total">    0.37    0.39</time>
   <energy>
    <i name="e_fr_energy">    -12.36251500 </i>
    <i name="e_wo_entrp">    -12.36193187 </i>
    <i name="e_0_energy">    -12.36232062 </i>
   </energy>
  </scstep>
  <scstep>
   <time name="dav">    0.26    0.26</time>
   <time name="total">    0.30    0.33</time>
   <energy>
    <i name="e_fr_energy">    -12.36251514 </i>
    <i name="e_wo_entrp">    -12.36193201 </i>
    <i name="e_0_energy">    -12.36232076 </i>
   </energy>
  </scstep>
  <scstep>
   <time name="dav">    0.32    0.40</time>
   <time name="total">    0.44    0.57</time>
   <energy>
    <i name="e_fr_energy">    -12.00515139 </i>
    <i name="e_wo_entrp">    -12.00506899 </i>
    <i name="e_0_energy">    -12.00512392 </i>
   </energy>
  </scstep>
  <scstep>
   <time name="dav">    0.34    0.34</time>
   <time name="total">    0.45    0.50</time>
   <energy>
    <i name="e_fr_energy">    -11.83682496 </i>
    <i name="e_wo_entrp">    -11.83603556 </i>
    <i name="e_0_energy">    -11.83656183 </i>
   </energy>
  </scstep>
  <scstep>
   <time name="dav">    0.33    0.42</time>
   <time name="total">    0.44    0.55</time>
   <energy>
    <i name="e_fr_energy">    -11.83765862 </i>
    <i name="e_wo_entrp">    -11.83669800 </i>
    <i name="e_0_energy">    -11.83733841 </i>
   </energy>
  </scstep>
  <scstep>
   <time name="dav">    0.30    0.30</time>
   <time name="total">    0.41    0.50</time>
   <energy>
    <i name="e_fr_energy">    -11.83590306 </i>
    <i name="e_wo_entrp">    -11.83525067 </i>
    <i name="e_0_energy">    -11.83568560 </i>
   </energy>
  </scstep>
  <scstep>
   <time name="dav">    0.24    0.24</time>
   <time name="total">    0.31    0.35</time>
   <energy>
    <i name="alphaZ">     30.58334069 </i>
    <i name="ewald">   -197.90100875 </i>
    <i name="hartreedc">     -0.52241066 </i>
    <i name="XCdc">    -65.96714566 </i>
    <i name="pawpsdc">    192.67000443 </i>
    <i name="pawaedc">   -119.29832920 </i>
    <i name="eentropy">     -0.00060669 </i>
    <i name="bandstr">     17.95405518 </i>
    <i name="atom">    130.64621481 </i>
    <i name="e_fr_energy">    -11.83588584 </i>
    <i name="e_wo_entrp">    -11.83527915 </i>
    <i name="e_0_energy">    -11.83568361 </i>
   </energy>
  </scstep>
  <parameters_embedded>
   <separator name="dft+d2" >
    <i type="logical" name="LVDW"> F  </i>
   </separator>
  </parameters_embedded>
  <structure>
   <crystal>
    <varray name="basis" >
     <v>       2.86654409       0.00000000       0.00000000 </v>
     <v>      -0.95551470       2.70260368       0.00000000 </v>
     <v>      -0.95551470      -1.35130184       2.34052345 </v>
    </varray>
    <i name="volume">     18.13234550 </i>
    <varray name="rec_basis" >
     <v>       0.34885213       0.12333785       0.21362743 </v>
     <v>       0.00000000       0.37001356       0.21362743 </v>
     <v>       0.00000000       0.00000000       0.42725485 </v>
    </varray>
   </crystal>
   <varray name="positions" >
    <v>       0.00000000       0.00000000       0.00000000 </v>
   </varray>
  </structure>
  <varray name="forces" >
   <v>       0.00000000       0.00000000       0.00000000 </v>
  </varray>
  <varray name="stress" >
   <v>      20.43695587       0.00000000       0.00000000 </v>
   <v>       0.00000000      20.43695587       0.00000000 </v>
   <v>       0.00000000       0.00000000      20.43695587 </v>
  </varray>
  <energy>
   <i name="e_fr_energy">    -11.83588584 </i>
   <i name="e_wo_entrp">    -11.83568361 </i>
   <i name="e_0_energy">     -0.00060669 </i>
  </energy>
  <time name="totalsc">    4.45    6.22</time>
  <eigenvalues>
   <array>
    <dimension dim="1">band</dimension>
    <dimension dim="2">kpoint</dimension>
    <dimension dim="3">spin</dimension>
    <field>eigene</field>
    <field>occ</field>
    <set>
     <set comment="spin 1">
      <set comment="kpoint 1">
       <r>   -1.2054    1.0000 </r>
       <r>    5.8627    0.0000 </r>
       <r>    5.8627    0.0000 </r>
       <r>    7.5988    0.0000 </r>
       <r>    9.3785    0.0000 </r>
       <r>    9.3785    0.0000 </r>
      </set>
      <set comment="kpoint 2">
       <r>    0.3766    1.0000 </r>
       <r>    4.9961    1.0000 </r>
       <r>    5.2223    1.0000 </r>
       <r>    9.1994    0.0000 </r>
       <r>    9.6812    0.0000 </r>
       <r>    9.8355    0.0000 </r>
      </set>
      <set comment="kpoint 3">
       <r>    1.5804    1.0000 </r>
       <r>    4.3458    1.0000 </r>
       <r>    5.6655    0.6626 </r>
       <r>    9.6182    0.0000 </r>
       <r>   10.3010    0.0000 </r>
       <r>   12.3416    0.0000 </r>
      </set>
      <set comment="kpoint 4">
       <r>    1.7061    1.0000 </r>
       <r>    4.1125    1.0000 </r>
       <r>    6.8449    0.0000 </r>
       <r>    9.6702    0.0000 </r>
       <r>   10.5603    0.0000 </r>
       <r>   13.9585    0.0000 </r>
      </set>
      <set comment="kpoint 5">
       <r>   -1.8360    1.0000 </r>
       <r>    6.3614    0.0000 </r>
       <r>    6.3614    0.0000 </r>
       <r>    6.5721    0.0000 </r>
       <r>    9.0906    0.0000 </r>
       <r>    9.8454    0.0000 </r>
      </set>
      <set comment="kpoint 6">
       <r>    1.9981    1.0000 </r>
       <r>    4.4278    1.0000 </r>
       <r>    4.6689    1.0000 </r>
       <r>    9.4736    0.0000 </r>
       <r>   10.3376    0.0000 </r>
       <r>   12.3864    0.0000 </r>
      </set>
      <set comment="kpoint 7">
       <r>    2.7012    1.0000 </r>
       <r>    4.1851    1.0000 </r>
       <r>    5.4559    1.0000 </r>
       <r>    9.8564    0.0000 </r>
       <r>   10.5596    0.0000 </r>
       <r>   14.9683    0.0000 </r>
      </set>
      <set comment="kpoint 8">
       <r>   -0.6184    1.0000 </r>
       <r>    5.7240   -0.0222 </r>
       <r>    5.9685    0.0000 </r>
       <r>    7.8254    0.0000 </r>
       <r>    8.3290    0.0000 </r>
       <r>   10.1289    0.0000 </r>
      </set>
      <set comment="kpoint 9">
       <r>    3.2910    1.0000 </r>
       <r>    4.7676    1.0000 </r>
       <r>    4.7676    1.0000 </r>
       <r>   10.3634    0.0000 </r>
       <r>   10.3634    0.0000 </r>
       <r>   13.8841    0.0000 </r>
      </set>
      <set comment="kpoint 10">
       <r>    0.9763    1.0000 </r>
       <r>    4.9022    1.0000 </r>
       <r>    5.4629    1.0000 </r>
       <r>    8.7950    0.0000 </r>
       <r>   10.2118    0.0000 </r>
       <r>   10.3808    0.0000 </r>
      </set>
      <set comment="kpoint 11">
       <r>    0.8620    1.0000 </r>
       <r>    5.1176    1.0000 </r>
       <r>    5.5349    1.0003 </r>
       <r>    7.9398    0.0000 </r>
       <r>    9.5169    0.0000 </r>
       <r>   10.5982    0.0000 </r>
      </set>
      <set comment="kpoint 12">
       <r>    1.5005    1.0000 </r>
       <r>    4.4001    1.0000 </r>
       <r>    6.4424    0.0000 </r>
       <r>    9.2014    0.0000 </r>
       <r>   10.8163    0.0000 </r>
       <r>   12.8107    0.0000 </r>
      </set>
      <set comment="kpoint 13">
       <r>    2.0976    1.0000 </r>
       <r>    4.5659    1.0000 </r>
       <r>    5.3791    1.0000 </r>
       <r>    8.6135    0.0000 </r>
       <r>   10.5338    0.0000 </r>
       <r>   12.4210    0.0000 </r>
      </set>
      <set comment="kpoint 14">
       <r>    2.2409    1.0000 </r>
       <r>    4.5999    1.0000 </r>
       <r>    5.6616    0.7229 </r>
       <r>    8.6982    0.0000 </r>
       <r>   11.2287    0.0000 </r>
       <r>   14.3155    0.0000 </r>
      </set>
      <set comment="kpoint 15">
       <r>    3.2336    1.0000 </r>
       <r>    4.1503    1.0000 </r>
       <r>    4.9961    1.0000 </r>
       <r>    9.3843    0.0000 </r>
       <r>   10.3646    0.0000 </r>
       <r>   15.3582    0.0000 </r>
      </set>
      <set comment="kpoint 16">
       <r>    3.7502    1.0000 </r>
       <r>    4.1664    1.0000 </r>
       <r>    4.1664    1.0000 </r>
       <r>   10.4130    0.0000 </r>
       <r>   10.4130    0.0000 </r>
       <r>   15.3123    0.0000 </r>
      </set>
      <set comment="kpoint 17">
       <r>    3.8447    1.0000 </r>
       <r>    4.1202    1.0000 </r>
       <r>    5.0947    1.0000 </r>
       <r>   10.5087    0.0000 </r>
       <r>   10.6789    0.0000 </r>
       <r>   13.4455    0.0000 </r>
      </set>
      <set comment="kpoint 18">
       <r>    0.5063    1.0000 </r>
       <r>    6.2244    0.0000 </r>
       <r>    6.4520    0.0000 </r>
       <r>    6.4520    0.0000 </r>
       <r>    7.8293    0.0000 </r>
       <r>   10.7770    0.0000 </r>
      </set>
      <set comment="kpoint 19">
       <r>    2.0023    1.0000 </r>
       <r>    4.6888    1.0000 </r>
       <r>    6.1275    0.0000 </r>
       <r>    7.4502    0.0000 </r>
       <r>    9.8567    0.0000 </r>
       <r>   10.7516    0.0000 </r>
      </set>
      <set comment="kpoint 20">
       <r>    2.4886    1.0000 </r>
       <r>    4.6211    1.0000 </r>
       <r>    5.7283   -0.0302 </r>
       <r>    7.6301    0.0000 </r>
       <r>   12.1445    0.0000 </r>
       <r>   12.5032    0.0000 </r>
      </set>
      <set comment="kpoint 21">
       <r>    3.0634    1.0000 </r>
       <r>    3.7079    1.0000 </r>
       <r>    6.1098    0.0000 </r>
       <r>    8.2945    0.0000 </r>
       <r>   10.3407    0.0000 </r>
       <r>   12.6211    0.0000 </r>
      </set>
      <set comment="kpoint 22">
       <r>    3.1231    1.0000 </r>
       <r>    3.8661    1.0000 </r>
       <r>    5.4680    1.0000 </r>
       <r>    8.8225    0.0000 </r>
       <r>   11.3986    0.0000 </r>
       <r>   15.3580    0.0000 </r>
      </set>
      <set comment="kpoint 23">
       <r>    2.8702    1.0000 </r>
       <r>    3.5677    1.0000 </r>
       <r>    7.8297    0.0000 </r>
       <r>    7.8297    0.0000 </r>
       <r>   10.0157    0.0000 </r>
       <r>   10.4981    0.0000 </r>
      </set>
      <set comment="kpoint 24">
       <r>    2.7462    1.0000 </r>
       <r>    3.0257    1.0000 </r>
       <r>    8.1677    0.0000 </r>
       <r>    8.2653    0.0000 </r>
       <r>   12.1127    0.0000 </r>
       <r>   12.6509    0.0000 </r>
      </set>
      <set comment="kpoint 25">
       <r>    2.5802    1.0000 </r>
       <r>    2.5802    1.0000 </r>
       <r>    7.9769    0.0000 </r>
       <r>   11.0887    0.0000 </r>
       <r>   11.0887    0.0000 </r>
       <r>   15.6819    0.0000 </r>
      </set>
      <set comment="kpoint 26">
       <r>    2.1223    1.0000 </r>
       <r>    2.1901    1.0000 </r>
       <r>   10.9279    0.0000 </r>
       <r>   10.9279    0.0000 </r>
       <r>   12.0811    0.0000 </r>
       <r>   13.2184    0.0000 </r>
      </set>
     </set>
    </set>
   </array>
  </eigenvalues>
  <separator name="orbital magnetization" >
   <v name="MAGDIPOLOUT">      0.00000000      0.00000000      0.00000000</v>
  </separator>
  <dos>
   <i name="efermi">      5.67530287 </i>
   <total>
    <array>
     <dimension dim="1">gridpoints</dimension>
     <dimension dim="2">spin</dimension>
     <field>energy</field>
     <field>total</field>
     <field>integrated</field>
     <set>
      <set comment="spin 1">
       <r>    -2.7119     0.0000     0.0000 </r>
       <r>    -2.6477     0.0000     0.0000 </r>
       <r>    -2.5835     0.0000     0.0000 </r>
       <r>    -2.5192     0.0000     0.0000 </r>
       <r>    -2.4550     0.0000     0.0000 </r>
       <r>    -2.3908     0.0000     0.0000 </r>
       <r>    -2.3265     0.0000     0.0000 </r>
       <r>    -2.2623     0.0000     0.0000 </r>
       <r>    -2.1981     0.0000     0.0000 </r>
       <r>    -2.1338     0.0000     0.0000 </r>
       <r>    -2.0696     0.0000     0.0000 </r>
       <r>    -2.0054     0.0000     0.0000 </r>
       <r>    -1.9411    -0.0021    -0.0001 </r>
       <r>    -1.8769     0.0041     0.0001 </r>
       <r>    -1.8127     0.3087     0.0200 </r>
       <r>    -1.7484     0.0601     0.0238 </r>
       <r>    -1.6842    -0.0059     0.0234 </r>
       <r>    -1.6200     0.0000     0.0234 </r>
       <r>    -1.5558     0.0000     0.0234 </r>
       <r>    -1.4915     0.0000     0.0234 </r>
       <r>    -1.4273     0.0000     0.0234 </r>
       <r>    -1.3631     0.0000     0.0234 </r>
       <r>    -1.2988    -0.0058     0.0231 </r>
       <r>    -1.2346     0.0482     0.0262 </r>
       <r>    -1.1704     0.4247     0.0534 </r>
       <r>    -1.1061     0.0236     0.0549 </r>
       <r>    -1.0419    -0.0041     0.0547 </r>
       <r>    -0.9777     0.0000     0.0547 </r>
       <r>    -0.9134     0.0000     0.0547 </r>
       <r>    -0.8492     0.0000     0.0547 </r>
       <r>    -0.7850     0.0000     0.0547 </r>
       <r>    -0.7207    -0.0100     0.0540 </r>
       <r>    -0.6565     0.0394     0.0566 </r>
       <r>    -0.5923     1.2579     0.1374 </r>
       <r>    -0.5280     0.1929     0.1498 </r>
       <r>    -0.4638    -0.0206     0.1484 </r>
       <r>    -0.3996    -0.0001     0.1484 </r>
       <r>    -0.3353     0.0000     0.1484 </r>
       <r>    -0.2711     0.0000     0.1484 </r>
       <r>    -0.2069     0.0000     0.1484 </r>
       <r>    -0.1426     0.0000     0.1484 </r>
       <r>    -0.0784     0.0000     0.1484 </r>
       <r>    -0.0142     0.0000     0.1484 </r>
       <r>     0.0501     0.0000     0.1484 </r>
       <r>     0.1143     0.0000     0.1484 </r>
       <r>     0.1785     0.0000     0.1484 </r>
       <r>     0.2428    -0.0007     0.1484 </r>
       <r>     0.3070    -0.0460     0.1454 </r>
       <r>     0.3712     0.6442     0.1868 </r>
       <r>     0.4355     0.9020     0.2447 </r>
       <r>     0.4997     0.1044     0.2515 </r>
       <r>     0.5639     0.2333     0.2664 </r>
       <r>     0.6281    -0.0121     0.2657 </r>
       <r>     0.6924    -0.0006     0.2656 </r>
       <r>     0.7566    -0.0081     0.2651 </r>
       <r>     0.8208     0.0141     0.2660 </r>
       <r>     0.8851     1.2119     0.3439 </r>
       <r>     0.9493     0.4252     0.3712 </r>
       <r>     1.0135     1.2393     0.4508 </r>
       <r>     1.0778     0.0473     0.4538 </r>
       <r>     1.1420    -0.0106     0.4531 </r>
       <r>     1.2062     0.0000     0.4531 </r>
       <r>     1.2705     0.0000     0.4531 </r>
       <r>     1.3347     0.0000     0.4531 </r>
       <r>     1.3989    -0.0105     0.4524 </r>
       <r>     1.4632     0.0438     0.4553 </r>
       <r>     1.5274     1.2222     0.5338 </r>
       <r>     1.5916     1.2208     0.6122 </r>
       <r>     1.6559     0.4639     0.6420 </r>
       <r>     1.7201     0.5094     0.6747 </r>
       <r>     1.7843     0.2174     0.6887 </r>
       <r>     1.8486    -0.0181     0.6875 </r>
       <r>     1.9128    -0.0482     0.6844 </r>
       <r>     1.9770     0.4852     0.7156 </r>
       <r>     2.0413     2.3592     0.8671 </r>
       <r>     2.1055     2.0595     0.9994 </r>
       <r>     2.1697     1.4646     1.0935 </r>
       <r>     2.2340     0.8119     1.1456 </r>
       <r>     2.2982     0.9471     1.2065 </r>
       <r>     2.3624    -0.0511     1.2032 </r>
       <r>     2.4267    -0.0526     1.1998 </r>
       <r>     2.4909     0.8228     1.2527 </r>
       <r>     2.5551     0.8636     1.3081 </r>
       <r>     2.6194     0.7213     1.3545 </r>
       <r>     2.6836     0.6766     1.3979 </r>
       <r>     2.7478     3.1355     1.5993 </r>
       <r>     2.8121     0.6914     1.6437 </r>
       <r>     2.8763     0.1721     1.6548 </r>
       <r>     2.9405     0.1272     1.6630 </r>
       <r>     3.0047     0.2218     1.6772 </r>
       <r>     3.0690     2.0833     1.8110 </r>
       <r>     3.1332     1.6478     1.9169 </r>
       <r>     3.1974     0.5260     1.9506 </r>
       <r>     3.2617     1.2754     2.0326 </r>
       <r>     3.3259     0.5864     2.0702 </r>
       <r>     3.3901     0.0054     2.0706 </r>
       <r>     3.4544    -0.0053     2.0702 </r>
       <r>     3.5186    -0.0073     2.0698 </r>
       <r>     3.5828     0.2783     2.0876 </r>
       <r>     3.6471     0.0487     2.0908 </r>
       <r>     3.7113     0.8671     2.1465 </r>
       <r>     3.7755     1.0685     2.2151 </r>
       <r>     3.8398     0.5374     2.2496 </r>
       <r>     3.9040     1.7028     2.3590 </r>
       <r>     3.9682     0.0169     2.3601 </r>
       <r>     4.0325    -0.0434     2.3573 </r>
       <r>     4.0967     0.1972     2.3700 </r>
       <r>     4.1609     3.0965     2.5688 </r>
       <r>     4.2252     3.6013     2.8002 </r>
       <r>     4.2894    -0.0874     2.7946 </r>
       <r>     4.3536     0.8928     2.8519 </r>
       <r>     4.4179     2.2751     2.9980 </r>
       <r>     4.4821     1.2641     3.0792 </r>
       <r>     4.5463     0.4658     3.1092 </r>
       <r>     4.6106     3.8404     3.3558 </r>
       <r>     4.6748     2.8733     3.5404 </r>
       <r>     4.7390     1.7379     3.6520 </r>
       <r>     4.8033     0.7530     3.7004 </r>
       <r>     4.8675     0.1093     3.7074 </r>
       <r>     4.9317     1.1676     3.7824 </r>
       <r>     4.9960     1.6849     3.8906 </r>
       <r>     5.0602     1.5428     3.9897 </r>
       <r>     5.1244     1.4707     4.0842 </r>
       <r>     5.1887     0.7616     4.1331 </r>
       <r>     5.2529     1.2214     4.2116 </r>
       <r>     5.3171     0.0230     4.2131 </r>
       <r>     5.3813     1.5183     4.3106 </r>
       <r>     5.4456     3.0880     4.5089 </r>
       <r>     5.5098     4.5448     4.8009 </r>
       <r>     5.5740     1.1088     4.8721 </r>
       <r>     5.6383     0.3809     4.8965 </r>
       <r>     5.7025     2.9639     5.0869 </r>
       <r>     5.7667     2.5254     5.2491 </r>
       <r>     5.8310     0.0936     5.2551 </r>
       <r>     5.8952     0.7935     5.3061 </r>
       <r>     5.9594     0.6186     5.3459 </r>
       <r>     6.0237     0.9535     5.4071 </r>
       <r>     6.0879     0.2488     5.4231 </r>
       <r>     6.1521     2.4521     5.5806 </r>
       <r>     6.2164     0.3681     5.6042 </r>
       <r>     6.2806     0.1978     5.6169 </r>
       <r>     6.3448     0.1596     5.6272 </r>
       <r>     6.4091     0.6626     5.6697 </r>
       <r>     6.4733     1.8693     5.7898 </r>
       <r>     6.5375     0.2761     5.8076 </r>
       <r>     6.6018     0.2900     5.8262 </r>
       <r>     6.6660     0.0345     5.8284 </r>
       <r>     6.7302    -0.0062     5.8280 </r>
       <r>     6.7945    -0.0170     5.8269 </r>
       <r>     6.8587     0.5471     5.8620 </r>
       <r>     6.9229     0.2199     5.8762 </r>
       <r>     6.9872    -0.0180     5.8750 </r>
       <r>     7.0514    -0.0002     5.8750 </r>
       <r>     7.1156     0.0000     5.8750 </r>
       <r>     7.1799     0.0000     5.8750 </r>
       <r>     7.2441     0.0000     5.8750 </r>
       <r>     7.3083    -0.0003     5.8750 </r>
       <r>     7.3726    -0.0366     5.8726 </r>
       <r>     7.4368     0.4490     5.9015 </r>
       <r>     7.5010     1.0809     5.9709 </r>
       <r>     7.5653    -0.0558     5.9673 </r>
       <r>     7.6295     1.1875     6.0436 </r>
       <r>     7.6937     0.8361     6.0973 </r>
       <r>     7.7579    -0.1361     6.0886 </r>
       <r>     7.8222     1.1389     6.1617 </r>
       <r>     7.8864     1.5335     6.2602 </r>
       <r>     7.9506     1.0137     6.3253 </r>
       <r>     8.0149     0.9248     6.3847 </r>
       <r>     8.0791    -0.0487     6.3816 </r>
       <r>     8.1433     0.2169     6.3955 </r>
       <r>     8.2076     1.1687     6.4706 </r>
       <r>     8.2718     1.1689     6.5457 </r>
       <r>     8.3360     2.7866     6.7247 </r>
       <r>     8.4003     0.5694     6.7613 </r>
       <r>     8.4645    -0.0532     6.7578 </r>
       <r>     8.5287    -0.0551     6.7543 </r>
       <r>     8.5930     0.5804     6.7916 </r>
       <r>     8.6572     2.4194     6.9470 </r>
       <r>     8.7214     1.1747     7.0224 </r>
       <r>     8.7857     0.8264     7.0755 </r>
       <r>     8.8499     2.2460     7.2198 </r>
       <r>     8.9141     0.1277     7.2280 </r>
       <r>     8.9784    -0.0233     7.2265 </r>
       <r>     9.0426    -0.0064     7.2261 </r>
       <r>     9.1068     0.2499     7.2421 </r>
       <r>     9.1711     0.3827     7.2667 </r>
       <r>     9.2353     2.5390     7.4298 </r>
       <r>     9.2995     0.0939     7.4358 </r>
       <r>     9.3638     0.5409     7.4706 </r>
       <r>     9.4280     1.9087     7.5932 </r>
       <r>     9.4922     1.3694     7.6811 </r>
       <r>     9.5565     1.5150     7.7784 </r>
       <r>     9.6207     0.7736     7.8281 </r>
       <r>     9.6849     2.1386     7.9655 </r>
       <r>     9.7492     0.7970     8.0167 </r>
       <r>     9.8134     0.2259     8.0312 </r>
       <r>     9.8776     5.1689     8.3632 </r>
       <r>     9.9418     0.8722     8.4192 </r>
       <r>    10.0061     0.0422     8.4220 </r>
       <r>    10.0703     0.2024     8.4350 </r>
       <r>    10.1345     0.8722     8.4910 </r>
       <r>    10.1988     1.0831     8.5605 </r>
       <r>    10.2630     0.9755     8.6232 </r>
       <r>    10.3272     2.2151     8.7655 </r>
       <r>    10.3915     5.6225     9.1266 </r>
       <r>    10.4557     1.3987     9.2165 </r>
       <r>    10.5199     1.6509     9.3225 </r>
       <r>    10.5842     6.0435     9.7107 </r>
       <r>    10.6484     1.6106     9.8142 </r>
       <r>    10.7126     0.5510     9.8495 </r>
       <r>    10.7769     1.5118     9.9467 </r>
       <r>    10.8411     1.6322    10.0515 </r>
       <r>    10.9053     0.3092    10.0714 </r>
       <r>    10.9696     0.5888    10.1092 </r>
       <r>    11.0338    -0.0246    10.1076 </r>
       <r>    11.0980     0.6637    10.1502 </r>
       <r>    11.1623     0.3156    10.1705 </r>
       <r>    11.2265     0.6973    10.2153 </r>
       <r>    11.2907     0.8287    10.2685 </r>
       <r>    11.3550    -0.0527    10.2651 </r>
       <r>    11.4192     1.2016    10.3423 </r>
       <r>    11.4834     0.2931    10.3611 </r>
       <r>    11.5477    -0.0271    10.3594 </r>
       <r>    11.6119    -0.0002    10.3594 </r>
       <r>    11.6761     0.0000    10.3594 </r>
       <r>    11.7404     0.0000    10.3594 </r>
       <r>    11.8046     0.0000    10.3594 </r>
       <r>    11.8688     0.0000    10.3594 </r>
       <r>    11.9331     0.0000    10.3594 </r>
       <r>    11.9973    -0.0111    10.3587 </r>
       <r>    12.0615     0.0127    10.3595 </r>
       <r>    12.1258     1.7088    10.4692 </r>
       <r>    12.1900     1.6314    10.5740 </r>
       <r>    12.2542    -0.0765    10.5691 </r>
       <r>    12.3184     0.1706    10.5801 </r>
       <r>    12.3827     1.9932    10.7081 </r>
       <r>    12.4469     3.3547    10.9236 </r>
       <r>    12.5111     1.2980    11.0070 </r>
       <r>    12.5754     0.4840    11.0380 </r>
       <r>    12.6396     1.6289    11.1427 </r>
       <r>    12.7038     1.3729    11.2309 </r>
       <r>    12.7681    -0.0665    11.2266 </r>
       <r>    12.8323     1.2125    11.3045 </r>
       <r>    12.8965     0.2727    11.3220 </r>
       <r>    12.9608    -0.0258    11.3203 </r>
       <r>    13.0250    -0.0001    11.3203 </r>
       <r>    13.0892    -0.0003    11.3203 </r>
       <r>    13.1535    -0.0124    11.3195 </r>
       <r>    13.2177     0.1906    11.3317 </r>
       <r>    13.2819     0.1997    11.3446 </r>
       <r>    13.3462    -0.0186    11.3434 </r>
       <r>    13.4104     0.0343    11.3456 </r>
       <r>    13.4746     0.6368    11.3865 </r>
       <r>    13.5389     0.0732    11.3912 </r>
       <r>    13.6031    -0.0087    11.3906 </r>
       <r>    13.6673     0.0000    11.3906 </r>
       <r>    13.7316     0.0000    11.3906 </r>
       <r>    13.7958    -0.0076    11.3901 </r>
       <r>    13.8600     0.0692    11.3946 </r>
       <r>    13.9243     0.4534    11.4237 </r>
       <r>    13.9885     0.6455    11.4652 </r>
       <r>    14.0527     0.0642    11.4693 </r>
       <r>    14.1170    -0.0083    11.4688 </r>
       <r>    14.1812    -0.0007    11.4687 </r>
       <r>    14.2454    -0.0456    11.4658 </r>
       <r>    14.3097     0.6331    11.5064 </r>
       <r>    14.3739     0.9237    11.5658 </r>
       <r>    14.4381    -0.0489    11.5626 </r>
       <r>    14.5024    -0.0021    11.5625 </r>
       <r>    14.5666     0.0000    11.5625 </r>
       <r>    14.6308     0.0000    11.5625 </r>
       <r>    14.6950     0.0000    11.5625 </r>
       <r>    14.7593     0.0000    11.5625 </r>
       <r>    14.8235    -0.0005    11.5625 </r>
       <r>    14.8877    -0.0654    11.5583 </r>
       <r>    14.9520     0.7659    11.6075 </r>
       <r>    15.0162     2.2784    11.7538 </r>
       <r>    15.0804    -0.0494    11.7506 </r>
       <r>    15.1447    -0.0098    11.7500 </r>
       <r>    15.2089    -0.0034    11.7498 </r>
       <r>    15.2731    -0.0440    11.7470 </r>
       <r>    15.3374     0.9982    11.8111 </r>
       <r>    15.4016     2.4795    11.9703 </r>
       <r>    15.4658    -0.0109    11.9696 </r>
       <r>    15.5301    -0.0137    11.9687 </r>
       <r>    15.5943    -0.0079    11.9682 </r>
       <r>    15.6585     0.0802    11.9734 </r>
       <r>    15.7228     0.4115    11.9998 </r>
       <r>    15.7870     0.0055    12.0002 </r>
       <r>    15.8512    -0.0028    12.0000 </r>
       <r>    15.9155     0.0000    12.0000 </r>
       <r>    15.9797     0.0000    12.0000 </r>
       <r>    16.0439     0.0000    12.0000 </r>
       <r>    16.1082     0.0000    12.0000 </r>
       <r>    16.1724     0.0000    12.0000 </r>
       <r>    16.2366     0.0000    12.0000 </r>
       <r>    16.3009     0.0000    12.0000 </r>
       <r>    16.3651     0.0000    12.0000 </r>
       <r>    16.4293     0.0000    12.0000 </r>
       <r>    16.4936     0.0000    12.0000 </r>
       <r>    16.5578     0.0000    12.0000 </r>
      </set>
     </set>
    </array>
   </total>
  </dos>
 </calculation>
 <structure name="finalpos" >
  <crystal>
   <varray name="basis" >
    <v>       2.86654409       0.00000000       0.00000000 </v>
    <v>      -0.95551470       2.70260368       0.00000000 </v>
    <v>      -0.95551470      -1.35130184       2.34052345 </v>
   </varray>
   <i name="volume">     18.13234550 </i>
   <varray name="rec_basis" >
    <v>       0.34885213       0.12333785       0.21362743 </v>
    <v>       0.00000000       0.37001356       0.21362743 </v>
    <v>       0.00000000       0.00000000       0.42725485 </v>
   </varray>
  </crystal>
  <varray name="positions" >
   <v>       0.00000000       0.00000000       0.00000000 </v>
  </varray>
 </structure>
</modeling>
