<?xml version="1.0" encoding="ISO-8859-1"?>
<modeling>
 <generator>
  <i name="program" type="string">vasp </i>
  <i name="version" type="string">5.2.12  </i>
  <i name="subversion" type="string">11Nov11 complex                                                      parallel </i>
  <i name="platform" type="string">LinuxIFC </i>
  <i name="date" type="string">2012 10 17 </i>
  <i name="time" type="string">10:14:54 </i>
 </generator>
 <incar>
  <i type="int" name="ISTART">     0</i>
  <i type="string" name="PREC">accurate</i>
  <i type="int" name="ISPIN">     2</i>
  <i name="ENCUT">    350.00000000</i>
  <i type="int" name="NBANDS">     6</i>
  <v name="MAGMOM">      6.00000000</v>
  <i type="logical" name="LREAL"> F  </i>
  <i type="int" name="ISMEAR">     1</i>
  <i name="SIGMA">      0.05000000</i>
  <i type="logical" name="LORBIT"> F  </i>
 </incar>
 <kpoints>
  <generation param="Monkhorst-Pack">
   <v type="int" name="divisions">       8        8        8 </v>
   <v name="usershift">      0.00000000       0.00000000       0.00000000 </v>
   <v name="genvec1">      0.12500000       0.00000000       0.00000000 </v>
   <v name="genvec2">      0.00000000       0.12500000       0.00000000 </v>
   <v name="genvec3">      0.00000000       0.00000000       0.12500000 </v>
   <v name="shift">      0.50000000       0.50000000       0.50000000 </v>
  </generation>
  <varray name="kpointlist" >
   <v>       0.06250000       0.06250000       0.06250000 </v>
   <v>       0.18750000       0.06250000       0.06250000 </v>
   <v>       0.31250000       0.06250000       0.06250000 </v>
   <v>       0.43750000       0.06250000       0.06250000 </v>
   <v>      -0.06250000       0.06250000       0.06250000 </v>
   <v>       0.18750000       0.18750000       0.06250000 </v>
   <v>       0.31250000       0.18750000       0.06250000 </v>
   <v>      -0.18750000       0.18750000       0.06250000 </v>
   <v>       0.31250000       0.31250000       0.06250000 </v>
   <v>      -0.31250000       0.31250000       0.06250000 </v>
   <v>      -0.18750000       0.31250000       0.06250000 </v>
   <v>      -0.43750000       0.43750000       0.06250000 </v>
   <v>      -0.31250000       0.43750000       0.06250000 </v>
   <v>      -0.43750000      -0.43750000       0.06250000 </v>
   <v>      -0.31250000      -0.43750000       0.06250000 </v>
   <v>       0.18750000       0.18750000       0.18750000 </v>
   <v>       0.31250000       0.18750000       0.18750000 </v>
   <v>      -0.18750000       0.18750000       0.18750000 </v>
   <v>      -0.31250000       0.31250000       0.18750000 </v>
   <v>      -0.43750000       0.43750000       0.18750000 </v>
   <v>      -0.31250000       0.43750000       0.18750000 </v>
   <v>      -0.43750000      -0.43750000       0.18750000 </v>
   <v>      -0.31250000       0.31250000       0.31250000 </v>
   <v>      -0.43750000       0.43750000       0.31250000 </v>
   <v>      -0.43750000      -0.43750000       0.31250000 </v>
   <v>      -0.43750000       0.43750000       0.43750000 </v>
  </varray>
  <varray name="weights" >
   <v>       0.01562500 </v>
   <v>       0.04687500 </v>
   <v>       0.04687500 </v>
   <v>       0.02343750 </v>
   <v>       0.01171875 </v>
   <v>       0.04687500 </v>
   <v>       0.09375000 </v>
   <v>       0.04687500 </v>
   <v>       0.01562500 </v>
   <v>       0.04687500 </v>
   <v>       0.04687500 </v>
   <v>       0.04687500 </v>
   <v>       0.09375000 </v>
   <v>       0.04687500 </v>
   <v>       0.04687500 </v>
   <v>       0.01562500 </v>
   <v>       0.02343750 </v>
   <v>       0.01171875 </v>
   <v>       0.04687500 </v>
   <v>       0.04687500 </v>
   <v>       0.04687500 </v>
   <v>       0.04687500 </v>
   <v>       0.01171875 </v>
   <v>       0.04687500 </v>
   <v>       0.01562500 </v>
   <v>       0.01171875 </v>
  </varray>
 </kpoints>
 <parameters>
  <separator name="general" >
   <i type="string" name="SYSTEM">unknown system</i>
   <i type="logical" name="LCOMPAT"> F  </i>
  </separator>
  <separator name="electronic" >
   <i type="string" name="PREC">accura</i>
   <i name="ENMAX">    350.00000000</i>
   <i name="ENAUG">    332.07500000</i>
   <i name="EDIFF">      0.00010000</i>
   <i type="int" name="IALGO">    38</i>
   <i type="int" name="IWAVPR">    10</i>
   <i type="int" name="NBANDS">     6</i>
   <i name="NELECT">      5.00000000</i>
   <i type="int" name="TURBO">     0</i>
   <i type="int" name="IRESTART">     0</i>
   <i type="int" name="NREBOOT">     0</i>
   <i type="int" name="NMIN">     0</i>
   <i name="EREF">      0.00000000</i>
   <separator name="electronic smearing" >
    <i type="int" name="ISMEAR">     1</i>
    <i name="SIGMA">      0.05000000</i>
    <i name="KSPACING">      0.50000000</i>
    <i type="logical" name="KGAMMA"> T  </i>
   </separator>
   <separator name="electronic projectors" >
    <i type="logical" name="LREAL"> F  </i>
    <v name="ROPT">      0.00000000</v>
    <i type="int" name="LMAXPAW">  -100</i>
    <i type="int" name="LMAXMIX">     2</i>
    <i type="logical" name="NLSPLINE"> F  </i>
   </separator>
   <separator name="electronic startup" >
    <i type="int" name="ISTART">     0</i>
    <i type="int" name="ICHARG">     2</i>
    <i type="int" name="INIWAV">     1</i>
   </separator>
   <separator name="electronic spin" >
    <i type="int" name="ISPIN">     2</i>
    <i type="logical" name="LNONCOLLINEAR"> F  </i>
    <v name="MAGMOM">      6.00000000</v>
    <i name="NUPDOWN">     -1.00000000</i>
    <i type="logical" name="LSORBIT"> F  </i>
    <v name="SAXIS">      0.00000000      0.00000000      1.00000000</v>
    <i type="logical" name="LSPIRAL"> F  </i>
    <v name="QSPIRAL">      0.00000000      0.00000000      0.00000000</v>
    <i type="logical" name="LZEROZ"> F  </i>
   </separator>
   <separator name="electronic exchange-correlation" >
    <i type="logical" name="LASPH"> F  </i>
    <i type="logical" name="LMETAGGA"> F  </i>
   </separator>
   <separator name="electronic convergence" >
    <i type="int" name="NELM">    60</i>
    <i type="int" name="NELMDL">    -5</i>
    <i type="int" name="NELMIN">     2</i>
    <i name="ENINI">    350.00000000</i>
    <separator name="electronic convergence detail" >
     <i type="logical" name="LDIAG"> T  </i>
     <i type="logical" name="LSUBROT"> T  </i>
     <i name="WEIMIN">      0.00000000</i>
     <i name="EBREAK">      0.00000417</i>
     <i name="DEPER">      0.30000000</i>
     <i type="int" name="NRMM">     4</i>
     <i name="TIME">      0.40000000</i>
    </separator>
   </separator>
   <separator name="electronic mixer" >
    <i name="AMIX">      0.40000000</i>
    <i name="BMIX">      1.00000000</i>
    <i name="AMIN">      0.10000000</i>
    <i name="AMIX_MAG">      1.60000000</i>
    <i name="BMIX_MAG">      1.00000000</i>
    <separator name="electronic mixer details" >
     <i type="int" name="IMIX">     4</i>
     <i type="int" name="MAXMIX">   -45</i>
     <i name="WC">    100.00000000</i>
     <i type="int" name="INIMIX">     1</i>
     <i type="int" name="MIXPRE">     1</i>
     <i type="int" name="MREMOVE">     5</i>
    </separator>
   </separator>
   <separator name="electronic dipolcorrection" >
    <i type="logical" name="LDIPOL"> F  </i>
    <i type="logical" name="LMONO"> F  </i>
    <i type="int" name="IDIPOL">     0</i>
    <i name="EPSILON">      1.00000000</i>
    <v name="DIPOL">   -100.00000000   -100.00000000   -100.00000000</v>
    <i name="EFIELD">      0.00000000</i>
   </separator>
  </separator>
  <separator name="grids" >
   <i type="int" name="NGX">    18</i>
   <i type="int" name="NGY">    18</i>
   <i type="int" name="NGZ">    18</i>
   <i type="int" name="NGXF">    36</i>
   <i type="int" name="NGYF">    36</i>
   <i type="int" name="NGZF">    36</i>
   <i type="logical" name="ADDGRID"> F  </i>
  </separator>
  <separator name="ionic" >
   <i type="int" name="NSW">     0</i>
   <i type="int" name="IBRION">    -1</i>
   <i type="int" name="ISIF">     2</i>
   <i name="PSTRESS">      0.00000000</i>
   <i name="EDIFFG">      0.00100000</i>
   <i type="int" name="NFREE">     0</i>
   <i name="POTIM">      0.50000000</i>
   <i name="SMASS">     -3.00000000</i>
   <i name="SCALEE">      1.00000000</i>
  </separator>
  <separator name="ionic md" >
   <i name="TEBEG">      0.00010000</i>
   <i name="TEEND">      0.00010000</i>
   <i type="int" name="NBLOCK">     1</i>
   <i type="int" name="KBLOCK">     1</i>
   <i type="int" name="NPACO">   256</i>
   <i name="APACO">     16.00000000</i>
  </separator>
  <separator name="symmetry" >
   <i type="int" name="ISYM">     2</i>
   <i name="SYMPREC">      0.00001000</i>
  </separator>
  <separator name="dos" >
   <i type="logical" name="LORBIT"> F  </i>
   <v name="RWIGS">     -1.00000000</v>
   <i type="int" name="NEDOS">   301</i>
   <i name="EMIN">     10.00000000</i>
   <i name="EMAX">    -10.00000000</i>
   <i name="EFERMI">      0.00000000</i>
  </separator>
  <separator name="writing" >
   <i type="int" name="NWRITE">     2</i>
   <i type="logical" name="LWAVE"> T  </i>
   <i type="logical" name="LCHARG"> T  </i>
   <i type="logical" name="LPARD"> F  </i>
   <i type="logical" name="LVTOT"> F  </i>
   <i type="logical" name="LVHAR"> F  </i>
   <i type="logical" name="LELF"> F  </i>
   <i type="logical" name="LOPTICS"> F  </i>
   <v name="STM">      0.00000000      0.00000000      0.00000000      0.00000000      0.00000000      0.00000000      0.00000000</v>
  </separator>
  <separator name="performance" >
   <i type="int" name="NPAR">     1</i>
   <i type="int" name="NSIM">     4</i>
   <i type="int" name="NBLK">    -1</i>
   <i type="logical" name="LPLANE"> T  </i>
   <i type="logical" name="LSCALAPACK"> F  </i>
   <i type="logical" name="LSCAAWARE"> F  </i>
   <i type="logical" name="LSCALU"> F  </i>
   <i type="logical" name="LASYNC"> F  </i>
   <i type="logical" name="LORBITALREAL"> F  </i>
  </separator>
  <separator name="miscellaneous" >
   <i type="int" name="IDIOT">     3</i>
   <i type="logical" name="LMUSIC"> F  </i>
   <v name="POMASS">    180.94800000</v>
   <v name="DARWINR">      0.00000000</v>
   <v name="DARWINV">      1.00000000</v>
   <i type="logical" name="LCORR"> T  </i>
  </separator>
  <i type="logical" name="GGA_COMPAT"> T  </i>
  <i type="logical" name="LBERRY"> F  </i>
  <i type="int" name="ICORELEVEL">     0</i>
  <i type="logical" name="LDAU"> F  </i>
  <i type="int" name="I_CONSTRAINED_M">     0</i>
  <separator name="electronic exchange-correlation" >
   <i type="string" name="GGA">--</i>
   <i type="int" name="VOSKOWN">     0</i>
   <i type="logical" name="LHFCALC"> F  </i>
   <i type="string" name="PRECFOCK"></i>
   <i type="logical" name="LHFONE"> F  </i>
   <i type="logical" name="LRHFCALC"> F  </i>
   <i type="logical" name="LTHOMAS"> F  </i>
   <i type="logical" name="LMODELHF"> F  </i>
   <i name="ENCUT4O">     -1.00000000</i>
   <i type="int" name="EXXOEP">     0</i>
   <i type="int" name="FOURORBIT">     0</i>
   <i name="AEXX">      0.00000000</i>
   <i name="HFALPHA">      0.00000000</i>
   <i name="ALDAX">      1.00000000</i>
   <i name="AGGAX">      1.00000000</i>
   <i name="ALDAC">      1.00000000</i>
   <i name="AGGAC">      1.00000000</i>
   <i type="int" name="NKREDX">     1</i>
   <i type="int" name="NKREDY">     1</i>
   <i type="int" name="NKREDZ">     1</i>
   <i type="logical" name="SHIFTRED"> F  </i>
   <i type="logical" name="ODDONLY"> F  </i>
   <i type="logical" name="EVENONLY"> F  </i>
   <i type="int" name="LMAXFOCK">     0</i>
   <i type="int" name="NMAXFOCKAE">     0</i>
   <i type="logical" name="LFOCKAEDFT"> F  </i>
   <i name="HFSCREEN">      0.00000000</i>
   <i name="HFSCREENC">      0.00000000</i>
  </separator>
  <separator name="vdW DFT" >
   <i type="logical" name="LUSE_VDW"> F  </i>
   <i name="Zab_VDW">     -0.84910000</i>
   <i name="PARAM1">      0.12340000</i>
   <i name="PARAM2">      1.00000000</i>
   <i name="PARAM3">      0.00000000</i>
  </separator>
  <separator name="model GW" >
   <i type="int" name="MODEL_GW">     0</i>
   <i name="MODEL_EPS0">     10.87940730</i>
   <i name="MODEL_ALPHA">      1.00000000</i>
  </separator>
  <separator name="linear response parameters" >
   <i type="logical" name="LEPSILON"> F  </i>
   <i type="logical" name="LRPA"> F  </i>
   <i type="logical" name="LNABLA"> F  </i>
   <i type="logical" name="LVEL"> F  </i>
   <i type="int" name="KINTER">     0</i>
   <i name="CSHIFT">      0.10000000</i>
   <i name="OMEGAMAX">     -1.00000000</i>
  </separator>
  <separator name="orbital magnetization" >
   <i type="logical" name="NUCIND"> F  </i>
   <v name="MAGPOS">      0.00000000      0.00000000      0.00000000</v>
   <i type="logical" name="LNICSALL"> T  </i>
   <i type="logical" name="ORBITALMAG"> F  </i>
   <i type="logical" name="LMAGBLOCH"> F  </i>
   <i type="logical" name="LCHIMAG"> F  </i>
   <i type="logical" name="LGAUGE"> T  </i>
   <i type="int" name="MAGATOM">     0</i>
   <v name="MAGDIPOL">      0.00000000      0.00000000      0.00000000</v>
   <v name="AVECCONST">      0.00000000      0.00000000      0.00000000</v>
  </separator>
  <separator name="response functions" >
   <i type="logical" name="LADDER"> F  </i>
   <i type="logical" name="LHARTREE"> T  </i>
   <i type="int" name="IBSE">     0</i>
   <i type="logical" name="LTCTE"> F  </i>
   <i type="logical" name="LTETE"> F  </i>
   <i type="logical" name="LFXCEPS"> F  </i>
   <i type="logical" name="L2ORDER"> F  </i>
   <i type="logical" name="LUSEW"> F  </i>
   <i name="ENCUTGW">     -2.00000000</i>
   <i name="ENCUTGWSOFT">     -2.00000000</i>
   <i name="ENCUTLF">     -1.00000000</i>
   <i type="int" name="LMAXMP2">    -1</i>
   <i name="SCISSOR">      0.00000000</i>
   <i type="int" name="NOMEGA">     0</i>
   <i type="int" name="NOMEGAR">     0</i>
   <i type="int" name="NBANDSGW">    -1</i>
   <i type="int" name="NBANDSO">    -1</i>
   <i type="int" name="NBANDSV">    -1</i>
   <i name="OPTEMAX">      0.00000000</i>
   <i type="int" name="NELM">     1</i>
   <i type="int" name="DIM">     3</i>
   <i type="int" name="ANTIRES">     0</i>
   <i name="OMEGAMAX">    -30.00000000</i>
   <i name="OMEGATL">   -200.00000000</i>
   <i type="int" name="OMEGAGRID">     0</i>
   <i name="CSHIFT">     -0.10000000</i>
   <i type="logical" name="SELFENERGY"> F  </i>
   <i type="logical" name="LSPECTRAL"> F  </i>
   <i type="logical" name="ODDONLYGW"> F  </i>
   <i type="logical" name="EVENONLYGW"> F  </i>
   <i type="int" name="NKREDLFX">     1</i>
   <i type="int" name="NKREDLFY">     1</i>
   <i type="int" name="NKREDLFZ">     1</i>
   <i type="int" name="MAXMEM">  1800</i>
   <i type="int" name="TELESCOPE">     0</i>
  </separator>
 </parameters>
 <atominfo>
  <atoms>       1 </atoms>
  <types>       1 </types>
  <array name="atoms" >
   <dimension dim="1">ion</dimension>
   <field type="string">element</field>
   <field type="int">atomtype</field>
   <set>
    <rc><c>Ta</c><c>   1</c></rc>
   </set>
  </array>
  <array name="atomtypes" >
   <dimension dim="1">type</dimension>
   <field type="int">atomspertype</field>
   <field type="string">element</field>
   <field>mass</field>
   <field>valence</field>
   <field type="string">pseudopotential</field>
   <set>
    <rc><c>   1</c><c>Ta</c><c>    180.94800000</c><c>      5.00000000</c><c>  PAW_PBE Ta 17Jan2003                  </c></rc>
   </set>
  </array>
 </atominfo>
 <structure name="initialpos" >
  <crystal>
   <varray name="basis" >
    <v>       2.86654409       0.00000000       0.00000000 </v>
    <v>      -0.95551470       2.70260368       0.00000000 </v>
    <v>      -0.95551470      -1.35130184       2.34052345 </v>
   </varray>
   <i name="volume">     18.13234550 </i>
   <varray name="rec_basis" >
    <v>       0.34885213       0.12333785       0.21362743 </v>
    <v>       0.00000000       0.37001356       0.21362743 </v>
    <v>       0.00000000       0.00000000       0.42725485 </v>
   </varray>
  </crystal>
  <varray name="positions" >
   <v>       0.00000000       0.00000000       0.00000000 </v>
  </varray>
 </structure>
 <calculation>
  <scstep>
   <time name="dav">    0.61    0.61</time>
   <time name="total">    0.80    0.85</time>
   <energy>
    <i name="alphaZ">     30.58334069 </i>
    <i name="ewald">   -197.90100875 </i>
    <i name="hartreedc">     -2.50452612 </i>
    <i name="XCdc">    -60.69825643 </i>
    <i name="pawpsdc">    143.51874798 </i>
    <i name="pawaedc">    -69.33493833 </i>
    <i name="eentropy">     -0.00024151 </i>
    <i name="bandstr">     36.18293167 </i>
    <i name="atom">    130.64621481 </i>
    <i name="e_fr_energy">     10.49226401 </i>
    <i name="e_wo_entrp">     10.49250551 </i>
    <i name="e_0_energy">     10.49234451 </i>
   </energy>
  </scstep>
  <scstep>
   <time name="dav">    0.91    0.91</time>
   <time name="total">    0.92    0.92</time>
   <energy>
    <i name="e_fr_energy">     -1.21301962 </i>
    <i name="e_wo_entrp">     -1.21285370 </i>
    <i name="e_0_energy">     -1.21296431 </i>
   </energy>
  </scstep>
  <scstep>
   <time name="dav">    0.59    0.59</time>
   <time name="total">    0.59    0.61</time>
   <energy>
    <i name="e_fr_energy">     -1.29403796 </i>
    <i name="e_wo_entrp">     -1.29363757 </i>
    <i name="e_0_energy">     -1.29390450 </i>
   </energy>
  </scstep>
  <scstep>
   <time name="dav">    0.72    0.72</time>
   <time name="total">    0.73    1.28</time>
   <energy>
    <i name="e_fr_energy">     -1.29452251 </i>
    <i name="e_wo_entrp">     -1.29410313 </i>
    <i name="e_0_energy">     -1.29438272 </i>
   </energy>
  </scstep>
  <scstep>
   <time name="dav">    0.54    0.54</time>
   <time name="total">    0.62    0.65</time>
   <energy>
    <i name="e_fr_energy">     -1.29452529 </i>
    <i name="e_wo_entrp">     -1.29410582 </i>
    <i name="e_0_energy">     -1.29438546 </i>
   </energy>
  </scstep>
  <scstep>
   <time name="dav">    0.60    0.61</time>
   <time name="total">    0.86    0.87</time>
   <energy>
    <i name="e_fr_energy">    -11.68798998 </i>
    <i name="e_wo_entrp">    -11.68779320 </i>
    <i name="e_0_energy">    -11.68792439 </i>
   </energy>
  </scstep>
  <scstep>
   <time name="dav">    0.64    0.64</time>
   <time name="total">    0.89    0.91</time>
   <energy>
    <i name="e_fr_energy">    -11.76508202 </i>
    <i name="e_wo_entrp">    -11.76532045 </i>
    <i name="e_0_energy">    -11.76516149 </i>
   </energy>
  </scstep>
  <scstep>
   <time name="dav">    0.61    0.61</time>
   <time name="total">    0.86    0.88</time>
   <energy>
    <i name="e_fr_energy">    -11.66296014 </i>
    <i name="e_wo_entrp">    -11.66263270 </i>
    <i name="e_0_energy">    -11.66285099 </i>
   </energy>
  </scstep>
  <scstep>
   <time name="dav">    0.66    0.66</time>
   <time name="total">    0.90    0.92</time>
   <energy>
    <i name="e_fr_energy">    -11.79390240 </i>
    <i name="e_wo_entrp">    -11.79317022 </i>
    <i name="e_0_energy">    -11.79365834 </i>
   </energy>
  </scstep>
  <scstep>
   <time name="dav">    0.64    0.65</time>
   <time name="total">    0.90    0.98</time>
   <energy>
    <i name="e_fr_energy">    -11.82963793 </i>
    <i name="e_wo_entrp">    -11.82955059 </i>
    <i name="e_0_energy">    -11.82960882 </i>
   </energy>
  </scstep>
  <scstep>
   <time name="dav">    0.65    0.65</time>
   <time name="total">    0.91    0.92</time>
   <energy>
    <i name="e_fr_energy">    -11.83520717 </i>
    <i name="e_wo_entrp">    -11.83528596 </i>
    <i name="e_0_energy">    -11.83523343 </i>
   </energy>
  </scstep>
  <scstep>
   <time name="dav">    0.41    0.41</time>
   <time name="total">    0.67    0.69</time>
   <energy>
    <i name="e_fr_energy">    -11.83584344 </i>
    <i name="e_wo_entrp">    -11.83594427 </i>
    <i name="e_0_energy">    -11.83587705 </i>
   </energy>
  </scstep>
  <scstep>
   <time name="dav">    0.62    0.62</time>
   <time name="total">    0.88    0.90</time>
   <energy>
    <i name="e_fr_energy">    -11.83600112 </i>
    <i name="e_wo_entrp">    -11.83602036 </i>
    <i name="e_0_energy">    -11.83600753 </i>
   </energy>
  </scstep>
  <scstep>
   <time name="dav">    0.62    0.62</time>
   <time name="total">    0.88    0.90</time>
   <energy>
    <i name="e_fr_energy">    -11.83615561 </i>
    <i name="e_wo_entrp">    -11.83603111 </i>
    <i name="e_0_energy">    -11.83611411 </i>
   </energy>
  </scstep>
  <scstep>
   <time name="dav">    0.39    0.39</time>
   <time name="total">    0.57    0.59</time>
   <energy>
    <i name="alphaZ">     30.58334069 </i>
    <i name="ewald">   -197.90100875 </i>
    <i name="hartreedc">     -0.53823389 </i>
    <i name="XCdc">    -65.97227073 </i>
    <i name="pawpsdc">    193.28902853 </i>
    <i name="pawaedc">   -119.90726807 </i>
    <i name="eentropy">     -0.00010517 </i>
    <i name="bandstr">     17.96414040 </i>
    <i name="atom">    130.64621481 </i>
    <i name="e_fr_energy">    -11.83616217 </i>
    <i name="e_wo_entrp">    -11.83605700 </i>
    <i name="e_0_energy">    -11.83612711 </i>
   </energy>
  </scstep>
  <parameters_embedded>
   <separator name="dft+d2" >
    <i type="logical" name="LVDW"> F  </i>
   </separator>
  </parameters_embedded>
  <structure>
   <crystal>
    <varray name="basis" >
     <v>       2.86654409       0.00000000       0.00000000 </v>
     <v>      -0.95551470       2.70260368       0.00000000 </v>
     <v>      -0.95551470      -1.35130184       2.34052345 </v>
    </varray>
    <i name="volume">     18.13234550 </i>
    <varray name="rec_basis" >
     <v>       0.34885213       0.12333785       0.21362743 </v>
     <v>       0.00000000       0.37001356       0.21362743 </v>
     <v>       0.00000000       0.00000000       0.42725485 </v>
    </varray>
   </crystal>
   <varray name="positions" >
    <v>       0.00000000       0.00000000       0.00000000 </v>
   </varray>
  </structure>
  <varray name="forces" >
   <v>       0.00000000       0.00000000       0.00000000 </v>
  </varray>
  <varray name="stress" >
   <v>      16.24869851       0.00000000       0.00000000 </v>
   <v>       0.00000000      16.24869851       0.00000000 </v>
   <v>       0.00000000       0.00000000      16.24869851 </v>
  </varray>
  <energy>
   <i name="e_fr_energy">    -11.83616217 </i>
   <i name="e_wo_entrp">    -11.83612711 </i>
   <i name="e_0_energy">     -0.00010517 </i>
  </energy>
  <time name="totalsc">   13.18   14.11</time>
  <eigenvalues>
   <array>
    <dimension dim="1">band</dimension>
    <dimension dim="2">kpoint</dimension>
    <dimension dim="3">spin</dimension>
    <field>eigene</field>
    <field>occ</field>
    <set>
     <set comment="spin 1">
      <set comment="kpoint 1">
       <r>   -1.2524    1.0000 </r>
       <r>    5.8440    0.0000 </r>
       <r>    5.8440    0.0000 </r>
       <r>    7.5843    0.0000 </r>
       <r>    9.3598    0.0000 </r>
       <r>    9.3598    0.0000 </r>
      </set>
      <set comment="kpoint 2">
       <r>    0.3311    1.0000 </r>
       <r>    4.9746    1.0000 </r>
       <r>    5.1960    1.0000 </r>
       <r>    9.1828    0.0000 </r>
       <r>    9.6677    0.0000 </r>
       <r>    9.8191    0.0000 </r>
      </set>
      <set comment="kpoint 3">
       <r>    1.5413    1.0000 </r>
       <r>    4.3227    1.0000 </r>
       <r>    5.6268    1.0343 </r>
       <r>    9.6042    0.0000 </r>
       <r>   10.2877    0.0000 </r>
       <r>   12.3299    0.0000 </r>
      </set>
      <set comment="kpoint 4">
       <r>    1.6701    1.0000 </r>
       <r>    4.0890    1.0000 </r>
       <r>    6.7984    0.0000 </r>
       <r>    9.6560    0.0000 </r>
       <r>   10.5494    0.0000 </r>
       <r>   13.9501    0.0000 </r>
      </set>
      <set comment="kpoint 5">
       <r>   -1.8833    1.0000 </r>
       <r>    6.3452    0.0000 </r>
       <r>    6.3452    0.0000 </r>
       <r>    6.5570    0.0000 </r>
       <r>    9.0698    0.0000 </r>
       <r>    9.8283    0.0000 </r>
      </set>
      <set comment="kpoint 6">
       <r>    1.9558    1.0000 </r>
       <r>    4.3991    1.0000 </r>
       <r>    4.6422    1.0000 </r>
       <r>    9.4583    0.0000 </r>
       <r>   10.3252    0.0000 </r>
       <r>   12.3720    0.0000 </r>
      </set>
      <set comment="kpoint 7">
       <r>    2.6665    1.0000 </r>
       <r>    4.1574    1.0000 </r>
       <r>    5.4178    1.0000 </r>
       <r>    9.8426    0.0000 </r>
       <r>   10.5481    0.0000 </r>
       <r>   14.9505    0.0000 </r>
      </set>
      <set comment="kpoint 8">
       <r>   -0.6651    1.0000 </r>
       <r>    5.7054    0.1716 </r>
       <r>    5.9462    0.0000 </r>
       <r>    7.8112    0.0000 </r>
       <r>    8.3074    0.0000 </r>
       <r>   10.1134    0.0000 </r>
      </set>
      <set comment="kpoint 9">
       <r>    3.2619    1.0000 </r>
       <r>    4.7322    1.0000 </r>
       <r>    4.7322    1.0000 </r>
       <r>   10.3515    0.0000 </r>
       <r>   10.3515    0.0000 </r>
       <r>   13.8572    0.0000 </r>
      </set>
      <set comment="kpoint 10">
       <r>    0.9333    1.0000 </r>
       <r>    4.8811    1.0000 </r>
       <r>    5.4288    1.0000 </r>
       <r>    8.7766    0.0000 </r>
       <r>   10.2004    0.0000 </r>
       <r>   10.3673    0.0000 </r>
      </set>
      <set comment="kpoint 11">
       <r>    0.8168    1.0000 </r>
       <r>    5.0898    1.0000 </r>
       <r>    5.5128    1.0000 </r>
       <r>    7.9194    0.0000 </r>
       <r>    9.5032    0.0000 </r>
       <r>   10.5855    0.0000 </r>
      </set>
      <set comment="kpoint 12">
       <r>    1.4634    1.0000 </r>
       <r>    4.3778    1.0000 </r>
       <r>    6.3981    0.0000 </r>
       <r>    9.1836    0.0000 </r>
       <r>   10.8013    0.0000 </r>
       <r>   12.8049    0.0000 </r>
      </set>
      <set comment="kpoint 13">
       <r>    2.0586    1.0000 </r>
       <r>    4.5361    1.0000 </r>
       <r>    5.3481    1.0000 </r>
       <r>    8.5945    0.0000 </r>
       <r>   10.5207    0.0000 </r>
       <r>   12.4075    0.0000 </r>
      </set>
      <set comment="kpoint 14">
       <r>    2.2053    1.0000 </r>
       <r>    4.5753    1.0000 </r>
       <r>    5.6210    1.0353 </r>
       <r>    8.6789    0.0000 </r>
       <r>   11.2133    0.0000 </r>
       <r>   14.3031    0.0000 </r>
      </set>
      <set comment="kpoint 15">
       <r>    3.2012    1.0000 </r>
       <r>    4.1153    1.0000 </r>
       <r>    4.9623    1.0000 </r>
       <r>    9.3680    0.0000 </r>
       <r>   10.3494    0.0000 </r>
       <r>   15.3425    0.0000 </r>
      </set>
      <set comment="kpoint 16">
       <r>    3.7099    1.0000 </r>
       <r>    4.1374    1.0000 </r>
       <r>    4.1374    1.0000 </r>
       <r>   10.4016    0.0000 </r>
       <r>   10.4016    0.0000 </r>
       <r>   15.3033    0.0000 </r>
      </set>
      <set comment="kpoint 17">
       <r>    3.8115    1.0000 </r>
       <r>    4.0911    1.0000 </r>
       <r>    5.0590    1.0000 </r>
       <r>   10.4976    0.0000 </r>
       <r>   10.6687    0.0000 </r>
       <r>   13.4174    0.0000 </r>
      </set>
      <set comment="kpoint 18">
       <r>    0.4597    1.0000 </r>
       <r>    6.1943    0.0000 </r>
       <r>    6.4321    0.0000 </r>
       <r>    6.4321    0.0000 </r>
       <r>    7.8154    0.0000 </r>
       <r>   10.7651    0.0000 </r>
      </set>
      <set comment="kpoint 19">
       <r>    1.9586    1.0000 </r>
       <r>    4.6554    1.0000 </r>
       <r>    6.1066    0.0000 </r>
       <r>    7.4280    0.0000 </r>
       <r>    9.8445    0.0000 </r>
       <r>   10.7362    0.0000 </r>
      </set>
      <set comment="kpoint 20">
       <r>    2.4514    1.0000 </r>
       <r>    4.5827    1.0000 </r>
       <r>    5.7066    0.1573 </r>
       <r>    7.6061    0.0000 </r>
       <r>   12.1201    0.0000 </r>
       <r>   12.4964    0.0000 </r>
      </set>
      <set comment="kpoint 21">
       <r>    3.0232    1.0000 </r>
       <r>    3.6731    1.0000 </r>
       <r>    6.0852    0.0000 </r>
       <r>    8.2743    0.0000 </r>
       <r>   10.3228    0.0000 </r>
       <r>   12.6048    0.0000 </r>
      </set>
      <set comment="kpoint 22">
       <r>    3.0868    1.0000 </r>
       <r>    3.8287    1.0000 </r>
       <r>    5.4420    1.0000 </r>
       <r>    8.8021    0.0000 </r>
       <r>   11.3824    0.0000 </r>
       <r>   15.3364    0.0000 </r>
      </set>
      <set comment="kpoint 23">
       <r>    2.8284    1.0000 </r>
       <r>    3.5329    1.0000 </r>
       <r>    7.8081    0.0000 </r>
       <r>    7.8081    0.0000 </r>
       <r>   10.0046    0.0000 </r>
       <r>   10.4723    0.0000 </r>
      </set>
      <set comment="kpoint 24">
       <r>    2.7096    1.0000 </r>
       <r>    2.9883    1.0000 </r>
       <r>    8.1471    0.0000 </r>
       <r>    8.2404    0.0000 </r>
       <r>   12.1048    0.0000 </r>
       <r>   12.6189    0.0000 </r>
      </set>
      <set comment="kpoint 25">
       <r>    2.5435    1.0000 </r>
       <r>    2.5435    1.0000 </r>
       <r>    7.9527    0.0000 </r>
       <r>   11.0712    0.0000 </r>
       <r>   11.0712    0.0000 </r>
       <r>   15.6562    0.0000 </r>
      </set>
      <set comment="kpoint 26">
       <r>    2.0857    1.0000 </r>
       <r>    2.1532    1.0000 </r>
       <r>   10.9097    0.0000 </r>
       <r>   10.9097    0.0000 </r>
       <r>   12.0739    0.0000 </r>
       <r>   13.1783    0.0000 </r>
      </set>
     </set>
     <set comment="spin 2">
      <set comment="kpoint 1">
       <r>   -1.1601    1.0000 </r>
       <r>    5.8941    0.0000 </r>
       <r>    5.8941    0.0000 </r>
       <r>    7.6285    0.0000 </r>
       <r>    9.4093    0.0000 </r>
       <r>    9.4093    0.0000 </r>
      </set>
      <set comment="kpoint 2">
       <r>    0.4213    1.0000 </r>
       <r>    5.0289    1.0000 </r>
       <r>    5.2577    1.0000 </r>
       <r>    9.2293    0.0000 </r>
       <r>    9.7108    0.0000 </r>
       <r>    9.8652    0.0000 </r>
      </set>
      <set comment="kpoint 3">
       <r>    1.6218    1.0000 </r>
       <r>    4.3794    1.0000 </r>
       <r>    5.7078    0.1428 </r>
       <r>    9.6470    0.0000 </r>
       <r>   10.3292    0.0000 </r>
       <r>   12.3711    0.0000 </r>
      </set>
      <set comment="kpoint 4">
       <r>    1.7458    1.0000 </r>
       <r>    4.1464    1.0000 </r>
       <r>    6.8921    0.0000 </r>
       <r>    9.6987    0.0000 </r>
       <r>   10.5873    0.0000 </r>
       <r>   13.9869    0.0000 </r>
      </set>
      <set comment="kpoint 5">
       <r>   -1.7907    1.0000 </r>
       <r>    6.3916    0.0000 </r>
       <r>    6.3916    0.0000 </r>
       <r>    6.6018    0.0000 </r>
       <r>    9.1224    0.0000 </r>
       <r>    9.8752    0.0000 </r>
      </set>
      <set comment="kpoint 6">
       <r>    2.0413    1.0000 </r>
       <r>    4.4644    1.0000 </r>
       <r>    4.7046    1.0000 </r>
       <r>    9.5029    0.0000 </r>
       <r>   10.3653    0.0000 </r>
       <r>   12.4172    0.0000 </r>
      </set>
      <set comment="kpoint 7">
       <r>    2.7405    1.0000 </r>
       <r>    4.2212    1.0000 </r>
       <r>    5.4981    1.0000 </r>
       <r>    9.8850    0.0000 </r>
       <r>   10.5869    0.0000 </r>
       <r>   15.0013    0.0000 </r>
      </set>
      <set comment="kpoint 8">
       <r>   -0.5731    1.0000 </r>
       <r>    5.7554   -0.0307 </r>
       <r>    6.0018    0.0000 </r>
       <r>    7.8549    0.0000 </r>
       <r>    8.3613    0.0000 </r>
       <r>   10.1580    0.0000 </r>
      </set>
      <set comment="kpoint 9">
       <r>    3.3276    1.0000 </r>
       <r>    4.8081    1.0000 </r>
       <r>    4.8081    1.0000 </r>
       <r>   10.3912    0.0000 </r>
       <r>   10.3912    0.0000 </r>
       <r>   13.9181    0.0000 </r>
      </set>
      <set comment="kpoint 10">
       <r>    1.0196    1.0000 </r>
       <r>    4.9348    1.0000 </r>
       <r>    5.5024    1.0000 </r>
       <r>    8.8262    0.0000 </r>
       <r>   10.2405    0.0000 </r>
       <r>   10.4090    0.0000 </r>
      </set>
      <set comment="kpoint 11">
       <r>    0.9067    1.0000 </r>
       <r>    5.1535    1.0000 </r>
       <r>    5.5682    1.0025 </r>
       <r>    7.9718    0.0000 </r>
       <r>    9.5465    0.0000 </r>
       <r>   10.6259    0.0000 </r>
      </set>
      <set comment="kpoint 12">
       <r>    1.5407    1.0000 </r>
       <r>    4.4333    1.0000 </r>
       <r>    6.4878    0.0000 </r>
       <r>    9.2320    0.0000 </r>
       <r>   10.8457    0.0000 </r>
       <r>   12.8374    0.0000 </r>
      </set>
      <set comment="kpoint 13">
       <r>    2.1391    1.0000 </r>
       <r>    4.6029    1.0000 </r>
       <r>    5.4172    1.0000 </r>
       <r>    8.6451    0.0000 </r>
       <r>   10.5621    0.0000 </r>
       <r>   12.4511    0.0000 </r>
      </set>
      <set comment="kpoint 14">
       <r>    2.2805    1.0000 </r>
       <r>    4.6343    1.0000 </r>
       <r>    5.7048    0.1790 </r>
       <r>    8.7296    0.0000 </r>
       <r>   11.2589    0.0000 </r>
       <r>   14.3458    0.0000 </r>
      </set>
      <set comment="kpoint 15">
       <r>    3.2717    1.0000 </r>
       <r>    4.1900    1.0000 </r>
       <r>    5.0356    1.0000 </r>
       <r>    9.4148    0.0000 </r>
       <r>   10.3943    0.0000 </r>
       <r>   15.3885    0.0000 </r>
      </set>
      <set comment="kpoint 16">
       <r>    3.7929    1.0000 </r>
       <r>    4.2033    1.0000 </r>
       <r>    4.2033    1.0000 </r>
       <r>   10.4403    0.0000 </r>
       <r>   10.4403    0.0000 </r>
       <r>   15.3436    0.0000 </r>
      </set>
      <set comment="kpoint 17">
       <r>    3.8838    1.0000 </r>
       <r>    4.1572    1.0000 </r>
       <r>    5.1357    1.0000 </r>
       <r>   10.5358    0.0000 </r>
       <r>   10.7056    0.0000 </r>
       <r>   13.4798    0.0000 </r>
      </set>
      <set comment="kpoint 18">
       <r>    0.5516    1.0000 </r>
       <r>    6.2609    0.0000 </r>
       <r>    6.4843    0.0000 </r>
       <r>    6.4843    0.0000 </r>
       <r>    7.8587    0.0000 </r>
       <r>   10.8044    0.0000 </r>
      </set>
      <set comment="kpoint 19">
       <r>    2.0464    1.0000 </r>
       <r>    4.7272    1.0000 </r>
       <r>    6.1603    0.0000 </r>
       <r>    7.4836    0.0000 </r>
       <r>    9.8858    0.0000 </r>
       <r>   10.7808    0.0000 </r>
      </set>
      <set comment="kpoint 20">
       <r>    2.5290    1.0000 </r>
       <r>    4.6626    1.0000 </r>
       <r>    5.7614   -0.0254 </r>
       <r>    7.6639    0.0000 </r>
       <r>   12.1793    0.0000 </r>
       <r>   12.5303    0.0000 </r>
      </set>
      <set comment="kpoint 21">
       <r>    3.1056    1.0000 </r>
       <r>    3.7470    1.0000 </r>
       <r>    6.1445    0.0000 </r>
       <r>    8.3273    0.0000 </r>
       <r>   10.3718    0.0000 </r>
       <r>   12.6524    0.0000 </r>
      </set>
      <set comment="kpoint 22">
       <r>    3.1630    1.0000 </r>
       <r>    3.9069    1.0000 </r>
       <r>    5.5031    1.0000 </r>
       <r>    8.8552    0.0000 </r>
       <r>   11.4299    0.0000 </r>
       <r>   15.3928    0.0000 </r>
      </set>
      <set comment="kpoint 23">
       <r>    2.9134    1.0000 </r>
       <r>    3.6065    1.0000 </r>
       <r>    7.8633    0.0000 </r>
       <r>    7.8633    0.0000 </r>
       <r>   10.0441    0.0000 </r>
       <r>   10.5325    0.0000 </r>
      </set>
      <set comment="kpoint 24">
       <r>    2.7861    1.0000 </r>
       <r>    3.0662    1.0000 </r>
       <r>    8.2008    0.0000 </r>
       <r>    8.3002    0.0000 </r>
       <r>   12.1401    0.0000 </r>
       <r>   12.6897    0.0000 </r>
      </set>
      <set comment="kpoint 25">
       <r>    2.6201    1.0000 </r>
       <r>    2.6201    1.0000 </r>
       <r>    8.0117    0.0000 </r>
       <r>   11.1208    0.0000 </r>
       <r>   11.1208    0.0000 </r>
       <r>   15.7172    0.0000 </r>
      </set>
      <set comment="kpoint 26">
       <r>    2.1620    1.0000 </r>
       <r>    2.2301    1.0000 </r>
       <r>   10.9604    0.0000 </r>
       <r>   10.9604    0.0000 </r>
       <r>   12.1083    0.0000 </r>
       <r>   13.2615    0.0000 </r>
      </set>
     </set>
    </set>
   </array>
  </eigenvalues>
  <separator name="orbital magnetization" >
   <v name="MAGDIPOLOUT">      0.00000000      0.00000000      0.00000000</v>
  </separator>
  <dos>
   <i name="efermi">      5.68394877 </i>
   <total>
    <array>
     <dimension dim="1">gridpoints</dimension>
     <dimension dim="2">spin</dimension>
     <field>energy</field>
     <field>total</field>
     <field>integrated</field>
     <set>
      <set comment="spin 1">
       <r>    -2.7634     0.0000     0.0000 </r>
       <r>    -2.6988     0.0000     0.0000 </r>
       <r>    -2.6343     0.0000     0.0000 </r>
       <r>    -2.5698     0.0000     0.0000 </r>
       <r>    -2.5052     0.0000     0.0000 </r>
       <r>    -2.4407     0.0000     0.0000 </r>
       <r>    -2.3762     0.0000     0.0000 </r>
       <r>    -2.3116     0.0000     0.0000 </r>
       <r>    -2.2471     0.0000     0.0000 </r>
       <r>    -2.1826     0.0000     0.0000 </r>
       <r>    -2.1180     0.0000     0.0000 </r>
       <r>    -2.0535     0.0000     0.0000 </r>
       <r>    -1.9889    -0.0010    -0.0001 </r>
       <r>    -1.9244     0.0018     0.0001 </r>
       <r>    -1.8599     0.1540     0.0100 </r>
       <r>    -1.7953     0.0296     0.0119 </r>
       <r>    -1.7308    -0.0029     0.0117 </r>
       <r>    -1.6663     0.0000     0.0117 </r>
       <r>    -1.6017     0.0000     0.0117 </r>
       <r>    -1.5372     0.0000     0.0117 </r>
       <r>    -1.4727     0.0000     0.0117 </r>
       <r>    -1.4081     0.0000     0.0117 </r>
       <r>    -1.3436    -0.0033     0.0115 </r>
       <r>    -1.2791     0.0304     0.0135 </r>
       <r>    -1.2145     0.2097     0.0270 </r>
       <r>    -1.1500     0.0069     0.0275 </r>
       <r>    -1.0855    -0.0016     0.0273 </r>
       <r>    -1.0209     0.0000     0.0273 </r>
       <r>    -0.9564     0.0000     0.0273 </r>
       <r>    -0.8918     0.0000     0.0273 </r>
       <r>    -0.8273     0.0000     0.0273 </r>
       <r>    -0.7628    -0.0067     0.0269 </r>
       <r>    -0.6982     0.0459     0.0299 </r>
       <r>    -0.6337     0.6380     0.0710 </r>
       <r>    -0.5692     0.0567     0.0747 </r>
       <r>    -0.5046    -0.0075     0.0742 </r>
       <r>    -0.4401     0.0000     0.0742 </r>
       <r>    -0.3756     0.0000     0.0742 </r>
       <r>    -0.3110     0.0000     0.0742 </r>
       <r>    -0.2465     0.0000     0.0742 </r>
       <r>    -0.1820     0.0000     0.0742 </r>
       <r>    -0.1174     0.0000     0.0742 </r>
       <r>    -0.0529     0.0000     0.0742 </r>
       <r>     0.0116     0.0000     0.0742 </r>
       <r>     0.0762     0.0000     0.0742 </r>
       <r>     0.1407     0.0000     0.0742 </r>
       <r>     0.2053    -0.0008     0.0742 </r>
       <r>     0.2698    -0.0250     0.0726 </r>
       <r>     0.3343     0.4281     0.1002 </r>
       <r>     0.3989     0.3417     0.1222 </r>
       <r>     0.4634     0.0848     0.1277 </r>
       <r>     0.5279     0.0850     0.1332 </r>
       <r>     0.5925    -0.0059     0.1328 </r>
       <r>     0.6570    -0.0001     0.1328 </r>
       <r>     0.7215    -0.0078     0.1323 </r>
       <r>     0.7861     0.0610     0.1362 </r>
       <r>     0.8506     0.6227     0.1764 </r>
       <r>     0.9151     0.2120     0.1901 </r>
       <r>     0.9797     0.5763     0.2273 </r>
       <r>     1.0442    -0.0088     0.2267 </r>
       <r>     1.1087    -0.0027     0.2266 </r>
       <r>     1.1733     0.0000     0.2266 </r>
       <r>     1.2378     0.0000     0.2266 </r>
       <r>     1.3023     0.0000     0.2266 </r>
       <r>     1.3669    -0.0072     0.2261 </r>
       <r>     1.4314     0.0499     0.2293 </r>
       <r>     1.4960     0.6320     0.2701 </r>
       <r>     1.5605     0.6381     0.3113 </r>
       <r>     1.6250     0.1500     0.3210 </r>
       <r>     1.6896     0.2817     0.3391 </r>
       <r>     1.7541     0.0785     0.3442 </r>
       <r>     1.8186    -0.0075     0.3437 </r>
       <r>     1.8832    -0.0410     0.3411 </r>
       <r>     1.9477     0.5335     0.3755 </r>
       <r>     2.0122     0.9796     0.4387 </r>
       <r>     2.0768     1.1849     0.5152 </r>
       <r>     2.1413     0.4963     0.5472 </r>
       <r>     2.2058     0.4914     0.5789 </r>
       <r>     2.2704     0.3762     0.6032 </r>
       <r>     2.3349    -0.0268     0.6015 </r>
       <r>     2.3994    -0.0198     0.6002 </r>
       <r>     2.4640     0.5222     0.6339 </r>
       <r>     2.5285     0.3689     0.6577 </r>
       <r>     2.5931     0.3085     0.6776 </r>
       <r>     2.6576     0.5238     0.7114 </r>
       <r>     2.7221     1.5198     0.8095 </r>
       <r>     2.7867     0.1889     0.8217 </r>
       <r>     2.8512     0.1317     0.8302 </r>
       <r>     2.9157     0.0063     0.8306 </r>
       <r>     2.9803     0.2811     0.8487 </r>
       <r>     3.0448     1.0954     0.9194 </r>
       <r>     3.1093     0.7144     0.9655 </r>
       <r>     3.1739     0.1951     0.9781 </r>
       <r>     3.2384     0.6586     1.0206 </r>
       <r>     3.3029     0.2291     1.0354 </r>
       <r>     3.3675    -0.0027     1.0352 </r>
       <r>     3.4320    -0.0027     1.0351 </r>
       <r>     3.4965     0.0071     1.0355 </r>
       <r>     3.5611     0.1559     1.0456 </r>
       <r>     3.6256     0.0038     1.0458 </r>
       <r>     3.6902     0.6222     1.0860 </r>
       <r>     3.7547     0.3476     1.1084 </r>
       <r>     3.8192     0.4935     1.1403 </r>
       <r>     3.8838     0.6455     1.1819 </r>
       <r>     3.9483    -0.0333     1.1798 </r>
       <r>     4.0128    -0.0257     1.1781 </r>
       <r>     4.0774     0.2020     1.1911 </r>
       <r>     4.1419     1.8581     1.3111 </r>
       <r>     4.2064     1.4130     1.4023 </r>
       <r>     4.2710    -0.0793     1.3971 </r>
       <r>     4.3355     0.5095     1.4300 </r>
       <r>     4.4000     1.2386     1.5100 </r>
       <r>     4.4646     0.4400     1.5383 </r>
       <r>     4.5291     0.5307     1.5726 </r>
       <r>     4.5936     2.0086     1.7022 </r>
       <r>     4.6582     1.3462     1.7891 </r>
       <r>     4.7227     0.6905     1.8337 </r>
       <r>     4.7872     0.2853     1.8521 </r>
       <r>     4.8518     0.0515     1.8554 </r>
       <r>     4.9163     0.6026     1.8943 </r>
       <r>     4.9809     1.0728     1.9635 </r>
       <r>     5.0454     0.5760     2.0007 </r>
       <r>     5.1099     0.8182     2.0535 </r>
       <r>     5.1745     0.2780     2.0714 </r>
       <r>     5.2390     0.5846     2.1092 </r>
       <r>     5.3035    -0.0131     2.1083 </r>
       <r>     5.3681     1.1096     2.1799 </r>
       <r>     5.4326     2.1024     2.3156 </r>
       <r>     5.4971     1.4236     2.4075 </r>
       <r>     5.5617     0.4325     2.4354 </r>
       <r>     5.6262     0.7833     2.4859 </r>
       <r>     5.6907     1.1212     2.5583 </r>
       <r>     5.7553     1.0612     2.6268 </r>
       <r>     5.8198     0.0431     2.6296 </r>
       <r>     5.8843     0.3837     2.6543 </r>
       <r>     5.9489     0.4287     2.6820 </r>
       <r>     6.0134     0.3208     2.7027 </r>
       <r>     6.0780     0.3494     2.7253 </r>
       <r>     6.1425     1.1049     2.7966 </r>
       <r>     6.2070     0.1400     2.8056 </r>
       <r>     6.2716     0.0400     2.8082 </r>
       <r>     6.3361     0.1035     2.8149 </r>
       <r>     6.4006     0.6963     2.8598 </r>
       <r>     6.4652     0.6624     2.9025 </r>
       <r>     6.5297     0.0200     2.9038 </r>
       <r>     6.5942     0.1539     2.9138 </r>
       <r>     6.6588     0.0058     2.9141 </r>
       <r>     6.7233    -0.0112     2.9134 </r>
       <r>     6.7878     0.1285     2.9217 </r>
       <r>     6.8524     0.2561     2.9382 </r>
       <r>     6.9169    -0.0107     2.9375 </r>
       <r>     6.9814    -0.0007     2.9375 </r>
       <r>     7.0460     0.0000     2.9375 </r>
       <r>     7.1105     0.0000     2.9375 </r>
       <r>     7.1751     0.0000     2.9375 </r>
       <r>     7.2396     0.0000     2.9375 </r>
       <r>     7.3041    -0.0009     2.9374 </r>
       <r>     7.3687    -0.0247     2.9358 </r>
       <r>     7.4332     0.4519     2.9650 </r>
       <r>     7.4977     0.3159     2.9854 </r>
       <r>     7.5623     0.0192     2.9866 </r>
       <r>     7.6268     0.8030     3.0385 </r>
       <r>     7.6913     0.1426     3.0477 </r>
       <r>     7.7559    -0.0530     3.0442 </r>
       <r>     7.8204     0.8688     3.1003 </r>
       <r>     7.8849     0.5034     3.1328 </r>
       <r>     7.9495     0.7171     3.1791 </r>
       <r>     8.0140     0.2074     3.1925 </r>
       <r>     8.0785    -0.0398     3.1899 </r>
       <r>     8.1431     0.3299     3.2112 </r>
       <r>     8.2076     0.4561     3.2406 </r>
       <r>     8.2721     1.0086     3.3057 </r>
       <r>     8.3367     1.1047     3.3770 </r>
       <r>     8.4012     0.0389     3.3795 </r>
       <r>     8.4658    -0.0104     3.3788 </r>
       <r>     8.5303    -0.0497     3.3756 </r>
       <r>     8.5948     0.7713     3.4254 </r>
       <r>     8.6594     0.9234     3.4850 </r>
       <r>     8.7239     0.5050     3.5176 </r>
       <r>     8.7884     0.7385     3.5652 </r>
       <r>     8.8530     0.7830     3.6158 </r>
       <r>     8.9175    -0.0366     3.6134 </r>
       <r>     8.9820    -0.0050     3.6131 </r>
       <r>     9.0466     0.0296     3.6150 </r>
       <r>     9.1111     0.1105     3.6221 </r>
       <r>     9.1756     0.5874     3.6600 </r>
       <r>     9.2402     0.9578     3.7219 </r>
       <r>     9.3047    -0.0873     3.7162 </r>
       <r>     9.3692     0.7249     3.7630 </r>
       <r>     9.4338     0.6388     3.8042 </r>
       <r>     9.4983     0.9052     3.8626 </r>
       <r>     9.5629     0.4572     3.8922 </r>
       <r>     9.6274     0.6337     3.9330 </r>
       <r>     9.6919     1.0562     4.0012 </r>
       <r>     9.7565     0.0481     4.0043 </r>
       <r>     9.8210     0.8620     4.0599 </r>
       <r>     9.8855     2.3115     4.2091 </r>
       <r>     9.9501    -0.0265     4.2074 </r>
       <r>    10.0146     0.1088     4.2144 </r>
       <r>    10.0791     0.1038     4.2211 </r>
       <r>    10.1437     0.6083     4.2604 </r>
       <r>    10.2082     0.5263     4.2944 </r>
       <r>    10.2727     0.4124     4.3210 </r>
       <r>    10.3373     2.0447     4.4529 </r>
       <r>    10.4018     2.2124     4.5957 </r>
       <r>    10.4663     0.2495     4.6118 </r>
       <r>    10.5309     1.8466     4.7310 </r>
       <r>    10.5954     2.4773     4.8908 </r>
       <r>    10.6600     0.3138     4.9111 </r>
       <r>    10.7245     0.4459     4.9399 </r>
       <r>    10.7890     0.9030     4.9981 </r>
       <r>    10.8536     0.5264     5.0321 </r>
       <r>    10.9181     0.2207     5.0464 </r>
       <r>    10.9826     0.1321     5.0549 </r>
       <r>    11.0472     0.0650     5.0591 </r>
       <r>    11.1117     0.4072     5.0854 </r>
       <r>    11.1762     0.0307     5.0873 </r>
       <r>    11.2408     0.6285     5.1279 </r>
       <r>    11.3053     0.0667     5.1322 </r>
       <r>    11.3698     0.2228     5.1466 </r>
       <r>    11.4344     0.5337     5.1810 </r>
       <r>    11.4989    -0.0191     5.1798 </r>
       <r>    11.5634    -0.0017     5.1797 </r>
       <r>    11.6280     0.0000     5.1797 </r>
       <r>    11.6925     0.0000     5.1797 </r>
       <r>    11.7570     0.0000     5.1797 </r>
       <r>    11.8216     0.0000     5.1797 </r>
       <r>    11.8861     0.0000     5.1797 </r>
       <r>    11.9507    -0.0003     5.1797 </r>
       <r>    12.0152    -0.0209     5.1783 </r>
       <r>    12.0797     0.2293     5.1931 </r>
       <r>    12.1443     1.3214     5.2784 </r>
       <r>    12.2088     0.1194     5.2861 </r>
       <r>    12.2733    -0.0462     5.2831 </r>
       <r>    12.3379     0.4786     5.3140 </r>
       <r>    12.4024     1.5652     5.4150 </r>
       <r>    12.4669     1.0139     5.4804 </r>
       <r>    12.5315     0.5456     5.5157 </r>
       <r>    12.5960     0.4345     5.5437 </r>
       <r>    12.6605     1.1008     5.6147 </r>
       <r>    12.7251    -0.0343     5.6125 </r>
       <r>    12.7896     0.1969     5.6252 </r>
       <r>    12.8541     0.5584     5.6613 </r>
       <r>    12.9187    -0.0150     5.6603 </r>
       <r>    12.9832    -0.0022     5.6602 </r>
       <r>    13.0478    -0.0001     5.6601 </r>
       <r>    13.1123    -0.0061     5.6598 </r>
       <r>    13.1768     0.0924     5.6657 </r>
       <r>    13.2414     0.1018     5.6723 </r>
       <r>    13.3059    -0.0075     5.6718 </r>
       <r>    13.3704    -0.0052     5.6715 </r>
       <r>    13.4350     0.2891     5.6901 </r>
       <r>    13.4995     0.0882     5.6958 </r>
       <r>    13.5640    -0.0076     5.6953 </r>
       <r>    13.6286     0.0000     5.6953 </r>
       <r>    13.6931     0.0000     5.6953 </r>
       <r>    13.7576    -0.0020     5.6952 </r>
       <r>    13.8222     0.0113     5.6959 </r>
       <r>    13.8867     0.1995     5.7088 </r>
       <r>    13.9512     0.2245     5.7233 </r>
       <r>    14.0158     0.1844     5.7352 </r>
       <r>    14.0803    -0.0122     5.7344 </r>
       <r>    14.1449    -0.0003     5.7344 </r>
       <r>    14.2094    -0.0085     5.7338 </r>
       <r>    14.2739     0.0722     5.7385 </r>
       <r>    14.3385     0.6354     5.7795 </r>
       <r>    14.4030     0.0331     5.7816 </r>
       <r>    14.4675    -0.0058     5.7813 </r>
       <r>    14.5321     0.0000     5.7813 </r>
       <r>    14.5966     0.0000     5.7812 </r>
       <r>    14.6611     0.0000     5.7812 </r>
       <r>    14.7257     0.0000     5.7812 </r>
       <r>    14.7902     0.0000     5.7812 </r>
       <r>    14.8547    -0.0151     5.7803 </r>
       <r>    14.9193     0.1154     5.7877 </r>
       <r>    14.9838     1.2758     5.8701 </r>
       <r>    15.0483     0.0899     5.8759 </r>
       <r>    15.1129    -0.0133     5.8750 </r>
       <r>    15.1774    -0.0003     5.8750 </r>
       <r>    15.2420    -0.0221     5.8736 </r>
       <r>    15.3065     0.2390     5.8890 </r>
       <r>    15.3710     1.3868     5.9785 </r>
       <r>    15.4356     0.1064     5.9854 </r>
       <r>    15.5001    -0.0151     5.9844 </r>
       <r>    15.5646    -0.0032     5.9842 </r>
       <r>    15.6292     0.0295     5.9861 </r>
       <r>    15.6937     0.2101     5.9996 </r>
       <r>    15.7582     0.0074     6.0001 </r>
       <r>    15.8228    -0.0017     6.0000 </r>
       <r>    15.8873     0.0000     6.0000 </r>
       <r>    15.9518     0.0000     6.0000 </r>
       <r>    16.0164     0.0000     6.0000 </r>
       <r>    16.0809     0.0000     6.0000 </r>
       <r>    16.1454     0.0000     6.0000 </r>
       <r>    16.2100     0.0000     6.0000 </r>
       <r>    16.2745     0.0000     6.0000 </r>
       <r>    16.3390     0.0000     6.0000 </r>
       <r>    16.4036     0.0000     6.0000 </r>
       <r>    16.4681     0.0000     6.0000 </r>
       <r>    16.5327     0.0000     6.0000 </r>
       <r>    16.5972     0.0000     6.0000 </r>
      </set>
      <set comment="spin 2">
       <r>    -2.7634     0.0000     0.0000 </r>
       <r>    -2.6988     0.0000     0.0000 </r>
       <r>    -2.6343     0.0000     0.0000 </r>
       <r>    -2.5698     0.0000     0.0000 </r>
       <r>    -2.5052     0.0000     0.0000 </r>
       <r>    -2.4407     0.0000     0.0000 </r>
       <r>    -2.3762     0.0000     0.0000 </r>
       <r>    -2.3116     0.0000     0.0000 </r>
       <r>    -2.2471     0.0000     0.0000 </r>
       <r>    -2.1826     0.0000     0.0000 </r>
       <r>    -2.1180     0.0000     0.0000 </r>
       <r>    -2.0535     0.0000     0.0000 </r>
       <r>    -1.9889     0.0000     0.0000 </r>
       <r>    -1.9244    -0.0001     0.0000 </r>
       <r>    -1.8599    -0.0058    -0.0004 </r>
       <r>    -1.7953     0.0825     0.0049 </r>
       <r>    -1.7308     0.1114     0.0121 </r>
       <r>    -1.6663    -0.0062     0.0117 </r>
       <r>    -1.6017    -0.0002     0.0117 </r>
       <r>    -1.5372     0.0000     0.0117 </r>
       <r>    -1.4727     0.0000     0.0117 </r>
       <r>    -1.4081     0.0000     0.0117 </r>
       <r>    -1.3436     0.0000     0.0117 </r>
       <r>    -1.2791    -0.0005     0.0117 </r>
       <r>    -1.2145    -0.0073     0.0112 </r>
       <r>    -1.1500     0.1692     0.0221 </r>
       <r>    -1.0855     0.0874     0.0278 </r>
       <r>    -1.0209    -0.0067     0.0273 </r>
       <r>    -0.9564    -0.0001     0.0273 </r>
       <r>    -0.8918     0.0000     0.0273 </r>
       <r>    -0.8273     0.0000     0.0273 </r>
       <r>    -0.7628     0.0000     0.0273 </r>
       <r>    -0.6982    -0.0008     0.0273 </r>
       <r>    -0.6337    -0.0249     0.0257 </r>
       <r>    -0.5692     0.4375     0.0539 </r>
       <r>    -0.5046     0.3384     0.0758 </r>
       <r>    -0.4401    -0.0234     0.0742 </r>
       <r>    -0.3756    -0.0004     0.0742 </r>
       <r>    -0.3110     0.0000     0.0742 </r>
       <r>    -0.2465     0.0000     0.0742 </r>
       <r>    -0.1820     0.0000     0.0742 </r>
       <r>    -0.1174     0.0000     0.0742 </r>
       <r>    -0.0529     0.0000     0.0742 </r>
       <r>     0.0116     0.0000     0.0742 </r>
       <r>     0.0762     0.0000     0.0742 </r>
       <r>     0.1407     0.0000     0.0742 </r>
       <r>     0.2053     0.0000     0.0742 </r>
       <r>     0.2698    -0.0001     0.0742 </r>
       <r>     0.3343    -0.0122     0.0734 </r>
       <r>     0.3989     0.1278     0.0817 </r>
       <r>     0.4634     0.6079     0.1209 </r>
       <r>     0.5279     0.0329     0.1230 </r>
       <r>     0.5925     0.1506     0.1327 </r>
       <r>     0.6570     0.0020     0.1329 </r>
       <r>     0.7215    -0.0010     0.1328 </r>
       <r>     0.7861    -0.0012     0.1327 </r>
       <r>     0.8506    -0.0232     0.1312 </r>
       <r>     0.9151     0.4857     0.1626 </r>
       <r>     0.9797     0.2937     0.1815 </r>
       <r>     1.0442     0.6001     0.2203 </r>
       <r>     1.1087     0.1086     0.2273 </r>
       <r>     1.1733    -0.0109     0.2266 </r>
       <r>     1.2378     0.0000     0.2266 </r>
       <r>     1.3023     0.0000     0.2266 </r>
       <r>     1.3669     0.0000     0.2266 </r>
       <r>     1.4314    -0.0031     0.2264 </r>
       <r>     1.4960    -0.0052     0.2260 </r>
       <r>     1.5605     0.5696     0.2628 </r>
       <r>     1.6250     0.5810     0.3003 </r>
       <r>     1.6896     0.3225     0.3211 </r>
       <r>     1.7541     0.2200     0.3353 </r>
       <r>     1.8186     0.1419     0.3444 </r>
       <r>     1.8832    -0.0106     0.3438 </r>
       <r>     1.9477    -0.0150     0.3428 </r>
       <r>     2.0122     0.1112     0.3500 </r>
       <r>     2.0768     1.2191     0.4286 </r>
       <r>     2.1413     0.9620     0.4907 </r>
       <r>     2.2058     0.8648     0.5465 </r>
       <r>     2.2704     0.3679     0.5703 </r>
       <r>     2.3349     0.5091     0.6031 </r>
       <r>     2.3994    -0.0234     0.6016 </r>
       <r>     2.4640    -0.0261     0.5999 </r>
       <r>     2.5285     0.3755     0.6242 </r>
       <r>     2.5931     0.4538     0.6535 </r>
       <r>     2.6576     0.3653     0.6770 </r>
       <r>     2.7221     0.3247     0.6980 </r>
       <r>     2.7867     1.5606     0.7987 </r>
       <r>     2.8512     0.3591     0.8219 </r>
       <r>     2.9157     0.0743     0.8267 </r>
       <r>     2.9803     0.0755     0.8315 </r>
       <r>     3.0448     0.1053     0.8383 </r>
       <r>     3.1093     1.0181     0.9040 </r>
       <r>     3.1739     0.8508     0.9589 </r>
       <r>     3.2384     0.2671     0.9762 </r>
       <r>     3.3029     0.6539     1.0184 </r>
       <r>     3.3675     0.2650     1.0355 </r>
       <r>     3.4320    -0.0036     1.0353 </r>
       <r>     3.4965    -0.0022     1.0351 </r>
       <r>     3.5611    -0.0016     1.0350 </r>
       <r>     3.6256     0.1463     1.0444 </r>
       <r>     3.6902     0.0148     1.0454 </r>
       <r>     3.7547     0.4840     1.0766 </r>
       <r>     3.8192     0.4765     1.1074 </r>
       <r>     3.8838     0.3255     1.1284 </r>
       <r>     3.9483     0.8051     1.1804 </r>
       <r>     4.0128    -0.0064     1.1799 </r>
       <r>     4.0774    -0.0273     1.1782 </r>
       <r>     4.1419     0.2032     1.1913 </r>
       <r>     4.2064     1.7695     1.3055 </r>
       <r>     4.2710     1.5067     1.4027 </r>
       <r>     4.3355    -0.0743     1.3979 </r>
       <r>     4.4000     0.6160     1.4377 </r>
       <r>     4.4646     1.1731     1.5134 </r>
       <r>     4.5291     0.3846     1.5382 </r>
       <r>     4.5936     0.4944     1.5701 </r>
       <r>     4.6582     1.9159     1.6938 </r>
       <r>     4.7227     1.4182     1.7853 </r>
       <r>     4.7872     0.6707     1.8286 </r>
       <r>     4.8518     0.3457     1.8509 </r>
       <r>     4.9163     0.1615     1.8613 </r>
       <r>     4.9809     0.5478     1.8966 </r>
       <r>     5.0454     1.0567     1.9648 </r>
       <r>     5.1099     0.4998     1.9971 </r>
       <r>     5.1745     0.8640     2.0529 </r>
       <r>     5.2390     0.3156     2.0732 </r>
       <r>     5.3035     0.5664     2.1098 </r>
       <r>     5.3681    -0.0390     2.1073 </r>
       <r>     5.4326     1.0213     2.1732 </r>
       <r>     5.4971     1.7666     2.2872 </r>
       <r>     5.5617     1.9888     2.4155 </r>
       <r>     5.6262     0.3347     2.4371 </r>
       <r>     5.6907     0.3231     2.4580 </r>
       <r>     5.7553     1.8180     2.5753 </r>
       <r>     5.8198     0.8116     2.6277 </r>
       <r>     5.8843     0.1225     2.6356 </r>
       <r>     5.9489     0.3141     2.6558 </r>
       <r>     6.0134     0.5081     2.6886 </r>
       <r>     6.0780     0.2039     2.7018 </r>
       <r>     6.1425     0.5180     2.7352 </r>
       <r>     6.2070     0.9875     2.7990 </r>
       <r>     6.2716     0.0932     2.8050 </r>
       <r>     6.3361     0.0489     2.8081 </r>
       <r>     6.4006     0.2240     2.8226 </r>
       <r>     6.4652     0.3440     2.8448 </r>
       <r>     6.5297     0.8906     2.9023 </r>
       <r>     6.5942     0.0742     2.9071 </r>
       <r>     6.6588     0.1148     2.9145 </r>
       <r>     6.7233    -0.0059     2.9141 </r>
       <r>     6.7878    -0.0025     2.9139 </r>
       <r>     6.8524     0.0063     2.9143 </r>
       <r>     6.9169     0.3110     2.9344 </r>
       <r>     6.9814     0.0535     2.9379 </r>
       <r>     7.0460    -0.0054     2.9375 </r>
       <r>     7.1105     0.0000     2.9375 </r>
       <r>     7.1751     0.0000     2.9375 </r>
       <r>     7.2396     0.0000     2.9375 </r>
       <r>     7.3041     0.0000     2.9375 </r>
       <r>     7.3687    -0.0020     2.9374 </r>
       <r>     7.4332    -0.0170     2.9363 </r>
       <r>     7.4977     0.5476     2.9716 </r>
       <r>     7.5623     0.2018     2.9846 </r>
       <r>     7.6268     0.1290     2.9930 </r>
       <r>     7.6913     0.7676     3.0425 </r>
       <r>     7.7559     0.0682     3.0469 </r>
       <r>     7.8204     0.0332     3.0491 </r>
       <r>     7.8849     1.0841     3.1190 </r>
       <r>     7.9495     0.2782     3.1370 </r>
       <r>     8.0140     0.7323     3.1842 </r>
       <r>     8.0785     0.1219     3.1921 </r>
       <r>     8.1431    -0.0358     3.1898 </r>
       <r>     8.2076     0.4610     3.2195 </r>
       <r>     8.2721     0.3494     3.2421 </r>
       <r>     8.3367     1.2197     3.3208 </r>
       <r>     8.4012     0.9188     3.3801 </r>
       <r>     8.4658    -0.0140     3.3792 </r>
       <r>     8.5303    -0.0085     3.3786 </r>
       <r>     8.5948    -0.0335     3.3765 </r>
       <r>     8.6594     1.0772     3.4460 </r>
       <r>     8.7239     0.7363     3.4935 </r>
       <r>     8.7884     0.4205     3.5207 </r>
       <r>     8.8530     0.9649     3.5829 </r>
       <r>     8.9175     0.5057     3.6156 </r>
       <r>     8.9820    -0.0348     3.6133 </r>
       <r>     9.0466    -0.0056     3.6130 </r>
       <r>     9.1111     0.0594     3.6168 </r>
       <r>     9.1756     0.0855     3.6223 </r>
       <r>     9.2402     0.9974     3.6867 </r>
       <r>     9.3047     0.5326     3.7211 </r>
       <r>     9.3692    -0.0404     3.7184 </r>
       <r>     9.4338     0.9765     3.7815 </r>
       <r>     9.4983     0.5525     3.8171 </r>
       <r>     9.5629     0.9766     3.8801 </r>
       <r>     9.6274     0.2952     3.8992 </r>
       <r>     9.6919     0.8903     3.9567 </r>
       <r>     9.7565     0.8129     4.0091 </r>
       <r>     9.8210    -0.1048     4.0023 </r>
       <r>     9.8855     1.8979     4.1248 </r>
       <r>     9.9501     1.3660     4.2130 </r>
       <r>    10.0146    -0.0751     4.2081 </r>
       <r>    10.0791     0.1398     4.2172 </r>
       <r>    10.1437     0.2141     4.2310 </r>
       <r>    10.2082     0.5985     4.2696 </r>
       <r>    10.2727     0.5806     4.3071 </r>
       <r>    10.3373     0.5894     4.3451 </r>
       <r>    10.4018     2.6810     4.5181 </r>
       <r>    10.4663     1.3945     4.6081 </r>
       <r>    10.5309     0.2972     4.6273 </r>
       <r>    10.5954     2.8802     4.8132 </r>
       <r>    10.6600     1.4088     4.9041 </r>
       <r>    10.7245     0.2394     4.9195 </r>
       <r>    10.7890     0.5881     4.9575 </r>
       <r>    10.8536     0.8991     5.0155 </r>
       <r>    10.9181     0.2662     5.0327 </r>
       <r>    10.9826     0.2824     5.0509 </r>
       <r>    11.0472     0.0507     5.0542 </r>
       <r>    11.1117     0.1764     5.0656 </r>
       <r>    11.1762     0.3166     5.0860 </r>
       <r>    11.2408     0.1554     5.0960 </r>
       <r>    11.3053     0.5806     5.1335 </r>
       <r>    11.3698    -0.0337     5.1313 </r>
       <r>    11.4344     0.4411     5.1598 </r>
       <r>    11.4989     0.3319     5.1812 </r>
       <r>    11.5634    -0.0232     5.1797 </r>
       <r>    11.6280    -0.0004     5.1797 </r>
       <r>    11.6925     0.0000     5.1797 </r>
       <r>    11.7570     0.0000     5.1797 </r>
       <r>    11.8216     0.0000     5.1797 </r>
       <r>    11.8861     0.0000     5.1797 </r>
       <r>    11.9507     0.0000     5.1797 </r>
       <r>    12.0152    -0.0031     5.1795 </r>
       <r>    12.0797    -0.0116     5.1787 </r>
       <r>    12.1443     0.6325     5.2196 </r>
       <r>    12.2088     0.9799     5.2828 </r>
       <r>    12.2733     0.0385     5.2853 </r>
       <r>    12.3379     0.0151     5.2863 </r>
       <r>    12.4024     0.8166     5.3390 </r>
       <r>    12.4669     1.7145     5.4496 </r>
       <r>    12.5315     0.7684     5.4992 </r>
       <r>    12.5960     0.3073     5.5190 </r>
       <r>    12.6605     0.5338     5.5535 </r>
       <r>    12.7251     0.9189     5.6128 </r>
       <r>    12.7896    -0.0003     5.6127 </r>
       <r>    12.8541     0.5656     5.6492 </r>
       <r>    12.9187     0.1849     5.6612 </r>
       <r>    12.9832    -0.0158     5.6602 </r>
       <r>    13.0478    -0.0001     5.6602 </r>
       <r>    13.1123     0.0000     5.6602 </r>
       <r>    13.1768    -0.0034     5.6599 </r>
       <r>    13.2414     0.0375     5.6624 </r>
       <r>    13.3059     0.1492     5.6720 </r>
       <r>    13.3704    -0.0024     5.6718 </r>
       <r>    13.4350    -0.0032     5.6716 </r>
       <r>    13.4995     0.2968     5.6908 </r>
       <r>    13.5640     0.0773     5.6958 </r>
       <r>    13.6286    -0.0069     5.6953 </r>
       <r>    13.6931     0.0000     5.6953 </r>
       <r>    13.7576     0.0000     5.6953 </r>
       <r>    13.8222    -0.0025     5.6952 </r>
       <r>    13.8867     0.0162     5.6962 </r>
       <r>    13.9512     0.2284     5.7109 </r>
       <r>    14.0158     0.3326     5.7324 </r>
       <r>    14.0803     0.0350     5.7347 </r>
       <r>    14.1449    -0.0043     5.7344 </r>
       <r>    14.2094    -0.0003     5.7344 </r>
       <r>    14.2739    -0.0218     5.7330 </r>
       <r>    14.3385     0.2966     5.7521 </r>
       <r>    14.4030     0.4768     5.7829 </r>
       <r>    14.4675    -0.0238     5.7813 </r>
       <r>    14.5321    -0.0011     5.7813 </r>
       <r>    14.5966     0.0000     5.7813 </r>
       <r>    14.6611     0.0000     5.7812 </r>
       <r>    14.7257     0.0000     5.7812 </r>
       <r>    14.7902     0.0000     5.7812 </r>
       <r>    14.8547    -0.0002     5.7812 </r>
       <r>    14.9193    -0.0306     5.7793 </r>
       <r>    14.9838     0.3551     5.8022 </r>
       <r>    15.0483     1.1544     5.8767 </r>
       <r>    15.1129    -0.0209     5.8753 </r>
       <r>    15.1774    -0.0051     5.8750 </r>
       <r>    15.2420    -0.0019     5.8749 </r>
       <r>    15.3065    -0.0197     5.8736 </r>
       <r>    15.3710     0.5220     5.9073 </r>
       <r>    15.4356     1.2125     5.9855 </r>
       <r>    15.5001    -0.0120     5.9848 </r>
       <r>    15.5646    -0.0061     5.9844 </r>
       <r>    15.6292    -0.0039     5.9841 </r>
       <r>    15.6937     0.0395     5.9867 </r>
       <r>    15.7582     0.2053     5.9999 </r>
       <r>    15.8228     0.0025     6.0001 </r>
       <r>    15.8873    -0.0013     6.0000 </r>
       <r>    15.9518     0.0000     6.0000 </r>
       <r>    16.0164     0.0000     6.0000 </r>
       <r>    16.0809     0.0000     6.0000 </r>
       <r>    16.1454     0.0000     6.0000 </r>
       <r>    16.2100     0.0000     6.0000 </r>
       <r>    16.2745     0.0000     6.0000 </r>
       <r>    16.3390     0.0000     6.0000 </r>
       <r>    16.4036     0.0000     6.0000 </r>
       <r>    16.4681     0.0000     6.0000 </r>
       <r>    16.5327     0.0000     6.0000 </r>
       <r>    16.5972     0.0000     6.0000 </r>
      </set>
     </set>
    </array>
   </total>
   <partial>
    <array>
     <dimension dim="1">gridpoints</dimension>
     <dimension dim="2">spin</dimension>
     <dimension dim="3">ion</dimension>
     <field>energy</field>
     <field>  s</field>
     <field> py</field>
     <field> pz</field>
     <field> px</field>
     <field>dxy</field>
     <field>dyz</field>
     <field>dz2</field>
     <field>dxz</field>
     <field>dx2</field>
     <set>
      <set comment="ion 1">
       <set comment="spin 1">
        <r>    -2.7634     0.0000     0.0000     0.0000     0.0000     0.0000     0.0000     0.0000     0.0000     0.0000 </r>
        <r>    -2.6988     0.0000     0.0000     0.0000     0.0000     0.0000     0.0000     0.0000     0.0000     0.0000 </r>
        <r>    -2.6343     0.0000     0.0000     0.0000     0.0000     0.0000     0.0000     0.0000     0.0000     0.0000 </r>
        <r>    -2.5698     0.0000     0.0000     0.0000     0.0000     0.0000     0.0000     0.0000     0.0000     0.0000 </r>
        <r>    -2.5052     0.0000     0.0000     0.0000     0.0000     0.0000     0.0000     0.0000     0.0000     0.0000 </r>
        <r>    -2.4407     0.0000     0.0000     0.0000     0.0000     0.0000     0.0000     0.0000     0.0000     0.0000 </r>
        <r>    -2.3762     0.0000     0.0000     0.0000     0.0000     0.0000     0.0000     0.0000     0.0000     0.0000 </r>
        <r>    -2.3116     0.0000     0.0000     0.0000     0.0000     0.0000     0.0000     0.0000     0.0000     0.0000 </r>
        <r>    -2.2471     0.0000     0.0000     0.0000     0.0000     0.0000     0.0000     0.0000     0.0000     0.0000 </r>
        <r>    -2.1826     0.0000     0.0000     0.0000     0.0000     0.0000     0.0000     0.0000     0.0000     0.0000 </r>
        <r>    -2.1180     0.0000     0.0000     0.0000     0.0000     0.0000     0.0000     0.0000     0.0000     0.0000 </r>
        <r>    -2.0535     0.0000     0.0000     0.0000     0.0000     0.0000     0.0000     0.0000     0.0000     0.0000 </r>
        <r>    -1.9889    -0.0008     0.0000     0.0000     0.0000     0.0000     0.0000     0.0000     0.0000     0.0000 </r>
        <r>    -1.9244     0.0015     0.0000     0.0000     0.0000     0.0000     0.0000     0.0000     0.0000     0.0000 </r>
        <r>    -1.8599     0.1290     0.0007     0.0020     0.0013     0.0000     0.0000     0.0000     0.0000     0.0000 </r>
        <r>    -1.7953     0.0248     0.0001     0.0004     0.0003     0.0000     0.0000     0.0000     0.0000     0.0000 </r>
        <r>    -1.7308    -0.0024     0.0000     0.0000     0.0000     0.0000     0.0000     0.0000     0.0000     0.0000 </r>
        <r>    -1.6663     0.0000     0.0000     0.0000     0.0000     0.0000     0.0000     0.0000     0.0000     0.0000 </r>
        <r>    -1.6017     0.0000     0.0000     0.0000     0.0000     0.0000     0.0000     0.0000     0.0000     0.0000 </r>
        <r>    -1.5372     0.0000     0.0000     0.0000     0.0000     0.0000     0.0000     0.0000     0.0000     0.0000 </r>
        <r>    -1.4727     0.0000     0.0000     0.0000     0.0000     0.0000     0.0000     0.0000     0.0000     0.0000 </r>
        <r>    -1.4081     0.0000     0.0000     0.0000     0.0000     0.0000     0.0000     0.0000     0.0000     0.0000 </r>
        <r>    -1.3436    -0.0026    -0.0001    -0.0002     0.0000     0.0000     0.0000     0.0000     0.0000     0.0000 </r>
        <r>    -1.2791     0.0242     0.0005     0.0014     0.0002     0.0000     0.0001     0.0001     0.0001     0.0000 </r>
        <r>    -1.2145     0.1670     0.0033     0.0099     0.0017     0.0001     0.0009     0.0005     0.0004     0.0000 </r>
        <r>    -1.1500     0.0055     0.0001     0.0003     0.0001     0.0000     0.0000     0.0000     0.0000     0.0000 </r>
        <r>    -1.0855    -0.0013     0.0000    -0.0001     0.0000     0.0000     0.0000     0.0000     0.0000     0.0000 </r>
        <r>    -1.0209     0.0000     0.0000     0.0000     0.0000     0.0000     0.0000     0.0000     0.0000     0.0000 </r>
        <r>    -0.9564     0.0000     0.0000     0.0000     0.0000     0.0000     0.0000     0.0000     0.0000     0.0000 </r>
        <r>    -0.8918     0.0000     0.0000     0.0000     0.0000     0.0000     0.0000     0.0000     0.0000     0.0000 </r>
        <r>    -0.8273     0.0000     0.0000     0.0000     0.0000     0.0000     0.0000     0.0000     0.0000     0.0000 </r>
        <r>    -0.7628    -0.0050    -0.0002    -0.0001    -0.0004    -0.0001     0.0000     0.0000     0.0000     0.0000 </r>
        <r>    -0.6982     0.0344     0.0015     0.0006     0.0030     0.0007     0.0001     0.0003     0.0001     0.0001 </r>
        <r>    -0.6337     0.4785     0.0209     0.0084     0.0418     0.0092     0.0008     0.0039     0.0016     0.0012 </r>
        <r>    -0.5692     0.0425     0.0019     0.0007     0.0037     0.0008     0.0001     0.0003     0.0001     0.0001 </r>
        <r>    -0.5046    -0.0056    -0.0002    -0.0001    -0.0005    -0.0001     0.0000     0.0000     0.0000     0.0000 </r>
        <r>    -0.4401     0.0000     0.0000     0.0000     0.0000     0.0000     0.0000     0.0000     0.0000     0.0000 </r>
        <r>    -0.3756     0.0000     0.0000     0.0000     0.0000     0.0000     0.0000     0.0000     0.0000     0.0000 </r>
        <r>    -0.3110     0.0000     0.0000     0.0000     0.0000     0.0000     0.0000     0.0000     0.0000     0.0000 </r>
        <r>    -0.2465     0.0000     0.0000     0.0000     0.0000     0.0000     0.0000     0.0000     0.0000     0.0000 </r>
        <r>    -0.1820     0.0000     0.0000     0.0000     0.0000     0.0000     0.0000     0.0000     0.0000     0.0000 </r>
        <r>    -0.1174     0.0000     0.0000     0.0000     0.0000     0.0000     0.0000     0.0000     0.0000     0.0000 </r>
        <r>    -0.0529     0.0000     0.0000     0.0000     0.0000     0.0000     0.0000     0.0000     0.0000     0.0000 </r>
        <r>     0.0116     0.0000     0.0000     0.0000     0.0000     0.0000     0.0000     0.0000     0.0000     0.0000 </r>
        <r>     0.0762     0.0000     0.0000     0.0000     0.0000     0.0000     0.0000     0.0000     0.0000     0.0000 </r>
        <r>     0.1407     0.0000     0.0000     0.0000     0.0000     0.0000     0.0000     0.0000     0.0000     0.0000 </r>
        <r>     0.2053    -0.0005     0.0000    -0.0001     0.0000     0.0000     0.0000     0.0000     0.0000     0.0000 </r>
        <r>     0.2698    -0.0165    -0.0007    -0.0021    -0.0012    -0.0004    -0.0005     0.0000    -0.0011    -0.0002 </r>
        <r>     0.3343     0.2835     0.0118     0.0353     0.0204     0.0065     0.0082     0.0006     0.0194     0.0038 </r>
        <r>     0.3989     0.2263     0.0094     0.0281     0.0161     0.0052     0.0066     0.0005     0.0156     0.0031 </r>
        <r>     0.4634     0.0549     0.0030     0.0089     0.0061     0.0005     0.0009     0.0003     0.0016    -0.0001 </r>
        <r>     0.5279     0.0553     0.0028     0.0085     0.0057     0.0007     0.0011     0.0003     0.0021     0.0001 </r>
        <r>     0.5925    -0.0038    -0.0002    -0.0006    -0.0004     0.0000    -0.0001     0.0000    -0.0001     0.0000 </r>
        <r>     0.6570    -0.0001     0.0000     0.0000     0.0000     0.0000     0.0000     0.0000     0.0000     0.0000 </r>
        <r>     0.7215    -0.0047    -0.0007    -0.0003    -0.0004    -0.0004    -0.0004    -0.0001     0.0000     0.0000 </r>
        <r>     0.7861     0.0370     0.0058     0.0025     0.0033     0.0029     0.0030     0.0008     0.0002     0.0002 </r>
        <r>     0.8506     0.3788     0.0600     0.0261     0.0335     0.0279     0.0309     0.0077     0.0025     0.0020 </r>
        <r>     0.9151     0.1169     0.0110     0.0039     0.0164     0.0316     0.0024     0.0101     0.0008     0.0039 </r>
        <r>     0.9797     0.3095     0.0236     0.0072     0.0480     0.1011     0.0008     0.0328     0.0022     0.0127 </r>
        <r>     1.0442    -0.0047    -0.0004    -0.0001    -0.0007    -0.0015     0.0000    -0.0005     0.0000    -0.0002 </r>
        <r>     1.1087    -0.0015    -0.0001     0.0000    -0.0002    -0.0005     0.0000    -0.0002     0.0000    -0.0001 </r>
        <r>     1.1733     0.0000     0.0000     0.0000     0.0000     0.0000     0.0000     0.0000     0.0000     0.0000 </r>
        <r>     1.2378     0.0000     0.0000     0.0000     0.0000     0.0000     0.0000     0.0000     0.0000     0.0000 </r>
        <r>     1.3023     0.0000     0.0000     0.0000     0.0000     0.0000     0.0000     0.0000     0.0000     0.0000 </r>
        <r>     1.3669    -0.0022     0.0000    -0.0001    -0.0001    -0.0034     0.0000    -0.0007     0.0000    -0.0004 </r>
        <r>     1.4314     0.0151     0.0002     0.0004     0.0005     0.0248    -0.0001     0.0054    -0.0007     0.0028 </r>
        <r>     1.4960     0.1935     0.0031     0.0066     0.0064     0.3023    -0.0001     0.0652    -0.0013     0.0372 </r>
        <r>     1.5605     0.2473     0.0117     0.0349     0.0085     0.0730     0.0189     0.0074     0.1486     0.0621 </r>
        <r>     1.6250     0.0601     0.0031     0.0092     0.0021     0.0098     0.0050    -0.0001     0.0393     0.0152 </r>
        <r>     1.6896     0.0748     0.0011     0.0032     0.0025     0.0347     0.0078     0.0038     0.1041     0.0438 </r>
        <r>     1.7541     0.0213     0.0004     0.0011     0.0007     0.0095     0.0022     0.0010     0.0286     0.0120 </r>
        <r>     1.8186    -0.0021    -0.0001    -0.0001    -0.0001    -0.0009    -0.0002    -0.0001    -0.0026    -0.0011 </r>
        <r>     1.8832    -0.0187    -0.0023    -0.0044    -0.0026    -0.0031    -0.0037    -0.0003    -0.0027    -0.0004 </r>
        <r>     1.9477     0.2451     0.0301     0.0576     0.0342     0.0377     0.0492     0.0037     0.0349     0.0048 </r>
        <r>     2.0122     0.4510     0.0549     0.1059     0.0666     0.0709     0.0851     0.0056     0.0632     0.0092 </r>
        <r>     2.0768     0.3912     0.0799     0.0367     0.0247     0.4025     0.0636     0.0970     0.0057     0.0261 </r>
        <r>     2.1413     0.1133     0.0239     0.0120     0.0084     0.1620     0.0407     0.0475     0.0453     0.0132 </r>
        <r>     2.2058     0.0785     0.0041     0.0139     0.0035     0.2106     0.0333     0.0382     0.0604     0.0269 </r>
        <r>     2.2704     0.0856     0.0052     0.0122     0.0026     0.1954     0.0049     0.0326     0.0007     0.0244 </r>
        <r>     2.3349    -0.0059    -0.0004    -0.0009    -0.0002    -0.0137    -0.0005    -0.0022    -0.0004    -0.0017 </r>
        <r>     2.3994    -0.0037    -0.0001    -0.0015    -0.0003    -0.0111    -0.0001    -0.0003    -0.0001    -0.0014 </r>
        <r>     2.4640     0.1004     0.0032     0.0404     0.0066     0.2969    -0.0001     0.0068    -0.0001     0.0371 </r>
        <r>     2.5285     0.0436     0.0042     0.0188     0.0061     0.1728     0.0202     0.0150     0.0403     0.0219 </r>
        <r>     2.5931    -0.0131     0.0058    -0.0011     0.0080     0.1003     0.0473     0.0282     0.0914     0.0105 </r>
        <r>     2.6576     0.1263     0.0174     0.0358     0.0015     0.0048     0.0738     0.0337     0.1843     0.0381 </r>
        <r>     2.7221     0.2368     0.0326     0.0903     0.0055     0.3840     0.1344     0.1177     0.3344     0.1151 </r>
        <r>     2.7867    -0.0056    -0.0009     0.0079     0.0009     0.1507    -0.0060     0.0201    -0.0151     0.0157 </r>
        <r>     2.8512     0.0281     0.0068     0.0198     0.0138    -0.0007     0.0169     0.0023     0.0337    -0.0003 </r>
        <r>     2.9157     0.0049     0.0004     0.0037     0.0010     0.0016    -0.0027     0.0008    -0.0041     0.0003 </r>
        <r>     2.9803     0.0034     0.0102     0.0026     0.0205    -0.0012     0.0727     0.0008     0.1452    -0.0002 </r>
        <r>     3.0448     0.1304     0.0596     0.0607     0.0818     0.1027     0.2582     0.0033     0.3051     0.0007 </r>
        <r>     3.1093     0.0580     0.0193     0.0576     0.0142     0.4289     0.0210     0.0037     0.0013     0.0511 </r>
        <r>     3.1739     0.0216     0.0048     0.0091     0.0016     0.0971     0.0291     0.0113    -0.0014     0.0106 </r>
        <r>     3.2384     0.1365     0.0258     0.0068     0.0113     0.1013     0.2615     0.0906     0.0156    -0.0007 </r>
        <r>     3.3029     0.0318     0.0032     0.0069     0.0015     0.0167     0.0856     0.0460     0.0384     0.0016 </r>
        <r>     3.3675    -0.0008    -0.0002     0.0000    -0.0001    -0.0007    -0.0011    -0.0002     0.0004     0.0000 </r>
        <r>     3.4320    -0.0002     0.0000     0.0000     0.0000    -0.0007    -0.0006    -0.0005    -0.0004    -0.0001 </r>
        <r>     3.4965     0.0000     0.0000     0.0000     0.0000     0.0031     0.0005     0.0012     0.0010     0.0004 </r>
        <r>     3.5611     0.0000     0.0000     0.0000    -0.0001     0.0681     0.0112     0.0258     0.0229     0.0083 </r>
        <r>     3.6256    -0.0014    -0.0004    -0.0012    -0.0006     0.0036    -0.0007     0.0024     0.0017    -0.0006 </r>
        <r>     3.6902     0.0151     0.0068     0.0204     0.0258     0.2490     0.0839     0.0264     0.0449     0.0847 </r>
        <r>     3.7547     0.0574     0.0139     0.0458     0.0113     0.0825     0.0465     0.0229     0.0153     0.0242 </r>
        <r>     3.8192     0.0203     0.0270     0.0261     0.0537     0.0130     0.0851     0.0001     0.1766     0.0610 </r>
[...]
       </set>
       <set comment="band 2">
        <r>  0.0000  0.0176  0.0059  0.0000  0.2540  0.1693  0.3810  0.0847  0.1270 </r>
       </set>
       <set comment="band 3">
        <r>  0.0000  0.0640  0.1920  0.5120  0.0035  0.0210  0.0472  0.0105  0.0437 </r>
       </set>
       <set comment="band 4">
        <r>  0.0703  0.0000  0.0001  0.0001  0.0595  0.4621  0.0453  0.1784  0.1732 </r>
       </set>
       <set comment="band 5">
        <r>  0.0000  0.0000  0.0000  0.0000  0.4928  0.0821  0.1848  0.1643  0.0616 </r>
       </set>
       <set comment="band 6">
        <r>  0.0000  0.0073  0.0220  0.0587  0.0245  0.1472  0.3313  0.0736  0.3067 </r>
       </set>
      </set>
      <set comment="kpoint 5">
       <set comment="band 1">
        <r>  0.8348  0.0044  0.0131  0.0087  0.0001  0.0001  0.0000  0.0003  0.0000 </r>
       </set>
       <set comment="band 2">
        <r>  0.0000  0.0007  0.0021  0.0056  0.0288  0.1726  0.3883  0.0863  0.3596 </r>
       </set>
       <set comment="band 3">
        <r>  0.0000  0.0063  0.0021  0.0000  0.2589  0.1726  0.3883  0.0863  0.1294 </r>
       </set>
       <set comment="band 4">
        <r>  0.0000  0.0000  0.0000  0.0000  0.0583  0.3497  0.0000  0.1748  0.4662 </r>
       </set>
       <set comment="band 5">
        <r>  0.0000  0.0000  0.0000  0.0000  0.4469  0.0745  0.1676  0.1490  0.0559 </r>
       </set>
       <set comment="band 6">
        <r>  0.0004  0.0001  0.0004  0.0003  0.1552  0.2327  0.0582  0.4655  0.0194 </r>
       </set>
      </set>
      <set comment="kpoint 6">
       <set comment="band 1">
        <r>  0.4786  0.0614  0.1162  0.0307  0.0164  0.1507  0.0076  0.0754  0.0021 </r>
       </set>
       <set comment="band 2">
        <r>  0.0000  0.0387  0.0000  0.0775  0.0749  0.0610  0.0000  0.1220  0.5994 </r>
       </set>
       <set comment="band 3">
        <r>  0.0229  0.0809  0.0029  0.0405  0.0655  0.1590  0.5435  0.0795  0.0082 </r>
       </set>
       <set comment="band 4">
        <r>  0.0000  0.0013  0.0000  0.0025  0.0269  0.2341  0.0000  0.4682  0.2152 </r>
       </set>
       <set comment="band 5">
        <r>  0.0103  0.0002  0.0003  0.0001  0.6777  0.0321  0.1535  0.0160  0.0847 </r>
       </set>
       <set comment="band 6">
        <r>  0.0039  0.0534  0.1259  0.0267  0.1162  0.2552  0.2392  0.1276  0.0145 </r>
       </set>
      </set>
      <set comment="kpoint 7">
       <set comment="band 1">
        <r>  0.2271  0.0313  0.0660  0.0035  0.0368  0.1370  0.0668  0.3391  0.0724 </r>
       </set>
       <set comment="band 2">
        <r>  0.0001  0.0961  0.0022  0.0220  0.2360  0.2044  0.2310  0.0000  0.2119 </r>
       </set>
       <set comment="band 3">
        <r>  0.0346  0.0584  0.0889  0.3174  0.0636  0.0280  0.1422  0.0251  0.1768 </r>
       </set>
       <set comment="band 4">
        <r>  0.0225  0.0004  0.0003  0.0088  0.0057  0.3277  0.0222  0.3253  0.2556 </r>
       </set>
       <set comment="band 5">
        <r>  0.0179  0.0012  0.0009  0.0078  0.5138  0.0008  0.3147  0.1137  0.0161 </r>
       </set>
       <set comment="band 6">
        <r>  0.0003  0.0655  0.1204  0.0824  0.1183  0.1699  0.2002  0.0537  0.1263 </r>
       </set>
      </set>
      <set comment="kpoint 8">
       <set comment="band 1">
        <r>  0.7473  0.0327  0.0131  0.0654  0.0146  0.0012  0.0061  0.0025  0.0018 </r>
       </set>
       <set comment="band 2">
        <r>  0.0000  0.0052  0.0000  0.0026  0.0016  0.6737  0.0000  0.3368  0.0127 </r>
       </set>
       <set comment="band 3">
        <r>  0.0035  0.0181  0.0021  0.0361  0.4939  0.0030  0.3577  0.0061  0.0617 </r>
       </set>
       <set comment="band 4">
        <r>  0.0000  0.0195  0.0000  0.0098  0.1069  0.0123  0.0000  0.0062  0.8556 </r>
       </set>
       <set comment="band 5">
        <r>  0.0000  0.0010  0.0000  0.0020  0.1795  0.0575  0.5180  0.1151  0.0224 </r>
       </set>
       <set comment="band 6">
        <r>  0.0048  0.0002  0.0025  0.0003  0.0932  0.2442  0.0976  0.4884  0.0117 </r>
       </set>
      </set>
      <set comment="kpoint 9">
       <set comment="band 1">
        <r>  0.1294  0.0108  0.0325  0.0054  0.0620  0.3720  0.2092  0.1860  0.0077 </r>
       </set>
       <set comment="band 2">
        <r>  0.0000  0.1565  0.1174  0.0782  0.3343  0.0977  0.0735  0.0489  0.0418 </r>
       </set>
       <set comment="band 3">
        <r>  0.0000  0.1174  0.0000  0.2347  0.0489  0.0522  0.0000  0.1043  0.3908 </r>
       </set>
       <set comment="band 4">
        <r>  0.0000  0.0095  0.0071  0.0047  0.2917  0.0439  0.5619  0.0219  0.0365 </r>
       </set>
       <set comment="band 5">
        <r>  0.0000  0.0071  0.0000  0.0142  0.0219  0.2529  0.0000  0.5057  0.1754 </r>
       </set>
       <set comment="band 6">
        <r>  0.7501  0.0089  0.0268  0.0045  0.0095  0.0570  0.0321  0.0285  0.0012 </r>
       </set>
      </set>
      <set comment="kpoint 10">
       <set comment="band 1">
        <r>  0.5348  0.0412  0.0128  0.0824  0.1752  0.0019  0.0569  0.0037  0.0219 </r>
       </set>
       <set comment="band 2">
        <r>  0.0000  0.0048  0.0000  0.0024  0.0003  0.6811  0.0000  0.3406  0.0020 </r>
       </set>
       <set comment="band 3">
        <r>  0.0451  0.0842  0.0003  0.1684  0.4497  0.0167  0.0581  0.0333  0.0562 </r>
       </set>
       <set comment="band 4">
        <r>  0.0002  0.0161  0.0004  0.0322  0.0601  0.0342  0.7217  0.0684  0.0075 </r>
       </set>
       <set comment="band 5">
        <r>  0.0000  0.0395  0.0000  0.0198  0.1007  0.0031  0.0000  0.0016  0.8056 </r>
       </set>
       <set comment="band 6">
        <r>  0.0215  0.0010  0.0031  0.0020  0.0702  0.2582  0.0841  0.5164  0.0088 </r>
       </set>
      </set>
      <set comment="kpoint 11">
       <set comment="band 1">
        <r>  0.6039  0.0947  0.0412  0.0544  0.0481  0.0489  0.0135  0.0040  0.0037 </r>
       </set>
       <set comment="band 2">
        <r>  0.0000  0.0057  0.0171  0.0457  0.2793  0.2170  0.0406  0.0005  0.3325 </r>
       </set>
       <set comment="band 3">
        <r>  0.0080  0.0463  0.0056  0.0149  0.0432  0.4747  0.1751  0.1999  0.0411 </r>
       </set>
       <set comment="band 4">
        <r>  0.0000  0.0012  0.0037  0.0098  0.1626  0.0023  0.4806  0.2240  0.0356 </r>
       </set>
       <set comment="band 5">
        <r>  0.0007  0.0749  0.0008  0.0063  0.1886  0.0495  0.1464  0.0049  0.5022 </r>
       </set>
       <set comment="band 6">
        <r>  0.0355  0.0044  0.0026  0.0030  0.1541  0.1622  0.0724  0.5392  0.0077 </r>
       </set>
      </set>
      <set comment="kpoint 12">
       <set comment="band 1">
        <r>  0.3051  0.0050  0.0109  0.0099  0.4751  0.0002  0.1026  0.0004  0.0594 </r>
       </set>
       <set comment="band 2">
        <r>  0.0000  0.0046  0.0000  0.0023  0.0000  0.6867  0.0000  0.3434  0.0002 </r>
       </set>
       <set comment="band 3">
        <r>  0.0380  0.2036  0.0000  0.4071  0.0818  0.0471  0.0001  0.0942  0.0102 </r>
       </set>
       <set comment="band 4">
        <r>  0.0471  0.0166  0.0005  0.0331  0.1512  0.0001  0.6918  0.0002  0.0189 </r>
       </set>
       <set comment="band 5">
        <r>  0.0182  0.0381  0.0012  0.0762  0.0166  0.2762  0.0001  0.5524  0.0021 </r>
       </set>
       <set comment="band 6">
        <r>  0.0000  0.0168  0.0000  0.0084  0.1060  0.0005  0.0000  0.0003  0.8479 </r>
       </set>
      </set>
      <set comment="kpoint 13">
       <set comment="band 1">
        <r>  0.3507  0.0700  0.0355  0.0233  0.3230  0.0548  0.0742  0.0001  0.0197 </r>
       </set>
       <set comment="band 2">
        <r>  0.0114  0.0000  0.0158  0.0991  0.1440  0.5495  0.0018  0.0189  0.1145 </r>
       </set>
       <set comment="band 3">
        <r>  0.0253  0.1158  0.0093  0.1240  0.0472  0.1160  0.0294  0.4039  0.0849 </r>
       </set>
       <set comment="band 4">
        <r>  0.0073  0.0042  0.0010  0.0513  0.1125  0.0078  0.6777  0.0552  0.0187 </r>
       </set>
       <set comment="band 5">
        <r>  0.0763  0.0005  0.0018  0.0224  0.0105  0.2288  0.0335  0.3815  0.2279 </r>
       </set>
       <set comment="band 6">
        <r>  0.0169  0.1413  0.0022  0.0256  0.2212  0.0064  0.0203  0.1048  0.4260 </r>
       </set>
      </set>
      <set comment="kpoint 14">
       <set comment="band 1">
        <r>  0.2233  0.0137  0.0322  0.0069  0.5146  0.0160  0.0867  0.0080  0.0643 </r>
       </set>
       <set comment="band 2">
        <r>  0.0047  0.0221  0.0224  0.0110  0.0328  0.5937  0.0214  0.2969  0.0041 </r>
       </set>
       <set comment="band 3">
        <r>  0.0000  0.1575  0.0000  0.3149  0.0071  0.1184  0.0000  0.2368  0.0568 </r>
       </set>
       <set comment="band 4">
        <r>  0.0845  0.0021  0.0019  0.0011  0.1420  0.0385  0.6246  0.0193  0.0178 </r>
       </set>
       <set comment="band 5">
        <r>  0.0000  0.0641  0.0000  0.1282  0.0297  0.1761  0.0000  0.3521  0.2379 </r>
       </set>
       <set comment="band 6">
        <r>  0.0000  0.0703  0.0000  0.1406  0.0747  0.0344  0.0000  0.0687  0.5979 </r>
       </set>
      </set>
      <set comment="kpoint 15">
       <set comment="band 1">
        <r>  0.2075  0.0396  0.0100  0.0173  0.1688  0.3928  0.1316  0.0137  0.0000 </r>
       </set>
       <set comment="band 2">
        <r>  0.0000  0.0169  0.0507  0.1352  0.3198  0.1628  0.0003  0.0172  0.2199 </r>
       </set>
       <set comment="band 3">
        <r>  0.0001  0.1792  0.0332  0.0683  0.0600  0.0264  0.0670  0.4450  0.0574 </r>
       </set>
       <set comment="band 4">
        <r>  0.0000  0.0057  0.0171  0.0455  0.1026  0.0118  0.4890  0.2080  0.0677 </r>
       </set>
       <set comment="band 5">
        <r>  0.0687  0.0368  0.0149  0.0204  0.0005  0.2902  0.1144  0.1238  0.2980 </r>
       </set>
       <set comment="band 6">
        <r>  0.3462  0.0071  0.0293  0.0181  0.2199  0.0310  0.1280  0.0032  0.1684 </r>
       </set>
      </set>
      <set comment="kpoint 16">
       <set comment="band 1">
        <r>  0.2935  0.0743  0.2229  0.0372  0.0237  0.1422  0.0800  0.0711  0.0030 </r>
       </set>
       <set comment="band 2">
        <r>  0.0000  0.1188  0.0195  0.0212  0.1050  0.1302  0.2026  0.0006  0.3991 </r>
       </set>
       <set comment="band 3">
        <r>  0.0000  0.0052  0.0337  0.1206  0.0037  0.0621  0.3498  0.1234  0.2986 </r>
       </set>
       <set comment="band 4">
        <r>  0.0000  0.0005  0.0001  0.0001  0.3374  0.1399  0.0240  0.4776  0.0019 </r>
       </set>
       <set comment="band 5">
        <r>  0.0000  0.0000  0.0002  0.0005  0.4534  0.1780  0.0502  0.1310  0.1682 </r>
       </set>
       <set comment="band 6">
        <r>  0.0301  0.0443  0.1330  0.0222  0.0548  0.3287  0.1849  0.1644  0.0068 </r>
       </set>
      </set>
      <set comment="kpoint 17">
       <set comment="band 1">
        <r>  0.0856  0.0367  0.1102  0.0735  0.0795  0.1132  0.0035  0.2386  0.2408 </r>
       </set>
       <set comment="band 2">
        <r>  0.0000  0.1336  0.0445  0.0000  0.2072  0.1381  0.3108  0.0691  0.1036 </r>
       </set>
       <set comment="band 3">
        <r>  0.0000  0.0355  0.1065  0.2840  0.0148  0.0889  0.2001  0.0445  0.1853 </r>
       </set>
       <set comment="band 4">
        <r>  0.0131  0.0002  0.0006  0.0004  0.1072  0.3929  0.0567  0.3215  0.0970 </r>
       </set>
       <set comment="band 5">
        <r>  0.0000  0.0000  0.0000  0.0000  0.4967  0.0828  0.1863  0.1656  0.0621 </r>
       </set>
       <set comment="band 6">
        <r>  0.8304  0.0063  0.0190  0.0127  0.0026  0.0288  0.0001  0.0077  0.0334 </r>
       </set>
      </set>
      <set comment="kpoint 18">
       <set comment="band 1">
        <r>  0.6477  0.0334  0.1001  0.0667  0.0083  0.0125  0.0031  0.0250  0.0010 </r>
       </set>
       <set comment="band 2">
        <r>  0.0000  0.0000  0.0000  0.0000  0.4182  0.0697  0.1568  0.1394  0.0523 </r>
       </set>
       <set comment="band 3">
        <r>  0.0000  0.0057  0.0172  0.0459  0.0258  0.1549  0.3484  0.0774  0.3226 </r>
       </set>
       <set comment="band 4">
        <r>  0.0000  0.0517  0.0172  0.0000  0.2323  0.1549  0.3484  0.0774  0.1161 </r>
       </set>
       <set comment="band 5">
        <r>  0.0000  0.0000  0.0000  0.0000  0.0553  0.3320  0.0000  0.1660  0.4427 </r>
       </set>
       <set comment="band 6">
        <r>  0.0475  0.0013  0.0040  0.0026  0.1560  0.2340  0.0585  0.4681  0.0195 </r>
       </set>
      </set>
      <set comment="kpoint 19">
       <set comment="band 1">
        <r>  0.4298  0.0501  0.0964  0.1002  0.1384  0.0268  0.0083  0.0537  0.0173 </r>
       </set>
       <set comment="band 2">
        <r>  0.0073  0.0221  0.0021  0.0442  0.4906  0.0805  0.0041  0.1609  0.0613 </r>
       </set>
       <set comment="band 3">
        <r>  0.0000  0.0434  0.0000  0.0217  0.0042  0.5941  0.0000  0.2971  0.0335 </r>
       </set>
       <set comment="band 4">
        <r>  0.0004  0.0368  0.0079  0.0736  0.0023  0.0007  0.8232  0.0013  0.0003 </r>
       </set>
       <set comment="band 5">
        <r>  0.0000  0.0282  0.0000  0.0141  0.0948  0.0422  0.0000  0.0211  0.7584 </r>
       </set>
       <set comment="band 6">
        <r>  0.1581  0.0148  0.0051  0.0295  0.1399  0.2031  0.0154  0.4061  0.0175 </r>
       </set>
      </set>
      <set comment="kpoint 20">
       <set comment="band 1">
        <r>  0.1868  0.0063  0.0757  0.0127  0.5642  0.0029  0.0146  0.0058  0.0705 </r>
       </set>
       <set comment="band 2">
        <r>  0.0203  0.0924  0.0007  0.1847  0.0649  0.1683  0.0082  0.3365  0.0081 </r>
       </set>
       <set comment="band 3">
        <r>  0.0000  0.0398  0.0000  0.0199  0.0003  0.6237  0.0000  0.3118  0.0021 </r>
       </set>
       <set comment="band 4">
        <r>  0.1022  0.0113  0.0090  0.0226  0.0452  0.0063  0.6958  0.0125  0.0057 </r>
       </set>
       <set comment="band 5">
        <r>  0.0990  0.1351  0.0042  0.2702  0.0505  0.1344  0.0216  0.2689  0.0063 </r>
       </set>
       <set comment="band 6">
        <r>  0.0000  0.0168  0.0000  0.0084  0.1040  0.0057  0.0000  0.0029  0.8321 </r>
       </set>
      </set>
      <set comment="kpoint 21">
       <set comment="band 1">
        <r>  0.2025  0.0688  0.0905  0.0767  0.1618  0.2240  0.0028  0.0961  0.0001 </r>
       </set>
       <set comment="band 2">
        <r>  0.0000  0.0052  0.0156  0.0416  0.4339  0.1342  0.0395  0.0730  0.1480 </r>
       </set>
       <set comment="band 3">
        <r>  0.0258  0.0958  0.0010  0.0082  0.0057  0.1706  0.2399  0.4076  0.0047 </r>
       </set>
       <set comment="band 4">
        <r>  0.0000  0.0109  0.0328  0.0874  0.0094  0.0604  0.4333  0.1433  0.1685 </r>
       </set>
       <set comment="band 5">
        <r>  0.1639  0.0186  0.0295  0.0235  0.0002  0.3133  0.0594  0.0326  0.3095 </r>
       </set>
       <set comment="band 6">
        <r>  0.0915  0.1598  0.0107  0.0418  0.2725  0.0049  0.0375  0.1282  0.2265 </r>
       </set>
      </set>
      <set comment="kpoint 22">
       <set comment="band 1">
        <r>  0.0530  0.0180  0.0744  0.0090  0.6695  0.0006  0.0075  0.0003  0.0837 </r>
       </set>
       <set comment="band 2">
        <r>  0.0000  0.0675  0.0000  0.1351  0.0025  0.2239  0.0000  0.4478  0.0200 </r>
       </set>
       <set comment="band 3">
        <r>  0.1140  0.0317  0.0069  0.0159  0.0006  0.3771  0.2287  0.1886  0.0001 </r>
       </set>
       <set comment="band 4">
        <r>  0.0543  0.0411  0.0567  0.0205  0.0028  0.1885  0.4798  0.0942  0.0004 </r>
       </set>
       <set comment="band 5">
        <r>  0.0000  0.0697  0.0000  0.1395  0.0678  0.0479  0.0000  0.0958  0.5420 </r>
       </set>
       <set comment="band 6">
        <r>  0.0000  0.1656  0.0000  0.3309  0.0406  0.0479  0.0000  0.0959  0.3257 </r>
       </set>
      </set>
      <set comment="kpoint 23">
       <set comment="band 1">
        <r>  0.1881  0.0451  0.1354  0.0903  0.0757  0.1136  0.0284  0.2272  0.0095 </r>
       </set>
       <set comment="band 2">
        <r>  0.0000  0.0000  0.0000  0.0000  0.4371  0.0729  0.1639  0.1457  0.0546 </r>
       </set>
       <set comment="band 3">
        <r>  0.0000  0.0139  0.0416  0.1109  0.0219  0.1314  0.2957  0.0657  0.2738 </r>
       </set>
       <set comment="band 4">
        <r>  0.0000  0.1247  0.0416  0.0000  0.1971  0.1314  0.2957  0.0657  0.0986 </r>
       </set>
       <set comment="band 5">
        <r>  0.0000  0.0000  0.0000  0.0000  0.0526  0.3157  0.0000  0.1578  0.4209 </r>
       </set>
       <set comment="band 6">
        <r>  0.3514  0.0240  0.0721  0.0481  0.0747  0.1120  0.0280  0.2240  0.0093 </r>
       </set>
      </set>
      <set comment="kpoint 24">
       <set comment="band 1">
        <r>  0.0194  0.0020  0.0458  0.0040  0.6538  0.0001  0.0992  0.0003  0.0817 </r>
       </set>
       <set comment="band 2">
        <r>  0.0139  0.0360  0.0113  0.0719  0.0043  0.2545  0.0031  0.5090  0.0005 </r>
       </set>
       <set comment="band 3">
        <r>  0.0000  0.0995  0.0000  0.0497  0.0019  0.5221  0.0000  0.2610  0.0154 </r>
       </set>
       <set comment="band 4">
        <r>  0.1321  0.0036  0.1447  0.0073  0.0255  0.0027  0.6033  0.0055  0.0032 </r>
       </set>
       <set comment="band 5">
        <r>  0.0000  0.0144  0.0000  0.0072  0.0995  0.0286  0.0000  0.0143  0.7964 </r>
       </set>
       <set comment="band 6">
        <r>  0.1917  0.1558  0.0338  0.3117  0.0618  0.0437  0.0436  0.0874  0.0077 </r>
       </set>
      </set>
      <set comment="kpoint 25">
       <set comment="band 1">
        <r>  0.0000  0.0168  0.0000  0.0336  0.0006  0.2851  0.0000  0.5702  0.0045 </r>
       </set>
       <set comment="band 2">
        <r>  0.0000  0.0224  0.0168  0.0112  0.6123  0.0011  0.1698  0.0006  0.0765 </r>
       </set>
       <set comment="band 3">
        <r>  0.1014  0.0354  0.1062  0.0177  0.0500  0.3000  0.1688  0.1500  0.0063 </r>
       </set>
       <set comment="band 4">
        <r>  0.0000  0.0682  0.0000  0.1417  0.0773  0.0082  0.0001  0.0188  0.6288 </r>
       </set>
       <set comment="band 5">
        <r>  0.0000  0.0951  0.0699  0.0448  0.0371  0.1577  0.4573  0.0776  0.0034 </r>
       </set>
       <set comment="band 6">
        <r>  0.3174  0.0534  0.1603  0.0267  0.0236  0.1416  0.0796  0.0708  0.0029 </r>
       </set>
      </set>
      <set comment="kpoint 26">
       <set comment="band 1">
        <r>  0.0000  0.0000  0.0000  0.0000  0.4587  0.0764  0.1720  0.1529  0.0573 </r>
       </set>
       <set comment="band 2">
        <r>  0.0017  0.0055  0.0166  0.0111  0.1476  0.2214  0.0553  0.4428  0.0184 </r>
       </set>
       <set comment="band 3">
        <r>  0.0000  0.1610  0.0537  0.0000  0.1807  0.1204  0.2710  0.0602  0.0903 </r>
       </set>
       <set comment="band 4">
        <r>  0.0000  0.0179  0.0537  0.1431  0.0201  0.1204  0.2710  0.0602  0.2509 </r>
       </set>
       <set comment="band 5">
        <r>  0.0000  0.0000  0.0000  0.0000  0.0534  0.3205  0.0000  0.1602  0.4273 </r>
       </set>
       <set comment="band 6">
        <r>  0.1756  0.1122  0.3367  0.2244  0.0058  0.0087  0.0022  0.0174  0.0007 </r>
       </set>
      </set>
     </set>
    </set>
   </array>
  </projected>
 </calculation>
 <structure name="finalpos" >
  <crystal>
   <varray name="basis" >
    <v>       2.86654409       0.00000000       0.00000000 </v>
    <v>      -0.95551470       2.70260368       0.00000000 </v>
    <v>      -0.95551470      -1.35130184       2.34052345 </v>
   </varray>
   <i name="volume">     18.13234550 </i>
   <varray name="rec_basis" >
    <v>       0.34885213       0.12333785       0.21362743 </v>
    <v>       0.00000000       0.37001356       0.21362743 </v>
    <v>       0.00000000       0.00000000       0.42725485 </v>
   </varray>
  </crystal>
  <varray name="positions" >
   <v>       0.00000000       0.00000000       0.00000000 </v>
  </varray>
 </structure>
</modeling>
