    3    3   50    1
  0.3333333E+03  0.1000000E-08  0.1000000E-08  0.1000000E-08  0.5000000E-15
  1.000000000000000E-004
  CAR 
 unknown system                          
   16    1   12
 
  0.0000000E+00  0.0000000E+00  0.0000000E+00  0.1000000E+01
   1      -28.941382
   2      -27.925584
   3      -13.565718
   4      -12.418765
   5      -12.418765
   6      -12.373792
   7       -8.852564
   8       -8.852564
   9       -0.918025
  10       -0.396298
  11       -0.396298
  12        0.524194
