       N       E                     dE             d eps       ncg     rms          rms(c)
DAV:   1     0.925216161467E+02    0.92522E+02   -0.42790E+03    32   0.682E+02
DAV:   2     0.169211905228E+02   -0.75600E+02   -0.70784E+02    32   0.174E+02
DAV:   3    -0.201231226713E+02   -0.37044E+02   -0.36841E+02    32   0.836E+01
DAV:   4    -0.247172122934E+02   -0.45941E+01   -0.45951E+01    32   0.320E+01
DAV:   5    -0.247571277015E+02   -0.39915E-01   -0.39645E-01    32   0.373E+00    0.853E+00
DAV:   6    -0.231110718026E+02    0.16461E+01   -0.48873E+00    28   0.205E+01    0.341E+00
DAV:   7    -0.229725402868E+02    0.13853E+00   -0.26984E-01    28   0.469E+00    0.193E+00
DAV:   8    -0.229136260857E+02    0.58914E-01   -0.23988E-01    28   0.372E+00    0.412E-01
DAV:   9    -0.229109730442E+02    0.26530E-02   -0.26788E-02    32   0.149E+00    0.249E-01
DAV:  10    -0.229115383642E+02   -0.56532E-03   -0.28055E-03    28   0.555E-01    0.559E-02
DAV:  11    -0.229151864598E+02   -0.36481E-02   -0.83774E-04    28   0.203E-01    0.211E-02
DAV:  12    -0.229167719765E+02   -0.15855E-02   -0.13411E-04    16   0.787E-02    0.209E-02
DAV:  13    -0.229189425532E+02   -0.21706E-02   -0.41796E-04    24   0.111E-01    0.116E-02
DAV:  14    -0.229194138838E+02   -0.47133E-03   -0.44855E-05    20   0.556E-02    0.754E-03
DAV:  15    -0.229197355474E+02   -0.32166E-03   -0.30135E-05    20   0.343E-02    0.300E-03
DAV:  16    -0.229198231603E+02   -0.87613E-04   -0.11143E-05    20   0.237E-02
   1 F= -.22919823E+02 E0= -.22921756E+02  d E =-.229198E+02
       N       E                     dE             d eps       ncg     rms          rms(c)
DAV:   1    -0.225156046055E+02    0.40413E+00   -0.80983E+01    24   0.879E+01    0.282E+00
DAV:   2    -0.225435790609E+02   -0.27974E-01   -0.20063E+00    32   0.128E+01    0.115E+00
DAV:   3    -0.225190456745E+02    0.24533E-01   -0.44523E-02    28   0.235E+00    0.590E-01
DAV:   4    -0.225191715723E+02   -0.12590E-03   -0.20767E-02    28   0.131E+00    0.203E-01
DAV:   5    -0.225201776278E+02   -0.10061E-02   -0.87926E-04    28   0.297E-01    0.818E-02
DAV:   6    -0.225204691941E+02   -0.29157E-03   -0.19890E-04    28   0.140E-01    0.190E-02
DAV:   7    -0.225204972786E+02   -0.28084E-04   -0.39963E-05    20   0.637E-02
   2 F= -.22520497E+02 E0= -.22522430E+02  d E =0.399326E+00
       N       E                     dE             d eps       ncg     rms          rms(c)
DAV:   1    -0.229242760720E+02   -0.40381E+00   -0.47300E+01    24   0.688E+01    0.190E+00
DAV:   2    -0.229649143986E+02   -0.40638E-01   -0.10626E+00    28   0.953E+00    0.908E-01
DAV:   3    -0.229469892372E+02    0.17925E-01   -0.29790E-02    28   0.175E+00    0.423E-01
DAV:   4    -0.229464183057E+02    0.57093E-03   -0.17729E-02    28   0.116E+00    0.120E-01
DAV:   5    -0.229467873502E+02   -0.36904E-03   -0.98280E-04    28   0.290E-01    0.648E-02
DAV:   6    -0.229471209638E+02   -0.33361E-03   -0.61082E-05    20   0.859E-02    0.106E-02
DAV:   7    -0.229471781312E+02   -0.57167E-04   -0.10954E-05    20   0.357E-02
   3 F= -.22947178E+02 E0= -.22949111E+02  d E =-.426681E+00
       N       E                     dE             d eps       ncg     rms          rms(c)
DAV:   1    -0.229491571618E+02   -0.20362E-02   -0.35665E-01    28   0.593E+00    0.181E-01
DAV:   2    -0.229492356039E+02   -0.78442E-04   -0.81145E-03    24   0.830E-01    0.798E-02
DAV:   3    -0.229491164675E+02    0.11914E-03   -0.23735E-04    20   0.166E-01    0.379E-02
DAV:   4    -0.229491500245E+02   -0.33557E-04   -0.17468E-04    16   0.121E-01
   4 F= -.22949150E+02 E0= -.22951083E+02  d E =-.197189E-02
       N       E                     dE             d eps       ncg     rms          rms(c)
DAV:   1    -0.229493261851E+02   -0.20972E-03   -0.17013E-02    24   0.129E+00    0.398E-02
DAV:   2    -0.229493405124E+02   -0.14327E-04   -0.38230E-04    24   0.180E-01
   5 F= -.22949341E+02 E0= -.22951273E+02  d E =-.190488E-03
