<?xml version="1.0" encoding="ISO-8859-1"?>
<modeling>
 <generator>
  <i name="program" type="string">vasp </i>
  <i name="version" type="string">5.2.12  </i>
  <i name="subversion" type="string">11Nov11 complex                                                      parallel </i>
  <i name="platform" type="string">LinuxIFC </i>
  <i name="date" type="string">2012 10 09 </i>
  <i name="time" type="string">20:13:05 </i>
 </generator>
 <incar>
  <i type="string" name="PREC">accurate</i>
  <i type="int" name="IBRION">     1</i>
  <i name="EDIFFG">     -0.05000000</i>
  <i type="int" name="NSW">    50</i>
  <i type="int" name="ISIF">     2</i>
  <i name="ENCUT">    450.00000000</i>
  <i type="logical" name="LREAL"> F  </i>
  <i type="int" name="ISMEAR">     1</i>
  <i name="SIGMA">      0.05000000</i>
 </incar>
 <kpoints>
  <generation param="Monkhorst-Pack">
   <v type="int" name="divisions">       1        1        1 </v>
   <v name="usershift">      0.00000000       0.00000000       0.00000000 </v>
   <v name="genvec1">      1.00000000       0.00000000       0.00000000 </v>
   <v name="genvec2">      0.00000000       1.00000000       0.00000000 </v>
   <v name="genvec3">      0.00000000       0.00000000       1.00000000 </v>
   <v name="shift">      0.00000000       0.00000000       0.00000000 </v>
  </generation>
  <varray name="kpointlist" >
   <v>       0.00000000       0.00000000       0.00000000 </v>
  </varray>
  <varray name="weights" >
   <v>       1.00000000 </v>
  </varray>
 </kpoints>
 <parameters>
  <separator name="general" >
   <i type="string" name="SYSTEM">unknown system</i>
   <i type="logical" name="LCOMPAT"> F  </i>
  </separator>
  <separator name="electronic" >
   <i type="string" name="PREC">accura</i>
   <i name="ENMAX">    450.00000000</i>
   <i name="ENAUG">    644.87300000</i>
   <i name="EDIFF">      0.00010000</i>
   <i type="int" name="IALGO">    38</i>
   <i type="int" name="IWAVPR">    11</i>
   <i type="int" name="NBANDS">    12</i>
   <i name="NELECT">     16.00000000</i>
   <i type="int" name="TURBO">     0</i>
   <i type="int" name="IRESTART">     0</i>
   <i type="int" name="NREBOOT">     0</i>
   <i type="int" name="NMIN">     0</i>
   <i name="EREF">      0.00000000</i>
   <separator name="electronic smearing" >
    <i type="int" name="ISMEAR">     1</i>
    <i name="SIGMA">      0.05000000</i>
    <i name="KSPACING">      0.50000000</i>
    <i type="logical" name="KGAMMA"> T  </i>
   </separator>
   <separator name="electronic projectors" >
    <i type="logical" name="LREAL"> F  </i>
    <v name="ROPT">      0.00000000      0.00000000</v>
    <i type="int" name="LMAXPAW">  -100</i>
    <i type="int" name="LMAXMIX">     2</i>
    <i type="logical" name="NLSPLINE"> F  </i>
   </separator>
   <separator name="electronic startup" >
    <i type="int" name="ISTART">     0</i>
    <i type="int" name="ICHARG">     2</i>
    <i type="int" name="INIWAV">     1</i>
   </separator>
   <separator name="electronic spin" >
    <i type="int" name="ISPIN">     1</i>
    <i type="logical" name="LNONCOLLINEAR"> F  </i>
    <v name="MAGMOM">      1.00000000      1.00000000      1.00000000</v>
    <i name="NUPDOWN">     -1.00000000</i>
    <i type="logical" name="LSORBIT"> F  </i>
    <v name="SAXIS">      0.00000000      0.00000000      1.00000000</v>
    <i type="logical" name="LSPIRAL"> F  </i>
    <v name="QSPIRAL">      0.00000000      0.00000000      0.00000000</v>
    <i type="logical" name="LZEROZ"> F  </i>
   </separator>
   <separator name="electronic exchange-correlation" >
    <i type="logical" name="LASPH"> F  </i>
    <i type="logical" name="LMETAGGA"> F  </i>
   </separator>
   <separator name="electronic convergence" >
    <i type="int" name="NELM">    60</i>
    <i type="int" name="NELMDL">    -5</i>
    <i type="int" name="NELMIN">     2</i>
    <i name="ENINI">    450.00000000</i>
    <separator name="electronic convergence detail" >
     <i type="logical" name="LDIAG"> T  </i>
     <i type="logical" name="LSUBROT"> T  </i>
     <i name="WEIMIN">      0.00100000</i>
     <i name="EBREAK">      0.00000208</i>
     <i name="DEPER">      0.30000000</i>
     <i type="int" name="NRMM">     4</i>
     <i name="TIME">      0.40000000</i>
    </separator>
   </separator>
   <separator name="electronic mixer" >
    <i name="AMIX">      0.40000000</i>
    <i name="BMIX">      1.00000000</i>
    <i name="AMIN">      0.10000000</i>
    <i name="AMIX_MAG">      1.60000000</i>
    <i name="BMIX_MAG">      1.00000000</i>
    <separator name="electronic mixer details" >
     <i type="int" name="IMIX">     4</i>
     <i type="int" name="MAXMIX">   -45</i>
     <i name="WC">    100.00000000</i>
     <i type="int" name="INIMIX">     1</i>
     <i type="int" name="MIXPRE">     1</i>
     <i type="int" name="MREMOVE">     5</i>
    </separator>
   </separator>
   <separator name="electronic dipolcorrection" >
    <i type="logical" name="LDIPOL"> F  </i>
    <i type="logical" name="LMONO"> F  </i>
    <i type="int" name="IDIPOL">     0</i>
    <i name="EPSILON">      1.00000000</i>
    <v name="DIPOL">   -100.00000000   -100.00000000   -100.00000000</v>
    <i name="EFIELD">      0.00000000</i>
   </separator>
  </separator>
  <separator name="grids" >
   <i type="int" name="NGX">    70</i>
   <i type="int" name="NGY">    70</i>
   <i type="int" name="NGZ">    70</i>
   <i type="int" name="NGXF">   140</i>
   <i type="int" name="NGYF">   140</i>
   <i type="int" name="NGZF">   140</i>
   <i type="logical" name="ADDGRID"> F  </i>
  </separator>
  <separator name="ionic" >
   <i type="int" name="NSW">    50</i>
   <i type="int" name="IBRION">     1</i>
   <i type="int" name="ISIF">     2</i>
   <i name="PSTRESS">      0.00000000</i>
   <i name="EDIFFG">     -0.05000000</i>
   <i type="int" name="NFREE">     0</i>
   <i name="POTIM">      0.50000000</i>
   <i name="SMASS">     -3.00000000</i>
   <i name="SCALEE">      1.00000000</i>
  </separator>
  <separator name="ionic md" >
   <i name="TEBEG">      0.00010000</i>
   <i name="TEEND">      0.00010000</i>
   <i type="int" name="NBLOCK">     1</i>
   <i type="int" name="KBLOCK">    50</i>
   <i type="int" name="NPACO">   256</i>
   <i name="APACO">     16.00000000</i>
  </separator>
  <separator name="symmetry" >
   <i type="int" name="ISYM">     2</i>
   <i name="SYMPREC">      0.00001000</i>
  </separator>
  <separator name="dos" >
   <i type="logical" name="LORBIT"> F  </i>
   <v name="RWIGS">     -1.00000000     -1.00000000</v>
   <i type="int" name="NEDOS">   301</i>
   <i name="EMIN">     10.00000000</i>
   <i name="EMAX">    -10.00000000</i>
   <i name="EFERMI">      0.00000000</i>
  </separator>
  <separator name="writing" >
   <i type="int" name="NWRITE">     2</i>
   <i type="logical" name="LWAVE"> T  </i>
   <i type="logical" name="LCHARG"> T  </i>
   <i type="logical" name="LPARD"> F  </i>
   <i type="logical" name="LVTOT"> F  </i>
   <i type="logical" name="LVHAR"> F  </i>
   <i type="logical" name="LELF"> F  </i>
   <i type="logical" name="LOPTICS"> F  </i>
   <v name="STM">      0.00000000      0.00000000      0.00000000      0.00000000      0.00000000      0.00000000      0.00000000</v>
  </separator>
  <separator name="performance" >
   <i type="int" name="NPAR">     1</i>
   <i type="int" name="NSIM">     4</i>
   <i type="int" name="NBLK">    -1</i>
   <i type="logical" name="LPLANE"> T  </i>
   <i type="logical" name="LSCALAPACK"> F  </i>
   <i type="logical" name="LSCAAWARE"> F  </i>
   <i type="logical" name="LSCALU"> F  </i>
   <i type="logical" name="LASYNC"> F  </i>
   <i type="logical" name="LORBITALREAL"> F  </i>
  </separator>
  <separator name="miscellaneous" >
   <i type="int" name="IDIOT">     3</i>
   <i type="logical" name="LMUSIC"> F  </i>
   <v name="POMASS">     12.01100000     16.00000000</v>
   <v name="DARWINR">      0.00000000      0.00000000</v>
   <v name="DARWINV">      1.00000000      1.00000000</v>
   <i type="logical" name="LCORR"> T  </i>
  </separator>
  <i type="logical" name="GGA_COMPAT"> T  </i>
  <i type="logical" name="LBERRY"> F  </i>
  <i type="int" name="ICORELEVEL">     0</i>
  <i type="logical" name="LDAU"> F  </i>
  <i type="int" name="I_CONSTRAINED_M">     0</i>
  <separator name="electronic exchange-correlation" >
   <i type="string" name="GGA">--</i>
   <i type="int" name="VOSKOWN">     0</i>
   <i type="logical" name="LHFCALC"> F  </i>
   <i type="string" name="PRECFOCK"></i>
   <i type="logical" name="LHFONE"> F  </i>
   <i type="logical" name="LRHFCALC"> F  </i>
   <i type="logical" name="LTHOMAS"> F  </i>
   <i type="logical" name="LMODELHF"> F  </i>
   <i name="ENCUT4O">     -1.00000000</i>
   <i type="int" name="EXXOEP">     0</i>
   <i type="int" name="FOURORBIT">     0</i>
   <i name="AEXX">      0.00000000</i>
   <i name="HFALPHA">      0.00000000</i>
   <i name="ALDAX">      1.00000000</i>
   <i name="AGGAX">      1.00000000</i>
   <i name="ALDAC">      1.00000000</i>
   <i name="AGGAC">      1.00000000</i>
   <i type="int" name="NKREDX">     1</i>
   <i type="int" name="NKREDY">     1</i>
   <i type="int" name="NKREDZ">     1</i>
   <i type="logical" name="SHIFTRED"> F  </i>
   <i type="logical" name="ODDONLY"> F  </i>
   <i type="logical" name="EVENONLY"> F  </i>
   <i type="int" name="LMAXFOCK">     0</i>
   <i type="int" name="NMAXFOCKAE">     0</i>
   <i type="logical" name="LFOCKAEDFT"> F  </i>
   <i name="HFSCREEN">      0.00000000</i>
   <i name="HFSCREENC">      0.00000000</i>
  </separator>
  <separator name="vdW DFT" >
   <i type="logical" name="LUSE_VDW"> F  </i>
   <i name="Zab_VDW">     -0.84910000</i>
   <i name="PARAM1">      0.12340000</i>
   <i name="PARAM2">      1.00000000</i>
   <i name="PARAM3">      0.00000000</i>
  </separator>
  <separator name="model GW" >
   <i type="int" name="MODEL_GW">     0</i>
   <i name="MODEL_EPS0">    200.00000000</i>
   <i name="MODEL_ALPHA">      1.00000000</i>
  </separator>
  <separator name="linear response parameters" >
   <i type="logical" name="LEPSILON"> F  </i>
   <i type="logical" name="LRPA"> F  </i>
   <i type="logical" name="LNABLA"> F  </i>
   <i type="logical" name="LVEL"> F  </i>
   <i type="int" name="KINTER">     0</i>
   <i name="CSHIFT">      0.10000000</i>
   <i name="OMEGAMAX">     -1.00000000</i>
  </separator>
  <separator name="orbital magnetization" >
   <i type="logical" name="NUCIND"> F  </i>
   <v name="MAGPOS">      0.00000000      0.00000000      0.00000000</v>
   <i type="logical" name="LNICSALL"> T  </i>
   <i type="logical" name="ORBITALMAG"> F  </i>
   <i type="logical" name="LMAGBLOCH"> F  </i>
   <i type="logical" name="LCHIMAG"> F  </i>
   <i type="logical" name="LGAUGE"> T  </i>
   <i type="int" name="MAGATOM">     0</i>
   <v name="MAGDIPOL">      0.00000000      0.00000000      0.00000000</v>
   <v name="AVECCONST">      0.00000000      0.00000000      0.00000000</v>
  </separator>
  <separator name="response functions" >
   <i type="logical" name="LADDER"> F  </i>
   <i type="logical" name="LHARTREE"> T  </i>
   <i type="int" name="IBSE">     0</i>
   <i type="logical" name="LTCTE"> F  </i>
   <i type="logical" name="LTETE"> F  </i>
   <i type="logical" name="LFXCEPS"> F  </i>
   <i type="logical" name="L2ORDER"> F  </i>
   <i type="logical" name="LUSEW"> F  </i>
   <i name="ENCUTGW">     -2.00000000</i>
   <i name="ENCUTGWSOFT">     -2.00000000</i>
   <i name="ENCUTLF">     -1.00000000</i>
   <i type="int" name="LMAXMP2">    -1</i>
   <i name="SCISSOR">      0.00000000</i>
   <i type="int" name="NOMEGA">     0</i>
   <i type="int" name="NOMEGAR">     0</i>
   <i type="int" name="NBANDSGW">    -1</i>
   <i type="int" name="NBANDSO">    -1</i>
   <i type="int" name="NBANDSV">    -1</i>
   <i name="OPTEMAX">      0.00000000</i>
   <i type="int" name="NELM">     1</i>
   <i type="int" name="DIM">     3</i>
   <i type="int" name="ANTIRES">     0</i>
   <i name="OMEGAMAX">    -30.00000000</i>
   <i name="OMEGATL">   -200.00000000</i>
   <i type="int" name="OMEGAGRID">     0</i>
   <i name="CSHIFT">     -0.10000000</i>
   <i type="logical" name="SELFENERGY"> F  </i>
   <i type="logical" name="LSPECTRAL"> F  </i>
   <i type="logical" name="ODDONLYGW"> F  </i>
   <i type="logical" name="EVENONLYGW"> F  </i>
   <i type="int" name="NKREDLFX">     1</i>
   <i type="int" name="NKREDLFY">     1</i>
   <i type="int" name="NKREDLFZ">     1</i>
   <i type="int" name="MAXMEM">  1800</i>
   <i type="int" name="TELESCOPE">     0</i>
  </separator>
 </parameters>
 <atominfo>
  <atoms>       3 </atoms>
  <types>       2 </types>
  <array name="atoms" >
   <dimension dim="1">ion</dimension>
   <field type="string">element</field>
   <field type="int">atomtype</field>
   <set>
    <rc><c>C </c><c>   1</c></rc>
    <rc><c>O </c><c>   2</c></rc>
    <rc><c>O </c><c>   2</c></rc>
   </set>
  </array>
  <array name="atomtypes" >
   <dimension dim="1">type</dimension>
   <field type="int">atomspertype</field>
   <field type="string">element</field>
   <field>mass</field>
   <field>valence</field>
   <field type="string">pseudopotential</field>
   <set>
    <rc><c>   1</c><c>C </c><c>     12.01100000</c><c>      4.00000000</c><c> PAW_PBE C 08Apr2002                    </c></rc>
    <rc><c>   2</c><c>O </c><c>     16.00000000</c><c>      6.00000000</c><c> PAW_PBE O 08Apr2002                    </c></rc>
   </set>
  </array>
 </atominfo>
 <structure name="initialpos" >
  <crystal>
   <varray name="basis" >
    <v>      10.00000000       0.00000000       0.00000000 </v>
    <v>       0.00000000      10.00000000       0.00000000 </v>
    <v>       0.00000000       0.00000000      10.00000000 </v>
   </varray>
   <i name="volume">   1000.00000000 </i>
   <varray name="rec_basis" >
    <v>       0.10000000       0.00000000       0.00000000 </v>
    <v>       0.00000000       0.10000000       0.00000000 </v>
    <v>       0.00000000       0.00000000       0.10000000 </v>
   </varray>
  </crystal>
  <varray name="positions" >
   <v>       0.11600000       0.00000000       0.00000000 </v>
   <v>       0.00000000       0.00000000       0.00000000 </v>
   <v>       0.23200000       0.00000000       0.00000000 </v>
  </varray>
 </structure>
 <calculation>
  <scstep>
   <time name="dav">    3.55    3.56</time>
   <time name="total">    9.45    9.46</time>
   <energy>
    <i name="alphaZ">      1.06689490 </i>
    <i name="ewald">    304.63885589 </i>
    <i name="hartreedc">  -1112.59984709 </i>
    <i name="XCdc">     68.37513312 </i>
    <i name="pawpsdc">    529.82824833 </i>
    <i name="pawaedc">   -534.67809926 </i>
    <i name="eentropy">      0.00289895 </i>
    <i name="bandstr">   -175.93656214 </i>
    <i name="atom">   1011.82409344 </i>
    <i name="e_fr_energy">     92.52161615 </i>
    <i name="e_wo_entrp">     92.51871719 </i>
    <i name="e_0_energy">     92.52064983 </i>
   </energy>
  </scstep>
  <scstep>
   <time name="dav">    3.53    3.53</time>
   <time name="total">    3.53    3.55</time>
   <energy>
    <i name="e_fr_energy">     16.92119052 </i>
    <i name="e_wo_entrp">     16.91829157 </i>
    <i name="e_0_energy">     16.92022421 </i>
   </energy>
  </scstep>
  <scstep>
   <time name="dav">    3.53    3.53</time>
   <time name="total">    3.53    3.54</time>
   <energy>
    <i name="e_fr_energy">    -20.12312267 </i>
    <i name="e_wo_entrp">    -20.12602162 </i>
    <i name="e_0_energy">    -20.12408899 </i>
   </energy>
  </scstep>
  <scstep>
   <time name="dav">    3.53    3.53</time>
   <time name="total">    3.53    3.54</time>
   <energy>
    <i name="e_fr_energy">    -24.71721229 </i>
    <i name="e_wo_entrp">    -24.72307425 </i>
    <i name="e_0_energy">    -24.71916628 </i>
   </energy>
  </scstep>
  <scstep>
   <time name="dav">    4.03    4.03</time>
   <time name="total">    5.12    5.14</time>
   <energy>
    <i name="e_fr_energy">    -24.75712770 </i>
    <i name="e_wo_entrp">    -24.76292566 </i>
    <i name="e_0_energy">    -24.75906035 </i>
   </energy>
  </scstep>
  <scstep>
   <time name="dav">    3.63    3.63</time>
   <time name="total">   10.08   10.10</time>
   <energy>
    <i name="e_fr_energy">    -23.11107180 </i>
    <i name="e_wo_entrp">    -23.11686971 </i>
    <i name="e_0_energy">    -23.11300444 </i>
   </energy>
  </scstep>
  <scstep>
   <time name="dav">    3.63    3.63</time>
   <time name="total">   10.06   10.08</time>
   <energy>
    <i name="e_fr_energy">    -22.97254029 </i>
    <i name="e_wo_entrp">    -22.97833819 </i>
    <i name="e_0_energy">    -22.97447292 </i>
   </energy>
  </scstep>
  <scstep>
   <time name="dav">    3.62    3.63</time>
   <time name="total">   10.02   10.04</time>
   <energy>
    <i name="e_fr_energy">    -22.91362609 </i>
    <i name="e_wo_entrp">    -22.91942399 </i>
    <i name="e_0_energy">    -22.91555872 </i>
   </energy>
  </scstep>
  <scstep>
   <time name="dav">    4.14    4.14</time>
   <time name="total">   10.57   10.58</time>
   <energy>
    <i name="e_fr_energy">    -22.91097304 </i>
    <i name="e_wo_entrp">    -22.91677095 </i>
    <i name="e_0_energy">    -22.91290568 </i>
   </energy>
  </scstep>
  <scstep>
   <time name="dav">    3.85    3.85</time>
   <time name="total">   10.51   10.52</time>
   <energy>
    <i name="e_fr_energy">    -22.91153836 </i>
    <i name="e_wo_entrp">    -22.91733627 </i>
    <i name="e_0_energy">    -22.91347100 </i>
   </energy>
  </scstep>
  <scstep>
   <time name="dav">    3.83    3.83</time>
   <time name="total">   10.39   10.42</time>
   <energy>
    <i name="e_fr_energy">    -22.91518646 </i>
    <i name="e_wo_entrp">    -22.92098437 </i>
    <i name="e_0_energy">    -22.91711909 </i>
   </energy>
  </scstep>
  <scstep>
   <time name="dav">    2.66    2.66</time>
   <time name="total">    9.20    9.22</time>
   <energy>
    <i name="e_fr_energy">    -22.91677198 </i>
    <i name="e_wo_entrp">    -22.92256988 </i>
    <i name="e_0_energy">    -22.91870461 </i>
   </energy>
  </scstep>
  <scstep>
   <time name="dav">    3.42    3.42</time>
   <time name="total">    9.89    9.90</time>
   <energy>
    <i name="e_fr_energy">    -22.91894255 </i>
    <i name="e_wo_entrp">    -22.92474046 </i>
    <i name="e_0_energy">    -22.92087519 </i>
   </energy>
  </scstep>
  <scstep>
   <time name="dav">    3.05    3.06</time>
   <time name="total">    9.44    9.45</time>
   <energy>
    <i name="e_fr_energy">    -22.91941388 </i>
    <i name="e_wo_entrp">    -22.92521179 </i>
    <i name="e_0_energy">    -22.92134652 </i>
   </energy>
  </scstep>
  <scstep>
   <time name="dav">    3.05    3.05</time>
   <time name="total">    9.44    9.46</time>
   <energy>
    <i name="e_fr_energy">    -22.91973555 </i>
    <i name="e_wo_entrp">    -22.92553345 </i>
    <i name="e_0_energy">    -22.92166818 </i>
   </energy>
  </scstep>
  <scstep>
   <time name="dav">    3.04    3.04</time>
   <time name="total">    8.31    8.33</time>
   <energy>
    <i name="alphaZ">      1.06689490 </i>
    <i name="ewald">    304.63885589 </i>
    <i name="hartreedc">  -1153.86744832 </i>
    <i name="XCdc">     70.62124943 </i>
    <i name="pawpsdc">    704.98020899 </i>
    <i name="pawaedc">   -710.21467773 </i>
    <i name="eentropy">      0.00579791 </i>
    <i name="bandstr">   -251.97479767 </i>
    <i name="atom">   1011.82409344 </i>
    <i name="e_fr_energy">    -22.91982316 </i>
    <i name="e_wo_entrp">    -22.92562107 </i>
    <i name="e_0_energy">    -22.92175580 </i>
   </energy>
  </scstep>
  <parameters_embedded>
   <separator name="dft+d2" >
    <i type="logical" name="LVDW"> F  </i>
   </separator>
  </parameters_embedded>
  <structure>
   <crystal>
    <varray name="basis" >
     <v>      10.00000000       0.00000000       0.00000000 </v>
     <v>       0.00000000      10.00000000       0.00000000 </v>
     <v>       0.00000000       0.00000000      10.00000000 </v>
    </varray>
    <i name="volume">   1000.00000000 </i>
    <varray name="rec_basis" >
     <v>       0.10000000       0.00000000       0.00000000 </v>
     <v>       0.00000000       0.10000000       0.00000000 </v>
     <v>       0.00000000       0.00000000       0.10000000 </v>
    </varray>
   </crystal>
   <varray name="positions" >
    <v>       0.11600000       0.00000000       0.00000000 </v>
    <v>       0.00000000       0.00000000       0.00000000 </v>
    <v>       0.23200000       0.00000000       0.00000000 </v>
   </varray>
  </structure>
  <varray name="forces" >
   <v>       0.00000000       0.00000000       0.00000000 </v>
   <v>      -1.80354071       0.00000000       0.00000000 </v>
   <v>       1.80354071       0.00000000       0.00000000 </v>
  </varray>
  <varray name="stress" >
   <v>       6.25237633       0.00000000       0.00000000 </v>
   <v>       0.00000000      -0.60127269       0.00000000 </v>
   <v>       0.00000000       0.00000000      -0.60127269 </v>
  </varray>
  <energy>
   <i name="e_fr_energy">    -22.91982316 </i>
   <i name="e_wo_entrp">    -22.92175580 </i>
   <i name="e_0_energy">      0.00579791 </i>
  </energy>
  <time name="totalsc">  148.84  149.71</time>
 </calculation>
 <calculation>
  <scstep>
   <time name="dav">    3.19    3.19</time>
   <time name="total">    9.68    9.68</time>
   <energy>
    <i name="alphaZ">      1.06689490 </i>
    <i name="ewald">    248.85994630 </i>
    <i name="hartreedc">  -1114.30877072 </i>
    <i name="XCdc">     69.89517710 </i>
    <i name="pawpsdc">    704.96179748 </i>
    <i name="pawaedc">   -710.19618854 </i>
    <i name="eentropy">      0.00579791 </i>
    <i name="bandstr">   -234.62435247 </i>
    <i name="atom">   1011.82409344 </i>
    <i name="e_fr_energy">    -22.51560461 </i>
    <i name="e_wo_entrp">    -22.52140251 </i>
    <i name="e_0_energy">    -22.51753724 </i>
   </energy>
  </scstep>
  <scstep>
   <time name="dav">    4.05    4.05</time>
   <time name="total">   10.05   10.06</time>
   <energy>
    <i name="e_fr_energy">    -22.54357906 </i>
    <i name="e_wo_entrp">    -22.54937697 </i>
    <i name="e_0_energy">    -22.54551170 </i>
   </energy>
  </scstep>
  <scstep>
   <time name="dav">    3.66    3.66</time>
   <time name="total">    9.60    9.62</time>
   <energy>
    <i name="e_fr_energy">    -22.51904567 </i>
    <i name="e_wo_entrp">    -22.52484358 </i>
    <i name="e_0_energy">    -22.52097831 </i>
   </energy>
  </scstep>
  <scstep>
   <time name="dav">    3.65    3.66</time>
   <time name="total">    9.63    9.65</time>
   <energy>
    <i name="e_fr_energy">    -22.51917157 </i>
    <i name="e_wo_entrp">    -22.52496948 </i>
    <i name="e_0_energy">    -22.52110421 </i>
   </energy>
  </scstep>
  <scstep>
   <time name="dav">    3.71    3.71</time>
   <time name="total">    9.11    9.28</time>
   <energy>
    <i name="e_fr_energy">    -22.52017763 </i>
    <i name="e_wo_entrp">    -22.52597553 </i>
    <i name="e_0_energy">    -22.52211026 </i>
   </energy>
  </scstep>
  <scstep>
   <time name="dav">    3.71    3.71</time>
   <time name="total">    9.16    9.18</time>
   <energy>
    <i name="e_fr_energy">    -22.52046919 </i>
    <i name="e_wo_entrp">    -22.52626710 </i>
    <i name="e_0_energy">    -22.52240183 </i>
   </energy>
  </scstep>
  <scstep>
   <time name="dav">    2.94    2.94</time>
   <time name="total">    7.31    7.33</time>
   <energy>
    <i name="alphaZ">      1.06689490 </i>
    <i name="ewald">    248.85994630 </i>
    <i name="hartreedc">  -1103.00858662 </i>
    <i name="XCdc">     69.32429030 </i>
    <i name="pawpsdc">    654.30536956 </i>
    <i name="pawaedc">   -659.28721775 </i>
    <i name="eentropy">      0.00579791 </i>
    <i name="bandstr">   -245.61108530 </i>
    <i name="atom">   1011.82409344 </i>
    <i name="e_fr_energy">    -22.52049728 </i>
    <i name="e_wo_entrp">    -22.52629518 </i>
    <i name="e_0_energy">    -22.52242991 </i>
   </energy>
  </scstep>
  <structure>
   <crystal>
    <varray name="basis" >
     <v>      10.00000000       0.00000000       0.00000000 </v>
     <v>       0.00000000      10.00000000       0.00000000 </v>
     <v>       0.00000000       0.00000000      10.00000000 </v>
    </varray>
    <i name="volume">   1000.00000000 </i>
    <varray name="rec_basis" >
     <v>       0.10000000       0.00000000       0.00000000 </v>
     <v>       0.00000000       0.10000000       0.00000000 </v>
     <v>       0.00000000       0.00000000       0.10000000 </v>
    </varray>
   </crystal>
   <varray name="positions" >
    <v>       0.11600000       0.00000000       0.00000000 </v>
    <v>      -0.00870076       0.00000000       0.00000000 </v>
    <v>       0.24070076       0.00000000       0.00000000 </v>
   </varray>
  </structure>
  <varray name="forces" >
   <v>       0.00000000       0.00000000       0.00000000 </v>
   <v>       5.61343577       0.00000000       0.00000000 </v>
   <v>      -5.61343577       0.00000000       0.00000000 </v>
  </varray>
  <varray name="stress" >
   <v>     -22.88177158       0.00000000       0.00000000 </v>
   <v>       0.00000000      -0.65973519       0.00000000 </v>
   <v>       0.00000000       0.00000000      -0.65973519 </v>
  </varray>
  <energy>
   <i name="e_fr_energy">    -22.52049728 </i>
   <i name="e_wo_entrp">    -22.52242991 </i>
   <i name="e_0_energy">      0.00579791 </i>
  </energy>
  <time name="totalsc">   73.91   74.19</time>
 </calculation>
 <calculation>
  <scstep>
   <time name="dav">    3.28    3.28</time>
   <time name="total">    8.79    8.79</time>
   <energy>
    <i name="alphaZ">      1.06689490 </i>
    <i name="ewald">    290.28893654 </i>
    <i name="hartreedc">  -1131.92018669 </i>
    <i name="XCdc">     69.83942364 </i>
    <i name="pawpsdc">    654.36664437 </i>
    <i name="pawaedc">   -659.34965317 </i>
    <i name="eentropy">      0.00579791 </i>
    <i name="bandstr">   -259.04622701 </i>
    <i name="atom">   1011.82409344 </i>
    <i name="e_fr_energy">    -22.92427607 </i>
    <i name="e_wo_entrp">    -22.93007398 </i>
    <i name="e_0_energy">    -22.92620871 </i>
   </energy>
  </scstep>
  <scstep>
   <time name="dav">    3.70    3.70</time>
   <time name="total">    9.37    9.38</time>
   <energy>
    <i name="e_fr_energy">    -22.96491440 </i>
    <i name="e_wo_entrp">    -22.97071230 </i>
    <i name="e_0_energy">    -22.96684703 </i>
   </energy>
  </scstep>
  <scstep>
   <time name="dav">    3.70    3.70</time>
   <time name="total">    9.65    9.79</time>
   <energy>
    <i name="e_fr_energy">    -22.94698924 </i>
    <i name="e_wo_entrp">    -22.95278714 </i>
    <i name="e_0_energy">    -22.94892187 </i>
   </energy>
  </scstep>
  <scstep>
   <time name="dav">    3.70    3.70</time>
   <time name="total">    9.70    9.72</time>
   <energy>
    <i name="e_fr_energy">    -22.94641831 </i>
    <i name="e_wo_entrp">    -22.95221621 </i>
    <i name="e_0_energy">    -22.94835094 </i>
   </energy>
  </scstep>
  <scstep>
   <time name="dav">    3.70    3.70</time>
   <time name="total">    9.75    9.77</time>
   <energy>
    <i name="e_fr_energy">    -22.94678735 </i>
    <i name="e_wo_entrp">    -22.95258526 </i>
    <i name="e_0_energy">    -22.94871999 </i>
   </energy>
  </scstep>
  <scstep>
   <time name="dav">    2.96    2.96</time>
   <time name="total">    9.06    9.08</time>
   <energy>
    <i name="e_fr_energy">    -22.94712096 </i>
    <i name="e_wo_entrp">    -22.95291887 </i>
    <i name="e_0_energy">    -22.94905360 </i>
   </energy>
  </scstep>
  <scstep>
   <time name="dav">    2.93    2.93</time>
   <time name="total">    7.95    7.97</time>
   <energy>
    <i name="alphaZ">      1.06689490 </i>
    <i name="ewald">    290.28893654 </i>
    <i name="hartreedc">  -1140.73149357 </i>
    <i name="XCdc">     70.28283219 </i>
    <i name="pawpsdc">    691.29391683 </i>
    <i name="pawaedc">   -696.45838170 </i>
    <i name="eentropy">      0.00579791 </i>
    <i name="bandstr">   -250.51977466 </i>
    <i name="atom">   1011.82409344 </i>
    <i name="e_fr_energy">    -22.94717813 </i>
    <i name="e_wo_entrp">    -22.95297604 </i>
    <i name="e_0_energy">    -22.94911077 </i>
   </energy>
  </scstep>
  <structure>
   <crystal>
    <varray name="basis" >
     <v>      10.00000000       0.00000000       0.00000000 </v>
     <v>       0.00000000      10.00000000       0.00000000 </v>
     <v>       0.00000000       0.00000000      10.00000000 </v>
    </varray>
    <i name="volume">   1000.00000000 </i>
    <varray name="rec_basis" >
     <v>       0.10000000       0.00000000       0.00000000 </v>
     <v>       0.00000000       0.10000000       0.00000000 </v>
     <v>       0.00000000       0.00000000       0.10000000 </v>
    </varray>
   </crystal>
   <varray name="positions" >
    <v>       0.11600000       0.00000000       0.00000000 </v>
    <v>      -0.00211571       0.00000000       0.00000000 </v>
    <v>       0.23411571       0.00000000       0.00000000 </v>
   </varray>
  </structure>
  <varray name="forces" >
   <v>       0.00000000       0.00000000       0.00000000 </v>
   <v>       0.44536309       0.00000000       0.00000000 </v>
   <v>      -0.44536309       0.00000000       0.00000000 </v>
  </varray>
  <varray name="stress" >
   <v>      -2.13246610       0.00000000       0.00000000 </v>
   <v>       0.00000000      -0.60223274       0.00000000 </v>
   <v>       0.00000000       0.00000000      -0.60223274 </v>
  </varray>
  <energy>
   <i name="e_fr_energy">    -22.94717813 </i>
   <i name="e_wo_entrp">    -22.94911077 </i>
   <i name="e_0_energy">      0.00579791 </i>
  </energy>
  <time name="totalsc">   74.12   74.38</time>
 </calculation>
 <calculation>
  <scstep>
   <time name="dav">    3.66    3.66</time>
   <time name="total">    9.68    9.68</time>
   <energy>
    <i name="alphaZ">      1.06689490 </i>
    <i name="ewald">    294.08528519 </i>
    <i name="hartreedc">  -1143.41071805 </i>
    <i name="XCdc">     70.33201305 </i>
    <i name="pawpsdc">    691.15367316 </i>
    <i name="pawaedc">   -696.31692583 </i>
    <i name="eentropy">      0.00579791 </i>
    <i name="bandstr">   -251.68927092 </i>
    <i name="atom">   1011.82409344 </i>
    <i name="e_fr_energy">    -22.94915716 </i>
    <i name="e_wo_entrp">    -22.95495507 </i>
    <i name="e_0_energy">    -22.95108980 </i>
   </energy>
  </scstep>
  <scstep>
   <time name="dav">    3.31    3.31</time>
   <time name="total">    9.33    9.34</time>
   <energy>
    <i name="e_fr_energy">    -22.94923560 </i>
    <i name="e_wo_entrp">    -22.95503351 </i>
    <i name="e_0_energy">    -22.95116824 </i>
   </energy>
  </scstep>
  <scstep>
   <time name="dav">    2.95    2.95</time>
   <time name="total">    8.98    9.00</time>
   <energy>
    <i name="e_fr_energy">    -22.94911647 </i>
    <i name="e_wo_entrp">    -22.95491437 </i>
    <i name="e_0_energy">    -22.95104910 </i>
   </energy>
  </scstep>
  <scstep>
   <time name="dav">    2.57    2.57</time>
   <time name="total">    7.54    7.56</time>
   <energy>
    <i name="alphaZ">      1.06689490 </i>
    <i name="ewald">    294.08528519 </i>
    <i name="hartreedc">  -1144.27260737 </i>
    <i name="XCdc">     70.37445932 </i>
    <i name="pawpsdc">    694.57497980 </i>
    <i name="pawaedc">   -699.75639419 </i>
    <i name="eentropy">      0.00579791 </i>
    <i name="bandstr">   -250.85165902 </i>
    <i name="atom">   1011.82409344 </i>
    <i name="e_fr_energy">    -22.94915002 </i>
    <i name="e_wo_entrp">    -22.95494793 </i>
    <i name="e_0_energy">    -22.95108266 </i>
   </energy>
  </scstep>
  <structure>
   <crystal>
    <varray name="basis" >
     <v>      10.00000000       0.00000000       0.00000000 </v>
     <v>       0.00000000      10.00000000       0.00000000 </v>
     <v>       0.00000000       0.00000000      10.00000000 </v>
    </varray>
    <i name="volume">   1000.00000000 </i>
    <varray name="rec_basis" >
     <v>       0.10000000       0.00000000       0.00000000 </v>
     <v>       0.00000000       0.10000000       0.00000000 </v>
     <v>       0.00000000       0.00000000       0.10000000 </v>
    </varray>
   </crystal>
   <varray name="positions" >
    <v>       0.11600000       0.00000000       0.00000000 </v>
    <v>      -0.00154824       0.00000000       0.00000000 </v>
    <v>       0.23354824       0.00000000       0.00000000 </v>
   </varray>
  </structure>
  <varray name="forces" >
   <v>       0.00000000       0.00000000       0.00000000 </v>
   <v>      -0.12569769       0.00000000       0.00000000 </v>
   <v>       0.12569769       0.00000000       0.00000000 </v>
  </varray>
  <varray name="stress" >
   <v>       0.02767517       0.00000000       0.00000000 </v>
   <v>       0.00000000      -0.61759571       0.00000000 </v>
   <v>       0.00000000       0.00000000      -0.61759571 </v>
  </varray>
  <energy>
   <i name="e_fr_energy">    -22.94915002 </i>
   <i name="e_wo_entrp">    -22.95108266 </i>
   <i name="e_0_energy">      0.00579791 </i>
  </energy>
  <time name="totalsc">   46.03   46.12</time>
 </calculation>
 <calculation>
  <scstep>
   <time name="dav">    3.26    3.26</time>
   <time name="total">    9.78    9.78</time>
   <energy>
    <i name="alphaZ">      1.06689490 </i>
    <i name="ewald">    293.24639988 </i>
    <i name="hartreedc">  -1143.68407240 </i>
    <i name="XCdc">     70.36313215 </i>
    <i name="pawpsdc">    694.68461542 </i>
    <i name="pawaedc">   -699.86641561 </i>
    <i name="eentropy">      0.00579791 </i>
    <i name="bandstr">   -250.58977187 </i>
    <i name="atom">   1011.82409344 </i>
    <i name="e_fr_energy">    -22.94932619 </i>
    <i name="e_wo_entrp">    -22.95512409 </i>
    <i name="e_0_energy">    -22.95125882 </i>
   </energy>
  </scstep>
  <scstep>
   <time name="dav">    3.25    3.25</time>
   <time name="total">    8.68    8.68</time>
   <energy>
    <i name="alphaZ">      1.06689490 </i>
    <i name="ewald">    293.24639988 </i>
    <i name="hartreedc">  -1143.57045572 </i>
    <i name="XCdc">     70.35672626 </i>
    <i name="pawpsdc">    694.34639985 </i>
    <i name="pawaedc">   -699.52693155 </i>
    <i name="eentropy">      0.00579791 </i>
    <i name="bandstr">   -250.69826548 </i>
    <i name="atom">   1011.82409344 </i>
    <i name="e_fr_energy">    -22.94934051 </i>
    <i name="e_wo_entrp">    -22.95513842 </i>
    <i name="e_0_energy">    -22.95127315 </i>
   </energy>
  </scstep>
  <structure>
   <crystal>
    <varray name="basis" >
     <v>      10.00000000       0.00000000       0.00000000 </v>
     <v>       0.00000000      10.00000000       0.00000000 </v>
     <v>       0.00000000       0.00000000      10.00000000 </v>
    </varray>
    <i name="volume">   1000.00000000 </i>
    <varray name="rec_basis" >
     <v>       0.10000000       0.00000000       0.00000000 </v>
     <v>       0.00000000       0.10000000       0.00000000 </v>
     <v>       0.00000000       0.00000000       0.10000000 </v>
    </varray>
   </crystal>
   <varray name="positions" >
    <v>       0.11600000       0.00000000       0.00000000 </v>
    <v>      -0.00167315       0.00000000       0.00000000 </v>
    <v>       0.23367315       0.00000000       0.00000000 </v>
   </varray>
  </structure>
  <varray name="forces" >
   <v>       0.00000000       0.00000000       0.00000000 </v>
   <v>      -0.00377602       0.00000000       0.00000000 </v>
   <v>       0.00377602       0.00000000       0.00000000 </v>
  </varray>
  <varray name="stress" >
   <v>      -0.44230547       0.00000000       0.00000000 </v>
   <v>       0.00000000      -0.68143899       0.00000000 </v>
   <v>       0.00000000       0.00000000      -0.68143899 </v>
  </varray>
  <energy>
   <i name="e_fr_energy">    -22.94934051 </i>
   <i name="e_wo_entrp">    -22.95127315 </i>
   <i name="e_0_energy">      0.00579791 </i>
  </energy>
  <time name="totalsc">   28.17   29.31</time>
  <eigenvalues>
   <array>
    <dimension dim="1">band</dimension>
    <dimension dim="2">kpoint</dimension>
    <dimension dim="3">spin</dimension>
    <field>eigene</field>
    <field>occ</field>
    <set>
     <set comment="spin 1">
      <set comment="kpoint 1">
       <r>  -28.9414    1.0000 </r>
       <r>  -27.9256    1.0000 </r>
       <r>  -13.5657    1.0000 </r>
       <r>  -12.4188    1.0000 </r>
       <r>  -12.4188    1.0000 </r>
       <r>  -12.3738    1.0000 </r>
       <r>   -8.8526    1.0000 </r>
       <r>   -8.8526    1.0000 </r>
       <r>   -0.9180    0.0000 </r>
       <r>   -0.3963    0.0000 </r>
       <r>   -0.3963    0.0000 </r>
       <r>    0.5242    0.0000 </r>
      </set>
     </set>
    </set>
   </array>
  </eigenvalues>
  <separator name="orbital magnetization" >
   <v name="MAGDIPOLOUT">      0.00000000      0.00000000      0.00000000</v>
  </separator>
 </calculation>
 <structure name="finalpos" >
  <crystal>
   <varray name="basis" >
    <v>      10.00000000       0.00000000       0.00000000 </v>
    <v>       0.00000000      10.00000000       0.00000000 </v>
    <v>       0.00000000       0.00000000      10.00000000 </v>
   </varray>
   <i name="volume">   1000.00000000 </i>
   <varray name="rec_basis" >
    <v>       0.10000000       0.00000000       0.00000000 </v>
    <v>       0.00000000       0.10000000       0.00000000 </v>
    <v>       0.00000000       0.00000000       0.10000000 </v>
   </varray>
  </crystal>
  <varray name="positions" >
   <v>       0.11600000       0.00000000       0.00000000 </v>
   <v>      -0.00167315       0.00000000       0.00000000 </v>
   <v>       0.23367315       0.00000000       0.00000000 </v>
  </varray>
 </structure>
</modeling>
