   1   1   1   0
  0.1813235E+02  0.2866544E-09  0.2866544E-09  0.2866544E-09  0.5000000E-15
  1.000000000000000E-004
  CAR 
 unknown system                          
     16.49771650     -2.87769232  301      5.67523889      1.00000000
     -2.878  0.0000E+00  0.0000E+00  0.0000E+00  0.0000E+00
     -2.813  0.0000E+00  0.0000E+00  0.0000E+00  0.0000E+00
     -2.749  0.0000E+00  0.0000E+00  0.0000E+00  0.0000E+00
     -2.684  0.0000E+00  0.0000E+00  0.0000E+00  0.0000E+00
     -2.619  0.0000E+00  0.0000E+00  0.0000E+00  0.0000E+00
     -2.555  0.0000E+00  0.0000E+00  0.0000E+00  0.0000E+00
     -2.490  0.0000E+00  0.0000E+00  0.0000E+00  0.0000E+00
     -2.426  0.0000E+00 -0.2747E-32  0.0000E+00 -0.1774E-33
     -2.361 -0.1152E-32 -0.1823E-23 -0.7439E-34 -0.1177E-24
     -2.296 -0.8728E-24 -0.4165E-16 -0.5637E-25 -0.2690E-17
     -2.232 -0.2278E-16 -0.3083E-10 -0.1471E-17 -0.1991E-11
     -2.167 -0.1929E-10 -0.7527E-06 -0.1246E-11 -0.4862E-07
     -2.103 -0.5402E-06 -0.5049E-03 -0.3489E-07 -0.3266E-04
     -2.038 -0.4206E-03  0.9274E-03 -0.2720E-04  0.2724E-04
     -1.974 -0.1746E-03  0.7882E-01 -0.3847E-04  0.5118E-02
     -1.909  0.7699E-01  0.1514E-01  0.4934E-02  0.6096E-02
     -1.844  0.1819E-01 -0.1476E-02  0.6109E-02  0.6000E-02
     -1.780 -0.1672E-02 -0.6445E-05  0.6001E-02  0.6000E-02
     -1.715 -0.8581E-05 -0.6104E-04  0.6000E-02  0.5996E-02
     -1.651 -0.4815E-04 -0.3915E-02  0.5997E-02  0.5743E-02
     -1.586 -0.3701E-02  0.5557E-01  0.5758E-02  0.9332E-02
     -1.521  0.5044E-01  0.7665E-01  0.9015E-02  0.1428E-01
     -1.457  0.8144E-01 -0.4217E-02  0.1427E-01  0.1401E-01
     -1.392 -0.4065E-02 -0.1538E-03  0.1401E-01  0.1400E-01
     -1.328 -0.1897E-03 -0.4658E-04  0.1400E-01  0.1400E-01
     -1.263 -0.3657E-04 -0.7582E-02  0.1400E-01  0.1351E-01
     -1.198 -0.6864E-02  0.8701E-01  0.1355E-01  0.1913E-01
     -1.134  0.7552E-01  0.2982E+00  0.1843E-01  0.3838E-01
     -1.069  0.3061E+00 -0.4555E-02  0.3820E-01  0.3809E-01
     -1.005 -0.1545E-02 -0.1370E-02  0.3810E-01  0.3800E-01
     -0.940 -0.1616E-02 -0.1499E-05  0.3800E-01  0.3800E-01
     -0.876 -0.2009E-05 -0.4615E-10  0.3800E-01  0.3800E-01
     -0.811 -0.6964E-10 -0.8251E-16  0.3800E-01  0.3800E-01
     -0.746 -0.8251E-16 -0.2071E-14  0.3800E-01  0.3800E-01
     -0.682 -0.1294E-14 -0.8808E-09  0.3800E-01  0.3800E-01
     -0.617 -0.6148E-09 -0.1186E-04  0.3800E-01  0.3800E-01
     -0.553 -0.9255E-05 -0.4122E-02  0.3800E-01  0.3773E-01
     -0.488 -0.3645E-02  0.3184E-01  0.3776E-01  0.3979E-01
     -0.423  0.2498E-01  0.3444E+00  0.3938E-01  0.6203E-01
     -0.359  0.3431E+00  0.9625E-01  0.6154E-01  0.6825E-01
     -0.294  0.1037E+00 -0.3393E-02  0.6823E-01  0.6803E-01
     -0.230 -0.3159E-02 -0.6437E-03  0.6803E-01  0.6799E-01
     -0.165 -0.6637E-03 -0.1219E-01  0.6799E-01  0.6720E-01
     -0.101 -0.1182E-01  0.1795E+00  0.6722E-01  0.7879E-01
     -0.036  0.1686E+00  0.2177E+00  0.7811E-01  0.9285E-01
      0.029  0.2281E+00 -0.1394E-01  0.9285E-01  0.9195E-01
      0.093 -0.1370E-01 -0.7408E-02  0.9196E-01  0.9147E-01
      0.158 -0.9009E-02  0.2890E+00  0.9138E-01  0.1101E+00
      0.222  0.2812E+00  0.9919E-01  0.1095E+00  0.1165E+00
      0.287  0.1089E+00 -0.8322E-02  0.1166E+00  0.1160E+00
      0.352 -0.8893E-02 -0.5914E-04  0.1160E+00  0.1160E+00
      0.416 -0.7087E-04 -0.9497E-08  0.1160E+00  0.1160E+00
      0.481 -0.1249E-07 -0.4720E-13  0.1160E+00  0.1160E+00
      0.545 -0.6791E-13 -0.1952E-12  0.1160E+00  0.1160E+00
      0.610 -0.1349E-12 -0.2756E-07  0.1160E+00  0.1160E+00
      0.674 -0.2091E-07 -0.1193E-03  0.1160E+00  0.1160E+00
      0.739 -0.9970E-04 -0.1138E-01  0.1160E+00  0.1153E+00
      0.804 -0.1076E-01  0.1143E+00  0.1153E+00  0.1226E+00
      0.868  0.1036E+00  0.6957E+00  0.1220E+00  0.1676E+00
      0.933  0.6922E+00  0.3411E+00  0.1667E+00  0.1896E+00
      0.997  0.3552E+00 -0.2443E-01  0.1896E+00  0.1880E+00
      1.062 -0.2477E-01 -0.1295E-02  0.1880E+00  0.1879E+00
      1.127 -0.1297E-02 -0.2801E-01  0.1879E+00  0.1861E+00
      1.191 -0.2768E-01  0.4612E+00  0.1862E+00  0.2159E+00
      1.256  0.4467E+00  0.7096E+00  0.2150E+00  0.2618E+00
      1.320  0.7222E+00 -0.2690E-01  0.2617E+00  0.2600E+00
      1.385 -0.2527E-01  0.1409E-02  0.2600E+00  0.2601E+00
      1.449  0.2400E-02  0.3075E+00  0.2602E+00  0.2800E+00
      1.514  0.3086E+00  0.3399E+00  0.2801E+00  0.3019E+00
      1.579  0.3366E+00  0.2557E+00  0.3019E+00  0.3184E+00
      1.643  0.2579E+00  0.2773E-01  0.3185E+00  0.3202E+00
      1.708  0.2652E-01 -0.3456E-02  0.3202E+00  0.3200E+00
      1.772 -0.3387E-02 -0.9427E-02  0.3200E+00  0.3194E+00
      1.837 -0.9726E-02  0.6220E-01  0.3194E+00  0.3234E+00
      1.902  0.6549E-01  0.8727E+00  0.3236E+00  0.3798E+00
      1.966  0.8874E+00  0.8466E+00  0.3809E+00  0.4344E+00
      2.031  0.8199E+00  0.7854E+00  0.4339E+00  0.4852E+00
      2.095  0.8228E+00  0.3229E+00  0.4870E+00  0.5060E+00
      2.160  0.3177E+00  0.3328E+00  0.5075E+00  0.5275E+00
      2.224  0.3178E+00  0.1724E+00  0.5281E+00  0.5387E+00
      2.289  0.1609E+00  0.6599E+00  0.5384E+00  0.5813E+00
      2.354  0.6765E+00  0.5784E+00  0.5821E+00  0.6186E+00
      2.418  0.6012E+00  0.1157E+00  0.6210E+00  0.6261E+00
      2.483  0.7442E-01  0.1245E+00  0.6258E+00  0.6341E+00
      2.547  0.2081E+00  0.2558E+00  0.6392E+00  0.6507E+00
      2.612  0.1755E+00 -0.1152E-01  0.6505E+00  0.6499E+00
      2.677  0.1854E-01  0.2673E+00  0.6517E+00  0.6672E+00
      2.741  0.2799E+00  0.6457E+00  0.6698E+00  0.7089E+00
      2.806  0.7135E+00  0.1583E+01  0.7159E+00  0.8111E+00
      2.870  0.1541E+01  0.6857E+00  0.8154E+00  0.8554E+00
      2.935  0.6949E+00  0.6252E+00  0.8603E+00  0.8958E+00
      3.000  0.5594E+00  0.7679E-01  0.8964E+00  0.9008E+00
      3.064  0.7377E-01  0.1147E+00  0.9012E+00  0.9082E+00
      3.129  0.1349E+00  0.1085E+01  0.9099E+00  0.9783E+00
      3.193  0.1126E+01  0.5824E+00  0.9826E+00  0.1016E+01
      3.258  0.6064E+00  0.2912E+00  0.1022E+01  0.1035E+01
      3.322  0.2039E+00 -0.9506E-02  0.1035E+01  0.1034E+01
      3.387 -0.1402E-01 -0.4574E-02  0.1034E+01  0.1034E+01
      3.452 -0.3454E-02  0.4345E-01  0.1034E+01  0.1037E+01
      3.516  0.3718E-01  0.8558E-01  0.1036E+01  0.1042E+01
      3.581  0.8975E-01 -0.1196E-02  0.1042E+01  0.1042E+01
      3.645  0.1329E-01  0.3077E+00  0.1043E+01  0.1062E+01
      3.710  0.3465E+00  0.5785E+00  0.1065E+01  0.1099E+01
      3.775  0.5935E+00  0.5744E+00  0.1104E+01  0.1136E+01
      3.839  0.5445E+00  0.2582E+00  0.1139E+01  0.1153E+01
      3.904  0.2928E+00  0.1500E+00  0.1158E+01  0.1163E+01
      3.968  0.7437E-01 -0.1717E-01  0.1162E+01  0.1162E+01
      4.033 -0.1266E-01  0.6763E-01  0.1162E+01  0.1166E+01
      4.097  0.6301E-01  0.2096E+00  0.1166E+01  0.1180E+01
      4.162  0.2092E+00  0.1342E+01  0.1179E+01  0.1266E+01
      4.227  0.1451E+01  0.6401E+00  0.1273E+01  0.1308E+01
      4.291  0.5373E+00  0.7135E+00  0.1308E+01  0.1354E+01
      4.356  0.7433E+00  0.1806E+01  0.1356E+01  0.1470E+01
      4.420  0.1841E+01  0.1510E+01  0.1475E+01  0.1568E+01
      4.485  0.1460E+01  0.3887E+00  0.1569E+01  0.1593E+01
      4.550  0.3904E+00  0.7274E+00  0.1594E+01  0.1640E+01
      4.614  0.8293E+00  0.9603E+00  0.1648E+01  0.1702E+01
      4.679  0.8224E+00  0.3808E+00  0.1701E+01  0.1726E+01
      4.743  0.3901E+00  0.4104E+00  0.1726E+01  0.1753E+01
      4.808  0.4344E+00  0.6822E+00  0.1754E+01  0.1797E+01
      4.872  0.6850E+00  0.8554E+00  0.1798E+01  0.1852E+01
      4.937  0.9342E+00  0.1501E+01  0.1859E+01  0.1949E+01
      5.002  0.1431E+01  0.1103E+01  0.1951E+01  0.2020E+01
      5.066  0.1080E+01  0.3018E-01  0.2021E+01  0.2022E+01
      5.131  0.2594E-01 -0.4255E-01  0.2022E+01  0.2020E+01
      5.195 -0.4657E-01  0.7668E+00  0.2019E+01  0.2069E+01
      5.260  0.8732E+00  0.1639E+01  0.2076E+01  0.2175E+01
      5.325  0.1587E+01  0.1192E+01  0.2178E+01  0.2252E+01
      5.389  0.1149E+01  0.7468E+00  0.2252E+01  0.2300E+01
      5.454  0.7288E+00  0.2540E+00  0.2300E+01  0.2317E+01
      5.518  0.2890E+00  0.5551E+00  0.2318E+01  0.2352E+01
      5.583  0.5670E+00  0.1233E+01  0.2355E+01  0.2432E+01
      5.647  0.1303E+01  0.1052E+01  0.2439E+01  0.2500E+01
      5.712  0.9679E+00  0.9131E+00  0.2501E+01  0.2559E+01
      5.777  0.9071E+00  0.4468E+00  0.2560E+01  0.2588E+01
      5.841  0.4312E+00 -0.5962E-01  0.2588E+01  0.2584E+01
      5.906 -0.6009E-01  0.4016E+00  0.2584E+01  0.2610E+01
      5.970  0.4327E+00  0.8879E+00  0.2612E+01  0.2667E+01
      6.035  0.8459E+00  0.2918E+00  0.2667E+01  0.2686E+01
      6.100  0.3353E+00  0.9263E+00  0.2688E+01  0.2746E+01
      6.164  0.9199E+00  0.6310E+00  0.2748E+01  0.2787E+01
      6.229  0.6038E+00  0.1231E+00  0.2787E+01  0.2795E+01
      6.293  0.1252E+00 -0.1621E-01  0.2795E+01  0.2794E+01
      6.358 -0.1669E-01  0.1822E+00  0.2794E+01  0.2805E+01
      6.423  0.1773E+00  0.1961E+00  0.2805E+01  0.2818E+01
      6.487  0.2005E+00 -0.7445E-02  0.2818E+01  0.2818E+01
      6.552 -0.7209E-02  0.2795E+00  0.2818E+01  0.2836E+01
      6.616  0.2743E+00  0.1949E+00  0.2835E+01  0.2848E+01
      6.681  0.2055E+00  0.2666E+00  0.2849E+01  0.2865E+01
      6.745  0.2871E+00  0.9185E-01  0.2867E+01  0.2871E+01
      6.810  0.6476E-01  0.2158E+00  0.2871E+01  0.2885E+01
      6.875  0.2191E+00  0.5416E+00  0.2885E+01  0.2920E+01
      6.939  0.5401E+00  0.1651E+00  0.2920E+01  0.2931E+01
      7.004  0.1707E+00  0.4887E+00  0.2931E+01  0.2963E+01
      7.068  0.4838E+00  0.9089E-01  0.2963E+01  0.2968E+01
      7.133  0.8873E-01  0.3903E-02  0.2968E+01  0.2969E+01
      7.198  0.3063E-01  0.2814E+00  0.2970E+01  0.2987E+01
      7.262  0.2954E+00  0.2945E+00  0.2989E+01  0.3006E+01
      7.327  0.2583E+00  0.1802E+00  0.3006E+01  0.3018E+01
      7.391  0.1755E+00  0.2883E+00  0.3017E+01  0.3036E+01
      7.456  0.2881E+00  0.1446E+00  0.3036E+01  0.3045E+01
      7.520  0.1782E+00  0.5561E+00  0.3048E+01  0.3081E+01
      7.585  0.5402E+00  0.2596E+00  0.3082E+01  0.3098E+01
      7.650  0.2586E+00  0.1646E+00  0.3099E+01  0.3109E+01
      7.714  0.1490E+00 -0.1189E-01  0.3109E+01  0.3108E+01
      7.779 -0.1120E-01 -0.1926E-03  0.3108E+01  0.3108E+01
      7.843 -0.1489E-03 -0.3970E-04  0.3108E+01  0.3108E+01
      7.908 -0.1165E-03 -0.8673E-02  0.3108E+01  0.3107E+01
      7.973 -0.1342E-01  0.6631E-01  0.3107E+01  0.3112E+01
      8.037  0.1356E+00  0.7117E+00  0.3116E+01  0.3158E+01
      8.102  0.7758E+00  0.5091E+00  0.3166E+01  0.3191E+01
      8.166  0.4651E+00  0.9367E+00  0.3196E+01  0.3251E+01
      8.231  0.8814E+00  0.2005E-01  0.3253E+01  0.3252E+01
      8.295 -0.1371E-01 -0.3027E-01  0.3252E+01  0.3250E+01
      8.360 -0.5558E-02  0.5022E+00  0.3252E+01  0.3283E+01
      8.425  0.6115E+00  0.3200E+00  0.3291E+01  0.3304E+01
      8.489  0.1873E+00  0.3069E+00  0.3303E+01  0.3323E+01
      8.554  0.3140E+00  0.3218E+00  0.3324E+01  0.3344E+01
      8.618  0.3458E+00  0.5686E+00  0.3346E+01  0.3381E+01
      8.683  0.7672E+00  0.8463E+00  0.3395E+01  0.3435E+01
      8.748  0.6627E+00  0.3132E+00  0.3438E+01  0.3456E+01
      8.812  0.2648E+00  0.2141E+00  0.3455E+01  0.3470E+01
      8.877  0.2834E+00  0.7840E+00  0.3474E+01  0.3520E+01
      8.941  0.8998E+00  0.7550E+00  0.3532E+01  0.3569E+01
      9.006  0.5932E+00  0.3031E+00  0.3570E+01  0.3589E+01
      9.070  0.2828E+00  0.5497E+00  0.3588E+01  0.3624E+01
      9.135  0.6395E+00  0.1027E+01  0.3630E+01  0.3690E+01
      9.200  0.1215E+01  0.9420E+00  0.3708E+01  0.3751E+01
      9.264  0.7620E+00  0.8698E-01  0.3757E+01  0.3757E+01
      9.329  0.2516E-01  0.6794E+00  0.3759E+01  0.3801E+01
      9.393  0.8611E+00  0.7746E+00  0.3815E+01  0.3851E+01
      9.458  0.6416E+00  0.4328E+00  0.3856E+01  0.3879E+01
      9.523  0.5383E+00  0.6684E+00  0.3891E+01  0.3922E+01
      9.587  0.5330E+00  0.2235E-01  0.3925E+01  0.3923E+01
      9.652 -0.1764E-01  0.3099E+00  0.3924E+01  0.3943E+01
      9.716  0.4826E+00  0.6514E+00  0.3955E+01  0.3985E+01
      9.781  0.7207E+00  0.8074E+00  0.4002E+01  0.4037E+01
      9.845  0.7172E+00  0.3849E+00  0.4048E+01  0.4062E+01
      9.910  0.2285E+00 -0.2787E-01  0.4063E+01  0.4061E+01
      9.975 -0.1859E-01  0.4311E+00  0.4062E+01  0.4088E+01
     10.039  0.6401E+00  0.9052E+00  0.4103E+01  0.4147E+01
     10.104  0.1077E+01  0.9552E+00  0.4173E+01  0.4209E+01
     10.168  0.6283E+00  0.2652E+00  0.4213E+01  0.4226E+01
     10.233  0.4042E+00  0.5200E+00  0.4239E+01  0.4259E+01
     10.298  0.4154E+00  0.7178E+00  0.4266E+01  0.4306E+01
     10.362  0.6940E+00  0.3696E+00  0.4311E+01  0.4330E+01
     10.427  0.7547E+00  0.1853E+01  0.4360E+01  0.4449E+01
     10.491  0.1765E+01  0.9054E+00  0.4474E+01  0.4508E+01
     10.556  0.9069E+00  0.1858E+01  0.4532E+01  0.4628E+01
     10.621  0.1862E+01  0.1356E+01  0.4652E+01  0.4715E+01
     10.685  0.1579E+01  0.2208E+01  0.4754E+01  0.4858E+01
     10.750  0.2205E+01  0.1784E+01  0.4897E+01  0.4973E+01
     10.814  0.1499E+01  0.1239E+01  0.4994E+01  0.5053E+01
     10.879  0.1063E+01  0.7628E+00  0.5062E+01  0.5102E+01
     10.943  0.7366E+00  0.4779E+00  0.5110E+01  0.5133E+01
     11.008  0.4399E+00  0.1406E+00  0.5138E+01  0.5142E+01
     11.073  0.5398E-01  0.9621E-01  0.5142E+01  0.5148E+01
     11.137  0.1406E+00  0.2728E+00  0.5151E+01  0.5166E+01
     11.202  0.2344E+00  0.9002E-01  0.5166E+01  0.5172E+01
     11.266  0.1963E+00  0.2828E+00  0.5179E+01  0.5190E+01
     11.331  0.1848E+00  0.1216E+00  0.5191E+01  0.5198E+01
     11.396  0.1283E+00  0.1112E+00  0.5199E+01  0.5205E+01
     11.460  0.1175E+00  0.2001E+00  0.5206E+01  0.5218E+01
     11.525  0.1849E+00 -0.1670E-02  0.5218E+01  0.5218E+01
     11.589 -0.7256E-02 -0.9665E-02  0.5218E+01  0.5217E+01
     11.654 -0.2768E-03  0.2744E+00  0.5218E+01  0.5235E+01
     11.718  0.2999E+00  0.1881E+00  0.5237E+01  0.5247E+01
     11.783  0.2073E+00  0.2946E+00  0.5251E+01  0.5266E+01
     11.848  0.2497E+00 -0.3302E-02  0.5267E+01  0.5266E+01
     11.912 -0.1308E-01 -0.1381E-01  0.5266E+01  0.5265E+01
     11.977 -0.3194E-02  0.2421E+00  0.5266E+01  0.5281E+01
     12.041  0.3039E+00  0.1537E+00  0.5285E+01  0.5291E+01
     12.106  0.7892E-01 -0.1142E-01  0.5290E+01  0.5290E+01
     12.171 -0.7675E-02 -0.1395E-01  0.5290E+01  0.5289E+01
     12.235 -0.1515E-01  0.1929E+00  0.5289E+01  0.5302E+01
     12.300  0.2824E+00  0.3011E+00  0.5307E+01  0.5321E+01
     12.364  0.2127E+00 -0.1479E-01  0.5321E+01  0.5320E+01
     12.429 -0.1466E-01 -0.4388E-02  0.5320E+01  0.5320E+01
     12.493 -0.7163E-02  0.2693E-01  0.5320E+01  0.5322E+01
     12.558  0.7603E-01  0.3115E+00  0.5324E+01  0.5342E+01
     12.623  0.2813E+00  0.1238E+00  0.5343E+01  0.5350E+01
     12.687  0.2344E+00  0.1470E+01  0.5358E+01  0.5445E+01
     12.752  0.1505E+01  0.6016E+00  0.5455E+01  0.5483E+01
     12.816  0.5037E+00  0.5790E+00  0.5487E+01  0.5521E+01
     12.881  0.5926E+00  0.6963E+00  0.5526E+01  0.5566E+01
     12.946  0.7826E+00  0.8209E+00  0.5576E+01  0.5619E+01
     13.010  0.6662E+00  0.5095E-01  0.5619E+01  0.5622E+01
     13.075  0.9122E-01  0.6478E+00  0.5625E+01  0.5664E+01
     13.139  0.6145E+00  0.3892E-01  0.5665E+01  0.5666E+01
     13.204  0.2222E-01 -0.6297E-02  0.5666E+01  0.5666E+01
     13.268 -0.4983E-02 -0.1398E-04  0.5666E+01  0.5666E+01
     13.333 -0.1128E-04 -0.9723E-07  0.5666E+01  0.5666E+01
     13.398 -0.3516E-07 -0.1549E-03  0.5666E+01  0.5666E+01
     13.462 -0.8252E-04 -0.2981E-02  0.5666E+01  0.5666E+01
     13.527 -0.3190E-02  0.5988E-01  0.5666E+01  0.5670E+01
     13.591  0.5009E-01  0.4829E-01  0.5669E+01  0.5673E+01
     13.656  0.4583E-01  0.3202E+00  0.5672E+01  0.5693E+01
     13.721  0.3021E+00  0.3844E-01  0.5691E+01  0.5696E+01
     13.785  0.7038E-01  0.7127E-01  0.5696E+01  0.5701E+01
     13.850  0.1148E+00  0.1137E+00  0.5703E+01  0.5708E+01
     13.914  0.6348E-01  0.8746E-01  0.5708E+01  0.5714E+01
     13.979  0.1780E+00  0.2930E+00  0.5719E+01  0.5732E+01
     14.043  0.2137E+00 -0.5968E-02  0.5733E+01  0.5732E+01
     14.108 -0.1279E-01 -0.1249E-02  0.5732E+01  0.5732E+01
     14.173 -0.3652E-03 -0.4464E-05  0.5732E+01  0.5732E+01
     14.237 -0.2003E-05 -0.2225E-02  0.5732E+01  0.5732E+01
     14.302 -0.1645E-02 -0.3536E-02  0.5732E+01  0.5732E+01
     14.366 -0.1022E-01  0.4365E+00  0.5731E+01  0.5760E+01
     14.431  0.4123E+00  0.1208E+00  0.5758E+01  0.5768E+01
     14.496  0.1435E+00  0.1764E+00  0.5767E+01  0.5779E+01
     14.560  0.3527E+00  0.8553E+00  0.5790E+01  0.5834E+01
     14.625  0.7526E+00  0.1225E+00  0.5839E+01  0.5842E+01
     14.689  0.4876E-01  0.9114E-01  0.5842E+01  0.5848E+01
     14.754  0.9805E-01 -0.3639E-03  0.5848E+01  0.5848E+01
     14.819  0.6016E-03 -0.1302E-02  0.5848E+01  0.5848E+01
     14.883 -0.2668E-02 -0.2431E-01  0.5848E+01  0.5846E+01
     14.948 -0.1575E-01  0.4043E+00  0.5847E+01  0.5872E+01
     15.012  0.5283E+00  0.4663E+00  0.5881E+01  0.5903E+01
     15.077  0.4631E+00  0.6223E+00  0.5911E+01  0.5943E+01
     15.141  0.5337E+00  0.2185E-01  0.5945E+01  0.5944E+01
     15.206 -0.2172E-01 -0.1092E-02  0.5944E+01  0.5944E+01
     15.271  0.1177E-01  0.3072E+00  0.5945E+01  0.5964E+01
     15.335  0.3122E+00  0.1664E+00  0.5965E+01  0.5975E+01
     15.400  0.2088E+00  0.2768E+00  0.5978E+01  0.5993E+01
     15.464  0.2244E+00 -0.1038E-01  0.5993E+01  0.5992E+01
     15.529 -0.1465E-01  0.2041E-01  0.5992E+01  0.5993E+01
     15.594  0.1973E-01  0.1044E+00  0.5993E+01  0.6000E+01
     15.658  0.1051E+00  0.7384E-03  0.6000E+01  0.6000E+01
     15.723  0.1236E-02 -0.6357E-03  0.6000E+01  0.6000E+01
     15.787 -0.6732E-03 -0.9037E-06  0.6000E+01  0.6000E+01
     15.852 -0.1004E-05 -0.3543E-10  0.6000E+01  0.6000E+01
     15.916 -0.4110E-10 -0.5501E-16  0.6000E+01  0.6000E+01
     15.981 -0.5501E-16  0.0000E+00  0.6000E+01  0.6000E+01
     16.046  0.0000E+00  0.0000E+00  0.6000E+01  0.6000E+01
     16.110  0.0000E+00  0.0000E+00  0.6000E+01  0.6000E+01
     16.175  0.0000E+00  0.0000E+00  0.6000E+01  0.6000E+01
     16.239  0.0000E+00  0.0000E+00  0.6000E+01  0.6000E+01
     16.304  0.0000E+00  0.0000E+00  0.6000E+01  0.6000E+01
     16.369  0.0000E+00  0.0000E+00  0.6000E+01  0.6000E+01
     16.433  0.0000E+00  0.0000E+00  0.6000E+01  0.6000E+01
     16.498  0.0000E+00  0.0000E+00  0.6000E+01  0.6000E+01
     16.49771650     -2.87769232  301      5.67523889      1.00000000
     -2.878  0.0000E+00  0.0000E+00  0.0000E+00  0.0000E+00  0.0000E+00  0.0000E+00  0.0000E+00  0.0000E+00  0.0000E+00  0.0000E+00  0.0000E+00  0.0000E+00  0.0000E+00  0.0000E+00  0.0000E+00  0.0000E+00  0.0000E+00  0.0000E+00
     -2.813  0.0000E+00  0.0000E+00  0.0000E+00  0.0000E+00  0.0000E+00  0.0000E+00  0.0000E+00  0.0000E+00  0.0000E+00  0.0000E+00  0.0000E+00  0.0000E+00  0.0000E+00  0.0000E+00  0.0000E+00  0.0000E+00  0.0000E+00  0.0000E+00
     -2.749  0.0000E+00  0.0000E+00  0.0000E+00  0.0000E+00  0.0000E+00  0.0000E+00  0.0000E+00  0.0000E+00  0.0000E+00  0.0000E+00  0.0000E+00  0.0000E+00  0.0000E+00  0.0000E+00  0.0000E+00  0.0000E+00  0.0000E+00  0.0000E+00
     -2.684  0.0000E+00  0.0000E+00  0.0000E+00  0.0000E+00  0.0000E+00  0.0000E+00  0.0000E+00  0.0000E+00  0.0000E+00  0.0000E+00  0.0000E+00  0.0000E+00  0.0000E+00  0.0000E+00  0.0000E+00  0.0000E+00  0.0000E+00  0.0000E+00
     -2.619  0.0000E+00  0.0000E+00  0.0000E+00  0.0000E+00  0.0000E+00  0.0000E+00  0.0000E+00  0.0000E+00  0.0000E+00  0.0000E+00  0.0000E+00  0.0000E+00  0.0000E+00  0.0000E+00  0.0000E+00  0.0000E+00  0.0000E+00  0.0000E+00
     -2.555  0.0000E+00  0.0000E+00  0.0000E+00  0.0000E+00  0.0000E+00  0.0000E+00  0.0000E+00  0.0000E+00  0.0000E+00  0.0000E+00  0.0000E+00  0.0000E+00  0.0000E+00  0.0000E+00  0.0000E+00  0.0000E+00  0.0000E+00  0.0000E+00
     -2.490  0.0000E+00  0.0000E+00  0.0000E+00  0.0000E+00  0.0000E+00  0.0000E+00  0.0000E+00  0.0000E+00  0.0000E+00  0.0000E+00  0.0000E+00  0.0000E+00  0.0000E+00  0.0000E+00  0.0000E+00  0.0000E+00  0.0000E+00  0.0000E+00
     -2.426  0.0000E+00 -0.2313E-32  0.0000E+00 -0.7697E-35  0.0000E+00 -0.2309E-34  0.0000E+00 -0.1539E-34  0.0000E+00 -0.1058E-36  0.0000E+00 -0.1586E-36  0.0000E+00 -0.3964E-37  0.0000E+00 -0.3174E-36  0.0000E+00 -0.1322E-37
     -2.361 -0.9678E-33 -0.1535E-23 -0.3227E-35 -0.5109E-26 -0.9681E-35 -0.1533E-25 -0.6454E-35 -0.1022E-25 -0.4449E-37 -0.7021E-28 -0.6673E-37 -0.1053E-27 -0.1668E-37 -0.2631E-28 -0.1335E-36 -0.2106E-27 -0.5562E-38 -0.8777E-29
     -2.296 -0.7333E-24 -0.3508E-16 -0.2445E-26 -0.1167E-18 -0.7336E-26 -0.3502E-18 -0.4891E-26 -0.2335E-18 -0.3372E-28 -0.1604E-20 -0.5056E-28 -0.2405E-20 -0.1264E-28 -0.6011E-21 -0.1011E-27 -0.4813E-20 -0.4215E-29 -0.2005E-21
     -2.232 -0.1914E-16 -0.2597E-10 -0.6382E-19 -0.8639E-13 -0.1915E-18 -0.2592E-12 -0.1276E-18 -0.1728E-12 -0.8800E-21 -0.1187E-14 -0.1320E-20 -0.1780E-14 -0.3299E-21 -0.4449E-15 -0.2640E-20 -0.3562E-14 -0.1100E-21 -0.1484E-15
     -2.167 -0.1621E-10 -0.6340E-06 -0.5404E-13 -0.2109E-08 -0.1621E-12 -0.6328E-08 -0.1081E-12 -0.4219E-08 -0.7451E-15 -0.2899E-10 -0.1117E-14 -0.4346E-10 -0.2794E-15 -0.1086E-10 -0.2235E-14 -0.8698E-10 -0.9314E-16 -0.3624E-11
     -2.103 -0.4539E-06 -0.4253E-03 -0.1513E-08 -0.1415E-05 -0.4540E-08 -0.4245E-05 -0.3027E-08 -0.2830E-05 -0.2087E-10 -0.1945E-07 -0.3130E-10 -0.2915E-07 -0.7823E-11 -0.7287E-08 -0.6260E-10 -0.5834E-07 -0.2609E-11 -0.2431E-08
     -2.038 -0.3534E-03  0.7811E-03 -0.1178E-05  0.2599E-05 -0.3535E-05  0.7797E-05 -0.2357E-05  0.5198E-05 -0.1625E-07  0.3572E-07 -0.2437E-07  0.5354E-07 -0.6091E-08  0.1338E-07 -0.4874E-07  0.1072E-06 -0.2031E-08  0.4465E-08
     -1.974 -0.1467E-03  0.6639E-01 -0.4890E-06  0.2209E-03 -0.1467E-05  0.6627E-03 -0.9780E-06  0.4418E-03 -0.6743E-08  0.3036E-05 -0.1011E-07  0.4551E-05 -0.2528E-08  0.1138E-05 -0.2023E-07  0.9108E-05 -0.8429E-09  0.3795E-06
     -1.909  0.6468E-01  0.1275E-01  0.2157E-03  0.4242E-04  0.6471E-03  0.1273E-03  0.4314E-03  0.8485E-04  0.2974E-05  0.5831E-06  0.4460E-05  0.8741E-06  0.1115E-05  0.2185E-06  0.8922E-05  0.1749E-05  0.3718E-06  0.7288E-07
     -1.844  0.1528E-01 -0.1243E-02  0.5095E-04 -0.4137E-05  0.1529E-03 -0.1241E-04  0.1019E-03 -0.8273E-05  0.7025E-06 -0.5685E-07  0.1054E-05 -0.8523E-07  0.2634E-06 -0.2130E-07  0.2108E-05 -0.1706E-06  0.8782E-07 -0.7107E-08
     -1.780 -0.1405E-02 -0.5428E-05 -0.4684E-05 -0.1820E-07 -0.1405E-04 -0.5460E-07 -0.9369E-05 -0.3612E-07 -0.6459E-07 -0.2529E-09 -0.9687E-07 -0.4030E-09 -0.2421E-07 -0.1107E-09 -0.1938E-06 -0.7586E-09 -0.8074E-08 -0.3161E-10
     -1.715 -0.7209E-05 -0.4980E-04 -0.2414E-07 -0.6411E-06 -0.7241E-07 -0.1923E-05 -0.4807E-07 -0.3206E-06 -0.3346E-09 -0.1802E-07 -0.5184E-09 -0.1081E-06 -0.1365E-09 -0.6081E-07 -0.1004E-08 -0.5405E-07 -0.4183E-10 -0.2252E-08
     -1.651 -0.3919E-04 -0.3194E-02 -0.5057E-06 -0.4112E-04 -0.1517E-05 -0.1234E-03 -0.2528E-06 -0.2056E-04 -0.1419E-07 -0.1156E-05 -0.8514E-07 -0.6934E-05 -0.4789E-07 -0.3900E-05 -0.4257E-07 -0.3467E-05 -0.1774E-08 -0.1445E-06
     -1.586 -0.3012E-02  0.4534E-01 -0.3887E-04  0.5837E-03 -0.1166E-03  0.1751E-02 -0.1943E-04  0.2918E-03 -0.1091E-05  0.1640E-04 -0.6544E-05  0.9842E-04 -0.3681E-05  0.5536E-04 -0.3272E-05  0.4921E-04 -0.1363E-06  0.2050E-05
     -1.521  0.4105E-01  0.6254E-01  0.5297E-03  0.8051E-03  0.1589E-02  0.2415E-02  0.2648E-03  0.4025E-03  0.1486E-04  0.2262E-04  0.8918E-04  0.1357E-03  0.5017E-04  0.7636E-04  0.4459E-04  0.6787E-04  0.1858E-05  0.2828E-05
     -1.457  0.6627E-01 -0.3441E-02  0.8552E-03 -0.4430E-04  0.2566E-02 -0.1329E-03  0.4276E-03 -0.2215E-04  0.2400E-04 -0.1245E-05  0.1440E-03 -0.7469E-05  0.8100E-04 -0.4202E-05  0.7200E-04 -0.3735E-05  0.3000E-05 -0.1556E-06
     -1.392 -0.3309E-02 -0.1255E-03 -0.4269E-04 -0.1616E-05 -0.1281E-03 -0.4847E-05 -0.2135E-04 -0.8081E-06 -0.1198E-05 -0.4544E-07 -0.7189E-05 -0.2724E-06 -0.4044E-05 -0.1532E-06 -0.3594E-05 -0.1362E-06 -0.1498E-06 -0.5679E-08
     -1.328 -0.1544E-03 -0.3670E-04 -0.1993E-05 -0.1058E-05 -0.5977E-05 -0.3939E-06 -0.9964E-06 -0.2114E-05 -0.5594E-07 -0.2482E-06 -0.3355E-06 -0.2417E-07 -0.1887E-06 -0.1118E-06 -0.1678E-06 -0.4815E-07 -0.6993E-08 -0.3103E-07
     -1.263 -0.2874E-04 -0.5973E-02 -0.8296E-06 -0.1723E-03 -0.3102E-06 -0.6382E-04 -0.1657E-05 -0.3447E-03 -0.1947E-06 -0.4047E-04 -0.1910E-07 -0.3919E-05 -0.8738E-07 -0.1822E-04 -0.3791E-07 -0.7839E-05 -0.2434E-07 -0.5059E-05
     -1.198 -0.5394E-02  0.6855E-01 -0.1560E-03  0.1978E-02 -0.5775E-04  0.7324E-03 -0.3120E-03  0.3955E-02 -0.3666E-04  0.4644E-03 -0.3560E-05  0.4497E-04 -0.1643E-04  0.2091E-03 -0.7120E-05  0.8996E-04 -0.4583E-05  0.5805E-04
     -1.134  0.5934E-01  0.2349E+00  0.1716E-02  0.6777E-02  0.6354E-03  0.2510E-02  0.3432E-02  0.1355E-01  0.4034E-03  0.1591E-02  0.3916E-04  0.1541E-03  0.1808E-03  0.7165E-03  0.7833E-04  0.3083E-03  0.5042E-04  0.1989E-03
     -1.069  0.2406E+00 -0.3589E-02  0.6957E-02 -0.1035E-03  0.2576E-02 -0.3834E-04  0.1391E-01 -0.2071E-03  0.1635E-02 -0.2431E-04  0.1588E-03 -0.2354E-05  0.7329E-03 -0.1095E-04  0.3175E-03 -0.4710E-05  0.2044E-03 -0.3039E-05
     -1.005 -0.1214E-02 -0.1079E-02 -0.3511E-04 -0.3114E-04 -0.1300E-04 -0.1153E-04 -0.7022E-04 -0.6229E-04 -0.8253E-05 -0.7313E-05 -0.8012E-06 -0.7081E-06 -0.3699E-05 -0.3293E-05 -0.1603E-05 -0.1417E-05 -0.1032E-05 -0.9142E-06
     -0.940 -0.1270E-02 -0.1181E-05 -0.3671E-04 -0.3408E-07 -0.1359E-04 -0.1262E-07 -0.7343E-04 -0.6815E-07 -0.8629E-05 -0.8002E-08 -0.8378E-06 -0.7748E-09 -0.3868E-05 -0.3603E-08 -0.1676E-05 -0.1550E-08 -0.1079E-05 -0.1000E-08
     -0.876 -0.1579E-05 -0.3636E-10 -0.4566E-07 -0.1049E-11 -0.1690E-07 -0.3885E-12 -0.9132E-07 -0.2098E-11 -0.1073E-07 -0.2463E-12 -0.1042E-08 -0.2385E-13 -0.4810E-08 -0.1109E-12 -0.2084E-08 -0.4772E-13 -0.1341E-08 -0.3079E-13
     -0.811 -0.5472E-10 -0.6501E-16 -0.1583E-11 -0.1875E-17 -0.5859E-12 -0.6945E-18 -0.3165E-11 -0.3751E-17 -0.3720E-12 -0.4404E-18 -0.3612E-13 -0.4265E-19 -0.1667E-12 -0.1983E-18 -0.7224E-13 -0.8531E-19 -0.4650E-13 -0.5505E-19
     -0.746 -0.6484E-16 -0.1520E-14 -0.1875E-17 -0.4187E-16 -0.6942E-18 -0.1256E-15 -0.3750E-17 -0.8121E-16 -0.4407E-18 -0.1190E-16 -0.4279E-19 -0.1911E-16 -0.1975E-18 -0.2676E-17 -0.8559E-19 -0.3569E-16 -0.5509E-19 -0.4906E-17
     -0.682 -0.9466E-15 -0.6462E-09 -0.2615E-16 -0.1780E-10 -0.7846E-16 -0.5341E-10 -0.5072E-16 -0.3453E-10 -0.7434E-17 -0.5059E-11 -0.1190E-16 -0.8127E-11 -0.1666E-17 -0.1138E-11 -0.2230E-16 -0.1518E-10 -0.3057E-17 -0.2086E-11
     -0.617 -0.4498E-09 -0.8701E-05 -0.1243E-10 -0.2398E-06 -0.3728E-10 -0.7193E-06 -0.2410E-10 -0.4650E-06 -0.3532E-11 -0.6813E-07 -0.5656E-11 -0.1094E-06 -0.7917E-12 -0.1532E-07 -0.1060E-10 -0.2044E-06 -0.1452E-11 -0.2809E-07
     -0.553 -0.6771E-05 -0.3024E-02 -0.1871E-06 -0.8334E-04 -0.5612E-06 -0.2500E-03 -0.3628E-06 -0.1617E-03 -0.5317E-07 -0.2365E-04 -0.8515E-07 -0.3800E-04 -0.1192E-07 -0.5324E-05 -0.1595E-06 -0.7096E-04 -0.2186E-07 -0.9746E-05
     -0.488 -0.2667E-02  0.2336E-01 -0.7370E-04  0.6390E-03 -0.2211E-03  0.1917E-02 -0.1429E-03  0.1237E-02 -0.2093E-04  0.1871E-03 -0.3351E-04  0.3011E-03 -0.4694E-05  0.4125E-04 -0.6278E-04  0.5613E-03 -0.8598E-05  0.7872E-04
     -0.423  0.1828E-01  0.2525E+00  0.5007E-03  0.7011E-02  0.1502E-02  0.2103E-01  0.9690E-03  0.1362E-01  0.1474E-03  0.1932E-02  0.2366E-03  0.3097E-02  0.3227E-04  0.4434E-03  0.4422E-03  0.5796E-02  0.6207E-04  0.7795E-03
     -0.359  0.2509E+00  0.7023E-01  0.6979E-02  0.2153E-02  0.2094E-01  0.6459E-02  0.1356E-01  0.4283E-02  0.1930E-02  0.3607E-03  0.3086E-02  0.5530E-03  0.4407E-03  0.1185E-03  0.5791E-02  0.1082E-02  0.7784E-03  0.7714E-04
     -0.294  0.7547E-01 -0.2488E-02  0.2306E-02 -0.6926E-04  0.6919E-02 -0.2078E-03  0.4581E-02 -0.1347E-03  0.4014E-03 -0.1887E-04  0.6170E-03 -0.3023E-04  0.1283E-03 -0.4364E-05  0.1204E-02 -0.5662E-04  0.9233E-04 -0.7552E-05
     -0.230 -0.2313E-02 -0.4630E-03 -0.6272E-04 -0.2646E-04 -0.1882E-03 -0.3560E-04 -0.1211E-03 -0.2846E-04 -0.1919E-04 -0.5796E-05 -0.3086E-04 -0.5726E-05 -0.4096E-05 -0.1667E-05 -0.5756E-04 -0.4648E-05 -0.8278E-05 -0.7192E-06
     -0.165 -0.4771E-03 -0.8546E-02 -0.2514E-04 -0.9234E-03 -0.3824E-04 -0.3656E-03 -0.2950E-04 -0.5041E-03 -0.5317E-05 -0.2423E-03 -0.5456E-05 -0.2001E-03 -0.1557E-05 -0.6338E-04 -0.5129E-05 -0.2699E-04 -0.6635E-06 -0.2936E-04
     -0.101 -0.8261E-02  0.1259E+00 -0.8952E-03  0.1360E-01 -0.3543E-03  0.5385E-02 -0.4886E-03  0.7425E-02 -0.2350E-03  0.3569E-02 -0.1942E-03  0.2948E-02 -0.6121E-04  0.9336E-03 -0.2639E-04  0.3974E-03 -0.2839E-04  0.4325E-03
     -0.036  0.1179E+00  0.1526E+00  0.1277E-01  0.1649E-01  0.5054E-02  0.6529E-02  0.6971E-02  0.9003E-02  0.3353E-02  0.4327E-02  0.2771E-02  0.3574E-02  0.8734E-03  0.1132E-02  0.3765E-03  0.4818E-03  0.4050E-03  0.5244E-03
      0.029  0.1595E+00 -0.9735E-02  0.1728E-01 -0.1021E-02  0.6839E-02 -0.3933E-03  0.9433E-02 -0.6330E-03  0.4537E-02 -0.3227E-03  0.3750E-02 -0.2114E-03  0.1182E-02 -0.9540E-04  0.5095E-03 -0.3108E-04  0.5480E-03 -0.3937E-04
      0.093 -0.9539E-02 -0.4946E-02 -0.1007E-02 -0.3457E-03 -0.3888E-03 -0.7070E-04 -0.6156E-03 -0.6488E-03 -0.3123E-03 -0.4239E-03 -0.2097E-03 -0.1479E-04 -0.9090E-04 -0.1777E-03 -0.3077E-04 -0.1774E-04 -0.3797E-04 -0.5296E-04
      0.158 -0.5996E-02  0.1924E+00 -0.4197E-03  0.1302E-01 -0.8549E-04  0.2433E-02 -0.7899E-03  0.2604E-01 -0.5170E-03  0.1713E-01 -0.1772E-04  0.3474E-03 -0.2157E-03  0.7229E-02 -0.2166E-04  0.6949E-03 -0.6458E-04  0.2141E-02
      0.222  0.1867E+00  0.6604E-01  0.1267E-01  0.4470E-02  0.2366E-02  0.8351E-03  0.2534E-01  0.8940E-02  0.1669E-01  0.5880E-02  0.3393E-03  0.1193E-03  0.7009E-02  0.2481E-02  0.6787E-03  0.2385E-03  0.2086E-02  0.7350E-03
      0.287  0.7229E-01 -0.5541E-02  0.4907E-02 -0.3750E-03  0.9162E-03 -0.7006E-04  0.9814E-02 -0.7500E-03  0.6464E-02 -0.4933E-03  0.1314E-03 -0.1000E-04  0.2714E-02 -0.2082E-03  0.2628E-03 -0.2001E-04  0.8080E-03 -0.6167E-04
      0.352 -0.5903E-02 -0.3938E-04 -0.4007E-03 -0.2665E-05 -0.7481E-04 -0.4979E-06 -0.8013E-03 -0.5330E-05 -0.5278E-03 -0.3506E-05 -0.1073E-04 -0.7110E-07 -0.2216E-03 -0.1479E-05 -0.2146E-04 -0.1422E-06 -0.6597E-04 -0.4382E-06