   1   1   0   0
  0.1813235E+02  0.2866544E-09  0.2866544E-09  0.2866544E-09  0.5000000E-15
  1.000000000000000E-004
  CAR 
 unknown system                          
     16.45628742     -2.83937792  301      5.67381532      1.00000000
     -2.839  0.0000E+00  0.0000E+00
     -2.775  0.0000E+00  0.0000E+00
     -2.711  0.0000E+00  0.0000E+00
     -2.646  0.0000E+00  0.0000E+00
     -2.582  0.0000E+00  0.0000E+00
     -2.518  0.0000E+00  0.0000E+00
     -2.453  0.0000E+00  0.0000E+00
     -2.389 -0.1005E-31 -0.6461E-33
     -2.325 -0.5635E-23 -0.3624E-24
     -2.261 -0.1119E-15 -0.7194E-17
     -2.196 -0.7388E-10 -0.4752E-11
     -2.132 -0.1655E-05 -0.1064E-06
     -2.068 -0.1045E-02 -0.6735E-04
     -2.003  0.2044E-02  0.6414E-04
     -1.939  0.1579E+00  0.1022E-01
     -1.875  0.3067E-01  0.1220E-01
     -1.810 -0.3019E-02  0.1200E-01
     -1.746 -0.1390E-04  0.1200E-01
     -1.682 -0.1110E-03  0.1199E-01
     -1.617 -0.7640E-02  0.1150E-01
     -1.553  0.1050E+00  0.1826E-01
     -1.489  0.1601E+00  0.2855E-01
     -1.424 -0.8254E-02  0.2802E-01
     -1.360 -0.3703E-03  0.2800E-01
     -1.296 -0.7164E-04  0.2800E-01
     -1.231 -0.1347E-01  0.2713E-01
     -1.167  0.1443E+00  0.3641E-01
     -1.103  0.6190E+00  0.7622E-01
     -1.038  0.1654E-03  0.7623E-01
     -0.974 -0.3564E-02  0.7600E-01
     -0.910 -0.4947E-05  0.7600E-01
     -0.845 -0.1958E-09  0.7600E-01
     -0.781 -0.3314E-15  0.7600E-01
     -0.717 -0.1475E-14  0.7600E-01
     -0.653 -0.7597E-09  0.7600E-01
     -0.588 -0.1284E-04  0.7600E-01
     -0.524 -0.5959E-02  0.7562E-01
     -0.460  0.2980E-01  0.7753E-01
     -0.395  0.6746E+00  0.1209E+00
     -0.331  0.2396E+00  0.1363E+00
     -0.267 -0.3753E-02  0.1361E+00
     -0.202 -0.1559E-02  0.1360E+00
     -0.138 -0.2091E-01  0.1346E+00
     -0.074  0.2717E+00  0.1521E+00
     -0.009  0.5196E+00  0.1855E+00
      0.055 -0.2369E-01  0.1840E+00
      0.119 -0.2529E-01  0.1824E+00
      0.184  0.5001E+00  0.2146E+00
      0.248  0.2935E+00  0.2334E+00
      0.312 -0.2196E-01  0.2320E+00
      0.377 -0.2817E-03  0.2320E+00
      0.441 -0.7458E-07  0.2320E+00
      0.505 -0.6181E-12  0.2320E+00
      0.570 -0.5448E-13  0.2320E+00
      0.634 -0.1202E-07  0.2320E+00
      0.698 -0.8509E-04  0.2320E+00
      0.762 -0.1518E-01  0.2310E+00
      0.827  0.1149E+00  0.2384E+00
      0.891  0.1238E+01  0.3180E+00
      0.955  0.9545E+00  0.3794E+00
      1.020 -0.5054E-01  0.3762E+00
      1.084 -0.3055E-02  0.3760E+00
      1.148 -0.4566E-01  0.3730E+00
      1.213  0.5842E+00  0.4106E+00
      1.277  0.1692E+01  0.5194E+00
      1.341  0.1815E-01  0.5206E+00
      1.406 -0.2845E-01  0.5188E+00
      1.470  0.5397E+00  0.5535E+00
      1.534  0.6554E+00  0.5956E+00
      1.599  0.5951E+00  0.6339E+00
      1.663  0.1056E+00  0.6407E+00
      1.727 -0.1059E-01  0.6400E+00
      1.792 -0.9404E-02  0.6394E+00
      1.856  0.2889E-02  0.6396E+00
      1.920  0.1493E+01  0.7356E+00
      1.985  0.1755E+01  0.8485E+00
      2.049  0.1643E+01  0.9542E+00
      2.113  0.8459E+00  0.1009E+01
      2.177  0.6216E+00  0.1049E+01
      2.242  0.3215E+00  0.1069E+01
      2.306  0.1195E+01  0.1146E+01
      2.370  0.1226E+01  0.1225E+01
      2.435  0.4418E+00  0.1253E+01
      2.499  0.1489E+00  0.1263E+01
      2.563  0.5877E+00  0.1301E+01
      2.628 -0.2978E-01  0.1299E+01
      2.692  0.4925E+00  0.1331E+01
      2.756  0.8341E+00  0.1384E+01
      2.821  0.3124E+01  0.1585E+01
      2.885  0.1771E+01  0.1699E+01
      2.949  0.1283E+01  0.1782E+01
      3.014  0.3180E+00  0.1802E+01
      3.078  0.2930E-01  0.1804E+01
      3.142  0.1882E+01  0.1925E+01
      3.207  0.1524E+01  0.2023E+01
      3.271  0.6929E+00  0.2068E+01
      3.335  0.1297E-01  0.2068E+01
      3.400 -0.8617E-02  0.2068E+01
      3.464  0.2781E-01  0.2070E+01
      3.528  0.2150E+00  0.2083E+01
      3.593 -0.1547E-01  0.2082E+01
      3.657  0.4698E+00  0.2113E+01
      3.721  0.9687E+00  0.2175E+01
      3.785  0.1396E+01  0.2265E+01
      3.850  0.5012E+00  0.2297E+01
      3.914  0.4470E+00  0.2326E+01
      3.978 -0.3132E-01  0.2324E+01
      4.043  0.4892E-01  0.2327E+01
      4.107  0.2979E+00  0.2346E+01
      4.171  0.1963E+01  0.2472E+01
      4.236  0.2208E+01  0.2614E+01
      4.300  0.7862E+00  0.2665E+01
      4.364  0.2934E+01  0.2854E+01
      4.429  0.4075E+01  0.3116E+01
      4.493  0.7780E+00  0.3166E+01
      4.557  0.1291E+01  0.3249E+01
      4.622  0.1929E+01  0.3373E+01
      4.686  0.1135E+01  0.3446E+01
      4.750  0.4935E+00  0.3478E+01
      4.815  0.1431E+01  0.3570E+01
      4.879  0.1433E+01  0.3662E+01
      4.943  0.2640E+01  0.3832E+01
      5.008  0.2843E+01  0.4014E+01
      5.072  0.5049E+00  0.4047E+01
      5.136 -0.1041E+00  0.4040E+01
      5.200  0.6421E+00  0.4082E+01
      5.265  0.3143E+01  0.4284E+01
      5.329  0.2597E+01  0.4451E+01
      5.393  0.2026E+01  0.4581E+01
      5.458  0.6011E+00  0.4620E+01
      5.522  0.1053E+01  0.4688E+01
      5.586  0.1399E+01  0.4777E+01
      5.651  0.3078E+01  0.4975E+01
      5.715  0.1450E+01  0.5069E+01
      5.779  0.1597E+01  0.5171E+01
      5.844  0.6390E-03  0.5171E+01
      5.908  0.9763E-01  0.5178E+01
      5.972  0.1961E+01  0.5304E+01
      6.037  0.8430E+00  0.5358E+01
      6.101  0.1235E+01  0.5438E+01
      6.165  0.1742E+01  0.5550E+01
      6.230  0.6263E+00  0.5590E+01
      6.294 -0.4042E-01  0.5587E+01
      6.358  0.1552E+00  0.5597E+01
      6.423  0.5267E+00  0.5631E+01
      6.487  0.6798E-01  0.5636E+01
      6.551  0.2034E+00  0.5649E+01
      6.615  0.7049E+00  0.5694E+01
      6.680  0.2164E+00  0.5708E+01
      6.744  0.5683E+00  0.5744E+01
      6.808  0.1116E-01  0.5745E+01
      6.873  0.1227E+01  0.5824E+01
      6.937  0.3339E+00  0.5846E+01
      7.001  0.8048E+00  0.5897E+01
      7.066  0.6311E+00  0.5938E+01
      7.130 -0.3586E-01  0.5936E+01
      7.194  0.2701E+00  0.5953E+01
      7.259  0.8185E+00  0.6006E+01
      7.323  0.1537E+00  0.6015E+01
      7.387  0.7956E+00  0.6067E+01
      7.452  0.8751E-01  0.6072E+01
      7.516  0.1020E+01  0.6138E+01
      7.580  0.6039E+00  0.6177E+01
      7.645  0.6027E+00  0.6215E+01
      7.709  0.1288E-01  0.6216E+01
      7.773 -0.4585E-02  0.6216E+01
      7.838 -0.1076E-04  0.6216E+01
      7.902 -0.2907E-02  0.6216E+01
      7.966 -0.3889E-01  0.6213E+01
      8.031  0.9047E+00  0.6271E+01
      8.095  0.1266E+01  0.6353E+01
      8.159  0.1614E+01  0.6457E+01
      8.223  0.7974E+00  0.6508E+01
      8.288 -0.9361E-01  0.6502E+01
      8.352  0.3575E+00  0.6525E+01
      8.416  0.1164E+01  0.6600E+01
      8.481  0.4205E+00  0.6627E+01
      8.545  0.6095E+00  0.6666E+01
      8.609  0.8242E+00  0.6719E+01
      8.674  0.1744E+01  0.6831E+01
      8.738  0.1093E+01  0.6902E+01
      8.802  0.2022E+00  0.6915E+01
      8.867  0.1134E+01  0.6988E+01
      8.931  0.1792E+01  0.7103E+01
      8.995  0.9297E+00  0.7163E+01
      9.060  0.5230E+00  0.7196E+01
      9.124  0.1788E+01  0.7311E+01
      9.188  0.2361E+01  0.7463E+01
      9.253  0.8394E+00  0.7517E+01
      9.317  0.3112E+00  0.7537E+01
      9.381  0.2046E+01  0.7669E+01
      9.446  0.9822E+00  0.7732E+01
      9.510  0.1241E+01  0.7812E+01
      9.574  0.5920E+00  0.7850E+01
      9.638  0.1244E+00  0.7858E+01
      9.703  0.1163E+01  0.7933E+01
      9.767  0.1593E+01  0.8035E+01
      9.831  0.1195E+01  0.8112E+01
      9.896  0.1851E+00  0.8124E+01
      9.960  0.1894E+00  0.8136E+01
     10.024  0.1546E+01  0.8235E+01
     10.089  0.2222E+01  0.8378E+01
     10.153  0.8494E+00  0.8433E+01
     10.217  0.9587E+00  0.8495E+01
     10.282  0.9294E+00  0.8554E+01
     10.346  0.1309E+01  0.8639E+01
     10.410  0.2072E+01  0.8772E+01
     10.475  0.3120E+01  0.8973E+01
     10.539  0.2490E+01  0.9133E+01
     10.603  0.3302E+01  0.9345E+01
     10.668  0.3505E+01  0.9571E+01
     10.732  0.4434E+01  0.9856E+01
     10.796  0.2521E+01  0.1002E+02
     10.861  0.2211E+01  0.1016E+02
     10.925  0.1113E+01  0.1023E+02
     10.989  0.8020E+00  0.1028E+02
     11.054 -0.3917E-02  0.1028E+02
     11.118  0.5392E+00  0.1032E+02
     11.182  0.2226E+00  0.1033E+02
     11.246  0.5402E+00  0.1037E+02
     11.311  0.2547E+00  0.1038E+02
     11.375  0.2910E+00  0.1040E+02
     11.439  0.3079E+00  0.1042E+02
     11.504  0.2395E+00  0.1044E+02
     11.568 -0.2664E-01  0.1044E+02
     11.632  0.9288E-01  0.1044E+02
     11.697  0.6200E+00  0.1048E+02
     11.761  0.4821E+00  0.1051E+02
     11.825  0.3317E+00  0.1053E+02
     11.890 -0.3012E-01  0.1053E+02
     11.954  0.3734E-01  0.1053E+02
     12.018  0.6525E+00  0.1058E+02
     12.083  0.7109E-01  0.1058E+02
     12.147 -0.1254E-01  0.1058E+02
     12.211 -0.5808E-02  0.1058E+02
     12.276  0.7465E+00  0.1063E+02
     12.340  0.2151E+00  0.1064E+02
     12.404 -0.1927E-01  0.1064E+02
     12.469 -0.2275E-01  0.1064E+02
     12.533  0.3069E+00  0.1066E+02
     12.597  0.4077E+00  0.1068E+02
     12.661  0.9827E+00  0.1075E+02
     12.726  0.2794E+01  0.1093E+02
     12.790  0.9084E+00  0.1099E+02
     12.854  0.1228E+01  0.1106E+02
     12.919  0.1715E+01  0.1118E+02
     12.983  0.9779E+00  0.1124E+02
     13.047  0.3854E+00  0.1126E+02
     13.112  0.1096E+01  0.1133E+02
     13.176 -0.1496E-01  0.1133E+02
     13.240 -0.5324E-02  0.1133E+02
     13.305 -0.7644E-05  0.1133E+02
     13.369 -0.2410E-06  0.1133E+02
     13.433 -0.3464E-03  0.1133E+02
     13.498 -0.5798E-02  0.1133E+02
     13.562  0.1213E+00  0.1134E+02
     13.626  0.1073E+00  0.1135E+02
     13.691  0.6458E+00  0.1139E+02
     13.755  0.6377E-01  0.1139E+02
     13.819  0.2719E+00  0.1141E+02
     13.884  0.8474E-01  0.1141E+02
     13.948  0.4303E+00  0.1144E+02
     14.012  0.3583E+00  0.1147E+02
     14.076 -0.2450E-01  0.1146E+02
     14.141 -0.4610E-03  0.1146E+02
     14.205 -0.9019E-05  0.1146E+02
     14.269 -0.5284E-02  0.1146E+02
     14.334  0.1688E-02  0.1146E+02
     14.398  0.8962E+00  0.1152E+02
     14.462  0.1918E+00  0.1153E+02
     14.527  0.7868E+00  0.1158E+02
     14.591  0.1455E+01  0.1168E+02
     14.655  0.9488E-01  0.1168E+02
     14.720  0.1895E+00  0.1170E+02
     14.784 -0.2411E-02  0.1170E+02
     14.848 -0.5298E-02  0.1170E+02
     14.913 -0.3055E-01  0.1169E+02
     14.977  0.1065E+01  0.1176E+02
     15.041  0.9161E+00  0.1182E+02
     15.106  0.1079E+01  0.1189E+02
     15.170 -0.4180E-01  0.1189E+02
     15.234  0.2560E-01  0.1189E+02
     15.299  0.6264E+00  0.1193E+02
     15.363  0.4065E+00  0.1196E+02
     15.427  0.4619E+00  0.1199E+02
     15.492 -0.2913E-01  0.1198E+02
     15.556  0.3985E-01  0.1199E+02
     15.620  0.2106E+00  0.1200E+02
     15.684  0.2726E-02  0.1200E+02
     15.749 -0.1394E-02  0.1200E+02
     15.813 -0.2206E-05  0.1200E+02
     15.877 -0.9850E-10  0.1200E+02
     15.942 -0.1657E-15  0.1200E+02
     16.006  0.0000E+00  0.1200E+02
     16.070  0.0000E+00  0.1200E+02
     16.135  0.0000E+00  0.1200E+02
     16.199  0.0000E+00  0.1200E+02
     16.263  0.0000E+00  0.1200E+02
     16.328  0.0000E+00  0.1200E+02
     16.392  0.0000E+00  0.1200E+02
     16.456  0.0000E+00  0.1200E+02
