    1    1    1    2
  0.1813235E+02  0.2866544E-09  0.2866544E-09  0.2866544E-09  0.5000000E-15
  1.000000000000000E-004
  CAR 
 unknown system                          
    5   44    6
 
  0.5000000E-01  0.5000000E-01  0.5000000E-01  0.8000000E-02
   1       -1.514054     -1.581039
   2        6.128014      6.062229
   3        6.128014      6.062229
   4        7.243379      7.178380
   5        9.471462      9.430868
   6        9.471462      9.430868
 
  0.1500000E+00  0.5000000E-01  0.5000000E-01  0.2400000E-01
   1       -0.391322     -0.457961
   2        5.454295      5.388277
   3        5.635831      5.572250
   4        8.592016      8.529143
   5        9.157758      9.112806
   6        9.740076      9.699127
 
  0.2500000E+00  0.5000000E-01  0.5000000E-01  0.2400000E-01
   1        0.934923      0.868822
   2        4.796949      4.730461
   3        5.331071      5.269881
   4        9.378332      9.330761
   5       10.068269     10.027420
   6       10.563796     10.503946
 
  0.3500000E+00  0.5000000E-01  0.5000000E-01  0.2400000E-01
   1        1.564368      1.499554
   2        4.347170      4.280337
   3        6.140362      6.079119
   4        9.701319      9.653466
   5       10.432598     10.392483
   6       12.697859     12.643054
 
  0.4500000E+00  0.5000000E-01  0.5000000E-01  0.1200000E-01
   1        1.621915      1.557788
   2        4.189182      4.122229
   3        7.015542      6.953139
   4        9.682420      9.635285
   5       10.617459     10.577938
   6       13.842436     13.792367
 
 -0.5000000E-01  0.5000000E-01  0.5000000E-01  0.6000000E-02
   1       -1.929863     -1.996992
   2        6.447119      6.381198
   3        6.447123      6.381202
   4        6.584444      6.518637
   5        9.334500      9.294265
   6        9.831446      9.792783
 
  0.1500000E+00  0.1500000E+00  0.5000000E-01  0.2400000E-01
   1        0.879272      0.812935
   2        4.905362      4.842481
   3        4.979825      4.914247
   4        9.233738      9.187650
   5       10.114350     10.073204
   6       10.488078     10.427710
 
  0.2500000E+00  0.1500000E+00  0.5000000E-01  0.4800000E-01
   1        2.046403      1.980741
   2        4.434406      4.369889
   3        5.009382      4.946299
   4        9.535930      9.488772
   5       10.457384     10.416613
   6       12.712245     12.655913
 
  0.3500000E+00  0.1500000E+00  0.5000000E-01  0.4800000E-01
   1        2.324903      2.260479
   2        4.220859      4.154951
   3        5.971893      5.910283
   4        9.788214      9.741303
   5       10.659362     10.618235
   6       14.563159     14.511670
 
 -0.1500000E+00  0.1500000E+00  0.5000000E-01  0.2400000E-01
   1       -1.113516     -1.180305
   2        5.992927      5.926720
   3        6.220108      6.155565
   4        7.397228      7.332467
   5        8.654092      8.610096
   6       10.014754      9.975593
 
  0.2500000E+00  0.2500000E+00  0.5000000E-01  0.2400000E-01
   1        2.967299      2.901099
   2        4.326029      4.264974
   3        5.045543      4.981578
   4        9.850674      9.803759
   5       10.556520     10.514096
   6       14.993218     14.940812
 
  0.3500000E+00  0.2500000E+00  0.5000000E-01  0.2400000E-01
   1        3.149064      3.082812
   2        4.410994      4.348669
   3        5.283854      5.223160
   4       10.089927     10.043615
   5       10.601964     10.558187
   6       14.421617     14.353392
 
 -0.2500000E+00  0.2500000E+00  0.5000000E-01  0.2400000E-01
   1        0.208097      0.141818
   2        5.304019      5.237439
   3        5.644568      5.584011
   4        8.682460      8.633569
   5        9.010112      8.947711
   6       10.211744     10.171624
 
 -0.1500000E+00  0.2500000E+00  0.5000000E-01  0.2400000E-01
   1       -0.031299     -0.097573
   2        5.663898      5.602089
   3        5.738104      5.672110
   4        8.099158      8.050197
   5        8.516293      8.453110
   6       10.414784     10.375483
 
 -0.3500000E+00  0.3500000E+00  0.5000000E-01  0.2400000E-01
   1        1.246298      1.181020
   2        4.709177      4.642328
   3        5.724902      5.665859
   4        9.216966      9.166286
   5       10.440277     10.399630
   6       11.145051     11.086884
 
 -0.2500000E+00  0.3500000E+00  0.5000000E-01  0.4800000E-01
   1        1.272397      1.206862
   2        4.952248      4.891443
   3        5.386525      5.322530
   4        8.403614      8.351107
   5       10.341660     10.285759
   6       10.720924     10.676155
 
 -0.4500000E+00  0.4500000E+00  0.5000000E-01  0.2400000E-01
   1        1.489440      1.425427
   2        4.376936      4.309955
   3        6.726511      6.666769
   4        9.375464      9.326177
   5       10.810714     10.768549
   6       13.090921     13.039202
 
 -0.3500000E+00  0.4500000E+00  0.5000000E-01  0.4800000E-01
   1        1.929207      1.865145
   2        4.653269      4.588334
   3        5.628169      5.569262
   4        8.942838      8.890662
   5       10.755879     10.710863
   6       12.730570     12.676487
 
 -0.2500000E+00  0.4500000E+00  0.5000000E-01  0.2400000E-01
   1        2.396306      2.331271
   2        4.354193      4.296466
   3        5.392280      5.327782
   4        8.711348      8.657762
   5       10.462020     10.415860
   6       12.801455     12.747092
 
 -0.4500000E+00 -0.4500000E+00  0.5000000E-01  0.2400000E-01
   1        1.985070      1.921871
   2        4.552613      4.486475
   3        6.120518      6.063071
   4        8.895859      8.845010
   5       11.264751     11.217781
   6       13.981268     13.931305
 
 -0.3500000E+00 -0.4500000E+00  0.5000000E-01  0.4800000E-01
   1        2.866941      2.802908
   2        4.414197      4.353695
   3        5.252541      5.193503
   4        9.180186      9.127365
   5       10.684487     10.634667
   6       15.090050     15.039673
 
 -0.3500000E+00 -0.3500000E+00  0.5000000E-01  0.8000000E-02
   1        3.530015      3.462307
   2        4.508771      4.452088
   3        4.508777      4.452089
   4       10.143454     10.091487
   5       10.143457     10.091490
   6       14.711830     14.645599
 
  0.1500000E+00  0.1500000E+00  0.1500000E+00  0.8000000E-02
   1        2.266191      2.200076
   2        4.421566      4.357189
   3        4.421566      4.357189
   4       10.082421     10.039773
   5       10.082421     10.039773
   6       12.820145     12.763483
 
  0.2500000E+00  0.1500000E+00  0.1500000E+00  0.2400000E-01
   1        3.174718      3.109700
   2        4.176080      4.110553
   3        4.817657      4.754091
   4       10.249778     10.206585
   5       10.559414     10.519307
   6       15.004732     14.951755
 
  0.3500000E+00  0.1500000E+00  0.1500000E+00  0.1200000E-01
   1        3.182526      3.118205
   2        4.104308      4.038344
   3        5.639018      5.575981
   4       10.309958     10.266558
   5       10.711003     10.671872
   6       14.408114     14.339135
 
 -0.1500000E+00  0.1500000E+00  0.1500000E+00  0.6000000E-02
   1       -0.336521     -0.402719
   2        6.404001      6.338389
   3        6.404005      6.338392
   4        7.196152      7.150276
   5        7.403720      7.339070
   6       10.610865     10.572462
 
  0.2500000E+00  0.2500000E+00  0.1500000E+00  0.2400000E-01
   1        3.777920      3.712130
   2        4.437372      4.373874
   3        4.865623      4.801748
   4       10.562852     10.521657
   5       10.692056     10.652209
   6       13.700388     13.628674
 
 -0.2500000E+00  0.2500000E+00  0.1500000E+00  0.2400000E-01
   1        0.925811      0.860668
   2        5.543997      5.489276
   3        6.045984      5.980213
   4        7.269973      7.212063
   5        8.763631      8.701006
   6       10.816255     10.775753
 
 -0.3500000E+00  0.3500000E+00  0.1500000E+00  0.2400000E-01
   1        1.970551      1.907057
   2        4.917089      4.862932
   3        5.538057      5.472008
   4        8.073743      8.016510
   5       10.890050     10.831482
   6       10.922232     10.876299
 
 -0.2500000E+00  0.3500000E+00  0.1500000E+00  0.2400000E-01
   1        2.094859      2.031496
   2        4.598485      4.545244
   3        6.179164      6.114290
   4        7.553540      7.493337
   5       10.018932      9.961684
   6       10.984902     10.936093
 
 -0.4500000E+00  0.4500000E+00  0.1500000E+00  0.2400000E-01
   1        2.193453      2.131937
   2        5.239421      5.173224
   3        5.287650      5.232998
   4        8.047088      7.992657
   5       12.021649     11.969799
   6       12.888276     12.836096
 
 -0.3500000E+00  0.4500000E+00  0.1500000E+00  0.4800000E-01
   1        2.799660      2.738962
   2        4.213576      4.159342
   3        5.779529      5.716042
   4        8.186986      8.128610
   5       10.756054     10.701549
   6       12.945535     12.891111
 
 -0.4500000E+00 -0.4500000E+00  0.1500000E+00  0.2400000E-01
   1        2.811157      2.752332
   2        4.591644      4.537884
   3        5.332884      5.268635
   4        8.181305      8.123243
   5       11.792457     11.738056
   6       14.599492     14.546420
 
 -0.3500000E+00 -0.4500000E+00  0.1500000E+00  0.2400000E-01
   1        3.679316      3.621254
   2        3.738646      3.685051
   3        5.007818      4.944617
   4        9.450781      9.392539
   5       10.619234     10.562684
   6       15.404595     15.349765
 
  0.2500000E+00  0.2500000E+00  0.2500000E+00  0.2000000E-02
   1        4.507532      4.443049
   2        4.507541      4.443052
   3        4.507541      4.443052
   4       10.770235     10.731358
   5       10.770235     10.731358
   6       12.785520     12.711383
 
 -0.2500000E+00  0.2500000E+00  0.2500000E+00  0.6000000E-02
   1        2.001491      1.938861
   2        4.812804      4.763385
   3        6.993128      6.928403
   4        6.993132      6.928406
   5        8.922225      8.860171
   6       10.717269     10.670779
 
 -0.3500000E+00  0.3500000E+00  0.2500000E+00  0.2400000E-01
   1        2.823268      2.764254
   2        3.883570      3.832286
   3        7.053007      6.988442
   4        7.642552      7.580589
   5       10.584071     10.525234
   6       10.869393     10.814125
 
 -0.4500000E+00  0.4500000E+00  0.2500000E+00  0.2400000E-01
   1        2.857309      2.801964
   2        3.797738      3.744928
   3        6.882747      6.818092
   4        7.524863      7.463646
   5       12.578310     12.525480
   6       12.859293     12.798480
 
 -0.3500000E+00  0.4500000E+00  0.2500000E+00  0.2400000E-01
   1        3.148170      3.093208
   2        3.209497      3.157734
   3        6.894005      6.829832
   4        8.870522      8.808635
   5       10.852332     10.793141
   6       12.964095     12.906381
 
 -0.4500000E+00 -0.4500000E+00  0.2500000E+00  0.2400000E-01
   1        2.938254      2.885531
   2        3.262214      3.209820
   3        6.616802      6.551506
   4        9.386044      9.324819
   5       11.696742     11.639535
   6       15.307162     15.246836
 
 -0.3500000E+00  0.3500000E+00  0.3500000E+00  0.6000000E-02
   1        2.925245      2.870750
   2        3.023591      2.972437
   3        8.649975      8.586896
   4        8.649976      8.586897
   5       10.805732     10.748067
   6       10.979880     10.917046
 
 -0.4500000E+00  0.4500000E+00  0.3500000E+00  0.2400000E-01
   1        2.544454      2.492539
   2        2.707129      2.654777
   3        9.114129      9.050879
   4        9.121460      9.059111
   5       12.297445     12.244141
   6       13.107913     13.041254
 
 -0.4500000E+00 -0.4500000E+00  0.3500000E+00  0.8000000E-02
   1        2.390529      2.338572
   2        2.390530      2.338572
   3        9.046592      8.983223
   4       11.474836     11.416331
   5       11.474843     11.416332
   6       15.617016     15.551622
 
 -0.4500000E+00  0.4500000E+00  0.4500000E+00  0.6000000E-02
   1        2.088476      2.036610
   2        2.135391      2.083369
   3       11.378586     11.319654
   4       11.378591     11.319655
   5       12.286381     12.233613
   6       13.590155     13.518476
