    1    1    1    1
  0.1813235E+02  0.2866544E-09  0.2866544E-09  0.2866544E-09  0.5000000E-15
  1.000000000000000E-004
  CAR 
 unknown system                          
    5   44    6
 
  0.5000000E-01  0.5000000E-01  0.5000000E-01  0.8000000E-02
   1       -1.546502
   2        6.087401
   3        6.087401
   4        7.202257
   5        9.443468
   6        9.443468
 
  0.1500000E+00  0.5000000E-01  0.5000000E-01  0.2400000E-01
   1       -0.423886
   2        5.414331
   3        5.597823
   4        8.551546
   5        9.127342
   6        9.711454
 
  0.2500000E+00  0.5000000E-01  0.5000000E-01  0.2400000E-01
   1        0.901754
   2        4.757314
   3        5.296490
   4        9.345792
   5       10.039130
   6       10.524032
 
  0.3500000E+00  0.5000000E-01  0.5000000E-01  0.2400000E-01
   1        1.530359
   2        4.307683
   3        6.108310
   4        9.668316
   5       10.402936
   6       12.659412
 
  0.4500000E+00  0.5000000E-01  0.5000000E-01  0.1200000E-01
   1        1.587756
   2        4.149738
   3        6.984209
   4        9.649925
   5       10.587519
   6       13.805100
 
 -0.5000000E-01  0.5000000E-01  0.5000000E-01  0.6000000E-02
   1       -1.962302
   2        6.405964
   3        6.405965
   4        6.543151
   5        9.306995
   6        9.803934
 
  0.1500000E+00  0.1500000E+00  0.5000000E-01  0.2400000E-01
   1        0.846387
   2        4.868594
   3        4.941029
   4        9.202472
   5       10.084717
   6       10.448394
 
  0.2500000E+00  0.1500000E+00  0.5000000E-01  0.4800000E-01
   1        2.012504
   2        4.396886
   3        4.974049
   4        9.503536
   5       10.427254
   6       12.674295
 
  0.3500000E+00  0.1500000E+00  0.5000000E-01  0.4800000E-01
   1        2.290325
   2        4.182495
   3        5.939276
   4        9.755772
   5       10.628772
   6       14.527290
 
 -0.1500000E+00  0.1500000E+00  0.5000000E-01  0.2400000E-01
   1       -1.145944
   2        5.952189
   3        6.180627
   4        7.356156
   5        8.625312
   6        9.986704
 
  0.2500000E+00  0.2500000E+00  0.5000000E-01  0.2400000E-01
   1        2.931331
   2        4.291755
   3        5.010085
   4        9.818005
   5       10.525473
   6       14.957963
 
  0.3500000E+00  0.2500000E+00  0.5000000E-01  0.2400000E-01
   1        3.112263
   2        4.375935
   3        5.250935
   4       10.057415
   5       10.570073
   6       14.383023
 
 -0.2500000E+00  0.2500000E+00  0.5000000E-01  0.2400000E-01
   1        0.175424
   2        5.263788
   3        5.609413
   4        8.650417
   5        8.969493
   6       10.182772
 
 -0.1500000E+00  0.2500000E+00  0.5000000E-01  0.2400000E-01
   1       -0.063750
   2        5.627076
   3        5.698142
   4        8.067902
   5        8.475698
   6       10.385879
 
 -0.3500000E+00  0.3500000E+00  0.5000000E-01  0.2400000E-01
   1        1.212797
   2        4.669310
   3        5.693070
   4        9.183433
   5       10.410596
   6       11.105271
 
 -0.2500000E+00  0.3500000E+00  0.5000000E-01  0.4800000E-01
   1        1.239482
   2        4.916959
   3        5.349116
   4        8.369862
   5       10.303893
   6       10.689053
 
 -0.4500000E+00  0.4500000E+00  0.5000000E-01  0.2400000E-01
   1        1.455538
   2        4.337250
   3        6.696109
   4        9.342593
   5       10.780332
   6       13.052449
 
 -0.3500000E+00  0.4500000E+00  0.5000000E-01  0.4800000E-01
   1        1.895504
   2        4.615142
   3        5.596362
   4        8.909056
   5       10.723958
   6       12.692951
 
 -0.2500000E+00  0.4500000E+00  0.5000000E-01  0.2400000E-01
   1        2.362395
   2        4.321691
   3        5.355173
   4        8.676604
   5       10.429537
   6       12.764646
 
 -0.4500000E+00 -0.4500000E+00  0.5000000E-01  0.2400000E-01
   1        1.951274
   2        4.513625
   3        6.090356
   4        8.862924
   5       11.232256
   6       13.944699
 
 -0.3500000E+00 -0.4500000E+00  0.5000000E-01  0.4800000E-01
   1        2.832168
   2        4.379927
   3        5.220074
   4        9.145660
   5       10.650355
   6       15.054864
 
 -0.3500000E+00 -0.3500000E+00  0.5000000E-01  0.8000000E-02
   1        3.491835
   2        4.477780
   3        4.477781
   4       10.108385
   5       10.108385
   6       14.674048
 
  0.1500000E+00  0.1500000E+00  0.1500000E+00  0.8000000E-02
   1        2.232854
   2        4.384289
   3        4.384289
   4       10.051741
   5       10.051741
   6       12.782037
 
  0.2500000E+00  0.1500000E+00  0.1500000E+00  0.2400000E-01
   1        3.139996
   2        4.138308
   3        4.782757
   4       10.218444
   5       10.529284
   6       14.968954
 
  0.3500000E+00  0.1500000E+00  0.1500000E+00  0.1200000E-01
   1        3.147442
   2        4.066334
   3        5.605026
   4       10.278567
   5       10.681090
   6       14.369162
 
 -0.1500000E+00  0.1500000E+00  0.1500000E+00  0.6000000E-02
   1       -0.368777
   2        6.363774
   3        6.363775
   4        7.168291
   5        7.362665
   6       10.582174
 
  0.2500000E+00  0.2500000E+00  0.1500000E+00  0.2400000E-01
   1        3.741030
   2        4.401788
   3        4.830583
   4       10.532084
   5       10.661845
   6       13.661147
 
 -0.2500000E+00  0.2500000E+00  0.1500000E+00  0.2400000E-01
   1        0.893663
   2        5.512282
   3        6.006067
   4        7.234340
   5        8.723096
   6       10.786242
 
 -0.3500000E+00  0.3500000E+00  0.1500000E+00  0.2400000E-01
   1        1.937964
   2        4.887280
   3        5.498392
   4        8.038388
   5       10.850347
   6       10.890563
 
 -0.2500000E+00  0.3500000E+00  0.1500000E+00  0.2400000E-01
   1        2.062894
   2        4.568380
   3        6.140392
   4        7.516346
   5        9.980766
   6       10.951666
 
 -0.4500000E+00  0.4500000E+00  0.1500000E+00  0.2400000E-01
   1        2.160686
   2        5.199895
   3        5.258425
   4        8.013573
   5       11.988690
   6       12.849822
 
 -0.3500000E+00  0.4500000E+00  0.1500000E+00  0.4800000E-01
   1        2.767590
   2        4.183809
   3        5.742125
   4        8.150764
   5       10.720379
   6       12.908804
 
 -0.4500000E+00 -0.4500000E+00  0.1500000E+00  0.2400000E-01
   1        2.779417
   2        4.562603
   3        5.295154
   4        8.145571
   5       11.756202
   6       14.563827
 
 -0.3500000E+00 -0.4500000E+00  0.1500000E+00  0.2400000E-01
   1        3.647893
   2        3.709250
   3        4.971566
   4        9.413603
   5       10.582582
   6       15.368615
 
  0.2500000E+00  0.2500000E+00  0.2500000E+00  0.2000000E-02
   1        4.471423
   2        4.471424
   3        4.471424
   4       10.740339
   5       10.740339
   6       12.745971
 
 -0.2500000E+00  0.2500000E+00  0.2500000E+00  0.6000000E-02
   1        1.970275
   2        4.784795
   3        6.953844
   4        6.953845
   5        8.881730
   6       10.685494
 
 -0.3500000E+00  0.3500000E+00  0.2500000E+00  0.2400000E-01
   1        2.792823
   2        3.855184
   3        7.013789
   4        7.604997
   5       10.544434
   6       10.835486
 
 -0.4500000E+00  0.4500000E+00  0.2500000E+00  0.2400000E-01
   1        2.827485
   2        3.769160
   3        6.843539
   4        7.488713
   5       12.539885
   6       12.823867
 
 -0.3500000E+00  0.4500000E+00  0.2500000E+00  0.2400000E-01
   1        3.118935
   2        3.181108
   3        6.855929
   4        8.832236
   5       10.815099
   6       12.927164
 
 -0.4500000E+00 -0.4500000E+00  0.2500000E+00  0.2400000E-01
   1        2.909599
   2        3.233780
   3        6.578609
   4        9.348096
   5       11.659007
   6       15.270371
 
 -0.3500000E+00  0.3500000E+00  0.3500000E+00  0.6000000E-02
   1        2.896369
   2        2.995548
   3        8.611338
   4        8.611338
   5       10.766249
   6       10.944929
 
 -0.4500000E+00  0.4500000E+00  0.3500000E+00  0.2400000E-01
   1        2.516269
   2        2.678846
   3        9.076320
   4        9.082726
   5       12.259049
   6       13.071322
 
 -0.4500000E+00 -0.4500000E+00  0.3500000E+00  0.8000000E-02
   1        2.362395
   2        2.362395
   3        9.008333
   4       11.436693
   5       11.436696
   6       15.579212
 
 -0.4500000E+00  0.4500000E+00  0.4500000E+00  0.6000000E-02
   1        2.060431
   2        2.107298
   3       11.340356
   4       11.340357
   5       12.248085
   6       13.552853
