       N       E                     dE             d eps       ncg     rms          rms(c)
DAV:   1     0.139758901393E+02    0.13976E+02   -0.23563E+03  1086   0.685E+02
DAV:   2    -0.108123331596E+01   -0.15057E+02   -0.13442E+02  1902   0.872E+01
DAV:   3    -0.120469792622E+01   -0.12346E+00   -0.12206E+00  1098   0.105E+01
DAV:   4    -0.120600684829E+01   -0.13089E-02   -0.13089E-02  1374   0.494E-01
DAV:   5    -0.120601349081E+01   -0.66425E-05   -0.66427E-05   984   0.301E-02    0.759E+00
DAV:   6    -0.116860591494E+02   -0.10480E+02   -0.35609E+00  1092   0.970E+00    0.398E+00
DAV:   7    -0.117417159734E+02   -0.55657E-01   -0.24423E-02  1248   0.136E+00    0.367E+00
DAV:   8    -0.113580389364E+02    0.38368E+00   -0.32178E-01  1224   0.521E+00    0.456E+00
DAV:   9    -0.118301512758E+02   -0.47211E+00   -0.34007E-01  1218   0.564E+00    0.996E-01
DAV:  10    -0.118449001983E+02   -0.14749E-01   -0.29481E-03  1134   0.487E-01    0.803E-01
DAV:  11    -0.118641446009E+02   -0.19244E-01   -0.29192E-02  1158   0.122E+00    0.173E-01
DAV:  12    -0.118633604180E+02    0.78418E-03   -0.13704E-03  1188   0.478E-01    0.166E-01
DAV:  13    -0.118633565541E+02    0.38638E-05   -0.54083E-04  1128   0.173E-01
   1 F= -.11863357E+02 E0= -.11863367E+02  d E =0.311136E-04  mag=    -0.0068
