       N       E                     dE             d eps       ncg     rms          rms(c)
DAV:   1    -0.785660723309E-02   -0.78566E-02   -0.18346E+03   534   0.537E+02
DAV:   2    -0.122756269232E+02   -0.12268E+02   -0.11897E+02   918   0.818E+01
DAV:   3    -0.123442430835E+02   -0.68616E-01   -0.68583E-01   546   0.839E+00
DAV:   4    -0.123443968125E+02   -0.15373E-03   -0.15373E-03   714   0.296E-01
DAV:   5    -0.123443971233E+02   -0.31088E-06   -0.31044E-06   486   0.914E-03    0.323E+00
DAV:   6    -0.120162138952E+02    0.32818E+00   -0.20421E-01   618   0.342E+00    0.172E+00
DAV:   7    -0.118650790117E+02    0.15113E+00   -0.30032E-01   636   0.402E+00    0.126E-01
DAV:   8    -0.118641175051E+02    0.96151E-03   -0.88120E-04   570   0.260E-01    0.277E-02
DAV:   9    -0.118641320259E+02   -0.14521E-04   -0.56769E-05   360   0.577E-02
   1 F= -.11864132E+02 E0= -.11864339E+02  d E =0.621521E-03
