 vasp.5.2.12 11Nov11 complex                                                    
  
 executed on             LinuxIFC date 2012.10.17  10:12:41
 running on    1 nodes
 distr:  one band on    1 nodes,    1 groups


--------------------------------------------------------------------------------------------------------


 INCAR:
 POTCAR:    PAW_PBE Ta 17Jan2003                  
 POTCAR:    PAW_PBE Ta 17Jan2003                  
   VRHFIN =Ta:  6s5d                                                            
   LEXCH  = PE                                                                  
   EATOM  =   130.6506 eV,    9.6025 Ry                                         
                                                                                
   TITEL  = PAW_PBE Ta 17Jan2003                                                
   LULTRA =        F    use ultrasoft PP ?                                      
   IUNSCR =        1    unscreen: 0-lin 1-nonlin 2-no                           
   RPACOR =    2.330    partial core radius                                     
   POMASS =  180.948; ZVAL   =    5.000    mass and valenz                      
   RCORE  =    2.900    outmost cutoff radius                                   
   RWIGS  =    2.840; RWIGS  =    1.503    wigner-seitz radius (au A)           
   ENMAX  =  223.667; ENMIN  =  167.750 eV                                      
   RCLOC  =    2.205    cutoff for local pot                                    
   LCOR   =        T    correct aug charges                                     
   LPAW   =        T    paw PP                                                  
   EAUG   =  332.075                                                            
   DEXC   =    -.049                                                            
   RMAX   =    3.083    core radius for proj-oper                               
   RAUG   =    1.300    factor for augmentation sphere                          
   RDEP   =    3.060    radius for radial grids                                 
   QCUT   =   -4.055; QGAM   =    8.109    optimization parameters              
                                                                                
   Description                                                                  
     l     E      TYP  RCUT    TYP  RCUT                                        
     2   .000     23  2.500                                                     
     2   .000     23  2.500                                                     
     0   .000     23  2.500                                                     
     0   .000     23  2.500                                                     
     1   .000     23  2.900                                                     
     1  2.000     23  2.900                                                     
     3   .000      7   .000                                                     
  local pseudopotential read in
  partial core-charges read in
  atomic valenz-charges read in
  non local Contribution for L=           2  read in
    real space projection operators read in
  non local Contribution for L=           2  read in
    real space projection operators read in
  non local Contribution for L=           0  read in
    real space projection operators read in
  non local Contribution for L=           0  read in
    real space projection operators read in
  non local Contribution for L=           1  read in
    real space projection operators read in
  non local Contribution for L=           1  read in
    real space projection operators read in
    PAW grid and wavefunctions read in
 
   number of l-projection  operators is LMAX  =           6
   number of lm-projection operators is LMMAX =          18
 
  PAW_PBE Ta 17Jan2003                  :
 energy of atom  1       EATOM= -130.6506
 kinetic energy error for atom=    0.0016 (will be added to EATOM!!)
 
 
 POSCAR: Ta                                      
  positions in cartesian coordinates
  No initial velocities read in
 exchange correlation table for  LEXCH =        8
   RHO(1)=    0.500       N(1)  =     2000
   RHO(2)=  100.500       N(2)  =     4000
 


--------------------------------------------------------------------------------------------------------


 ion  position               nearest neighbor table
   1  0.000  0.000  0.000-
 
  LATTYP: Found a body centered cubic cell.
 ALAT       =     3.3100000000
  
  Lattice vectors:
  
 A1 = (   2.8665440865,   0.0000000000,   0.0000000000)
 A2 = (  -0.9555146955,   2.7026036829,   0.0000000000)
 A3 = (  -0.9555146955,  -1.3513018414,   2.3405234457)
 Subroutine PRICEL returns:
 Original cell was already a primitive cell.
 

Analysis of symmetry for initial positions (statically):

 Routine SETGRP: Setting up the symmetry group for a 
 body centered cubic supercell.


 Subroutine GETGRP returns: Found 48 space group operations
 (whereof 48 operations were pure point group operations)
 out of a pool of 48 trial point group operations.


The static configuration has the point symmetry O_h .

Analysis of symmetry for dynamics (positions and initial velocities):

 Subroutine DYNSYM returns: Found 48 space group operations
 (whereof 48 operations were pure point group operations)
 out of a pool of 48 trial space group operations
 (whereof 48 operations were pure point group operations)
 and found also     1 'primitive' translations


The dynamic configuration has the point symmetry O_h .

Analysis of magnetic symmetry:

 Subroutine MAGSYM returns: Found 48 space group operations
 (whereof 48 operations were pure point group operations)
 out of a pool of 48 trial space group operations
 (whereof 48 operations were pure point group operations)
 and found also     1 'primitive' translations


The magnetic configuration has the point symmetry O_h .
 
 
 KPOINTS: KPOINTS created by Atomic Simulation Env

Automatic generation of k-mesh.
 
 Subroutine IBZKPT returns following result:
 ===========================================
 
 Found     44 irreducible k-points:
 
 Following reciprocal coordinates:
            Coordinates               Weight
  0.050000  0.050000  0.050000      8.000000
  0.150000  0.050000  0.050000     24.000000
  0.250000  0.050000  0.050000     24.000000
  0.350000  0.050000  0.050000     24.000000
  0.450000  0.050000  0.050000     12.000000
 -0.050000  0.050000  0.050000      6.000000
  0.150000  0.150000  0.050000     24.000000
  0.250000  0.150000  0.050000     48.000000
  0.350000  0.150000  0.050000     48.000000
 -0.150000  0.150000  0.050000     24.000000
  0.250000  0.250000  0.050000     24.000000
  0.350000  0.250000  0.050000     24.000000
 -0.250000  0.250000  0.050000     24.000000
 -0.150000  0.250000  0.050000     24.000000
 -0.350000  0.350000  0.050000     24.000000
 -0.250000  0.350000  0.050000     48.000000
 -0.450000  0.450000  0.050000     24.000000
 -0.350000  0.450000  0.050000     48.000000
 -0.250000  0.450000  0.050000     24.000000
 -0.450000 -0.450000  0.050000     24.000000
 -0.350000 -0.450000  0.050000     48.000000
 -0.350000 -0.350000  0.050000      8.000000
  0.150000  0.150000  0.150000      8.000000
  0.250000  0.150000  0.150000     24.000000
  0.350000  0.150000  0.150000     12.000000
 -0.150000  0.150000  0.150000      6.000000
  0.250000  0.250000  0.150000     24.000000
 -0.250000  0.250000  0.150000     24.000000
 -0.350000  0.350000  0.150000     24.000000
 -0.250000  0.350000  0.150000     24.000000
 -0.450000  0.450000  0.150000     24.000000
 -0.350000  0.450000  0.150000     48.000000
 -0.450000 -0.450000  0.150000     24.000000
 -0.350000 -0.450000  0.150000     24.000000
  0.250000  0.250000  0.250000      2.000000
 -0.250000  0.250000  0.250000      6.000000
 -0.350000  0.350000  0.250000     24.000000
 -0.450000  0.450000  0.250000     24.000000
 -0.350000  0.450000  0.250000     24.000000
 -0.450000 -0.450000  0.250000     24.000000
 -0.350000  0.350000  0.350000      6.000000
 -0.450000  0.450000  0.350000     24.000000
 -0.450000 -0.450000  0.350000      8.000000
 -0.450000  0.450000  0.450000      6.000000
 
 Following cartesian coordinates:
            Coordinates               Weight
  0.017443  0.024668  0.042725      8.000000
  0.052328  0.037001  0.064088     24.000000
  0.087213  0.049335  0.085451     24.000000
  0.122098  0.061669  0.106814     24.000000
  0.156983  0.074003  0.128176     12.000000
 -0.017443  0.012334  0.021363      6.000000
  0.052328  0.074003  0.085451     24.000000
  0.087213  0.086336  0.106814     48.000000
  0.122098  0.098670  0.128176     48.000000
 -0.052328  0.037001  0.021363     24.000000
  0.087213  0.123338  0.128176     24.000000
  0.122098  0.135672  0.149539     24.000000
 -0.087213  0.061669  0.021363     24.000000
 -0.052328  0.074003  0.042725     24.000000
 -0.122098  0.086336  0.021363     24.000000
 -0.087213  0.098670  0.042725     48.000000
 -0.156983  0.111004  0.021363     24.000000
 -0.122098  0.123338  0.042725     48.000000
 -0.087213  0.135672  0.064088     24.000000
 -0.156983 -0.222008 -0.170902     24.000000
 -0.122098 -0.209674 -0.149539     48.000000
 -0.122098 -0.172673 -0.128176      8.000000
  0.052328  0.074003  0.128176      8.000000
  0.087213  0.086336  0.149539     24.000000
  0.122098  0.098670  0.170902     12.000000
 -0.052328  0.037001  0.064088      6.000000
  0.087213  0.123338  0.170902     24.000000
 -0.087213  0.061669  0.064088     24.000000
 -0.122098  0.086336  0.064088     24.000000
 -0.087213  0.098670  0.085451     24.000000
 -0.156983  0.111004  0.064088     24.000000
 -0.122098  0.123338  0.085451     48.000000
 -0.156983 -0.222008 -0.128176     24.000000
 -0.122098 -0.209674 -0.106814     24.000000
  0.087213  0.123338  0.213627      2.000000
 -0.087213  0.061669  0.106814      6.000000
 -0.122098  0.086336  0.106814     24.000000
 -0.156983  0.111004  0.106814     24.000000
 -0.122098  0.123338  0.128176     24.000000
 -0.156983 -0.222008 -0.085451     24.000000
 -0.122098  0.086336  0.149539      6.000000
 -0.156983  0.111004  0.149539     24.000000
 -0.156983 -0.222008 -0.042725      8.000000
 -0.156983  0.111004  0.192265      6.000000
 


--------------------------------------------------------------------------------------------------------




 Dimension of arrays:
   k-points           NKPTS =     44   k-points in BZ     NKDIM =     44   number of bands    NBANDS=      6
   number of dos      NEDOS =    301   number of ions     NIONS =      1
   non local maximal  LDIM  =      6   non local SUM 2l+1 LMDIM =     18
   total plane-waves  NPLWV =   8000
   max r-space proj   IRMAX =      1   max aug-charges    IRDMAX=  30229
   dimension x,y,z NGX =    20 NGY =   20 NGZ =   20
   dimension x,y,z NGXF=    40 NGYF=   40 NGZF=   40
   support grid    NGXF=    40 NGYF=   40 NGZF=   40
   ions per type =               1
 NGX,Y,Z   is equivalent  to a cutoff of  11.60, 11.60, 11.60 a.u.
 NGXF,Y,Z  is equivalent  to a cutoff of  23.20, 23.20, 23.20 a.u.


 I would recommend the setting:
   dimension x,y,z NGX =    20 NGY =   20 NGZ =   20
 SYSTEM =  unknown system                          
 POSCAR =  Ta                                      

 Startparameter for this run:
   NWRITE =      2    write-flag & timer
   PREC   = accura    normal or accurate (medium, high low for compatibility)
   ISTART =      0    job   : 0-new  1-cont  2-samecut
   ICHARG =      2    charge: 1-file 2-atom 10-const
   ISPIN  =      2    spin polarized calculation?
   LNONCOLLINEAR =      F non collinear calculations
   LSORBIT =      F    spin-orbit coupling
   INIWAV =      1    electr: 0-lowe 1-rand  2-diag
   LASPH  =      F    aspherical Exc in radial PAW
   METAGGA=      F    non-selfconsistent MetaGGA calc.

 Electronic Relaxation 1
   ENCUT  =  450.0 eV  33.07 Ry    5.75 a.u.   4.96  4.96  4.96*2*pi/ulx,y,z
   ENINI  =  450.0     initial cutoff
   ENAUG  =  332.1 eV  augmentation charge cutoff
   NELM   =     60;   NELMIN=  2; NELMDL= -5     # of ELM steps 
   EDIFF  = 0.1E-03   stopping-criterion for ELM
   LREAL  =      F    real-space projection
   NLSPLINE    = F    spline interpolate recip. space projectors
   LCOMPAT=      F    compatible to vasp.4.4
   GGA_COMPAT  = T    GGA compatible to vasp.4.4-vasp.4.6
   LMAXPAW     = -100 max onsite density
   LMAXMIX     =    2 max onsite mixed and CHGCAR
   VOSKOWN=      0    Vosko Wilk Nusair interpolation
   ROPT   =    0.00000
 Ionic relaxation
   EDIFFG = 0.1E-02   stopping-criterion for IOM
   NSW    =      0    number of steps for IOM
   NBLOCK =      1;   KBLOCK =      1    inner block; outer block 
   IBRION =     -1    ionic relax: 0-MD 1-quasi-New 2-CG
   NFREE  =      0    steps in history (QN), initial steepest desc. (CG)
   ISIF   =      2    stress and relaxation
   IWAVPR =     10    prediction:  0-non 1-charg 2-wave 3-comb
   ISYM   =      2    0-nonsym 1-usesym 2-fastsym
   LCORR  =      T    Harris-Foulkes like correction to forces

   POTIM  = 0.5000    time-step for ionic-motion
   TEIN   =    0.0    initial temperature
   TEBEG  =    0.0;   TEEND  =   0.0 temperature during run
   SMASS  =  -3.00    Nose mass-parameter (am)
   estimated Nose-frequenzy (Omega)   =  0.10E-29 period in steps =****** mass=  -0.188E-27a.u.
   SCALEE = 1.0000    scale energy and forces
   NPACO  =    256;   APACO  = 16.0  distance and # of slots for P.C.
   PSTRESS=    0.0 pullay stress

  Mass of Ions in am
   POMASS = 180.95
  Ionic Valenz
   ZVAL   =   5.00
  Atomic Wigner-Seitz radii
   RWIGS  =  -1.00
  virtual crystal weights 
   VCA    =   1.00
   NELECT =       5.0000    total number of electrons
   NUPDOWN=      -1.0000    fix difference up-down

 DOS related values:
   EMIN   =  10.00;   EMAX   =-10.00  energy-range for DOS
   EFERMI =   0.00
   ISMEAR =     1;   SIGMA  =   0.05  broadening in eV -4-tet -1-fermi 0-gaus

 Electronic relaxation 2 (details)
   IALGO  =     38    algorithm
   LDIAG  =      T    sub-space diagonalisation (order eigenvalues)
   LSUBROT=      T    optimize rotation matrix (better conditioning)
   TURBO    =      0    0=normal 1=particle mesh
   IRESTART =      0    0=no restart 2=restart with 2 vectors
   NREBOOT  =      0    no. of reboots
   NMIN     =      0    reboot dimension
   EREF     =   0.00    reference energy to select bands
   IMIX   =      4    mixing-type and parameters
     AMIX     =   0.40;   BMIX     =  1.00
     AMIX_MAG =   1.60;   BMIX_MAG =  1.00
     AMIN     =   0.10
     WC   =   100.;   INIMIX=   1;  MIXPRE=   1

 Intra band minimization:
   WEIMIN = 0.0000     energy-eigenvalue tresh-hold
   EBREAK =  0.42E-05  absolut break condition
   DEPER  =   0.30     relativ break condition  

   TIME   =   0.40     timestep for ELM

  volume/ion in A,a.u.               =      18.13       122.36
  Fermi-wavevector in a.u.,A,eV,Ry     =   1.065566  2.013627 15.448462  1.135430
  Thomas-Fermi vector in A             =   2.201121
 
 Write flags
   LWAVE  =      T    write WAVECAR
   LCHARG =      T    write CHGCAR
   LVTOT  =      F    write LOCPOT, total local potential
   LVHAR  =      F    write LOCPOT, Hartree potential only
   LELF   =      F    write electronic localiz. function (ELF)
   LORBIT =     11    0 simple, 1 ext, 2 COOP (PROOUT)


 Dipole corrections
   LMONO  =      F    monopole corrections only (constant potential shift)
   LDIPOL =      F    correct potential (dipole corrections)
   IDIPOL =      0    1-x, 2-y, 3-z, 4-all directions 
   EPSILON=  1.0000000 bulk dielectric constant

 Exchange correlation treatment:
   GGA     =    --    GGA type
   LEXCH   =     8    internal setting for exchange type
   VOSKOWN=      0    Vosko Wilk Nusair interpolation
   LHFCALC =     F    Hartree Fock is set to
   LHFONE  =     F    Hartree Fock one center treatment
   AEXX    =    0.0000 exact exchange contribution

 Linear response parameters
   LEPSILON=     F    determine dielectric tensor
   LRPA    =     F    only Hartree local field effects (RPA)
   LNABLA  =     F    use nabla operator in PAW spheres
   LVEL    =     F    velocity operator in full k-point grid
   LINTERFAST=   F  fast interpolation
   KINTER  =     0    interpolate to denser k-point grid
   CSHIFT  =0.1000    complex shift for real part using Kramers Kronig
   OMEGAMAX=  -1.0    maximum frequency
   RTIME   =    0.100 relaxation time in fs

 Orbital magnetization related:
   ORBITALMAG=     F  switch on orbital magnetization
   LCHIMAG   =     F  perturbation theory with respect to B field
   DQ        =  0.001000  dq finite difference perturbation B field



--------------------------------------------------------------------------------------------------------


 Static calculation
 charge density and potential will be updated during run
 spin polarized calculation
 Variant of blocked Davidson
 Davidson routine will perform the subspace rotation
 perform sub-space diagonalisation
    after iterative eigenvector-optimisation
 modified Broyden-mixing scheme, WC =      100.0
 initial mixing is a Kerker type mixing with AMIX =  0.4000 and BMIX =      1.0000
 Hartree-type preconditioning will be used
 using additional bands            3
 reciprocal scheme for non local part
 use partial core corrections
 calculate Harris-corrections to forces 
   (improved forces if not selfconsistent)
 use gradient corrections 
 use of overlap-Matrix (Vanderbilt PP)
 Methfessel and Paxton  Order N= 1 SIGMA  =   0.05


--------------------------------------------------------------------------------------------------------


  energy-cutoff  :      450.00
  volume of cell :       18.13
      direct lattice vectors                 reciprocal lattice vectors
     2.866544087  0.000000000  0.000000000     0.348852126  0.123337852  0.213627426
    -0.955514696  2.702603683  0.000000000     0.000000000  0.370013556  0.213627426
    -0.955514696 -1.351301841  2.340523446     0.000000000  0.000000000  0.427254853

  length of vectors
     2.866544087  2.866544087  2.866544087     0.427254853  0.427254853  0.427254853


 
 k-points in units of 2pi/SCALE and weight: KPOINTS created by Atomic Simulation Env
   0.01744261  0.02466757  0.04272549       0.008
   0.05232782  0.03700136  0.06408823       0.024
   0.08721303  0.04933514  0.08545097       0.024
   0.12209824  0.06166893  0.10681371       0.024
   0.15698346  0.07400271  0.12817646       0.012
  -0.01744261  0.01233379  0.02136274       0.006
   0.05232782  0.07400271  0.08545097       0.024
   0.08721303  0.08633650  0.10681371       0.048
   0.12209824  0.09867028  0.12817646       0.048
  -0.05232782  0.03700136  0.02136274       0.024
   0.08721303  0.12333785  0.12817646       0.024
   0.12209824  0.13567164  0.14953920       0.024
  -0.08721303  0.06166893  0.02136274       0.024
  -0.05232782  0.07400271  0.04272549       0.024
  -0.12209824  0.08633650  0.02136274       0.024
  -0.08721303  0.09867028  0.04272549       0.048
  -0.15698346  0.11100407  0.02136274       0.024
  -0.12209824  0.12333785  0.04272549       0.048
  -0.08721303  0.13567164  0.06408823       0.024
  -0.15698346 -0.22200813 -0.17090194       0.024
  -0.12209824 -0.20967435 -0.14953920       0.048
  -0.12209824 -0.17267299 -0.12817646       0.008
   0.05232782  0.07400271  0.12817646       0.008
   0.08721303  0.08633650  0.14953920       0.024
   0.12209824  0.09867028  0.17090194       0.012
  -0.05232782  0.03700136  0.06408823       0.006
   0.08721303  0.12333785  0.17090194       0.024
  -0.08721303  0.06166893  0.06408823       0.024
  -0.12209824  0.08633650  0.06408823       0.024
  -0.08721303  0.09867028  0.08545097       0.024
  -0.15698346  0.11100407  0.06408823       0.024
  -0.12209824  0.12333785  0.08545097       0.048
  -0.15698346 -0.22200813 -0.12817646       0.024
  -0.12209824 -0.20967435 -0.10681371       0.024
   0.08721303  0.12333785  0.21362743       0.002
  -0.08721303  0.06166893  0.10681371       0.006
  -0.12209824  0.08633650  0.10681371       0.024
  -0.15698346  0.11100407  0.10681371       0.024
  -0.12209824  0.12333785  0.12817646       0.024
  -0.15698346 -0.22200813 -0.08545097       0.024
  -0.12209824  0.08633650  0.14953920       0.006
  -0.15698346  0.11100407  0.14953920       0.024
  -0.15698346 -0.22200813 -0.04272549       0.008
  -0.15698346  0.11100407  0.19226468       0.006
 
 k-points in reciprocal lattice and weights: KPOINTS created by Atomic Simulation Env
   0.05000000  0.05000000  0.05000000       0.008
   0.15000000  0.05000000  0.05000000       0.024
   0.25000000  0.05000000  0.05000000       0.024
   0.35000000  0.05000000  0.05000000       0.024
   0.45000000  0.05000000  0.05000000       0.012
  -0.05000000  0.05000000  0.05000000       0.006
   0.15000000  0.15000000  0.05000000       0.024
   0.25000000  0.15000000  0.05000000       0.048
   0.35000000  0.15000000  0.05000000       0.048
  -0.15000000  0.15000000  0.05000000       0.024
   0.25000000  0.25000000  0.05000000       0.024
   0.35000000  0.25000000  0.05000000       0.024
  -0.25000000  0.25000000  0.05000000       0.024
  -0.15000000  0.25000000  0.05000000       0.024
  -0.35000000  0.35000000  0.05000000       0.024
  -0.25000000  0.35000000  0.05000000       0.048
  -0.45000000  0.45000000  0.05000000       0.024
  -0.35000000  0.45000000  0.05000000       0.048
  -0.25000000  0.45000000  0.05000000       0.024
  -0.45000000 -0.45000000  0.05000000       0.024
  -0.35000000 -0.45000000  0.05000000       0.048
  -0.35000000 -0.35000000  0.05000000       0.008
   0.15000000  0.15000000  0.15000000       0.008
   0.25000000  0.15000000  0.15000000       0.024
   0.35000000  0.15000000  0.15000000       0.012
  -0.15000000  0.15000000  0.15000000       0.006
   0.25000000  0.25000000  0.15000000       0.024
  -0.25000000  0.25000000  0.15000000       0.024
  -0.35000000  0.35000000  0.15000000       0.024
  -0.25000000  0.35000000  0.15000000       0.024
  -0.45000000  0.45000000  0.15000000       0.024
  -0.35000000  0.45000000  0.15000000       0.048
  -0.45000000 -0.45000000  0.15000000       0.024
  -0.35000000 -0.45000000  0.15000000       0.024
   0.25000000  0.25000000  0.25000000       0.002
  -0.25000000  0.25000000  0.25000000       0.006
  -0.35000000  0.35000000  0.25000000       0.024
  -0.45000000  0.45000000  0.25000000       0.024
  -0.35000000  0.45000000  0.25000000       0.024
  -0.45000000 -0.45000000  0.25000000       0.024
  -0.35000000  0.35000000  0.35000000       0.006
  -0.45000000  0.45000000  0.35000000       0.024
  -0.45000000 -0.45000000  0.35000000       0.008
  -0.45000000  0.45000000  0.45000000       0.006
 
 position of ions in fractional coordinates (direct lattice) 
   0.00000000  0.00000000  0.00000000
 
 position of ions in cartesian coordinates  (Angst):
   0.00000000  0.00000000  0.00000000
 


--------------------------------------------------------------------------------------------------------


 k-point  1 :  0.05000.05000.0500  plane waves:     387
 k-point  2 :  0.15000.05000.0500  plane waves:     387
 k-point  3 :  0.25000.05000.0500  plane waves:     384
 k-point  4 :  0.35000.05000.0500  plane waves:     392
 k-point  5 :  0.45000.05000.0500  plane waves:     396
 k-point  6 :  -.05000.05000.0500  plane waves:     377
 k-point  7 :  0.15000.15000.0500  plane waves:     387
 k-point  8 :  0.25000.15000.0500  plane waves:     390
 k-point  9 :  0.35000.15000.0500  plane waves:     391
 k-point 10 :  -.15000.15000.0500  plane waves:     386
 k-point 11 :  0.25000.25000.0500  plane waves:     388
 k-point 12 :  0.35000.25000.0500  plane waves:     388
 k-point 13 :  -.25000.25000.0500  plane waves:     387
 k-point 14 :  -.15000.25000.0500  plane waves:     390
 k-point 15 :  -.35000.35000.0500  plane waves:     390
 k-point 16 :  -.25000.35000.0500  plane waves:     384
 k-point 17 :  -.45000.45000.0500  plane waves:     392
 k-point 18 :  -.35000.45000.0500  plane waves:     399
 k-point 19 :  -.25000.45000.0500  plane waves:     393
 k-point 20 :  -.4500-.45000.0500  plane waves:     398
 k-point 21 :  -.3500-.45000.0500  plane waves:     396
 k-point 22 :  -.3500-.35000.0500  plane waves:     394
 k-point 23 :  0.15000.15000.1500  plane waves:     396
 k-point 24 :  0.25000.15000.1500  plane waves:     394
 k-point 25 :  0.35000.15000.1500  plane waves:     390
 k-point 26 :  -.15000.15000.1500  plane waves:     390
 k-point 27 :  0.25000.25000.1500  plane waves:     391
 k-point 28 :  -.25000.25000.1500  plane waves:     392
 k-point 29 :  -.35000.35000.1500  plane waves:     397
 k-point 30 :  -.25000.35000.1500  plane waves:     400
 k-point 31 :  -.45000.45000.1500  plane waves:     395
 k-point 32 :  -.35000.45000.1500  plane waves:     396
 k-point 33 :  -.4500-.45000.1500  plane waves:     394
 k-point 34 :  -.3500-.45000.1500  plane waves:     396
 k-point 35 :  0.25000.25000.2500  plane waves:     420
 k-point 36 :  -.25000.25000.2500  plane waves:     402
 k-point 37 :  -.35000.35000.2500  plane waves:     403
 k-point 38 :  -.45000.45000.2500  plane waves:     403
 k-point 39 :  -.35000.45000.2500  plane waves:     402
 k-point 40 :  -.4500-.45000.2500  plane waves:     400
 k-point 41 :  -.35000.35000.3500  plane waves:     402
 k-point 42 :  -.45000.45000.3500  plane waves:     394
 k-point 43 :  -.4500-.45000.3500  plane waves:     385
 k-point 44 :  -.45000.45000.4500  plane waves:     390

 maximum and minimum number of plane-waves per node :       420      377

 maximum number of plane-waves:       420
 maximum index in each direction: 
   IXMAX=    5   IYMAX=    5   IZMAX=    4
   IXMIN=   -5   IYMIN=   -5   IZMIN=   -5

 WARNING: aliasing errors must be expected set NGX to  22 to avoid them
 WARNING: aliasing errors must be expected set NGY to  22 to avoid them
 NGZ is ok and might be reduce to  20
 aliasing errors are usually negligible using standard VASP settings
 and one can safely disregard these warnings

 serial   3D FFT for wavefunctions
 parallel 3D FFT for charge:
    minimum data exchange during FFTs selected (reduces bandwidth)


 total amount of memory used by VASP on root node    44122. kBytes
========================================================================

   base      :      30000. kBytes
   nonl-proj :       2667. kBytes
   fftplans  :       2284. kBytes
   grid      :       5440. kBytes
   one-center:         31. kBytes
   wavefun   :       3700. kBytes
 
 Broyden mixing: mesh for mixing (old mesh)
   NGX =  9   NGY =  9   NGZ =  9
  (NGX  = 40   NGY  = 40   NGZ  = 40)
  gives a total of    729 points

 initial charge density was supplied:
 charge density of overlapping atoms calculated
 number of electron       5.0000000 magnetization       6.0000000
 keeping initial charge density in first step


--------------------------------------------------------------------------------------------------------


 Maximum index for augmentation-charges        29123 (set IRDMAX)


--------------------------------------------------------------------------------------------------------


 First call to EWALD:  gamma=   0.675
 Maximum number of real-space cells 3x 3x 3
 Maximum number of reciprocal cells 3x 3x 3

    FEWALD:  cpu time    0.00: real time    0.00


----------------------------------------- Iteration    1(   1)  ---------------------------------------


    POTLOK:  cpu time    0.20: real time    0.20
    SETDIJ:  cpu time    0.04: real time    0.04
     EDDAV:  cpu time    1.42: real time    1.42
       DOS:  cpu time    0.00: real time    0.00
    --------------------------------------------
      LOOP:  cpu time    1.67: real time    1.69

 eigenvalue-minimisations  :  1086
 total energy-change (2. order) : 0.1397589E+02  (-0.2356277E+03)
 number of electron       5.0000000 magnetization       6.0000000
 augmentation part        5.0000000 magnetization       6.0000000

 Free energy of the ion-electron system (eV)
  ---------------------------------------------------
  alpha Z        PSCENC =        30.58334069
  Ewald energy   TEWEN  =      -197.90100875
  -1/2 Hartree   DENC   =        -2.50452612
  -exchange  EXHF       =         0.00000000
  -V(xc)+E(xc)   XCENC  =       -60.66120712
  PAW double counting   =       143.51874798      -69.33493833
  entropy T*S    EENTRO =        -0.00018849
  eigenvalues    EBANDS =        39.62662751
  atomic energy  EATOM  =       130.64904277
  ---------------------------------------------------
  free energy    TOTEN  =        13.97589014 eV

  energy without entropy =       13.97607863  energy(sigma->0) =       13.97595297


--------------------------------------------------------------------------------------------------------




----------------------------------------- Iteration    1(   2)  ---------------------------------------


     EDDAV:  cpu time    2.22: real time    2.22
       DOS:  cpu time    0.00: real time    0.00
    --------------------------------------------
      LOOP:  cpu time    2.22: real time    2.23

 eigenvalue-minimisations  :  1902
 total energy-change (2. order) :-0.1505712E+02  (-0.1344173E+02)
 number of electron       5.0000000 magnetization       6.0000000
 augmentation part        5.0000000 magnetization       6.0000000

 Free energy of the ion-electron system (eV)
  ---------------------------------------------------
  alpha Z        PSCENC =        30.58334069
  Ewald energy   TEWEN  =      -197.90100875
  -1/2 Hartree   DENC   =        -2.50452612
  -exchange  EXHF       =         0.00000000
  -V(xc)+E(xc)   XCENC  =       -60.66120712
  PAW double counting   =       143.51874798      -69.33493833
  entropy T*S    EENTRO =        -0.00009881
  eigenvalues    EBANDS =        24.56941437
  atomic energy  EATOM  =       130.64904277
  ---------------------------------------------------
  free energy    TOTEN  =        -1.08123332 eV

  energy without entropy =       -1.08113451  energy(sigma->0) =       -1.08120038


--------------------------------------------------------------------------------------------------------




----------------------------------------- Iteration    1(   3)  ---------------------------------------


     EDDAV:  cpu time    1.43: real time    1.43
       DOS:  cpu time    0.00: real time    0.00
    --------------------------------------------
      LOOP:  cpu time    1.44: real time    1.53

 eigenvalue-minimisations  :  1098
 total energy-change (2. order) :-0.1234646E+00  (-0.1220591E+00)
 number of electron       5.0000000 magnetization       6.0000000
 augmentation part        5.0000000 magnetization       6.0000000

 Free energy of the ion-electron system (eV)
  ---------------------------------------------------
  alpha Z        PSCENC =        30.58334069
  Ewald energy   TEWEN  =      -197.90100875
  -1/2 Hartree   DENC   =        -2.50452612
  -exchange  EXHF       =         0.00000000
  -V(xc)+E(xc)   XCENC  =       -60.66120712
  PAW double counting   =       143.51874798      -69.33493833
  entropy T*S    EENTRO =        -0.00037267
  eigenvalues    EBANDS =        24.44622363
  atomic energy  EATOM  =       130.64904277
  ---------------------------------------------------
  free energy    TOTEN  =        -1.20469793 eV

  energy without entropy =       -1.20432525  energy(sigma->0) =       -1.20457370


--------------------------------------------------------------------------------------------------------




----------------------------------------- Iteration    1(   4)  ---------------------------------------


     EDDAV:  cpu time    1.70: real time    1.70
       DOS:  cpu time    0.00: real time    0.00
    --------------------------------------------
      LOOP:  cpu time    1.70: real time    1.72

 eigenvalue-minimisations  :  1374
 total energy-change (2. order) :-0.1308922E-02  (-0.1308912E-02)
 number of electron       5.0000000 magnetization       6.0000000
 augmentation part        5.0000000 magnetization       6.0000000

 Free energy of the ion-electron system (eV)
  ---------------------------------------------------
  alpha Z        PSCENC =        30.58334069
  Ewald energy   TEWEN  =      -197.90100875
  -1/2 Hartree   DENC   =        -2.50452612
  -exchange  EXHF       =         0.00000000
  -V(xc)+E(xc)   XCENC  =       -60.66120712
  PAW double counting   =       143.51874798      -69.33493833
  entropy T*S    EENTRO =        -0.00037464
  eigenvalues    EBANDS =        24.44491667
  atomic energy  EATOM  =       130.64904277
  ---------------------------------------------------
  free energy    TOTEN  =        -1.20600685 eV

  energy without entropy =       -1.20563221  energy(sigma->0) =       -1.20588197


--------------------------------------------------------------------------------------------------------




----------------------------------------- Iteration    1(   5)  ---------------------------------------


     EDDAV:  cpu time    1.33: real time    1.33
       DOS:  cpu time    0.00: real time    0.00
    CHARGE:  cpu time    0.17: real time    0.17
    MIXING:  cpu time    0.00: real time    0.00
    --------------------------------------------
      LOOP:  cpu time    1.51: real time    1.52

 eigenvalue-minimisations  :   984
 total energy-change (2. order) :-0.6642522E-05  (-0.6642691E-05)
 number of electron       5.0000000 magnetization       2.0059569
 augmentation part        0.4559774 magnetization      -0.8277470

 Broyden mixing:
  rms(total) = 0.75893E+00    rms(broyden)= 0.75892E+00
  rms(prec ) = 0.96717E+00
  weight for this iteration     100.00

 Free energy of the ion-electron system (eV)
  ---------------------------------------------------
  alpha Z        PSCENC =        30.58334069
  Ewald energy   TEWEN  =      -197.90100875
  -1/2 Hartree   DENC   =        -2.50452612
  -exchange  EXHF       =         0.00000000
  -V(xc)+E(xc)   XCENC  =       -60.66120712
  PAW double counting   =       143.51874798      -69.33493833
  entropy T*S    EENTRO =        -0.00037462
  eigenvalues    EBANDS =        24.44491001
  atomic energy  EATOM  =       130.64904277
  ---------------------------------------------------
  free energy    TOTEN  =        -1.20601349 eV

  energy without entropy =       -1.20563887  energy(sigma->0) =       -1.20588862


--------------------------------------------------------------------------------------------------------




----------------------------------------- Iteration    1(   6)  ---------------------------------------


    POTLOK:  cpu time    0.19: real time    0.19
    SETDIJ:  cpu time    0.04: real time    0.04
     EDDAV:  cpu time    1.43: real time    1.43
       DOS:  cpu time    0.00: real time    0.00
    CHARGE:  cpu time    0.14: real time    0.14
    MIXING:  cpu time    0.00: real time    0.00
    --------------------------------------------
      LOOP:  cpu time    1.82: real time    1.83

 eigenvalue-minimisations  :  1092
 total energy-change (2. order) :-0.1048005E+02  (-0.3560900E+00)
 number of electron       5.0000000 magnetization       1.8488465
 augmentation part        0.3687557 magnetization       1.1541557

 Broyden mixing:
  rms(total) = 0.39812E+00    rms(broyden)= 0.39811E+00
  rms(prec ) = 0.11473E+01
  weight for this iteration     100.00

 eigenvalues of (default mixing * dielectric matrix)
  average eigenvalue GAMMA=   1.5347
  1.5347

 Free energy of the ion-electron system (eV)
  ---------------------------------------------------
  alpha Z        PSCENC =        30.58334069
  Ewald energy   TEWEN  =      -197.90100875
  -1/2 Hartree   DENC   =        -2.00002100
  -exchange  EXHF       =         0.00000000
  -V(xc)+E(xc)   XCENC  =       -66.15114914
  PAW double counting   =       163.77907204      -89.83417686
  entropy T*S    EENTRO =         0.00018206
  eigenvalues    EBANDS =        19.18865903
  atomic energy  EATOM  =       130.64904277
  ---------------------------------------------------
  free energy    TOTEN  =       -11.68605915 eV

  energy without entropy =      -11.68624120  energy(sigma->0) =      -11.68611983


--------------------------------------------------------------------------------------------------------




----------------------------------------- Iteration    1(   7)  ---------------------------------------


    POTLOK:  cpu time    0.20: real time    0.21
    SETDIJ:  cpu time    0.05: real time    0.05
     EDDAV:  cpu time    1.58: real time    1.58
       DOS:  cpu time    0.00: real time    0.00
    CHARGE:  cpu time    0.14: real time    0.14
    MIXING:  cpu time    0.00: real time    0.00
    --------------------------------------------
      LOOP:  cpu time    1.98: real time    2.05

 eigenvalue-minimisations  :  1248
 total energy-change (2. order) :-0.5565682E-01  (-0.2442346E-02)
 number of electron       5.0000000 magnetization       2.5058609
 augmentation part        0.3681030 magnetization       1.8283512

 Broyden mixing:
  rms(total) = 0.36662E+00    rms(broyden)= 0.36661E+00
  rms(prec ) = 0.11061E+01
  weight for this iteration     100.00

 eigenvalues of (default mixing * dielectric matrix)
  average eigenvalue GAMMA=   1.0103
  1.0103  1.0103

 Free energy of the ion-electron system (eV)
  ---------------------------------------------------
  alpha Z        PSCENC =        30.58334069
  Ewald energy   TEWEN  =      -197.90100875
  -1/2 Hartree   DENC   =        -1.92335920
  -exchange  EXHF       =         0.00000000
  -V(xc)+E(xc)   XCENC  =       -66.19522963
  PAW double counting   =       165.10668629      -91.18440739
  entropy T*S    EENTRO =        -0.00001146
  eigenvalues    EBANDS =        19.12323070
  atomic energy  EATOM  =       130.64904277
  ---------------------------------------------------
  free energy    TOTEN  =       -11.74171597 eV

  energy without entropy =      -11.74170451  energy(sigma->0) =      -11.74171215


--------------------------------------------------------------------------------------------------------




----------------------------------------- Iteration    1(   8)  ---------------------------------------


    POTLOK:  cpu time    0.19: real time    0.19
    SETDIJ:  cpu time    0.04: real time    0.04
     EDDAV:  cpu time    1.55: real time    1.55
       DOS:  cpu time    0.00: real time    0.00
    CHARGE:  cpu time    0.14: real time    0.14
    MIXING:  cpu time    0.00: real time    0.00
    --------------------------------------------
      LOOP:  cpu time    1.94: real time    1.96

 eigenvalue-minimisations  :  1224
 total energy-change (2. order) : 0.3836770E+00  (-0.3217842E-01)
 number of electron       5.0000000 magnetization       0.6528066
 augmentation part        0.3906367 magnetization      -0.0472992

 Broyden mixing:
  rms(total) = 0.45617E+00    rms(broyden)= 0.45617E+00
  rms(prec ) = 0.62340E+00
  weight for this iteration     100.00

 eigenvalues of (default mixing * dielectric matrix)
  average eigenvalue GAMMA=   1.1934
  1.7469  1.1338  0.6996

 Free energy of the ion-electron system (eV)
  ---------------------------------------------------
  alpha Z        PSCENC =        30.58334069
  Ewald energy   TEWEN  =      -197.90100875
  -1/2 Hartree   DENC   =        -1.01541142
  -exchange  EXHF       =         0.00000000
  -V(xc)+E(xc)   XCENC  =       -65.62383551
  PAW double counting   =       169.35293095      -95.74399361
  entropy T*S    EENTRO =         0.00002455
  eigenvalues    EBANDS =        18.34087138
  atomic energy  EATOM  =       130.64904277
  ---------------------------------------------------
  free energy    TOTEN  =       -11.35803894 eV

  energy without entropy =      -11.35806349  energy(sigma->0) =      -11.35804712


--------------------------------------------------------------------------------------------------------




----------------------------------------- Iteration    1(   9)  ---------------------------------------


    POTLOK:  cpu time    0.19: real time    0.19
    SETDIJ:  cpu time    0.04: real time    0.04
     EDDAV:  cpu time    1.55: real time    1.55
       DOS:  cpu time    0.00: real time    0.00
    CHARGE:  cpu time    0.14: real time    0.15
    MIXING:  cpu time    0.00: real time    0.00
    --------------------------------------------
      LOOP:  cpu time    1.94: real time    1.96

 eigenvalue-minimisations  :  1218
 total energy-change (2. order) :-0.4721123E+00  (-0.3400685E-01)
 number of electron       5.0000000 magnetization       0.5027746
 augmentation part        0.4094267 magnetization       0.2265782

 Broyden mixing:
  rms(total) = 0.99593E-01    rms(broyden)= 0.99590E-01
  rms(prec ) = 0.20321E+00
  weight for this iteration     100.00

 eigenvalues of (default mixing * dielectric matrix)
  average eigenvalue GAMMA=   1.0782
  2.0678  0.8225  0.7113  0.7113

 Free energy of the ion-electron system (eV)
  ---------------------------------------------------
  alpha Z        PSCENC =        30.58334069
  Ewald energy   TEWEN  =      -197.90100875
  -1/2 Hartree   DENC   =        -0.45094436
  -exchange  EXHF       =         0.00000000
  -V(xc)+E(xc)   XCENC  =       -65.88586437
  PAW double counting   =       186.16219879     -112.75420969
  entropy T*S    EENTRO =        -0.00030104
  eigenvalues    EBANDS =        17.76759469
  atomic energy  EATOM  =       130.64904277
  ---------------------------------------------------
  free energy    TOTEN  =       -11.83015128 eV

  energy without entropy =      -11.82985023  energy(sigma->0) =      -11.83005093


--------------------------------------------------------------------------------------------------------




----------------------------------------- Iteration    1(  10)  ---------------------------------------


    POTLOK:  cpu time    0.19: real time    0.19
    SETDIJ:  cpu time    0.04: real time    0.04
     EDDAV:  cpu time    1.47: real time    1.47
       DOS:  cpu time    0.00: real time    0.00
    CHARGE:  cpu time    0.14: real time    0.14
    MIXING:  cpu time    0.00: real time    0.00
    --------------------------------------------
      LOOP:  cpu time    1.85: real time    2.06

 eigenvalue-minimisations  :  1134
 total energy-change (2. order) :-0.1474892E-01  (-0.2948143E-03)
 number of electron       5.0000000 magnetization       0.0754529
 augmentation part        0.4079241 magnetization      -0.1226157

 Broyden mixing:
  rms(total) = 0.80300E-01    rms(broyden)= 0.80299E-01
  rms(prec ) = 0.15747E+00
  weight for this iteration     100.00

 eigenvalues of (default mixing * dielectric matrix)
  average eigenvalue GAMMA=   1.0713
  1.7849  0.9232  0.9232  1.0881  0.6373

 Free energy of the ion-electron system (eV)
  ---------------------------------------------------
  alpha Z        PSCENC =        30.58334069
  Ewald energy   TEWEN  =      -197.90100875
  -1/2 Hartree   DENC   =        -0.48683301
  -exchange  EXHF       =         0.00000000
  -V(xc)+E(xc)   XCENC  =       -65.92495976
  PAW double counting   =       186.76981832     -113.35345061
  entropy T*S    EENTRO =        -0.00071642
  eigenvalues    EBANDS =        17.81986657
  atomic energy  EATOM  =       130.64904277
  ---------------------------------------------------
  free energy    TOTEN  =       -11.84490020 eV

  energy without entropy =      -11.84418378  energy(sigma->0) =      -11.84466139


--------------------------------------------------------------------------------------------------------




----------------------------------------- Iteration    1(  11)  ---------------------------------------


    POTLOK:  cpu time    0.20: real time    0.20
    SETDIJ:  cpu time    0.05: real time    0.05
     EDDAV:  cpu time    1.48: real time    1.48
       DOS:  cpu time    0.00: real time    0.00
    CHARGE:  cpu time    0.15: real time    0.15
    MIXING:  cpu time    0.00: real time    0.00
    --------------------------------------------
      LOOP:  cpu time    1.88: real time    1.90

 eigenvalue-minimisations  :  1158
 total energy-change (2. order) :-0.1924440E-01  (-0.2919163E-02)
 number of electron       5.0000000 magnetization      -0.1051073
 augmentation part        0.4009547 magnetization      -0.1389251

 Broyden mixing:
  rms(total) = 0.17321E-01    rms(broyden)= 0.17316E-01
  rms(prec ) = 0.51813E-01
  weight for this iteration     100.00

 eigenvalues of (default mixing * dielectric matrix)
  average eigenvalue GAMMA=   1.1421
  1.6357  1.6357  1.1207  1.1207  0.7140  0.6260

 Free energy of the ion-electron system (eV)
  ---------------------------------------------------
  alpha Z        PSCENC =        30.58334069
  Ewald energy   TEWEN  =      -197.90100875
  -1/2 Hartree   DENC   =        -0.63149476
  -exchange  EXHF       =         0.00000000
  -V(xc)+E(xc)   XCENC  =       -66.02906806
  PAW double counting   =       189.47323256     -116.01735978
  entropy T*S    EENTRO =         0.00017846
  eigenvalues    EBANDS =        18.00899226
  atomic energy  EATOM  =       130.64904277
  ---------------------------------------------------
  free energy    TOTEN  =       -11.86414460 eV

  energy without entropy =      -11.86432306  energy(sigma->0) =      -11.86420409


--------------------------------------------------------------------------------------------------------




----------------------------------------- Iteration    1(  12)  ---------------------------------------


    POTLOK:  cpu time    0.19: real time    0.20
    SETDIJ:  cpu time    0.05: real time    0.05
     EDDAV:  cpu time    1.51: real time    1.51
       DOS:  cpu time    0.00: real time    0.00
    CHARGE:  cpu time    0.15: real time    0.15
    MIXING:  cpu time    0.00: real time    0.00
    --------------------------------------------
      LOOP:  cpu time    1.91: real time    1.93

 eigenvalue-minimisations  :  1188
 total energy-change (2. order) : 0.7841829E-03  (-0.1370393E-03)
 number of electron       5.0000000 magnetization      -0.0927961
 augmentation part        0.4013297 magnetization      -0.0444637

 Broyden mixing:
  rms(total) = 0.16610E-01    rms(broyden)= 0.16609E-01
  rms(prec ) = 0.44456E-01
  weight for this iteration     100.00

 eigenvalues of (default mixing * dielectric matrix)
  average eigenvalue GAMMA=   1.1062
  1.9413  1.2295  1.2295  1.0269  1.0269  0.6448  0.6448

 Free energy of the ion-electron system (eV)
  ---------------------------------------------------
  alpha Z        PSCENC =        30.58334069
  Ewald energy   TEWEN  =      -197.90100875
  -1/2 Hartree   DENC   =        -0.62783783
  -exchange  EXHF       =         0.00000000
  -V(xc)+E(xc)   XCENC  =       -66.02276938
  PAW double counting   =       192.06927414     -118.62562513
  entropy T*S    EENTRO =        -0.00016333
  eigenvalues    EBANDS =        18.01238639
  atomic energy  EATOM  =       130.64904277
  ---------------------------------------------------
  free energy    TOTEN  =       -11.86336042 eV

  energy without entropy =      -11.86319709  energy(sigma->0) =      -11.86330598


--------------------------------------------------------------------------------------------------------




----------------------------------------- Iteration    1(  13)  ---------------------------------------


    POTLOK:  cpu time    0.19: real time    0.20
    SETDIJ:  cpu time    0.05: real time    0.05
     EDDAV:  cpu time    1.45: real time    1.45
       DOS:  cpu time    0.00: real time    0.00
    --------------------------------------------
      LOOP:  cpu time    1.70: real time    1.71

 eigenvalue-minimisations  :  1128
 total energy-change (2. order) : 0.3863838E-05  (-0.5408263E-04)
 number of electron       5.0000000 magnetization      -0.0927961
 augmentation part        0.4013297 magnetization      -0.0444637

 Free energy of the ion-electron system (eV)
  ---------------------------------------------------
  alpha Z        PSCENC =        30.58334069
  Ewald energy   TEWEN  =      -197.90100875
  -1/2 Hartree   DENC   =        -0.60636400
  -exchange  EXHF       =         0.00000000
  -V(xc)+E(xc)   XCENC  =       -66.00957459
  PAW double counting   =       193.19229314     -119.76153171
  entropy T*S    EENTRO =         0.00003111
  eigenvalues    EBANDS =        17.99041478
  atomic energy  EATOM  =       130.64904277
  ---------------------------------------------------
  free energy    TOTEN  =       -11.86335655 eV

  energy without entropy =      -11.86338767  energy(sigma->0) =      -11.86336693


--------------------------------------------------------------------------------------------------------




 average (electrostatic) potential at core
  the test charge radii are     1.2538
  (the norm of the test charge is              1.0000)
       1 -35.0052
 
 
 
 E-fermi :   5.6752     XC(G=0): -12.3667     alpha+bet :-13.5035


 spin component 1

 k-point   1 :       0.0500    0.0500    0.0500
  band No.  band energies     occupation 
      1      -1.5141      1.00000
      2       6.1280      0.00000
      3       6.1280      0.00000
      4       7.2434      0.00000
      5       9.4715      0.00000
      6       9.4715      0.00000

 k-point   2 :       0.1500    0.0500    0.0500
  band No.  band energies     occupation 
      1      -0.3913      1.00000
      2       5.4543      1.00000
      3       5.6358      0.98695
      4       8.5920      0.00000
      5       9.1578      0.00000
      6       9.7401      0.00000

 k-point   3 :       0.2500    0.0500    0.0500
  band No.  band energies     occupation 
      1       0.9349      1.00000
      2       4.7969      1.00000
      3       5.3311      1.00000
      4       9.3783      0.00000
      5      10.0683      0.00000
      6      10.5638      0.00000

 k-point   4 :       0.3500    0.0500    0.0500
  band No.  band energies     occupation 
      1       1.5644      1.00000
      2       4.3472      1.00000
      3       6.1404      0.00000
      4       9.7013      0.00000
      5      10.4326      0.00000
      6      12.6979      0.00000

 k-point   5 :       0.4500    0.0500    0.0500
  band No.  band energies     occupation 
      1       1.6219      1.00000
      2       4.1892      1.00000
      3       7.0155      0.00000
      4       9.6824      0.00000
      5      10.6175      0.00000
      6      13.8424      0.00000

 k-point   6 :      -0.0500    0.0500    0.0500
  band No.  band energies     occupation 
      1      -1.9299      1.00000
      2       6.4471      0.00000
      3       6.4471      0.00000
      4       6.5844      0.00000
      5       9.3345      0.00000
      6       9.8314      0.00000

 k-point   7 :       0.1500    0.1500    0.0500
  band No.  band energies     occupation 
      1       0.8793      1.00000
      2       4.9054      1.00000
      3       4.9798      1.00000
      4       9.2337      0.00000
      5      10.1143      0.00000
      6      10.4881      0.00000

 k-point   8 :       0.2500    0.1500    0.0500
  band No.  band energies     occupation 
      1       2.0464      1.00000
      2       4.4344      1.00000
      3       5.0094      1.00000
      4       9.5359      0.00000
      5      10.4574      0.00000
      6      12.7122      0.00000

 k-point   9 :       0.3500    0.1500    0.0500
  band No.  band energies     occupation 
      1       2.3249      1.00000
      2       4.2209      1.00000
      3       5.9719      0.00000
      4       9.7882      0.00000
      5      10.6594      0.00000
      6      14.5632      0.00000

 k-point  10 :      -0.1500    0.1500    0.0500
  band No.  band energies     occupation 
      1      -1.1135      1.00000
      2       5.9929      0.00000
      3       6.2201      0.00000
      4       7.3972      0.00000
      5       8.6541      0.00000
      6      10.0148      0.00000

 k-point  11 :       0.2500    0.2500    0.0500
  band No.  band energies     occupation 
      1       2.9673      1.00000
      2       4.3260      1.00000
      3       5.0455      1.00000
      4       9.8507      0.00000
      5      10.5565      0.00000
      6      14.9932      0.00000

 k-point  12 :       0.3500    0.2500    0.0500
  band No.  band energies     occupation 
      1       3.1491      1.00000
      2       4.4110      1.00000
      3       5.2839      1.00000
      4      10.0899      0.00000
      5      10.6020      0.00000
      6      14.4216      0.00000

 k-point  13 :      -0.2500    0.2500    0.0500
  band No.  band energies     occupation 
      1       0.2081      1.00000
      2       5.3040      1.00000
      3       5.6446      0.92594
      4       8.6825      0.00000
      5       9.0101      0.00000
      6      10.2117      0.00000

 k-point  14 :      -0.1500    0.2500    0.0500
  band No.  band energies     occupation 
      1      -0.0313      1.00000
      2       5.6639      0.68658
      3       5.7381     -0.03530
      4       8.0992      0.00000
      5       8.5163      0.00000
      6      10.4148      0.00000

 k-point  15 :      -0.3500    0.3500    0.0500
  band No.  band energies     occupation 
      1       1.2463      1.00000
      2       4.7092      1.00000
      3       5.7249     -0.02441
      4       9.2170      0.00000
      5      10.4403      0.00000
      6      11.1451      0.00000

 k-point  16 :      -0.2500    0.3500    0.0500
  band No.  band energies     occupation 
      1       1.2724      1.00000
      2       4.9522      1.00000
      3       5.3865      1.00000
      4       8.4036      0.00000
      5      10.3417      0.00000
      6      10.7209      0.00000

 k-point  17 :      -0.4500    0.4500    0.0500
  band No.  band energies     occupation 
      1       1.4894      1.00000
      2       4.3769      1.00000
      3       6.7265      0.00000
      4       9.3755      0.00000
      5      10.8107      0.00000
      6      13.0909      0.00000

 k-point  18 :      -0.3500    0.4500    0.0500
  band No.  band energies     occupation 
      1       1.9292      1.00000
      2       4.6533      1.00000
      3       5.6282      1.01793
      4       8.9428      0.00000
      5      10.7559      0.00000
      6      12.7306      0.00000

 k-point  19 :      -0.2500    0.4500    0.0500
  band No.  band energies     occupation 
      1       2.3963      1.00000
      2       4.3542      1.00000
      3       5.3923      1.00000
      4       8.7113      0.00000
      5      10.4620      0.00000
      6      12.8015      0.00000

 k-point  20 :      -0.4500   -0.4500    0.0500
  band No.  band energies     occupation 
      1       1.9851      1.00000
      2       4.5526      1.00000
      3       6.1205      0.00000
      4       8.8959      0.00000
      5      11.2648      0.00000
      6      13.9813      0.00000

 k-point  21 :      -0.3500   -0.4500    0.0500
  band No.  band energies     occupation 
      1       2.8669      1.00000
      2       4.4142      1.00000
      3       5.2525      1.00000
      4       9.1802      0.00000
      5      10.6845      0.00000
      6      15.0901      0.00000

 k-point  22 :      -0.3500   -0.3500    0.0500
  band No.  band energies     occupation 
      1       3.5300      1.00000
      2       4.5088      1.00000
      3       4.5088      1.00000
      4      10.1435      0.00000
      5      10.1435      0.00000
      6      14.7118      0.00000

 k-point  23 :       0.1500    0.1500    0.1500
  band No.  band energies     occupation 
      1       2.2662      1.00000
      2       4.4216      1.00000
      3       4.4216      1.00000
      4      10.0824      0.00000
      5      10.0824      0.00000
      6      12.8201      0.00000

 k-point  24 :       0.2500    0.1500    0.1500
  band No.  band energies     occupation 
      1       3.1747      1.00000
      2       4.1761      1.00000
      3       4.8177      1.00000
      4      10.2498      0.00000
      5      10.5594      0.00000
      6      15.0047      0.00000

 k-point  25 :       0.3500    0.1500    0.1500
  band No.  band energies     occupation 
      1       3.1825      1.00000
      2       4.1043      1.00000
      3       5.6390      0.96811
      4      10.3100      0.00000
      5      10.7110      0.00000
      6      14.4081      0.00000

 k-point  26 :      -0.1500    0.1500    0.1500
  band No.  band energies     occupation 
      1      -0.3365      1.00000
      2       6.4040      0.00000
      3       6.4040      0.00000
      4       7.1962      0.00000
      5       7.4037      0.00000
      6      10.6109      0.00000

 k-point  27 :       0.2500    0.2500    0.1500
  band No.  band energies     occupation 
      1       3.7779      1.00000
      2       4.4374      1.00000
      3       4.8656      1.00000
      4      10.5629      0.00000
      5      10.6921      0.00000
      6      13.7004      0.00000

 k-point  28 :      -0.2500    0.2500    0.1500
  band No.  band energies     occupation 
      1       0.9258      1.00000
      2       5.5440      1.00065
      3       6.0460      0.00000
      4       7.2700      0.00000
      5       8.7636      0.00000
      6      10.8163      0.00000

 k-point  29 :      -0.3500    0.3500    0.1500
  band No.  band energies     occupation 
      1       1.9706      1.00000
      2       4.9171      1.00000
      3       5.5381      1.00036
      4       8.0737      0.00000
      5      10.8901      0.00000
      6      10.9222      0.00000

 k-point  30 :      -0.2500    0.3500    0.1500
  band No.  band energies     occupation 
      1       2.0949      1.00000
      2       4.5985      1.00000
      3       6.1792      0.00000
      4       7.5535      0.00000
      5      10.0189      0.00000
      6      10.9849      0.00000

 k-point  31 :      -0.4500    0.4500    0.1500
  band No.  band energies     occupation 
      1       2.1935      1.00000
      2       5.2394      1.00000
      3       5.2877      1.00000
      4       8.0471      0.00000
      5      12.0216      0.00000
      6      12.8883      0.00000

 k-point  32 :      -0.3500    0.4500    0.1500
  band No.  band energies     occupation 
      1       2.7997      1.00000
      2       4.2136      1.00000
      3       5.7795     -0.00600
      4       8.1870      0.00000
      5      10.7561      0.00000
      6      12.9455      0.00000

 k-point  33 :      -0.4500   -0.4500    0.1500
  band No.  band energies     occupation 
      1       2.8112      1.00000
      2       4.5916      1.00000
      3       5.3329      1.00000
      4       8.1813      0.00000
      5      11.7925      0.00000
      6      14.5995      0.00000

 k-point  34 :      -0.3500   -0.4500    0.1500
  band No.  band energies     occupation 
      1       3.6793      1.00000
      2       3.7386      1.00000
      3       5.0078      1.00000
      4       9.4508      0.00000
      5      10.6192      0.00000
      6      15.4046      0.00000

 k-point  35 :       0.2500    0.2500    0.2500
  band No.  band energies     occupation 
      1       4.5075      1.00000
      2       4.5075      1.00000
      3       4.5075      1.00000
      4      10.7702      0.00000
      5      10.7702      0.00000
      6      12.7855      0.00000

 k-point  36 :      -0.2500    0.2500    0.2500
  band No.  band energies     occupation 
      1       2.0015      1.00000
      2       4.8128      1.00000
      3       6.9931      0.00000
      4       6.9931      0.00000
      5       8.9222      0.00000
      6      10.7173      0.00000

 k-point  37 :      -0.3500    0.3500    0.2500
  band No.  band energies     occupation 
      1       2.8233      1.00000
      2       3.8836      1.00000
      3       7.0530      0.00000
      4       7.6426      0.00000
      5      10.5841      0.00000
      6      10.8694      0.00000

 k-point  38 :      -0.4500    0.4500    0.2500
  band No.  band energies     occupation 
      1       2.8573      1.00000
      2       3.7977      1.00000
      3       6.8827      0.00000
      4       7.5249      0.00000
      5      12.5783      0.00000
      6      12.8593      0.00000

 k-point  39 :      -0.3500    0.4500    0.2500
  band No.  band energies     occupation 
      1       3.1482      1.00000
      2       3.2095      1.00000
      3       6.8940      0.00000
      4       8.8705      0.00000
      5      10.8523      0.00000
      6      12.9641      0.00000

 k-point  40 :      -0.4500   -0.4500    0.2500
  band No.  band energies     occupation 
      1       2.9383      1.00000
      2       3.2622      1.00000
      3       6.6168      0.00000
      4       9.3860      0.00000
      5      11.6967      0.00000
      6      15.3072      0.00000

 k-point  41 :      -0.3500    0.3500    0.3500
  band No.  band energies     occupation 
      1       2.9252      1.00000
      2       3.0236      1.00000
      3       8.6500      0.00000
      4       8.6500      0.00000
      5      10.8057      0.00000
      6      10.9799      0.00000

 k-point  42 :      -0.4500    0.4500    0.3500
  band No.  band energies     occupation 
      1       2.5445      1.00000
      2       2.7071      1.00000
      3       9.1141      0.00000
      4       9.1215      0.00000
      5      12.2974      0.00000
      6      13.1079      0.00000

 k-point  43 :      -0.4500   -0.4500    0.3500
  band No.  band energies     occupation 
      1       2.3905      1.00000
      2       2.3905      1.00000
      3       9.0466      0.00000
      4      11.4748      0.00000
      5      11.4748      0.00000
      6      15.6170      0.00000

 k-point  44 :      -0.4500    0.4500    0.4500
  band No.  band energies     occupation 
      1       2.0885      1.00000
      2       2.1354      1.00000
      3      11.3786      0.00000
      4      11.3786      0.00000
      5      12.2864      0.00000
      6      13.5902      0.00000

 spin component 2

 k-point   1 :       0.0500    0.0500    0.0500
  band No.  band energies     occupation 
      1      -1.5810      1.00000
      2       6.0622      0.00000
      3       6.0622      0.00000
      4       7.1784      0.00000
      5       9.4309      0.00000
      6       9.4309      0.00000

 k-point   2 :       0.1500    0.0500    0.0500
  band No.  band energies     occupation 
      1      -0.4580      1.00000
      2       5.3883      1.00000
      3       5.5722      1.00656
      4       8.5291      0.00000
      5       9.1128      0.00000
      6       9.6991      0.00000

 k-point   3 :       0.2500    0.0500    0.0500
  band No.  band energies     occupation 
      1       0.8688      1.00000
      2       4.7305      1.00000
      3       5.2699      1.00000
      4       9.3308      0.00000
      5      10.0274      0.00000
      6      10.5039      0.00000

 k-point   4 :       0.3500    0.0500    0.0500
  band No.  band energies     occupation 
      1       1.4996      1.00000
      2       4.2803      1.00000
      3       6.0791      0.00000
      4       9.6535      0.00000
      5      10.3925      0.00000
      6      12.6431      0.00000

 k-point   5 :       0.4500    0.0500    0.0500
  band No.  band energies     occupation 
      1       1.5578      1.00000
      2       4.1222      1.00000
      3       6.9531      0.00000
      4       9.6353      0.00000
      5      10.5779      0.00000
      6      13.7924      0.00000

 k-point   6 :      -0.0500    0.0500    0.0500
  band No.  band energies     occupation 
      1      -1.9970      1.00000
      2       6.3812      0.00000
      3       6.3812      0.00000
      4       6.5186      0.00000
      5       9.2943      0.00000
      6       9.7928      0.00000

 k-point   7 :       0.1500    0.1500    0.0500
  band No.  band energies     occupation 
      1       0.8129      1.00000
      2       4.8425      1.00000
      3       4.9142      1.00000
      4       9.1877      0.00000
      5      10.0732      0.00000
      6      10.4277      0.00000

 k-point   8 :       0.2500    0.1500    0.0500
  band No.  band energies     occupation 
      1       1.9807      1.00000
      2       4.3699      1.00000
      3       4.9463      1.00000
      4       9.4888      0.00000
      5      10.4166      0.00000
      6      12.6559      0.00000

 k-point   9 :       0.3500    0.1500    0.0500
  band No.  band energies     occupation 
      1       2.2605      1.00000
      2       4.1550      1.00000
      3       5.9103      0.00000
      4       9.7413      0.00000
      5      10.6182      0.00000
      6      14.5117      0.00000

 k-point  10 :      -0.1500    0.1500    0.0500
  band No.  band energies     occupation 
      1      -1.1803      1.00000
      2       5.9267      0.00000
      3       6.1556      0.00000
      4       7.3325      0.00000
      5       8.6101      0.00000
      6       9.9756      0.00000

 k-point  11 :       0.2500    0.2500    0.0500
  band No.  band energies     occupation 
      1       2.9011      1.00000
      2       4.2650      1.00000
      3       4.9816      1.00000
      4       9.8038      0.00000
      5      10.5141      0.00000
      6      14.9408      0.00000

 k-point  12 :       0.3500    0.2500    0.0500
  band No.  band energies     occupation 
      1       3.0828      1.00000
      2       4.3487      1.00000
      3       5.2232      1.00000
      4      10.0436      0.00000
      5      10.5582      0.00000
      6      14.3534      0.00000

 k-point  13 :      -0.2500    0.2500    0.0500
  band No.  band energies     occupation 
      1       0.1418      1.00000
      2       5.2374      1.00000
      3       5.5840      1.01351
      4       8.6336      0.00000
      5       8.9477      0.00000
      6      10.1716      0.00000

 k-point  14 :      -0.1500    0.2500    0.0500
  band No.  band energies     occupation 
      1      -0.0976      1.00000
      2       5.6021      1.02927
      3       5.6721      0.55284
      4       8.0502      0.00000
      5       8.4531      0.00000
      6      10.3755      0.00000

 k-point  15 :      -0.3500    0.3500    0.0500
  band No.  band energies     occupation 
      1       1.1810      1.00000
      2       4.6423      1.00000
      3       5.6659      0.65570
      4       9.1663      0.00000
      5      10.3996      0.00000
      6      11.0869      0.00000

 k-point  16 :      -0.2500    0.3500    0.0500
  band No.  band energies     occupation 
      1       1.2069      1.00000
      2       4.8914      1.00000
      3       5.3225      1.00000
      4       8.3511      0.00000
      5      10.2858      0.00000
      6      10.6762      0.00000

 k-point  17 :      -0.4500    0.4500    0.0500
  band No.  band energies     occupation 
      1       1.4254      1.00000
      2       4.3100      1.00000
      3       6.6668      0.00000
      4       9.3262      0.00000
      5      10.7685      0.00000
      6      13.0392      0.00000

 k-point  18 :      -0.3500    0.4500    0.0500
  band No.  band energies     occupation 
      1       1.8651      1.00000
      2       4.5883      1.00000
      3       5.5693      1.00533
      4       8.8907      0.00000
      5      10.7109      0.00000
      6      12.6765      0.00000

 k-point  19 :      -0.2500    0.4500    0.0500
  band No.  band energies     occupation 
      1       2.3313      1.00000
      2       4.2965      1.00000
      3       5.3278      1.00000
      4       8.6578      0.00000
      5      10.4159      0.00000
      6      12.7471      0.00000

 k-point  20 :      -0.4500   -0.4500    0.0500
  band No.  band energies     occupation 
      1       1.9219      1.00000
      2       4.4865      1.00000
      3       6.0631      0.00000
      4       8.8450      0.00000
      5      11.2178      0.00000
      6      13.9313      0.00000

 k-point  21 :      -0.3500   -0.4500    0.0500
  band No.  band energies     occupation 
      1       2.8029      1.00000
      2       4.3537      1.00000
      3       5.1935      1.00000
      4       9.1274      0.00000
      5      10.6347      0.00000
      6      15.0397      0.00000

 k-point  22 :      -0.3500   -0.3500    0.0500
  band No.  band energies     occupation 
      1       3.4623      1.00000
      2       4.4521      1.00000
      3       4.4521      1.00000
      4      10.0915      0.00000
      5      10.0915      0.00000
      6      14.6456      0.00000

 k-point  23 :       0.1500    0.1500    0.1500
  band No.  band energies     occupation 
      1       2.2001      1.00000
      2       4.3572      1.00000
      3       4.3572      1.00000
      4      10.0398      0.00000
      5      10.0398      0.00000
      6      12.7635      0.00000

 k-point  24 :       0.2500    0.1500    0.1500
  band No.  band energies     occupation 
      1       3.1097      1.00000
      2       4.1106      1.00000
      3       4.7541      1.00000
      4      10.2066      0.00000
      5      10.5193      0.00000
      6      14.9518      0.00000

 k-point  25 :       0.3500    0.1500    0.1500
  band No.  band energies     occupation 
      1       3.1182      1.00000
      2       4.0383      1.00000
      3       5.5760      1.00839
      4      10.2666      0.00000
      5      10.6719      0.00000
      6      14.3391      0.00000

 k-point  26 :      -0.1500    0.1500    0.1500
  band No.  band energies     occupation 
      1      -0.4027      1.00000
      2       6.3384      0.00000
      3       6.3384      0.00000
      4       7.1503      0.00000
      5       7.3391      0.00000
      6      10.5725      0.00000

 k-point  27 :       0.2500    0.2500    0.1500
  band No.  band energies     occupation 
      1       3.7121      1.00000
      2       4.3739      1.00000
      3       4.8017      1.00000
      4      10.5217      0.00000
      5      10.6522      0.00000
      6      13.6287      0.00000

 k-point  28 :      -0.2500    0.2500    0.1500
  band No.  band energies     occupation 
      1       0.8607      1.00000
      2       5.4893      1.00000
      3       5.9802      0.00000
      4       7.2121      0.00000
      5       8.7010      0.00000
      6      10.7758      0.00000

 k-point  29 :      -0.3500    0.3500    0.1500
  band No.  band energies     occupation 
      1       1.9071      1.00000
      2       4.8629      1.00000
      3       5.4720      1.00000
      4       8.0165      0.00000
      5      10.8315      0.00000
      6      10.8763      0.00000

 k-point  30 :      -0.2500    0.3500    0.1500
  band No.  band energies     occupation 
      1       2.0315      1.00000
      2       4.5452      1.00000
      3       6.1143      0.00000
      4       7.4933      0.00000
      5       9.9617      0.00000
      6      10.9361      0.00000

 k-point  31 :      -0.4500    0.4500    0.1500
  band No.  band energies     occupation 
      1       2.1319      1.00000
      2       5.1732      1.00000
      3       5.2330      1.00000
      4       7.9927      0.00000
      5      11.9698      0.00000
      6      12.8361      0.00000

 k-point  32 :      -0.3500    0.4500    0.1500
  band No.  band energies     occupation 
      1       2.7390      1.00000
      2       4.1593      1.00000
      3       5.7160      0.00595
      4       8.1286      0.00000
      5      10.7015      0.00000
      6      12.8911      0.00000

 k-point  33 :      -0.4500   -0.4500    0.1500
  band No.  band energies     occupation 
      1       2.7523      1.00000
      2       4.5379      1.00000
      3       5.2686      1.00000
      4       8.1232      0.00000
      5      11.7381      0.00000
      6      14.5464      0.00000

 k-point  34 :      -0.3500   -0.4500    0.1500
  band No.  band energies     occupation 
      1       3.6213      1.00000
      2       3.6851      1.00000
      3       4.9446      1.00000
      4       9.3925      0.00000
      5      10.5627      0.00000
      6      15.3498      0.00000

 k-point  35 :       0.2500    0.2500    0.2500
  band No.  band energies     occupation 
      1       4.4430      1.00000
      2       4.4431      1.00000
      3       4.4431      1.00000
      4      10.7314      0.00000
      5      10.7314      0.00000
      6      12.7114      0.00000

 k-point  36 :      -0.2500    0.2500    0.2500
  band No.  band energies     occupation 
      1       1.9389      1.00000
      2       4.7634      1.00000
      3       6.9284      0.00000
      4       6.9284      0.00000
      5       8.8602      0.00000
      6      10.6708      0.00000

 k-point  37 :      -0.3500    0.3500    0.2500
  band No.  band energies     occupation 
      1       2.7643      1.00000
      2       3.8323      1.00000
      3       6.9884      0.00000
      4       7.5806      0.00000
      5      10.5252      0.00000
      6      10.8141      0.00000

 k-point  38 :      -0.4500    0.4500    0.2500
  band No.  band energies     occupation 
      1       2.8020      1.00000
      2       3.7449      1.00000
      3       6.8181      0.00000
      4       7.4636      0.00000
      5      12.5255      0.00000
      6      12.7985      0.00000

 k-point  39 :      -0.3500    0.4500    0.2500
  band No.  band energies     occupation 
      1       3.0932      1.00000
      2       3.1577      1.00000
      3       6.8298      0.00000
      4       8.8086      0.00000
      5      10.7931      0.00000
      6      12.9064      0.00000

 k-point  40 :      -0.4500   -0.4500    0.2500
  band No.  band energies     occupation 
      1       2.8855      1.00000
      2       3.2098      1.00000
      3       6.5515      0.00000
      4       9.3248      0.00000
      5      11.6395      0.00000
      6      15.2468      0.00000

 k-point  41 :      -0.3500    0.3500    0.3500
  band No.  band energies     occupation 
      1       2.8707      1.00000
      2       2.9724      1.00000
      3       8.5869      0.00000
      4       8.5869      0.00000
      5      10.7481      0.00000
      6      10.9170      0.00000

 k-point  42 :      -0.4500    0.4500    0.3500
  band No.  band energies     occupation 
      1       2.4925      1.00000
      2       2.6548      1.00000
      3       9.0509      0.00000
      4       9.0591      0.00000
      5      12.2441      0.00000
      6      13.0413      0.00000

 k-point  43 :      -0.4500   -0.4500    0.3500
  band No.  band energies     occupation 
      1       2.3386      1.00000
      2       2.3386      1.00000
      3       8.9832      0.00000
      4      11.4163      0.00000
      5      11.4163      0.00000
      6      15.5516      0.00000

 k-point  44 :      -0.4500    0.4500    0.4500
  band No.  band energies     occupation 
      1       2.0366      1.00000
      2       2.0834      1.00000
      3      11.3197      0.00000
      4      11.3197      0.00000
      5      12.2336      0.00000
      6      13.5185      0.00000


--------------------------------------------------------------------------------------------------------


 soft charge-density along one line, spin component           1
         0         1         2         3         4         5         6         7         8         9
 total charge-density along one line
 
 soft charge-density along one line, spin component           2
         0         1         2         3         4         5         6         7         8         9
 total charge-density along one line
 
 pseudopotential strength for first ion, spin component:           1
 -6.574   0.000   0.003   0.000   0.002   0.090   0.000   0.000
  0.000  -6.572   0.000   0.003   0.000   0.000   0.090   0.000
  0.003   0.000  -6.571   0.000  -0.001   0.000   0.000   0.090
  0.000   0.003   0.000  -6.574   0.000   0.000   0.000   0.000
  0.002   0.000  -0.001   0.000  -6.570   0.000   0.000   0.000
  0.090   0.000   0.000   0.000   0.000   0.071   0.000   0.000
  0.000   0.090   0.000   0.000   0.000   0.000   0.071   0.000
  0.000   0.000   0.090   0.000   0.000   0.000   0.000   0.071
  0.000   0.000   0.000   0.090   0.000   0.000   0.000   0.000
  0.000   0.000   0.000   0.000   0.090   0.000   0.000   0.000
  0.000   0.000   0.000   0.000   0.000   0.000   0.000   0.000
  0.000   0.000   0.000   0.000   0.000   0.000   0.000   0.000
  0.000   0.000   0.000   0.000   0.000   0.000   0.000   0.000
  0.000   0.000   0.000   0.000   0.000   0.000   0.000   0.000
  0.000   0.000   0.000   0.000   0.000   0.000   0.000   0.000
  0.000   0.000   0.000   0.000   0.000   0.000   0.000   0.000
  0.000   0.000   0.000   0.000   0.000   0.000   0.000   0.000
  0.000   0.000   0.000   0.000   0.000   0.000   0.000   0.000
 pseudopotential strength for first ion, spin component:           2
 -6.574   0.000   0.002   0.000   0.001   0.089   0.000   0.000
  0.000  -6.572   0.000   0.003   0.000   0.000   0.089   0.000
  0.002   0.000  -6.571   0.000  -0.001   0.000   0.000   0.089
  0.000   0.003   0.000  -6.574   0.000   0.000   0.000   0.000
  0.001   0.000  -0.001   0.000  -6.570   0.000   0.000   0.000
  0.089   0.000   0.000   0.000   0.000   0.071   0.000   0.000
  0.000   0.089   0.000   0.000   0.000   0.000   0.071   0.000
  0.000   0.000   0.089   0.000   0.000   0.000   0.000   0.071
  0.000   0.000   0.000   0.089   0.000   0.000   0.000   0.000
  0.000   0.000   0.000   0.000   0.089   0.000   0.000   0.000
  0.000   0.000   0.000   0.000   0.000   0.000   0.000   0.000
  0.000   0.000   0.000   0.000   0.000   0.000   0.000   0.000
  0.000   0.000   0.000   0.000   0.000   0.000   0.000   0.000
  0.000   0.000   0.000   0.000   0.000   0.000   0.000   0.000
  0.000   0.000   0.000   0.000   0.000   0.000   0.000   0.000
  0.000   0.000   0.000   0.000   0.000   0.000   0.000   0.000
  0.000   0.000   0.000   0.000   0.000   0.000   0.000   0.000
  0.000   0.000   0.000   0.000   0.000   0.000   0.000   0.000
 total augmentation occupancy for first ion, spin component:           1
  0.639   0.000   0.079   0.000   0.046  -0.515   0.000  -0.020   0.000  -0.011   0.000   0.000   0.000   0.000   0.000   0.000
  0.000   0.704   0.000   0.091   0.000   0.000  -0.531   0.000  -0.023   0.000   0.000   0.000   0.000   0.000   0.000   0.000
  0.079   0.000   0.720   0.000  -0.028  -0.020   0.000  -0.535   0.000   0.007   0.000   0.000   0.000   0.000   0.000   0.000
  0.000   0.091   0.000   0.639   0.000   0.000  -0.023   0.000  -0.515   0.000   0.000   0.000   0.000   0.000   0.000   0.000
  0.046   0.000  -0.028   0.000   0.752  -0.011   0.000   0.007   0.000  -0.543   0.000   0.000   0.000   0.000   0.000   0.000
 -0.515   0.000  -0.020   0.000  -0.011   0.459   0.000  -0.014   0.000  -0.008   0.000   0.000   0.000   0.000   0.000   0.000
  0.000  -0.531   0.000  -0.023   0.000   0.000   0.447   0.000  -0.017   0.000   0.000   0.000   0.000   0.000   0.000   0.000
 -0.020   0.000  -0.535   0.000   0.007  -0.014   0.000   0.444   0.000   0.005   0.000   0.000   0.000   0.000   0.000   0.000
  0.000  -0.023   0.000  -0.515   0.000   0.000  -0.017   0.000   0.459   0.000   0.000   0.000   0.000   0.000   0.000   0.000
 -0.011   0.000   0.007   0.000  -0.543  -0.008   0.000   0.005   0.000   0.438   0.000   0.000   0.000   0.000   0.000   0.000
  0.000   0.000   0.000   0.000   0.000   0.000   0.000   0.000   0.000   0.000   1.403  -0.277   0.000   0.000   0.000   0.000
  0.000   0.000   0.000   0.000   0.000   0.000   0.000   0.000   0.000   0.000  -0.277   0.059   0.000   0.000   0.000   0.000
  0.000   0.000   0.000   0.000   0.000   0.000   0.000   0.000   0.000   0.000   0.000   0.000   0.301   0.000   0.000   0.012
  0.000   0.000   0.000   0.000   0.000   0.000   0.000   0.000   0.000   0.000   0.000   0.000   0.000   0.301   0.000   0.000
  0.000   0.000   0.000   0.000   0.000   0.000   0.000   0.000   0.000   0.000   0.000   0.000   0.000   0.000   0.301   0.000
  0.000   0.000   0.000   0.000   0.000   0.000   0.000   0.000   0.000   0.000   0.000   0.000   0.012   0.000   0.000   0.000
  0.000   0.000   0.000   0.000   0.000   0.000   0.000   0.000   0.000   0.000   0.000   0.000   0.000   0.012   0.000   0.000
  0.000   0.000   0.000   0.000   0.000   0.000   0.000   0.000   0.000   0.000   0.000   0.000   0.000   0.000   0.012   0.000
 total augmentation occupancy for first ion, spin component:           2
 -0.006   0.000  -0.004   0.000  -0.002   0.004   0.000   0.002   0.000   0.001   0.000   0.000   0.000   0.000   0.000   0.000
  0.000  -0.009   0.000  -0.005   0.000   0.000   0.006   0.000   0.002   0.000   0.000   0.000   0.000   0.000   0.000   0.000
 -0.004   0.000  -0.010   0.000   0.002   0.002   0.000   0.006   0.000  -0.001   0.000   0.000   0.000   0.000   0.000   0.000
  0.000  -0.005   0.000  -0.006   0.000   0.000   0.002   0.000   0.004   0.000   0.000   0.000   0.000   0.000   0.000   0.000
 -0.002   0.000   0.002   0.000  -0.012   0.001   0.000  -0.001   0.000   0.007   0.000   0.000   0.000   0.000   0.000   0.000
  0.004   0.000   0.002   0.000   0.001  -0.004   0.000  -0.001   0.000   0.000   0.000   0.000   0.000   0.000   0.000   0.000
  0.000   0.006   0.000   0.002   0.000   0.000  -0.004   0.000  -0.001   0.000   0.000   0.000   0.000   0.000   0.000   0.000
  0.002   0.000   0.006   0.000  -0.001  -0.001   0.000  -0.005   0.000   0.000   0.000   0.000   0.000   0.000   0.000   0.000
  0.000   0.002   0.000   0.004   0.000   0.000  -0.001   0.000  -0.004   0.000   0.000   0.000   0.000   0.000   0.000   0.000
  0.001   0.000  -0.001   0.000   0.007   0.000   0.000   0.000   0.000  -0.005   0.000   0.000   0.000   0.000   0.000   0.000
  0.000   0.000   0.000   0.000   0.000   0.000   0.000   0.000   0.000   0.000  -0.002   0.007   0.000   0.000   0.000   0.000
  0.000   0.000   0.000   0.000   0.000   0.000   0.000   0.000   0.000   0.000   0.007  -0.003   0.000   0.000   0.000   0.000
  0.000   0.000   0.000   0.000   0.000   0.000   0.000   0.000   0.000   0.000   0.000   0.000  -0.004   0.000   0.000   0.000
  0.000   0.000   0.000   0.000   0.000   0.000   0.000   0.000   0.000   0.000   0.000   0.000   0.000  -0.004   0.000   0.000
  0.000   0.000   0.000   0.000   0.000   0.000   0.000   0.000   0.000   0.000   0.000   0.000   0.000   0.000  -0.004   0.000
  0.000   0.000   0.000   0.000   0.000   0.000   0.000   0.000   0.000   0.000   0.000   0.000   0.000   0.000   0.000   0.000
  0.000   0.000   0.000   0.000   0.000   0.000   0.000   0.000   0.000   0.000   0.000   0.000   0.000   0.000   0.000   0.000
  0.000   0.000   0.000   0.000   0.000   0.000   0.000   0.000   0.000   0.000   0.000   0.000   0.000   0.000   0.000   0.000


------------------------ aborting loop because EDIFF is reached ----------------------------------------


 


 total charge     
 
# of ion     s       p       d       tot
----------------------------------------
  1        0.708   0.695   3.343   4.747
 


 magnetization (x)
 
# of ion     s       p       d       tot
----------------------------------------
  1       -0.003  -0.008  -0.031  -0.042
 
    CHARGE:  cpu time    0.15: real time    0.15
    FORLOC:  cpu time    0.00: real time    0.00
    FORNL :  cpu time    0.30: real time    0.30
    STRESS:  cpu time    0.59: real time    0.59
    FORCOR:  cpu time    0.19: real time    0.19
    FORHAR:  cpu time    0.02: real time    0.02
    MIXING:  cpu time    0.00: real time    0.00

  FORCE on cell =-STRESS in cart. coord.  units (eV):
  Direction    XX          YY          ZZ          XY          YZ          ZX
  --------------------------------------------------------------------------------------
  Alpha Z    30.58334    30.58334    30.58334
  Ewald     -65.96700   -65.96700   -65.96700     0.00000     0.00000     0.00000
  Hartree     0.19488     0.19488     0.19488     0.00000     0.00000     0.00000
  E(xc)     -22.46877   -22.46876   -22.46876     0.00000     0.00001     0.00000
  Local       3.84658     3.84658     3.84658     0.00000     0.00000     0.00000
  n-local    -7.99562    -8.61852    -5.46889     1.68370    -2.19241    -1.67595
  augment     2.91371     2.91371     2.91371     0.00000     0.00000     0.00000
  Kinetic    59.70441    59.97545    54.68947    -0.42809     2.82141     1.75189
  Fock        0.00000     0.00000     0.00000     0.00000     0.00000     0.00000
  -------------------------------------------------------------------------------------
  Total      -0.13516    -0.13516    -0.13516     0.00000     0.00000     0.00000
  in kB     -11.94313   -11.94313   -11.94313     0.00000     0.00000     0.00000
  external pressure =      -11.94 kB  Pullay stress =        0.00 kB


 VOLUME and BASIS-vectors are now :
 -----------------------------------------------------------------------------
  energy-cutoff  :      450.00
  volume of cell :       18.13
      direct lattice vectors                 reciprocal lattice vectors
     2.866544087  0.000000000  0.000000000     0.348852126  0.123337852  0.213627426
    -0.955514696  2.702603683  0.000000000     0.000000000  0.370013556  0.213627426
    -0.955514696 -1.351301841  2.340523446     0.000000000  0.000000000  0.427254853

  length of vectors
     2.866544087  2.866544087  2.866544087     0.427254853  0.427254853  0.427254853


 FORCES acting on ions
    electron-ion (+dipol)            ewald-force                    non-local-force                 convergence-correction
 -----------------------------------------------------------------------------------------------
   -.193E-14 0.985E-15 -.829E-15   -.279E-15 -.214E-15 0.640E-15   -.331E-23 -.827E-23 0.000E+00   0.125E-15 0.610E-16 0.716E-16
 -----------------------------------------------------------------------------------------------
   -.193E-14 0.985E-15 -.829E-15   -.279E-15 -.214E-15 0.640E-15   -.331E-23 -.827E-23 0.000E+00   0.125E-15 0.610E-16 0.716E-16
 
 
 POSITION                                       TOTAL-FORCE (eV/Angst)
 -----------------------------------------------------------------------------------
      0.00000      0.00000      0.00000         0.000000      0.000000      0.000000
 -----------------------------------------------------------------------------------
    total drift:                                0.000000      0.000000      0.000000


--------------------------------------------------------------------------------------------------------



  FREE ENERGIE OF THE ION-ELECTRON SYSTEM (eV)
  ---------------------------------------------------
  free  energy   TOTEN  =       -11.863357 eV

  energy  without entropy=      -11.863388  energy(sigma->0) =      -11.863367
 


--------------------------------------------------------------------------------------------------------


    POTLOK:  cpu time    0.24: real time    0.24


--------------------------------------------------------------------------------------------------------


 writing wavefunctions
     LOOP+:  cpu time   25.40: real time   26.01
    4ORBIT:  cpu time    0.00: real time    0.00
 


 total charge     
 
# of ion     s       p       d       tot
----------------------------------------
  1        0.708   0.695   3.343   4.747
 


 magnetization (x)
 
# of ion     s       p       d       tot
----------------------------------------
  1       -0.003  -0.008  -0.031  -0.042
 

 total amount of memory used by VASP on root node    44122. kBytes
========================================================================

   base      :      30000. kBytes
   nonl-proj :       2667. kBytes
   fftplans  :       2284. kBytes
   grid      :       5440. kBytes
   one-center:         31. kBytes
   wavefun   :       3700. kBytes
 
  
  
 General timing and accounting informations for this job:
 ========================================================
  
                  Total CPU time used (sec):       26.058
                            User time (sec):       25.942
                          System time (sec):        0.116
                         Elapsed time (sec):       27.129
  
                   Maximum memory used (kb):           0.
                   Average memory used (kb):           0.
  
                          Minor page faults:        10601
                          Major page faults:            0
                 Voluntary context switches:         1389
