PROCAR lm decomposed
# of k-points:   44         # of bands:   6         # of ions:   1

 k-point    1 :    0.05000000 0.05000000 0.05000000     weight = 0.00800000

band   1 # energy   -1.51405375 # occ.  1.00000000
 
ion      s     py     pz     px    dxy    dyz    dz2    dxz    dx2    tot
  1  0.814  0.011  0.032  0.005  0.000  0.002  0.001  0.001  0.000  0.865
 
band   2 # energy    6.12801407 # occ.  0.00000000
 
ion      s     py     pz     px    dxy    dyz    dz2    dxz    dx2    tot
  1  0.000  0.005  0.002  0.000  0.173  0.200  0.450  0.058  0.145  1.033
 
band   3 # energy    6.12801407 # occ.  0.00000000
 
ion      s     py     pz     px    dxy    dyz    dz2    dxz    dx2    tot
  1  0.000  0.000  0.001  0.006  0.022  0.030  0.146  0.064  0.764  1.033
 
band   4 # energy    7.24337874 # occ.  0.00000000
 
ion      s     py     pz     px    dxy    dyz    dz2    dxz    dx2    tot
  1  0.000  0.005  0.015  0.003  0.075  0.447  0.251  0.224  0.009  1.030
 
band   5 # energy    9.47146201 # occ.  0.00000000
 
ion      s     py     pz     px    dxy    dyz    dz2    dxz    dx2    tot
  1  0.000  0.000  0.000  0.000  0.684  0.000  0.131  0.016  0.077  0.907
 
band   6 # energy    9.47146201 # occ.  0.00000000
 
ion      s     py     pz     px    dxy    dyz    dz2    dxz    dx2    tot
  1  0.000  0.000  0.000  0.000  0.001  0.299  0.001  0.576  0.029  0.907
 

 k-point    2 :    0.15000000 0.05000000 0.05000000     weight = 0.02400000

band   1 # energy   -0.39132237 # occ.  1.00000000
 
ion      s     py     pz     px    dxy    dyz    dz2    dxz    dx2    tot
  1  0.732  0.020  0.061  0.039  0.006  0.009  0.001  0.017  0.002  0.887
 
band   2 # energy    5.45429461 # occ.  1.00000000
 
ion      s     py     pz     px    dxy    dyz    dz2    dxz    dx2    tot
  1  0.000  0.007  0.002  0.000  0.156  0.202  0.454  0.052  0.151  1.024
 
band   3 # energy    5.63583119 # occ.  0.98695449
 
ion      s     py     pz     px    dxy    dyz    dz2    dxz    dx2    tot
  1  0.003  0.001  0.002  0.049  0.071  0.021  0.102  0.213  0.523  0.985
 
band   4 # energy    8.59201575 # occ.  0.00000000
 
ion      s     py     pz     px    dxy    dyz    dz2    dxz    dx2    tot
  1  0.002  0.015  0.045  0.001  0.075  0.252  0.273  0.226  0.106  0.996
 
band   5 # energy    9.15775757 # occ.  0.00000000
 
ion      s     py     pz     px    dxy    dyz    dz2    dxz    dx2    tot
  1  0.000  0.000  0.001  0.001  0.068  0.431  0.037  0.205  0.182  0.925
 
band   6 # energy    9.74007610 # occ.  0.00000000
 
ion      s     py     pz     px    dxy    dyz    dz2    dxz    dx2    tot
  1  0.000  0.001  0.000  0.000  0.569  0.039  0.087  0.190  0.029  0.916
 

 k-point    3 :    0.25000000 0.05000000 0.05000000     weight = 0.02400000

band   1 # energy    0.93492258 # occ.  1.00000000
 
ion      s     py     pz     px    dxy    dyz    dz2    dxz    dx2    tot
  1  0.567  0.024  0.072  0.052  0.037  0.023  0.000  0.111  0.038  0.924
 
band   2 # energy    4.79694855 # occ.  1.00000000
 
ion      s     py     pz     px    dxy    dyz    dz2    dxz    dx2    tot
  1  0.000  0.009  0.003  0.000  0.177  0.195  0.438  0.059  0.146  1.027
 
band   3 # energy    5.33107065 # occ.  1.00000000
 
ion      s     py     pz     px    dxy    dyz    dz2    dxz    dx2    tot
  1  0.036  0.010  0.030  0.171  0.079  0.001  0.085  0.236  0.289  0.937
 
band   4 # energy    9.37833153 # occ.  0.00000000
 
ion      s     py     pz     px    dxy    dyz    dz2    dxz    dx2    tot
  1  0.004  0.000  0.000  0.009  0.062  0.353  0.003  0.186  0.340  0.958
 
band   5 # energy   10.06826877 # occ.  0.00000000
 
ion      s     py     pz     px    dxy    dyz    dz2    dxz    dx2    tot
  1  0.000  0.002  0.001  0.000  0.554  0.047  0.105  0.185  0.035  0.928
 
band   6 # energy   10.56379616 # occ.  0.00000000
 
ion      s     py     pz     px    dxy    dyz    dz2    dxz    dx2    tot
  1  0.001  0.026  0.079  0.002  0.036  0.318  0.307  0.107  0.095  0.971
 

 k-point    4 :    0.35000000 0.05000000 0.05000000     weight = 0.02400000

band   1 # energy    1.56436821 # occ.  1.00000000
 
ion      s     py     pz     px    dxy    dyz    dz2    dxz    dx2    tot
  1  0.352  0.012  0.037  0.008  0.099  0.028  0.008  0.298  0.119  0.962
 
band   2 # energy    4.34717039 # occ.  1.00000000
 
ion      s     py     pz     px    dxy    dyz    dz2    dxz    dx2    tot
  1  0.000  0.011  0.004  0.000  0.213  0.184  0.414  0.071  0.138  1.034
 
band   3 # energy    6.14036217 # occ.  0.00000000
 
ion      s     py     pz     px    dxy    dyz    dz2    dxz    dx2    tot
  1  0.069  0.039  0.118  0.396  0.025  0.011  0.065  0.076  0.104  0.902
 
band   4 # energy    9.70131873 # occ.  0.00000000
 
ion      s     py     pz     px    dxy    dyz    dz2    dxz    dx2    tot
  1  0.023  0.002  0.005  0.024  0.052  0.416  0.014  0.156  0.289  0.981
 
band   5 # energy   10.43259797 # occ.  0.00000000
 
ion      s     py     pz     px    dxy    dyz    dz2    dxz    dx2    tot
  1  0.000  0.001  0.000  0.000  0.532  0.062  0.140  0.177  0.047  0.960
 
band   6 # energy   12.69785856 # occ.  0.00000000
 
ion      s     py     pz     px    dxy    dyz    dz2    dxz    dx2    tot
  1  0.000  0.025  0.076  0.007  0.032  0.216  0.318  0.096  0.194  0.964
 

 k-point    5 :    0.45000000 0.05000000 0.05000000     weight = 0.01200000

band   1 # energy    1.62191549 # occ.  1.00000000
 
ion      s     py     pz     px    dxy    dyz    dz2    dxz    dx2    tot
  1  0.277  0.003  0.009  0.006  0.123  0.025  0.014  0.368  0.149  0.973
 
band   2 # energy    4.18918160 # occ.  1.00000000
 
ion      s     py     pz     px    dxy    dyz    dz2    dxz    dx2    tot
  1  0.000  0.011  0.004  0.000  0.256  0.170  0.383  0.085  0.128  1.038
 
band   3 # energy    7.01554179 # occ.  0.00000000
 
ion      s     py     pz     px    dxy    dyz    dz2    dxz    dx2    tot
  1  0.000  0.067  0.200  0.534  0.002  0.014  0.032  0.007  0.029  0.885
 
band   4 # energy    9.68242038 # occ.  0.00000000
 
ion      s     py     pz     px    dxy    dyz    dz2    dxz    dx2    tot
  1  0.073  0.000  0.000  0.000  0.058  0.462  0.045  0.173  0.175  0.986
 
band   5 # energy   10.61745921 # occ.  0.00000000
 
ion      s     py     pz     px    dxy    dyz    dz2    dxz    dx2    tot
  1  0.000  0.000  0.000  0.000  0.492  0.082  0.184  0.164  0.061  0.983
 
band   6 # energy   13.84243568 # occ.  0.00000000
 
ion      s     py     pz     px    dxy    dyz    dz2    dxz    dx2    tot
  1  0.000  0.005  0.015  0.040  0.025  0.153  0.344  0.076  0.319  0.977
 

 k-point    6 :   -0.05000000 0.05000000 0.05000000     weight = 0.00600000

band   1 # energy   -1.92986332 # occ.  1.00000000
 
ion      s     py     pz     px    dxy    dyz    dz2    dxz    dx2    tot
  1  0.840  0.003  0.008  0.006  0.000  0.000  0.000  0.000  0.000  0.857
 
band   2 # energy    6.44711922 # occ.  0.00000000
 
ion      s     py     pz     px    dxy    dyz    dz2    dxz    dx2    tot
  1  0.000  0.000  0.001  0.004  0.029  0.173  0.390  0.087  0.361  1.045
 
band   3 # energy    6.44712308 # occ.  0.00000000
 
ion      s     py     pz     px    dxy    dyz    dz2    dxz    dx2    tot
  1  0.000  0.004  0.001  0.000  0.260  0.173  0.390  0.087  0.130  1.045
 
band   4 # energy    6.58444392 # occ.  0.00000000
 
ion      s     py     pz     px    dxy    dyz    dz2    dxz    dx2    tot
  1  0.000  0.000  0.000  0.000  0.058  0.349  0.000  0.174  0.465  1.046
 
band   5 # energy    9.33449969 # occ.  0.00000000
 
ion      s     py     pz     px    dxy    dyz    dz2    dxz    dx2    tot
  1  0.000  0.000  0.000  0.000  0.449  0.075  0.168  0.150  0.056  0.898
 
band   6 # energy    9.83144581 # occ.  0.00000000
 
ion      s     py     pz     px    dxy    dyz    dz2    dxz    dx2    tot
  1  0.000  0.000  0.000  0.000  0.154  0.231  0.058  0.462  0.019  0.925
 

 k-point    7 :    0.15000000 0.15000000 0.05000000     weight = 0.02400000

band   1 # energy    0.87927182 # occ.  1.00000000
 
ion      s     py     pz     px    dxy    dyz    dz2    dxz    dx2    tot
  1  0.622  0.064  0.090  0.032  0.011  0.060  0.000  0.030  0.001  0.911
 
band   2 # energy    4.90536166 # occ.  1.00000000
 
ion      s     py     pz     px    dxy    dyz    dz2    dxz    dx2    tot
  1  0.000  0.023  0.000  0.046  0.083  0.053  0.000  0.107  0.663  0.975
 
band   3 # energy    4.97982527 # occ.  1.00000000
 
ion      s     py     pz     px    dxy    dyz    dz2    dxz    dx2    tot
  1  0.006  0.035  0.000  0.018  0.039  0.230  0.561  0.115  0.005  1.008
 
band   4 # energy    9.23373785 # occ.  0.00000000
 
ion      s     py     pz     px    dxy    dyz    dz2    dxz    dx2    tot
  1  0.000  0.000  0.000  0.001  0.024  0.238  0.000  0.476  0.192  0.931
 
band   5 # energy   10.11434975 # occ.  0.00000000
 
ion      s     py     pz     px    dxy    dyz    dz2    dxz    dx2    tot
  1  0.004  0.001  0.000  0.000  0.726  0.021  0.095  0.010  0.091  0.949
 
band   6 # energy   10.48807772 # occ.  0.00000000
 
ion      s     py     pz     px    dxy    dyz    dz2    dxz    dx2    tot
  1  0.004  0.029  0.093  0.014  0.078  0.308  0.284  0.154  0.010  0.973
 

 k-point    8 :    0.25000000 0.15000000 0.05000000     weight = 0.04800000

band   1 # energy    2.04640304 # occ.  1.00000000
 
ion      s     py     pz     px    dxy    dyz    dz2    dxz    dx2    tot
  1  0.420  0.056  0.089  0.018  0.046  0.093  0.015  0.182  0.027  0.947
 
band   2 # energy    4.43440602 # occ.  1.00000000
 
ion      s     py     pz     px    dxy    dyz    dz2    dxz    dx2    tot
  1  0.000  0.049  0.004  0.024  0.175  0.227  0.223  0.001  0.296  0.999
 
band   3 # energy    5.00938221 # occ.  1.00000000
 
ion      s     py     pz     px    dxy    dyz    dz2    dxz    dx2    tot
  1  0.046  0.032  0.026  0.197  0.006  0.005  0.278  0.176  0.191  0.957
 
band   4 # energy    9.53593048 # occ.  0.00000000
 
ion      s     py     pz     px    dxy    dyz    dz2    dxz    dx2    tot
  1  0.003  0.000  0.000  0.009  0.004  0.311  0.000  0.358  0.265  0.950
 
band   5 # energy   10.45738374 # occ.  0.00000000
 
ion      s     py     pz     px    dxy    dyz    dz2    dxz    dx2    tot
  1  0.014  0.001  0.000  0.000  0.641  0.009  0.190  0.050  0.069  0.974
 
band   6 # energy   12.71224501 # occ.  0.00000000
 
ion      s     py     pz     px    dxy    dyz    dz2    dxz    dx2    tot
  1  0.002  0.053  0.121  0.027  0.104  0.247  0.243  0.101  0.057  0.957
 

 k-point    9 :    0.35000000 0.15000000 0.05000000     weight = 0.04800000

band   1 # energy    2.32490331 # occ.  1.00000000
 
ion      s     py     pz     px    dxy    dyz    dz2    dxz    dx2    tot
  1  0.249  0.031  0.041  0.004  0.072  0.071  0.037  0.360  0.107  0.972
 
band   2 # energy    4.22085944 # occ.  1.00000000
 
ion      s     py     pz     px    dxy    dyz    dz2    dxz    dx2    tot
  1  0.000  0.060  0.003  0.007  0.249  0.215  0.313  0.017  0.153  1.018
 
band   3 # energy    5.97189324 # occ.  0.00000000
 
ion      s     py     pz     px    dxy    dyz    dz2    dxz    dx2    tot
  1  0.025  0.051  0.118  0.388  0.038  0.043  0.080  0.022  0.149  0.915
 
band   4 # energy    9.78821350 # occ.  0.00000000
 
ion      s     py     pz     px    dxy    dyz    dz2    dxz    dx2    tot
  1  0.041  0.000  0.001  0.009  0.021  0.356  0.033  0.256  0.252  0.969
 
band   5 # energy   10.65936237 # occ.  0.00000000
 
ion      s     py     pz     px    dxy    dyz    dz2    dxz    dx2    tot
  1  0.009  0.002  0.002  0.014  0.495  0.011  0.292  0.148  0.012  0.984
 
band   6 # energy   14.56315908 # occ.  0.00000000
 
ion      s     py     pz     px    dxy    dyz    dz2    dxz    dx2    tot
  1  0.000  0.043  0.091  0.072  0.089  0.179  0.227  0.053  0.194  0.947
 

 k-point   10 :   -0.15000000 0.15000000 0.05000000     weight = 0.02400000

band   1 # energy   -1.11351639 # occ.  1.00000000
 
ion      s     py     pz     px    dxy    dyz    dz2    dxz    dx2    tot
  1  0.786  0.023  0.008  0.045  0.005  0.001  0.002  0.001  0.001  0.872
 
band   2 # energy    5.99292655 # occ.  0.00000000
 
ion      s     py     pz     px    dxy    dyz    dz2    dxz    dx2    tot
  1  0.000  0.003  0.000  0.002  0.002  0.675  0.000  0.337  0.015  1.034
 
band   3 # energy    6.22010790 # occ.  0.00000000
 
ion      s     py     pz     px    dxy    dyz    dz2    dxz    dx2    tot
  1  0.001  0.011  0.002  0.021  0.415  0.001  0.502  0.001  0.052  1.006
 
band   4 # energy    7.39722843 # occ.  0.00000000
 
ion      s     py     pz     px    dxy    dyz    dz2    dxz    dx2    tot
  1  0.000  0.013  0.000  0.007  0.109  0.013  0.000  0.006  0.873  1.021
 
band   5 # energy    8.65409154 # occ.  0.00000000
 
ion      s     py     pz     px    dxy    dyz    dz2    dxz    dx2    tot
  1  0.000  0.000  0.000  0.000  0.276  0.056  0.404  0.112  0.035  0.883
 
band   6 # energy   10.01475416 # occ.  0.00000000
 
ion      s     py     pz     px    dxy    dyz    dz2    dxz    dx2    tot
  1  0.002  0.000  0.002  0.000  0.092  0.247  0.081  0.494  0.012  0.929
 

 k-point   11 :    0.25000000 0.25000000 0.05000000     weight = 0.02400000

band   1 # energy    2.96729912 # occ.  1.00000000
 
ion      s     py     pz     px    dxy    dyz    dz2    dxz    dx2    tot
  1  0.239  0.015  0.085  0.007  0.002  0.343  0.122  0.171  0.000  0.984
 
band   2 # energy    4.32602893 # occ.  1.00000000
 
ion      s     py     pz     px    dxy    dyz    dz2    dxz    dx2    tot
  1  0.000  0.069  0.000  0.138  0.059  0.072  0.000  0.144  0.475  0.957
 
band   3 # energy    5.04554255 # occ.  1.00000000
 
ion      s     py     pz     px    dxy    dyz    dz2    dxz    dx2    tot
  1  0.042  0.187  0.053  0.093  0.228  0.018  0.306  0.009  0.028  0.963
 
band   4 # energy    9.85067419 # occ.  0.00000000
 
ion      s     py     pz     px    dxy    dyz    dz2    dxz    dx2    tot
  1  0.000  0.005  0.000  0.009  0.030  0.223  0.000  0.445  0.244  0.956
 
band   5 # energy   10.55652017 # occ.  0.00000000
 
ion      s     py     pz     px    dxy    dyz    dz2    dxz    dx2    tot
  1  0.042  0.003  0.000  0.001  0.473  0.030  0.362  0.015  0.059  0.986
 
band   6 # energy   14.99321832 # occ.  0.00000000
 
ion      s     py     pz     px    dxy    dyz    dz2    dxz    dx2    tot
  1  0.001  0.103  0.131  0.051  0.205  0.161  0.182  0.080  0.026  0.939
 

 k-point   12 :    0.35000000 0.25000000 0.05000000     weight = 0.02400000

band   1 # energy    3.14906405 # occ.  1.00000000
 
ion      s     py     pz     px    dxy    dyz    dz2    dxz    dx2    tot
  1  0.161  0.005  0.038  0.021  0.001  0.238  0.152  0.339  0.044  0.998
 
band   2 # energy    4.41099392 # occ.  1.00000000
 
ion      s     py     pz     px    dxy    dyz    dz2    dxz    dx2    tot
  1  0.001  0.187  0.004  0.037  0.338  0.094  0.117  0.034  0.159  0.969
 
band   3 # energy    5.28385360 # occ.  1.00000000
 
ion      s     py     pz     px    dxy    dyz    dz2    dxz    dx2    tot
  1  0.000  0.037  0.110  0.294  0.134  0.122  0.038  0.000  0.194  0.930
 
band   4 # energy   10.08992660 # occ.  0.00000000
 
ion      s     py     pz     px    dxy    dyz    dz2    dxz    dx2    tot
  1  0.024  0.009  0.001  0.002  0.015  0.303  0.132  0.250  0.230  0.966
 
band   5 # energy   10.60196366 # occ.  0.00000000
 
ion      s     py     pz     px    dxy    dyz    dz2    dxz    dx2    tot
  1  0.000  0.003  0.008  0.021  0.308  0.007  0.403  0.230  0.001  0.981
 
band   6 # energy   14.42161711 # occ.  0.00000000
 
ion      s     py     pz     px    dxy    dyz    dz2    dxz    dx2    tot
  1  0.676  0.000  0.040  0.017  0.000  0.093  0.012  0.037  0.035  0.910
 

 k-point   13 :   -0.25000000 0.25000000 0.05000000     weight = 0.02400000

band   1 # energy    0.20809745 # occ.  1.00000000
 
ion      s     py     pz     px    dxy    dyz    dz2    dxz    dx2    tot
  1  0.664  0.045  0.008  0.090  0.059  0.001  0.025  0.002  0.007  0.903
 
band   2 # energy    5.30401936 # occ.  1.00000000
 
ion      s     py     pz     px    dxy    dyz    dz2    dxz    dx2    tot
  1  0.000  0.003  0.000  0.002  0.000  0.680  0.000  0.340  0.003  1.029
 
band   3 # energy    5.64456838 # occ.  0.92594127
 
ion      s     py     pz     px    dxy    dyz    dz2    dxz    dx2    tot
  1  0.016  0.042  0.001  0.084  0.539  0.005  0.172  0.011  0.067  0.939
 
band   4 # energy    8.68245989 # occ.  0.00000000
 
ion      s     py     pz     px    dxy    dyz    dz2    dxz    dx2    tot
  1  0.000  0.005  0.000  0.010  0.098  0.047  0.657  0.093  0.012  0.923
 
band   5 # energy    9.01011248 # occ.  0.00000000
 
ion      s     py     pz     px    dxy    dyz    dz2    dxz    dx2    tot
  1  0.000  0.032  0.000  0.016  0.103  0.004  0.000  0.002  0.828  0.985
 
band   6 # energy   10.21174416 # occ.  0.00000000
 
ion      s     py     pz     px    dxy    dyz    dz2    dxz    dx2    tot
  1  0.007  0.000  0.003  0.000  0.065  0.251  0.103  0.503  0.008  0.941
 

 k-point   14 :   -0.15000000 0.25000000 0.05000000     weight = 0.02400000

band   1 # energy   -0.03129907 # occ.  1.00000000
 
ion      s     py     pz     px    dxy    dyz    dz2    dxz    dx2    tot
  1  0.699  0.076  0.030  0.041  0.020  0.016  0.005  0.002  0.002  0.892
 
band   2 # energy    5.66389789 # occ.  0.68658459
 
ion      s     py     pz     px    dxy    dyz    dz2    dxz    dx2    tot
  1  0.000  0.004  0.012  0.032  0.206  0.225  0.108  0.004  0.373  0.964
 
band   3 # energy    5.73810427 # occ. -0.03530158
 
ion      s     py     pz     px    dxy    dyz    dz2    dxz    dx2    tot
  1  0.003  0.024  0.002  0.007  0.063  0.517  0.189  0.178  0.033  1.016
 
band   4 # energy    8.09915755 # occ.  0.00000000
 
ion      s     py     pz     px    dxy    dyz    dz2    dxz    dx2    tot
  1  0.000  0.000  0.001  0.003  0.238  0.001  0.424  0.222  0.008  0.897
 
band   5 # energy    8.51629280 # occ.  0.00000000
 
ion      s     py     pz     px    dxy    dyz    dz2    dxz    dx2    tot
  1  0.001  0.050  0.001  0.003  0.236  0.034  0.131  0.023  0.512  0.991
 
band   6 # energy   10.41478411 # occ.  0.00000000
 
ion      s     py     pz     px    dxy    dyz    dz2    dxz    dx2    tot
  1  0.012  0.000  0.002  0.001  0.119  0.165  0.097  0.538  0.022  0.957
 

 k-point   15 :   -0.35000000 0.35000000 0.05000000     weight = 0.02400000

band   1 # energy    1.24629826 # occ.  1.00000000
 
ion      s     py     pz     px    dxy    dyz    dz2    dxz    dx2    tot
  1  0.452  0.030  0.008  0.059  0.277  0.001  0.080  0.002  0.035  0.944
 
band   2 # energy    4.70917668 # occ.  1.00000000
 
ion      s     py     pz     px    dxy    dyz    dz2    dxz    dx2    tot
  1  0.000  0.003  0.000  0.002  0.000  0.685  0.000  0.342  0.001  1.033
 
band   3 # energy    5.72490186 # occ. -0.02441353
 
ion      s     py     pz     px    dxy    dyz    dz2    dxz    dx2    tot
  1  0.066  0.126  0.000  0.253  0.338  0.016  0.025  0.031  0.042  0.898
 
band   4 # energy    9.21696632 # occ.  0.00000000
 
ion      s     py     pz     px    dxy    dyz    dz2    dxz    dx2    tot
  1  0.003  0.021  0.001  0.041  0.078  0.020  0.737  0.041  0.010  0.952
 
band   5 # energy   10.44027692 # occ.  0.00000000
 
ion      s     py     pz     px    dxy    dyz    dz2    dxz    dx2    tot
  1  0.020  0.002  0.003  0.004  0.049  0.275  0.050  0.551  0.006  0.961
 
band   6 # energy   11.14505074 # occ.  0.00000000
 
ion      s     py     pz     px    dxy    dyz    dz2    dxz    dx2    tot
  1  0.000  0.040  0.000  0.020  0.100  0.001  0.000  0.001  0.803  0.965
 

 k-point   16 :   -0.25000000 0.35000000 0.05000000     weight = 0.04800000

band   1 # energy    1.27239696 # occ.  1.00000000
 
ion      s     py     pz     px    dxy    dyz    dz2    dxz    dx2    tot
  1  0.536  0.090  0.028  0.060  0.134  0.030  0.041  0.003  0.002  0.924
 
band   2 # energy    4.95224844 # occ.  1.00000000
 
ion      s     py     pz     px    dxy    dyz    dz2    dxz    dx2    tot
  1  0.004  0.000  0.012  0.068  0.204  0.468  0.010  0.025  0.161  0.953
 
band   3 # energy    5.38652501 # occ.  1.00000000
 
ion      s     py     pz     px    dxy    dyz    dz2    dxz    dx2    tot
  1  0.018  0.055  0.003  0.063  0.143  0.259  0.078  0.268  0.093  0.980
 
band   4 # energy    8.40361423 # occ.  0.00000000
 
ion      s     py     pz     px    dxy    dyz    dz2    dxz    dx2    tot
  1  0.000  0.002  0.000  0.028  0.109  0.002  0.625  0.134  0.025  0.926
 
band   5 # energy   10.34165988 # occ.  0.00000000
 
ion      s     py     pz     px    dxy    dyz    dz2    dxz    dx2    tot
  1  0.004  0.063  0.000  0.000  0.044  0.092  0.137  0.074  0.555  0.971
 
band   6 # energy   10.72092409 # occ.  0.00000000
 
ion      s     py     pz     px    dxy    dyz    dz2    dxz    dx2    tot
  1  0.037  0.038  0.002  0.006  0.226  0.114  0.017  0.467  0.064  0.972
 

 k-point   17 :   -0.45000000 0.45000000 0.05000000     weight = 0.02400000

band   1 # energy    1.48944025 # occ.  1.00000000
 
ion      s     py     pz     px    dxy    dyz    dz2    dxz    dx2    tot
  1  0.300  0.003  0.007  0.006  0.484  0.000  0.107  0.000  0.061  0.968
 
band   2 # energy    4.37693636 # occ.  1.00000000
 
ion      s     py     pz     px    dxy    dyz    dz2    dxz    dx2    tot
  1  0.000  0.003  0.000  0.001  0.000  0.689  0.000  0.344  0.000  1.038
 
band   3 # energy    6.72651067 # occ.  0.00000000
 
ion      s     py     pz     px    dxy    dyz    dz2    dxz    dx2    tot
  1  0.028  0.227  0.000  0.455  0.056  0.035  0.000  0.070  0.007  0.878
 
band   4 # energy    9.37546444 # occ.  0.00000000
 
ion      s     py     pz     px    dxy    dyz    dz2    dxz    dx2    tot
  1  0.056  0.012  0.000  0.024  0.172  0.000  0.679  0.000  0.021  0.965
 
band   5 # energy   10.81071441 # occ.  0.00000000
 
ion      s     py     pz     px    dxy    dyz    dz2    dxz    dx2    tot
  1  0.009  0.031  0.001  0.061  0.008  0.289  0.000  0.579  0.001  0.979
 
band   6 # energy   13.09092101 # occ.  0.00000000
 
ion      s     py     pz     px    dxy    dyz    dz2    dxz    dx2    tot
  1  0.000  0.012  0.000  0.006  0.107  0.000  0.000  0.000  0.857  0.982
 

 k-point   18 :   -0.35000000 0.45000000 0.05000000     weight = 0.04800000

band   1 # energy    1.92920724 # occ.  1.00000000
 
ion      s     py     pz     px    dxy    dyz    dz2    dxz    dx2    tot
  1  0.323  0.047  0.025  0.011  0.403  0.020  0.088  0.000  0.039  0.956
 
band   2 # energy    4.65326873 # occ.  1.00000000
 
ion      s     py     pz     px    dxy    dyz    dz2    dxz    dx2    tot
  1  0.004  0.003  0.014  0.034  0.035  0.717  0.004  0.169  0.024  1.004
 
band   3 # energy    5.62816884 # occ.  1.01792857
 
ion      s     py     pz     px    dxy    dyz    dz2    dxz    dx2    tot
  1  0.043  0.136  0.002  0.260  0.085  0.000  0.005  0.263  0.112  0.906
 
band   4 # energy    8.94283795 # occ.  0.00000000
 
ion      s     py     pz     px    dxy    dyz    dz2    dxz    dx2    tot
  1  0.020  0.010  0.000  0.050  0.134  0.005  0.698  0.018  0.002  0.937
 
band   5 # energy   10.75587920 # occ.  0.00000000
 
ion      s     py     pz     px    dxy    dyz    dz2    dxz    dx2    tot
  1  0.056  0.007  0.001  0.047  0.010  0.229  0.008  0.467  0.157  0.983
 
band   6 # energy   12.73057047 # occ.  0.00000000
 
ion      s     py     pz     px    dxy    dyz    dz2    dxz    dx2    tot
  1  0.006  0.119  0.001  0.017  0.174  0.005  0.012  0.059  0.570  0.963
 

 k-point   19 :   -0.25000000 0.45000000 0.05000000     weight = 0.02400000

band   1 # energy    2.39630554 # occ.  1.00000000
 
ion      s     py     pz     px    dxy    dyz    dz2    dxz    dx2    tot
  1  0.366  0.094  0.026  0.043  0.136  0.215  0.066  0.000  0.003  0.949
 
band   2 # energy    4.35419300 # occ.  1.00000000
 
ion      s     py     pz     px    dxy    dyz    dz2    dxz    dx2    tot
  1  0.000  0.011  0.033  0.088  0.310  0.192  0.010  0.007  0.276  0.927
 
band   3 # energy    5.39228016 # occ.  1.00000000
 
ion      s     py     pz     px    dxy    dyz    dz2    dxz    dx2    tot
  1  0.016  0.122  0.033  0.055  0.000  0.259  0.116  0.305  0.072  0.977
 
band   4 # energy    8.71134797 # occ.  0.00000000
 
ion      s     py     pz     px    dxy    dyz    dz2    dxz    dx2    tot
  1  0.000  0.003  0.009  0.023  0.124  0.008  0.494  0.217  0.057  0.934
 
band   5 # energy   10.46201975 # occ.  0.00000000
 
ion      s     py     pz     px    dxy    dyz    dz2    dxz    dx2    tot
  1  0.083  0.000  0.005  0.002  0.022  0.259  0.133  0.296  0.179  0.979
 
band   6 # energy   12.80145547 # occ.  0.00000000
 
ion      s     py     pz     px    dxy    dyz    dz2    dxz    dx2    tot
  1  0.019  0.167  0.004  0.033  0.282  0.000  0.047  0.122  0.288  0.961
 

 k-point   20 :   -0.45000000-0.45000000 0.05000000     weight = 0.02400000

band   1 # energy    1.98507040 # occ.  1.00000000
 
ion      s     py     pz     px    dxy    dyz    dz2    dxz    dx2    tot
  1  0.246  0.010  0.023  0.005  0.512  0.007  0.095  0.004  0.064  0.965
 
band   2 # energy    4.55261300 # occ.  1.00000000
 
ion      s     py     pz     px    dxy    dyz    dz2    dxz    dx2    tot
  1  0.001  0.014  0.016  0.007  0.014  0.639  0.008  0.320  0.002  1.020
 
band   3 # energy    6.12051785 # occ.  0.00000000
 
ion      s     py     pz     px    dxy    dyz    dz2    dxz    dx2    tot
  1  0.000  0.184  0.000  0.368  0.006  0.094  0.000  0.189  0.044  0.885
 
band   4 # energy    8.89585940 # occ.  0.00000000
 
ion      s     py     pz     px    dxy    dyz    dz2    dxz    dx2    tot
  1  0.086  0.001  0.000  0.000  0.170  0.016  0.632  0.008  0.021  0.934
 
band   5 # energy   11.26475116 # occ.  0.00000000
 
ion      s     py     pz     px    dxy    dyz    dz2    dxz    dx2    tot
  1  0.000  0.065  0.000  0.131  0.017  0.213  0.000  0.427  0.135  0.988
 
band   6 # energy   13.98126825 # occ.  0.00000000
 
ion      s     py     pz     px    dxy    dyz    dz2    dxz    dx2    tot
  1  0.000  0.042  0.000  0.084  0.089  0.020  0.000  0.040  0.709  0.982
 

 k-point   21 :   -0.35000000-0.45000000 0.05000000     weight = 0.04800000

band   1 # energy    2.86694133 # occ.  1.00000000
 
ion      s     py     pz     px    dxy    dyz    dz2    dxz    dx2    tot
  1  0.213  0.050  0.027  0.000  0.406  0.113  0.109  0.016  0.035  0.968
 
band   2 # energy    4.41419737 # occ.  1.00000000
 
ion      s     py     pz     px    dxy    dyz    dz2    dxz    dx2    tot
  1  0.011  0.006  0.042  0.100  0.124  0.525  0.021  0.034  0.092  0.954
 
band   3 # energy    5.25254083 # occ.  1.00000000
 
ion      s     py     pz     px    dxy    dyz    dz2    dxz    dx2    tot
  1  0.002  0.163  0.013  0.173  0.007  0.003  0.022  0.438  0.103  0.924
 
band   4 # energy    9.18018612 # occ.  0.00000000
 
ion      s     py     pz     px    dxy    dyz    dz2    dxz    dx2    tot
  1  0.036  0.002  0.011  0.022  0.132  0.063  0.611  0.062  0.000  0.939
 
band   5 # energy   10.68448682 # occ.  0.00000000
 
ion      s     py     pz     px    dxy    dyz    dz2    dxz    dx2    tot
  1  0.044  0.022  0.002  0.065  0.004  0.212  0.003  0.299  0.323  0.974
 
band   6 # energy   15.09005033 # occ.  0.00000000
 
ion      s     py     pz     px    dxy    dyz    dz2    dxz    dx2    tot
  1  0.032  0.143  0.007  0.104  0.193  0.017  0.029  0.091  0.370  0.986
 

 k-point   22 :   -0.35000000-0.35000000 0.05000000     weight = 0.00800000

band   1 # energy    3.53001466 # occ.  1.00000000
 
ion      s     py     pz     px    dxy    dyz    dz2    dxz    dx2    tot
  1  0.177  0.000  0.000  0.000  0.061  0.367  0.206  0.183  0.008  1.003
 
band   2 # energy    4.50877074 # occ.  1.00000000
 
ion      s     py     pz     px    dxy    dyz    dz2    dxz    dx2    tot
  1  0.000  0.127  0.095  0.064  0.496  0.047  0.000  0.024  0.062  0.915
 
band   3 # energy    4.50877663 # occ.  1.00000000
 
ion      s     py     pz     px    dxy    dyz    dz2    dxz    dx2    tot
  1  0.000  0.095  0.000  0.191  0.024  0.139  0.000  0.277  0.189  0.915
 
band   4 # energy   10.14345430 # occ.  0.00000000
 
ion      s     py     pz     px    dxy    dyz    dz2    dxz    dx2    tot
  1  0.000  0.028  0.000  0.057  0.049  0.143  0.000  0.286  0.395  0.958
 
band   5 # energy   10.14345693 # occ.  0.00000000
 
ion      s     py     pz     px    dxy    dyz    dz2    dxz    dx2    tot
  1  0.000  0.038  0.028  0.019  0.077  0.099  0.638  0.049  0.010  0.958
 
band   6 # energy   14.71183003 # occ.  0.00000000
 
ion      s     py     pz     px    dxy    dyz    dz2    dxz    dx2    tot
  1  0.608  0.013  0.039  0.007  0.016  0.095  0.053  0.047  0.002  0.879
 

 k-point   23 :    0.15000000 0.15000000 0.15000000     weight = 0.00800000

band   1 # energy    2.26619084 # occ.  1.00000000
 
ion      s     py     pz     px    dxy    dyz    dz2    dxz    dx2    tot
  1  0.500  0.058  0.175  0.029  0.012  0.074  0.042  0.037  0.002  0.928
 
band   2 # energy    4.42156585 # occ.  1.00000000
 
ion      s     py     pz     px    dxy    dyz    dz2    dxz    dx2    tot
  1  0.000  0.067  0.026  0.001  0.048  0.209  0.510  0.030  0.103  0.994
 
band   3 # energy    4.42156585 # occ.  1.00000000
 
ion      s     py     pz     px    dxy    dyz    dz2    dxz    dx2    tot
  1  0.000  0.006  0.005  0.083  0.053  0.000  0.107  0.120  0.620  0.994
 
band   4 # energy   10.08242099 # occ.  0.00000000
 
ion      s     py     pz     px    dxy    dyz    dz2    dxz    dx2    tot
  1  0.000  0.000  0.000  0.000  0.783  0.001  0.038  0.088  0.048  0.959
 
band   5 # energy   10.08242099 # occ.  0.00000000
 
ion      s     py     pz     px    dxy    dyz    dz2    dxz    dx2    tot
  1  0.000  0.000  0.000  0.000  0.010  0.304  0.002  0.479  0.163  0.959
 
band   6 # energy   12.82014470 # occ.  0.00000000
 
ion      s     py     pz     px    dxy    dyz    dz2    dxz    dx2    tot
  1  0.004  0.050  0.149  0.025  0.055  0.329  0.185  0.165  0.007  0.968
 

 k-point   24 :    0.25000000 0.15000000 0.15000000     weight = 0.02400000
