<?xml version="1.0" encoding="ISO-8859-1"?>
<modeling>
 <generator>
  <i name="program" type="string">vasp </i>
  <i name="version" type="string">5.2.12  </i>
  <i name="subversion" type="string">11Nov11 complex                                                      parallel </i>
  <i name="platform" type="string">LinuxIFC </i>
  <i name="date" type="string">2012 10 17 </i>
  <i name="time" type="string">10:12:41 </i>
 </generator>
 <incar>
  <i type="int" name="ISTART">     0</i>
  <i type="string" name="PREC">accurate</i>
  <i type="int" name="ISPIN">     2</i>
  <i name="ENCUT">    450.00000000</i>
  <i type="int" name="NBANDS">     6</i>
  <v name="MAGMOM">      6.00000000</v>
  <i type="logical" name="LREAL"> F  </i>
  <i type="int" name="ISMEAR">     1</i>
  <i name="SIGMA">      0.05000000</i>
  <i type="logical" name="LORBIT"> F  </i>
 </incar>
 <kpoints>
  <generation param="Monkhorst-Pack">
   <v type="int" name="divisions">      10       10       10 </v>
   <v name="usershift">      0.00000000       0.00000000       0.00000000 </v>
   <v name="genvec1">      0.10000000       0.00000000       0.00000000 </v>
   <v name="genvec2">      0.00000000       0.10000000       0.00000000 </v>
   <v name="genvec3">      0.00000000       0.00000000       0.10000000 </v>
   <v name="shift">      0.50000000       0.50000000       0.50000000 </v>
  </generation>
  <varray name="kpointlist" >
   <v>       0.05000000       0.05000000       0.05000000 </v>
   <v>       0.15000000       0.05000000       0.05000000 </v>
   <v>       0.25000000       0.05000000       0.05000000 </v>
   <v>       0.35000000       0.05000000       0.05000000 </v>
   <v>       0.45000000       0.05000000       0.05000000 </v>
   <v>      -0.05000000       0.05000000       0.05000000 </v>
   <v>       0.15000000       0.15000000       0.05000000 </v>
   <v>       0.25000000       0.15000000       0.05000000 </v>
   <v>       0.35000000       0.15000000       0.05000000 </v>
   <v>      -0.15000000       0.15000000       0.05000000 </v>
   <v>       0.25000000       0.25000000       0.05000000 </v>
   <v>       0.35000000       0.25000000       0.05000000 </v>
   <v>      -0.25000000       0.25000000       0.05000000 </v>
   <v>      -0.15000000       0.25000000       0.05000000 </v>
   <v>      -0.35000000       0.35000000       0.05000000 </v>
   <v>      -0.25000000       0.35000000       0.05000000 </v>
   <v>      -0.45000000       0.45000000       0.05000000 </v>
   <v>      -0.35000000       0.45000000       0.05000000 </v>
   <v>      -0.25000000       0.45000000       0.05000000 </v>
   <v>      -0.45000000      -0.45000000       0.05000000 </v>
   <v>      -0.35000000      -0.45000000       0.05000000 </v>
   <v>      -0.35000000      -0.35000000       0.05000000 </v>
   <v>       0.15000000       0.15000000       0.15000000 </v>
   <v>       0.25000000       0.15000000       0.15000000 </v>
   <v>       0.35000000       0.15000000       0.15000000 </v>
   <v>      -0.15000000       0.15000000       0.15000000 </v>
   <v>       0.25000000       0.25000000       0.15000000 </v>
   <v>      -0.25000000       0.25000000       0.15000000 </v>
   <v>      -0.35000000       0.35000000       0.15000000 </v>
   <v>      -0.25000000       0.35000000       0.15000000 </v>
   <v>      -0.45000000       0.45000000       0.15000000 </v>
   <v>      -0.35000000       0.45000000       0.15000000 </v>
   <v>      -0.45000000      -0.45000000       0.15000000 </v>
   <v>      -0.35000000      -0.45000000       0.15000000 </v>
   <v>       0.25000000       0.25000000       0.25000000 </v>
   <v>      -0.25000000       0.25000000       0.25000000 </v>
   <v>      -0.35000000       0.35000000       0.25000000 </v>
   <v>      -0.45000000       0.45000000       0.25000000 </v>
   <v>      -0.35000000       0.45000000       0.25000000 </v>
   <v>      -0.45000000      -0.45000000       0.25000000 </v>
   <v>      -0.35000000       0.35000000       0.35000000 </v>
   <v>      -0.45000000       0.45000000       0.35000000 </v>
   <v>      -0.45000000      -0.45000000       0.35000000 </v>
   <v>      -0.45000000       0.45000000       0.45000000 </v>
  </varray>
  <varray name="weights" >
   <v>       0.00800000 </v>
   <v>       0.02400000 </v>
   <v>       0.02400000 </v>
   <v>       0.02400000 </v>
   <v>       0.01200000 </v>
   <v>       0.00600000 </v>
   <v>       0.02400000 </v>
   <v>       0.04800000 </v>
   <v>       0.04800000 </v>
   <v>       0.02400000 </v>
   <v>       0.02400000 </v>
   <v>       0.02400000 </v>
   <v>       0.02400000 </v>
   <v>       0.02400000 </v>
   <v>       0.02400000 </v>
   <v>       0.04800000 </v>
   <v>       0.02400000 </v>
   <v>       0.04800000 </v>
   <v>       0.02400000 </v>
   <v>       0.02400000 </v>
   <v>       0.04800000 </v>
   <v>       0.00800000 </v>
   <v>       0.00800000 </v>
   <v>       0.02400000 </v>
   <v>       0.01200000 </v>
   <v>       0.00600000 </v>
   <v>       0.02400000 </v>
   <v>       0.02400000 </v>
   <v>       0.02400000 </v>
   <v>       0.02400000 </v>
   <v>       0.02400000 </v>
   <v>       0.04800000 </v>
   <v>       0.02400000 </v>
   <v>       0.02400000 </v>
   <v>       0.00200000 </v>
   <v>       0.00600000 </v>
   <v>       0.02400000 </v>
   <v>       0.02400000 </v>
   <v>       0.02400000 </v>
   <v>       0.02400000 </v>
   <v>       0.00600000 </v>
   <v>       0.02400000 </v>
   <v>       0.00800000 </v>
   <v>       0.00600000 </v>
  </varray>
 </kpoints>
 <parameters>
  <separator name="general" >
   <i type="string" name="SYSTEM">unknown system</i>
   <i type="logical" name="LCOMPAT"> F  </i>
  </separator>
  <separator name="electronic" >
   <i type="string" name="PREC">accura</i>
   <i name="ENMAX">    450.00000000</i>
   <i name="ENAUG">    332.07500000</i>
   <i name="EDIFF">      0.00010000</i>
   <i type="int" name="IALGO">    38</i>
   <i type="int" name="IWAVPR">    10</i>
   <i type="int" name="NBANDS">     6</i>
   <i name="NELECT">      5.00000000</i>
   <i type="int" name="TURBO">     0</i>
   <i type="int" name="IRESTART">     0</i>
   <i type="int" name="NREBOOT">     0</i>
   <i type="int" name="NMIN">     0</i>
   <i name="EREF">      0.00000000</i>
   <separator name="electronic smearing" >
    <i type="int" name="ISMEAR">     1</i>
    <i name="SIGMA">      0.05000000</i>
    <i name="KSPACING">      0.50000000</i>
    <i type="logical" name="KGAMMA"> T  </i>
   </separator>
   <separator name="electronic projectors" >
    <i type="logical" name="LREAL"> F  </i>
    <v name="ROPT">      0.00000000</v>
    <i type="int" name="LMAXPAW">  -100</i>
    <i type="int" name="LMAXMIX">     2</i>
    <i type="logical" name="NLSPLINE"> F  </i>
   </separator>
   <separator name="electronic startup" >
    <i type="int" name="ISTART">     0</i>
    <i type="int" name="ICHARG">     2</i>
    <i type="int" name="INIWAV">     1</i>
   </separator>
   <separator name="electronic spin" >
    <i type="int" name="ISPIN">     2</i>
    <i type="logical" name="LNONCOLLINEAR"> F  </i>
    <v name="MAGMOM">      6.00000000</v>
    <i name="NUPDOWN">     -1.00000000</i>
    <i type="logical" name="LSORBIT"> F  </i>
    <v name="SAXIS">      0.00000000      0.00000000      1.00000000</v>
    <i type="logical" name="LSPIRAL"> F  </i>
    <v name="QSPIRAL">      0.00000000      0.00000000      0.00000000</v>
    <i type="logical" name="LZEROZ"> F  </i>
   </separator>
   <separator name="electronic exchange-correlation" >
    <i type="logical" name="LASPH"> F  </i>
    <i type="logical" name="LMETAGGA"> F  </i>
   </separator>
   <separator name="electronic convergence" >
    <i type="int" name="NELM">    60</i>
    <i type="int" name="NELMDL">    -5</i>
    <i type="int" name="NELMIN">     2</i>
    <i name="ENINI">    450.00000000</i>
    <separator name="electronic convergence detail" >
     <i type="logical" name="LDIAG"> T  </i>
     <i type="logical" name="LSUBROT"> T  </i>
     <i name="WEIMIN">      0.00000000</i>
     <i name="EBREAK">      0.00000417</i>
     <i name="DEPER">      0.30000000</i>
     <i type="int" name="NRMM">     4</i>
     <i name="TIME">      0.40000000</i>
    </separator>
   </separator>
   <separator name="electronic mixer" >
    <i name="AMIX">      0.40000000</i>
    <i name="BMIX">      1.00000000</i>
    <i name="AMIN">      0.10000000</i>
    <i name="AMIX_MAG">      1.60000000</i>
    <i name="BMIX_MAG">      1.00000000</i>
    <separator name="electronic mixer details" >
     <i type="int" name="IMIX">     4</i>
     <i type="int" name="MAXMIX">   -45</i>
     <i name="WC">    100.00000000</i>
     <i type="int" name="INIMIX">     1</i>
     <i type="int" name="MIXPRE">     1</i>
     <i type="int" name="MREMOVE">     5</i>
    </separator>
   </separator>
   <separator name="electronic dipolcorrection" >
    <i type="logical" name="LDIPOL"> F  </i>
    <i type="logical" name="LMONO"> F  </i>
    <i type="int" name="IDIPOL">     0</i>
    <i name="EPSILON">      1.00000000</i>
    <v name="DIPOL">   -100.00000000   -100.00000000   -100.00000000</v>
    <i name="EFIELD">      0.00000000</i>
   </separator>
  </separator>
  <separator name="grids" >
   <i type="int" name="NGX">    20</i>
   <i type="int" name="NGY">    20</i>
   <i type="int" name="NGZ">    20</i>
   <i type="int" name="NGXF">    40</i>
   <i type="int" name="NGYF">    40</i>
   <i type="int" name="NGZF">    40</i>
   <i type="logical" name="ADDGRID"> F  </i>
  </separator>
  <separator name="ionic" >
   <i type="int" name="NSW">     0</i>
   <i type="int" name="IBRION">    -1</i>
   <i type="int" name="ISIF">     2</i>
   <i name="PSTRESS">      0.00000000</i>
   <i name="EDIFFG">      0.00100000</i>
   <i type="int" name="NFREE">     0</i>
   <i name="POTIM">      0.50000000</i>
   <i name="SMASS">     -3.00000000</i>
   <i name="SCALEE">      1.00000000</i>
  </separator>
  <separator name="ionic md" >
   <i name="TEBEG">      0.00010000</i>
   <i name="TEEND">      0.00010000</i>
   <i type="int" name="NBLOCK">     1</i>
   <i type="int" name="KBLOCK">     1</i>
   <i type="int" name="NPACO">   256</i>
   <i name="APACO">     16.00000000</i>
  </separator>
  <separator name="symmetry" >
   <i type="int" name="ISYM">     2</i>
   <i name="SYMPREC">      0.00001000</i>
  </separator>
  <separator name="dos" >
   <i type="logical" name="LORBIT"> F  </i>
   <v name="RWIGS">     -1.00000000</v>
   <i type="int" name="NEDOS">   301</i>
   <i name="EMIN">     10.00000000</i>
   <i name="EMAX">    -10.00000000</i>
   <i name="EFERMI">      0.00000000</i>
  </separator>
  <separator name="writing" >
   <i type="int" name="NWRITE">     2</i>
   <i type="logical" name="LWAVE"> T  </i>
   <i type="logical" name="LCHARG"> T  </i>
   <i type="logical" name="LPARD"> F  </i>
   <i type="logical" name="LVTOT"> F  </i>
   <i type="logical" name="LVHAR"> F  </i>
   <i type="logical" name="LELF"> F  </i>
   <i type="logical" name="LOPTICS"> F  </i>
   <v name="STM">      0.00000000      0.00000000      0.00000000      0.00000000      0.00000000      0.00000000      0.00000000</v>
  </separator>
  <separator name="performance" >
   <i type="int" name="NPAR">     1</i>
   <i type="int" name="NSIM">     4</i>
   <i type="int" name="NBLK">    -1</i>
   <i type="logical" name="LPLANE"> T  </i>
   <i type="logical" name="LSCALAPACK"> F  </i>
   <i type="logical" name="LSCAAWARE"> F  </i>
   <i type="logical" name="LSCALU"> F  </i>
   <i type="logical" name="LASYNC"> F  </i>
   <i type="logical" name="LORBITALREAL"> F  </i>
  </separator>
  <separator name="miscellaneous" >
   <i type="int" name="IDIOT">     3</i>
   <i type="logical" name="LMUSIC"> F  </i>
   <v name="POMASS">    180.94800000</v>
   <v name="DARWINR">      0.00000000</v>
   <v name="DARWINV">      1.00000000</v>
   <i type="logical" name="LCORR"> T  </i>
  </separator>
  <i type="logical" name="GGA_COMPAT"> T  </i>
  <i type="logical" name="LBERRY"> F  </i>
  <i type="int" name="ICORELEVEL">     0</i>
  <i type="logical" name="LDAU"> F  </i>
  <i type="int" name="I_CONSTRAINED_M">     0</i>
  <separator name="electronic exchange-correlation" >
   <i type="string" name="GGA">--</i>
   <i type="int" name="VOSKOWN">     0</i>
   <i type="logical" name="LHFCALC"> F  </i>
   <i type="string" name="PRECFOCK"></i>
   <i type="logical" name="LHFONE"> F  </i>
   <i type="logical" name="LRHFCALC"> F  </i>
   <i type="logical" name="LTHOMAS"> F  </i>
   <i type="logical" name="LMODELHF"> F  </i>
   <i name="ENCUT4O">     -1.00000000</i>
   <i type="int" name="EXXOEP">     0</i>
   <i type="int" name="FOURORBIT">     0</i>
   <i name="AEXX">      0.00000000</i>
   <i name="HFALPHA">      0.00000000</i>
   <i name="ALDAX">      1.00000000</i>
   <i name="AGGAX">      1.00000000</i>
   <i name="ALDAC">      1.00000000</i>
   <i name="AGGAC">      1.00000000</i>
   <i type="int" name="NKREDX">     1</i>
   <i type="int" name="NKREDY">     1</i>
   <i type="int" name="NKREDZ">     1</i>
   <i type="logical" name="SHIFTRED"> F  </i>
   <i type="logical" name="ODDONLY"> F  </i>
   <i type="logical" name="EVENONLY"> F  </i>
   <i type="int" name="LMAXFOCK">     0</i>
   <i type="int" name="NMAXFOCKAE">     0</i>
   <i type="logical" name="LFOCKAEDFT"> F  </i>
   <i name="HFSCREEN">      0.00000000</i>
   <i name="HFSCREENC">      0.00000000</i>
  </separator>
  <separator name="vdW DFT" >
   <i type="logical" name="LUSE_VDW"> F  </i>
   <i name="Zab_VDW">     -0.84910000</i>
   <i name="PARAM1">      0.12340000</i>
   <i name="PARAM2">      1.00000000</i>
   <i name="PARAM3">      0.00000000</i>
  </separator>
  <separator name="model GW" >
   <i type="int" name="MODEL_GW">     0</i>
   <i name="MODEL_EPS0">     10.87940730</i>
   <i name="MODEL_ALPHA">      1.00000000</i>
  </separator>
  <separator name="linear response parameters" >
   <i type="logical" name="LEPSILON"> F  </i>
   <i type="logical" name="LRPA"> F  </i>
   <i type="logical" name="LNABLA"> F  </i>
   <i type="logical" name="LVEL"> F  </i>
   <i type="int" name="KINTER">     0</i>
   <i name="CSHIFT">      0.10000000</i>
   <i name="OMEGAMAX">     -1.00000000</i>
  </separator>
  <separator name="orbital magnetization" >
   <i type="logical" name="NUCIND"> F  </i>
   <v name="MAGPOS">      0.00000000      0.00000000      0.00000000</v>
   <i type="logical" name="LNICSALL"> T  </i>
   <i type="logical" name="ORBITALMAG"> F  </i>
   <i type="logical" name="LMAGBLOCH"> F  </i>
   <i type="logical" name="LCHIMAG"> F  </i>
   <i type="logical" name="LGAUGE"> T  </i>
   <i type="int" name="MAGATOM">     0</i>
   <v name="MAGDIPOL">      0.00000000      0.00000000      0.00000000</v>
   <v name="AVECCONST">      0.00000000      0.00000000      0.00000000</v>
  </separator>
  <separator name="response functions" >
   <i type="logical" name="LADDER"> F  </i>
   <i type="logical" name="LHARTREE"> T  </i>
   <i type="int" name="IBSE">     0</i>
   <i type="logical" name="LTCTE"> F  </i>
   <i type="logical" name="LTETE"> F  </i>
   <i type="logical" name="LFXCEPS"> F  </i>
   <i type="logical" name="L2ORDER"> F  </i>
   <i type="logical" name="LUSEW"> F  </i>
   <i name="ENCUTGW">     -2.00000000</i>
   <i name="ENCUTGWSOFT">     -2.00000000</i>
   <i name="ENCUTLF">     -1.00000000</i>
   <i type="int" name="LMAXMP2">    -1</i>
   <i name="SCISSOR">      0.00000000</i>
   <i type="int" name="NOMEGA">     0</i>
   <i type="int" name="NOMEGAR">     0</i>
   <i type="int" name="NBANDSGW">    -1</i>
   <i type="int" name="NBANDSO">    -1</i>
   <i type="int" name="NBANDSV">    -1</i>
   <i name="OPTEMAX">      0.00000000</i>
   <i type="int" name="NELM">     1</i>
   <i type="int" name="DIM">     3</i>
   <i type="int" name="ANTIRES">     0</i>
   <i name="OMEGAMAX">    -30.00000000</i>
   <i name="OMEGATL">   -200.00000000</i>
   <i type="int" name="OMEGAGRID">     0</i>
   <i name="CSHIFT">     -0.10000000</i>
   <i type="logical" name="SELFENERGY"> F  </i>
   <i type="logical" name="LSPECTRAL"> F  </i>
   <i type="logical" name="ODDONLYGW"> F  </i>
   <i type="logical" name="EVENONLYGW"> F  </i>
   <i type="int" name="NKREDLFX">     1</i>
   <i type="int" name="NKREDLFY">     1</i>
   <i type="int" name="NKREDLFZ">     1</i>
   <i type="int" name="MAXMEM">  1800</i>
   <i type="int" name="TELESCOPE">     0</i>
  </separator>
 </parameters>
 <atominfo>
  <atoms>       1 </atoms>
  <types>       1 </types>
  <array name="atoms" >
   <dimension dim="1">ion</dimension>
   <field type="string">element</field>
   <field type="int">atomtype</field>
   <set>
    <rc><c>Ta</c><c>   1</c></rc>
   </set>
  </array>
  <array name="atomtypes" >
   <dimension dim="1">type</dimension>
   <field type="int">atomspertype</field>
   <field type="string">element</field>
   <field>mass</field>
   <field>valence</field>
   <field type="string">pseudopotential</field>
   <set>
    <rc><c>   1</c><c>Ta</c><c>    180.94800000</c><c>      5.00000000</c><c>  PAW_PBE Ta 17Jan2003                  </c></rc>
   </set>
  </array>
 </atominfo>
 <structure name="initialpos" >
  <crystal>
   <varray name="basis" >
    <v>       2.86654409       0.00000000       0.00000000 </v>
    <v>      -0.95551470       2.70260368       0.00000000 </v>
    <v>      -0.95551470      -1.35130184       2.34052345 </v>
   </varray>
   <i name="volume">     18.13234550 </i>
   <varray name="rec_basis" >
    <v>       0.34885213       0.12333785       0.21362743 </v>
    <v>       0.00000000       0.37001356       0.21362743 </v>
    <v>       0.00000000       0.00000000       0.42725485 </v>
   </varray>
  </crystal>
  <varray name="positions" >
   <v>       0.00000000       0.00000000       0.00000000 </v>
  </varray>
 </structure>
 <calculation>
  <scstep>
   <time name="dav">    1.42    1.42</time>
   <time name="total">    1.67    1.69</time>
   <energy>
    <i name="alphaZ">     30.58334069 </i>
    <i name="ewald">   -197.90100875 </i>
    <i name="hartreedc">     -2.50452612 </i>
    <i name="XCdc">    -60.66120712 </i>
    <i name="pawpsdc">    143.51874798 </i>
    <i name="pawaedc">    -69.33493833 </i>
    <i name="eentropy">     -0.00018849 </i>
    <i name="bandstr">     39.62662751 </i>
    <i name="atom">    130.64904277 </i>
    <i name="e_fr_energy">     13.97589014 </i>
    <i name="e_wo_entrp">     13.97607863 </i>
    <i name="e_0_energy">     13.97595297 </i>
   </energy>
  </scstep>
  <scstep>
   <time name="dav">    2.22    2.22</time>
   <time name="total">    2.22    2.23</time>
   <energy>
    <i name="e_fr_energy">     -1.08123332 </i>
    <i name="e_wo_entrp">     -1.08113451 </i>
    <i name="e_0_energy">     -1.08120038 </i>
   </energy>
  </scstep>
  <scstep>
   <time name="dav">    1.43    1.43</time>
   <time name="total">    1.44    1.53</time>
   <energy>
    <i name="e_fr_energy">     -1.20469793 </i>
    <i name="e_wo_entrp">     -1.20432525 </i>
    <i name="e_0_energy">     -1.20457370 </i>
   </energy>
  </scstep>
  <scstep>
   <time name="dav">    1.70    1.70</time>
   <time name="total">    1.70    1.72</time>
   <energy>
    <i name="e_fr_energy">     -1.20600685 </i>
    <i name="e_wo_entrp">     -1.20563221 </i>
    <i name="e_0_energy">     -1.20588197 </i>
   </energy>
  </scstep>
  <scstep>
   <time name="dav">    1.33    1.33</time>
   <time name="total">    1.51    1.52</time>
   <energy>
    <i name="e_fr_energy">     -1.20601349 </i>
    <i name="e_wo_entrp">     -1.20563887 </i>
    <i name="e_0_energy">     -1.20588862 </i>
   </energy>
  </scstep>
  <scstep>
   <time name="dav">    1.43    1.43</time>
   <time name="total">    1.82    1.83</time>
   <energy>
    <i name="e_fr_energy">    -11.68605915 </i>
    <i name="e_wo_entrp">    -11.68624120 </i>
    <i name="e_0_energy">    -11.68611983 </i>
   </energy>
  </scstep>
  <scstep>
   <time name="dav">    1.58    1.58</time>
   <time name="total">    1.98    2.05</time>
   <energy>
    <i name="e_fr_energy">    -11.74171597 </i>
    <i name="e_wo_entrp">    -11.74170451 </i>
    <i name="e_0_energy">    -11.74171215 </i>
   </energy>
  </scstep>
  <scstep>
   <time name="dav">    1.55    1.55</time>
   <time name="total">    1.94    1.96</time>
   <energy>
    <i name="e_fr_energy">    -11.35803894 </i>
    <i name="e_wo_entrp">    -11.35806349 </i>
    <i name="e_0_energy">    -11.35804712 </i>
   </energy>
  </scstep>
  <scstep>
   <time name="dav">    1.55    1.55</time>
   <time name="total">    1.94    1.96</time>
   <energy>
    <i name="e_fr_energy">    -11.83015128 </i>
    <i name="e_wo_entrp">    -11.82985023 </i>
    <i name="e_0_energy">    -11.83005093 </i>
   </energy>
  </scstep>
  <scstep>
   <time name="dav">    1.47    1.47</time>
   <time name="total">    1.85    2.06</time>
   <energy>
    <i name="e_fr_energy">    -11.84490020 </i>
    <i name="e_wo_entrp">    -11.84418378 </i>
    <i name="e_0_energy">    -11.84466139 </i>
   </energy>
  </scstep>
  <scstep>
   <time name="dav">    1.48    1.48</time>
   <time name="total">    1.88    1.90</time>
   <energy>
    <i name="e_fr_energy">    -11.86414460 </i>
    <i name="e_wo_entrp">    -11.86432306 </i>
    <i name="e_0_energy">    -11.86420409 </i>
   </energy>
  </scstep>
  <scstep>
   <time name="dav">    1.51    1.51</time>
   <time name="total">    1.91    1.93</time>
   <energy>
    <i name="e_fr_energy">    -11.86336042 </i>
    <i name="e_wo_entrp">    -11.86319709 </i>
    <i name="e_0_energy">    -11.86330598 </i>
   </energy>
  </scstep>
  <scstep>
   <time name="dav">    1.45    1.45</time>
   <time name="total">    1.70    1.71</time>
   <energy>
    <i name="alphaZ">     30.58334069 </i>
    <i name="ewald">   -197.90100875 </i>
    <i name="hartreedc">     -0.60636400 </i>
    <i name="XCdc">    -66.00957459 </i>
    <i name="pawpsdc">    193.19229314 </i>
    <i name="pawaedc">   -119.76153171 </i>
    <i name="eentropy">      0.00003111 </i>
    <i name="bandstr">     17.99041478 </i>
    <i name="atom">    130.64904277 </i>
    <i name="e_fr_energy">    -11.86335655 </i>
    <i name="e_wo_entrp">    -11.86338767 </i>
    <i name="e_0_energy">    -11.86336693 </i>
   </energy>
  </scstep>
  <parameters_embedded>
   <separator name="dft+d2" >
    <i type="logical" name="LVDW"> F  </i>
   </separator>
  </parameters_embedded>
  <structure>
   <crystal>
    <varray name="basis" >
     <v>       2.86654409       0.00000000       0.00000000 </v>
     <v>      -0.95551470       2.70260368       0.00000000 </v>
     <v>      -0.95551470      -1.35130184       2.34052345 </v>
    </varray>
    <i name="volume">     18.13234550 </i>
    <varray name="rec_basis" >
     <v>       0.34885213       0.12333785       0.21362743 </v>
     <v>       0.00000000       0.37001356       0.21362743 </v>
     <v>       0.00000000       0.00000000       0.42725485 </v>
    </varray>
   </crystal>
   <varray name="positions" >
    <v>       0.00000000       0.00000000       0.00000000 </v>
   </varray>
  </structure>
  <varray name="forces" >
   <v>       0.00000000       0.00000000       0.00000000 </v>
  </varray>
  <varray name="stress" >
   <v>     -11.94312990       0.00000000       0.00000000 </v>
   <v>       0.00000000     -11.94312990       0.00000000 </v>
   <v>       0.00000000       0.00000000     -11.94312990 </v>
  </varray>
  <energy>
   <i name="e_fr_energy">    -11.86335655 </i>
   <i name="e_wo_entrp">    -11.86336693 </i>
   <i name="e_0_energy">      0.00003111 </i>
  </energy>
  <time name="totalsc">   25.40   26.01</time>
  <eigenvalues>
   <array>
    <dimension dim="1">band</dimension>
    <dimension dim="2">kpoint</dimension>
    <dimension dim="3">spin</dimension>
    <field>eigene</field>
    <field>occ</field>
    <set>
     <set comment="spin 1">
      <set comment="kpoint 1">
       <r>   -1.5141    1.0000 </r>
       <r>    6.1280    0.0000 </r>
       <r>    6.1280    0.0000 </r>
       <r>    7.2434    0.0000 </r>
       <r>    9.4715    0.0000 </r>
       <r>    9.4715    0.0000 </r>
      </set>
      <set comment="kpoint 2">
       <r>   -0.3913    1.0000 </r>
       <r>    5.4543    1.0000 </r>
       <r>    5.6358    0.9870 </r>
       <r>    8.5920    0.0000 </r>
       <r>    9.1578    0.0000 </r>
       <r>    9.7401    0.0000 </r>
      </set>
      <set comment="kpoint 3">
       <r>    0.9349    1.0000 </r>
       <r>    4.7969    1.0000 </r>
       <r>    5.3311    1.0000 </r>
       <r>    9.3783    0.0000 </r>
       <r>   10.0683    0.0000 </r>
       <r>   10.5638    0.0000 </r>
      </set>
      <set comment="kpoint 4">
       <r>    1.5644    1.0000 </r>
       <r>    4.3472    1.0000 </r>
       <r>    6.1404    0.0000 </r>
       <r>    9.7013    0.0000 </r>
       <r>   10.4326    0.0000 </r>
       <r>   12.6979    0.0000 </r>
      </set>
      <set comment="kpoint 5">
       <r>    1.6219    1.0000 </r>
       <r>    4.1892    1.0000 </r>
       <r>    7.0155    0.0000 </r>
       <r>    9.6824    0.0000 </r>
       <r>   10.6175    0.0000 </r>
       <r>   13.8424    0.0000 </r>
      </set>
      <set comment="kpoint 6">
       <r>   -1.9299    1.0000 </r>
       <r>    6.4471    0.0000 </r>
       <r>    6.4471    0.0000 </r>
       <r>    6.5844    0.0000 </r>
       <r>    9.3345    0.0000 </r>
       <r>    9.8314    0.0000 </r>
      </set>
      <set comment="kpoint 7">
       <r>    0.8793    1.0000 </r>
       <r>    4.9054    1.0000 </r>
       <r>    4.9798    1.0000 </r>
       <r>    9.2337    0.0000 </r>
       <r>   10.1143    0.0000 </r>
       <r>   10.4881    0.0000 </r>
      </set>
      <set comment="kpoint 8">
       <r>    2.0464    1.0000 </r>
       <r>    4.4344    1.0000 </r>
       <r>    5.0094    1.0000 </r>
       <r>    9.5359    0.0000 </r>
       <r>   10.4574    0.0000 </r>
       <r>   12.7122    0.0000 </r>
      </set>
      <set comment="kpoint 9">
       <r>    2.3249    1.0000 </r>
       <r>    4.2209    1.0000 </r>
       <r>    5.9719    0.0000 </r>
       <r>    9.7882    0.0000 </r>
       <r>   10.6594    0.0000 </r>
       <r>   14.5632    0.0000 </r>
      </set>
      <set comment="kpoint 10">
       <r>   -1.1135    1.0000 </r>
       <r>    5.9929    0.0000 </r>
       <r>    6.2201    0.0000 </r>
       <r>    7.3972    0.0000 </r>
       <r>    8.6541    0.0000 </r>
       <r>   10.0148    0.0000 </r>
      </set>
      <set comment="kpoint 11">
       <r>    2.9673    1.0000 </r>
       <r>    4.3260    1.0000 </r>
       <r>    5.0455    1.0000 </r>
       <r>    9.8507    0.0000 </r>
       <r>   10.5565    0.0000 </r>
       <r>   14.9932    0.0000 </r>
      </set>
      <set comment="kpoint 12">
       <r>    3.1491    1.0000 </r>
       <r>    4.4110    1.0000 </r>
       <r>    5.2839    1.0000 </r>
       <r>   10.0899    0.0000 </r>
       <r>   10.6020    0.0000 </r>
       <r>   14.4216    0.0000 </r>
      </set>
      <set comment="kpoint 13">
       <r>    0.2081    1.0000 </r>
       <r>    5.3040    1.0000 </r>
       <r>    5.6446    0.9259 </r>
       <r>    8.6825    0.0000 </r>
       <r>    9.0101    0.0000 </r>
       <r>   10.2117    0.0000 </r>
      </set>
      <set comment="kpoint 14">
       <r>   -0.0313    1.0000 </r>
       <r>    5.6639    0.6866 </r>
       <r>    5.7381   -0.0353 </r>
       <r>    8.0992    0.0000 </r>
       <r>    8.5163    0.0000 </r>
       <r>   10.4148    0.0000 </r>
      </set>
      <set comment="kpoint 15">
       <r>    1.2463    1.0000 </r>
       <r>    4.7092    1.0000 </r>
       <r>    5.7249   -0.0244 </r>
       <r>    9.2170    0.0000 </r>
       <r>   10.4403    0.0000 </r>
       <r>   11.1451    0.0000 </r>
      </set>
      <set comment="kpoint 16">
       <r>    1.2724    1.0000 </r>
       <r>    4.9522    1.0000 </r>
       <r>    5.3865    1.0000 </r>
       <r>    8.4036    0.0000 </r>
       <r>   10.3417    0.0000 </r>
       <r>   10.7209    0.0000 </r>
      </set>
      <set comment="kpoint 17">
       <r>    1.4894    1.0000 </r>
       <r>    4.3769    1.0000 </r>
       <r>    6.7265    0.0000 </r>
       <r>    9.3755    0.0000 </r>
       <r>   10.8107    0.0000 </r>
       <r>   13.0909    0.0000 </r>
      </set>
      <set comment="kpoint 18">
       <r>    1.9292    1.0000 </r>
       <r>    4.6533    1.0000 </r>
       <r>    5.6282    1.0179 </r>
       <r>    8.9428    0.0000 </r>
       <r>   10.7559    0.0000 </r>
       <r>   12.7306    0.0000 </r>
      </set>
      <set comment="kpoint 19">
       <r>    2.3963    1.0000 </r>
       <r>    4.3542    1.0000 </r>
       <r>    5.3923    1.0000 </r>
       <r>    8.7113    0.0000 </r>
       <r>   10.4620    0.0000 </r>
       <r>   12.8015    0.0000 </r>
      </set>
      <set comment="kpoint 20">
       <r>    1.9851    1.0000 </r>
       <r>    4.5526    1.0000 </r>
       <r>    6.1205    0.0000 </r>
       <r>    8.8959    0.0000 </r>
       <r>   11.2648    0.0000 </r>
       <r>   13.9813    0.0000 </r>
      </set>
      <set comment="kpoint 21">
       <r>    2.8669    1.0000 </r>
       <r>    4.4142    1.0000 </r>
       <r>    5.2525    1.0000 </r>
       <r>    9.1802    0.0000 </r>
       <r>   10.6845    0.0000 </r>
       <r>   15.0901    0.0000 </r>
      </set>
      <set comment="kpoint 22">
       <r>    3.5300    1.0000 </r>
       <r>    4.5088    1.0000 </r>
       <r>    4.5088    1.0000 </r>
       <r>   10.1435    0.0000 </r>
       <r>   10.1435    0.0000 </r>
       <r>   14.7118    0.0000 </r>
      </set>
      <set comment="kpoint 23">
       <r>    2.2662    1.0000 </r>
       <r>    4.4216    1.0000 </r>
       <r>    4.4216    1.0000 </r>
       <r>   10.0824    0.0000 </r>
       <r>   10.0824    0.0000 </r>
       <r>   12.8201    0.0000 </r>
      </set>
      <set comment="kpoint 24">
       <r>    3.1747    1.0000 </r>
       <r>    4.1761    1.0000 </r>
       <r>    4.8177    1.0000 </r>
       <r>   10.2498    0.0000 </r>
       <r>   10.5594    0.0000 </r>
       <r>   15.0047    0.0000 </r>
      </set>
      <set comment="kpoint 25">
       <r>    3.1825    1.0000 </r>
       <r>    4.1043    1.0000 </r>
       <r>    5.6390    0.9681 </r>
       <r>   10.3100    0.0000 </r>
       <r>   10.7110    0.0000 </r>
       <r>   14.4081    0.0000 </r>
      </set>
      <set comment="kpoint 26">
       <r>   -0.3365    1.0000 </r>
       <r>    6.4040    0.0000 </r>
       <r>    6.4040    0.0000 </r>
       <r>    7.1962    0.0000 </r>
       <r>    7.4037    0.0000 </r>
       <r>   10.6109    0.0000 </r>
      </set>
      <set comment="kpoint 27">
       <r>    3.7779    1.0000 </r>
       <r>    4.4374    1.0000 </r>
       <r>    4.8656    1.0000 </r>
       <r>   10.5629    0.0000 </r>
       <r>   10.6921    0.0000 </r>
       <r>   13.7004    0.0000 </r>
      </set>
      <set comment="kpoint 28">
       <r>    0.9258    1.0000 </r>
       <r>    5.5440    1.0007 </r>
       <r>    6.0460    0.0000 </r>
       <r>    7.2700    0.0000 </r>
       <r>    8.7636    0.0000 </r>
       <r>   10.8163    0.0000 </r>
      </set>
      <set comment="kpoint 29">
       <r>    1.9706    1.0000 </r>
       <r>    4.9171    1.0000 </r>
       <r>    5.5381    1.0004 </r>
       <r>    8.0737    0.0000 </r>
       <r>   10.8901    0.0000 </r>
       <r>   10.9222    0.0000 </r>
      </set>
      <set comment="kpoint 30">
       <r>    2.0949    1.0000 </r>
       <r>    4.5985    1.0000 </r>
       <r>    6.1792    0.0000 </r>
       <r>    7.5535    0.0000 </r>
       <r>   10.0189    0.0000 </r>
       <r>   10.9849    0.0000 </r>
      </set>
      <set comment="kpoint 31">
       <r>    2.1935    1.0000 </r>
       <r>    5.2394    1.0000 </r>
       <r>    5.2877    1.0000 </r>
       <r>    8.0471    0.0000 </r>
       <r>   12.0216    0.0000 </r>
       <r>   12.8883    0.0000 </r>
      </set>
      <set comment="kpoint 32">
       <r>    2.7997    1.0000 </r>
       <r>    4.2136    1.0000 </r>
       <r>    5.7795   -0.0060 </r>
       <r>    8.1870    0.0000 </r>
       <r>   10.7561    0.0000 </r>
       <r>   12.9455    0.0000 </r>
      </set>
      <set comment="kpoint 33">
       <r>    2.8112    1.0000 </r>
       <r>    4.5916    1.0000 </r>
       <r>    5.3329    1.0000 </r>
       <r>    8.1813    0.0000 </r>
       <r>   11.7925    0.0000 </r>
       <r>   14.5995    0.0000 </r>
      </set>
      <set comment="kpoint 34">
       <r>    3.6793    1.0000 </r>
       <r>    3.7386    1.0000 </r>
       <r>    5.0078    1.0000 </r>
       <r>    9.4508    0.0000 </r>
       <r>   10.6192    0.0000 </r>
       <r>   15.4046    0.0000 </r>
      </set>
      <set comment="kpoint 35">
       <r>    4.5075    1.0000 </r>
       <r>    4.5075    1.0000 </r>
       <r>    4.5075    1.0000 </r>
       <r>   10.7702    0.0000 </r>
       <r>   10.7702    0.0000 </r>
       <r>   12.7855    0.0000 </r>
      </set>
      <set comment="kpoint 36">
       <r>    2.0015    1.0000 </r>
       <r>    4.8128    1.0000 </r>
       <r>    6.9931    0.0000 </r>
       <r>    6.9931    0.0000 </r>
       <r>    8.9222    0.0000 </r>
       <r>   10.7173    0.0000 </r>
      </set>
      <set comment="kpoint 37">
       <r>    2.8233    1.0000 </r>
       <r>    3.8836    1.0000 </r>
       <r>    7.0530    0.0000 </r>
       <r>    7.6426    0.0000 </r>
       <r>   10.5841    0.0000 </r>
       <r>   10.8694    0.0000 </r>
      </set>
      <set comment="kpoint 38">
       <r>    2.8573    1.0000 </r>
       <r>    3.7977    1.0000 </r>
       <r>    6.8827    0.0000 </r>
       <r>    7.5249    0.0000 </r>
       <r>   12.5783    0.0000 </r>
       <r>   12.8593    0.0000 </r>
      </set>
      <set comment="kpoint 39">
       <r>    3.1482    1.0000 </r>
       <r>    3.2095    1.0000 </r>
       <r>    6.8940    0.0000 </r>
       <r>    8.8705    0.0000 </r>
       <r>   10.8523    0.0000 </r>
       <r>   12.9641    0.0000 </r>
      </set>
      <set comment="kpoint 40">
       <r>    2.9383    1.0000 </r>
       <r>    3.2622    1.0000 </r>
       <r>    6.6168    0.0000 </r>
       <r>    9.3860    0.0000 </r>
       <r>   11.6967    0.0000 </r>
       <r>   15.3072    0.0000 </r>
      </set>
      <set comment="kpoint 41">
       <r>    2.9252    1.0000 </r>
       <r>    3.0236    1.0000 </r>
       <r>    8.6500    0.0000 </r>
       <r>    8.6500    0.0000 </r>
       <r>   10.8057    0.0000 </r>
       <r>   10.9799    0.0000 </r>
      </set>
      <set comment="kpoint 42">
       <r>    2.5445    1.0000 </r>
       <r>    2.7071    1.0000 </r>
       <r>    9.1141    0.0000 </r>
       <r>    9.1215    0.0000 </r>
       <r>   12.2974    0.0000 </r>
       <r>   13.1079    0.0000 </r>
      </set>
      <set comment="kpoint 43">
       <r>    2.3905    1.0000 </r>
       <r>    2.3905    1.0000 </r>
       <r>    9.0466    0.0000 </r>
       <r>   11.4748    0.0000 </r>
       <r>   11.4748    0.0000 </r>
       <r>   15.6170    0.0000 </r>
      </set>
      <set comment="kpoint 44">
       <r>    2.0885    1.0000 </r>
       <r>    2.1354    1.0000 </r>
       <r>   11.3786    0.0000 </r>
       <r>   11.3786    0.0000 </r>
       <r>   12.2864    0.0000 </r>
       <r>   13.5902    0.0000 </r>
      </set>
     </set>
     <set comment="spin 2">
      <set comment="kpoint 1">
       <r>   -1.5810    1.0000 </r>
       <r>    6.0622    0.0000 </r>
       <r>    6.0622    0.0000 </r>
       <r>    7.1784    0.0000 </r>
       <r>    9.4309    0.0000 </r>
       <r>    9.4309    0.0000 </r>
      </set>
      <set comment="kpoint 2">
       <r>   -0.4580    1.0000 </r>
       <r>    5.3883    1.0000 </r>
       <r>    5.5722    1.0066 </r>
       <r>    8.5291    0.0000 </r>
       <r>    9.1128    0.0000 </r>
       <r>    9.6991    0.0000 </r>
      </set>
      <set comment="kpoint 3">
       <r>    0.8688    1.0000 </r>
       <r>    4.7305    1.0000 </r>
       <r>    5.2699    1.0000 </r>
       <r>    9.3308    0.0000 </r>
       <r>   10.0274    0.0000 </r>
       <r>   10.5039    0.0000 </r>
      </set>
      <set comment="kpoint 4">
       <r>    1.4996    1.0000 </r>
       <r>    4.2803    1.0000 </r>
       <r>    6.0791    0.0000 </r>
       <r>    9.6535    0.0000 </r>
       <r>   10.3925    0.0000 </r>
       <r>   12.6431    0.0000 </r>
      </set>
      <set comment="kpoint 5">
       <r>    1.5578    1.0000 </r>
       <r>    4.1222    1.0000 </r>
       <r>    6.9531    0.0000 </r>
       <r>    9.6353    0.0000 </r>
       <r>   10.5779    0.0000 </r>
       <r>   13.7924    0.0000 </r>
      </set>
      <set comment="kpoint 6">
       <r>   -1.9970    1.0000 </r>
       <r>    6.3812    0.0000 </r>
       <r>    6.3812    0.0000 </r>
       <r>    6.5186    0.0000 </r>
       <r>    9.2943    0.0000 </r>
       <r>    9.7928    0.0000 </r>
      </set>
      <set comment="kpoint 7">
       <r>    0.8129    1.0000 </r>
       <r>    4.8425    1.0000 </r>
       <r>    4.9142    1.0000 </r>
       <r>    9.1877    0.0000 </r>
       <r>   10.0732    0.0000 </r>
       <r>   10.4277    0.0000 </r>
      </set>
      <set comment="kpoint 8">
       <r>    1.9807    1.0000 </r>
       <r>    4.3699    1.0000 </r>
       <r>    4.9463    1.0000 </r>
       <r>    9.4888    0.0000 </r>
       <r>   10.4166    0.0000 </r>
       <r>   12.6559    0.0000 </r>
      </set>
      <set comment="kpoint 9">
       <r>    2.2605    1.0000 </r>
       <r>    4.1550    1.0000 </r>
       <r>    5.9103    0.0000 </r>
       <r>    9.7413    0.0000 </r>
       <r>   10.6182    0.0000 </r>
       <r>   14.5117    0.0000 </r>
      </set>
      <set comment="kpoint 10">
       <r>   -1.1803    1.0000 </r>
       <r>    5.9267    0.0000 </r>
       <r>    6.1556    0.0000 </r>
       <r>    7.3325    0.0000 </r>
       <r>    8.6101    0.0000 </r>
       <r>    9.9756    0.0000 </r>
      </set>
      <set comment="kpoint 11">
       <r>    2.9011    1.0000 </r>
       <r>    4.2650    1.0000 </r>
       <r>    4.9816    1.0000 </r>
       <r>    9.8038    0.0000 </r>
       <r>   10.5141    0.0000 </r>
       <r>   14.9408    0.0000 </r>
      </set>
      <set comment="kpoint 12">
       <r>    3.0828    1.0000 </r>
       <r>    4.3487    1.0000 </r>
       <r>    5.2232    1.0000 </r>
       <r>   10.0436    0.0000 </r>
       <r>   10.5582    0.0000 </r>
       <r>   14.3534    0.0000 </r>
      </set>
      <set comment="kpoint 13">
       <r>    0.1418    1.0000 </r>
       <r>    5.2374    1.0000 </r>
       <r>    5.5840    1.0135 </r>
       <r>    8.6336    0.0000 </r>
       <r>    8.9477    0.0000 </r>
       <r>   10.1716    0.0000 </r>
      </set>
      <set comment="kpoint 14">
       <r>   -0.0976    1.0000 </r>
       <r>    5.6021    1.0293 </r>
       <r>    5.6721    0.5528 </r>
       <r>    8.0502    0.0000 </r>
       <r>    8.4531    0.0000 </r>
       <r>   10.3755    0.0000 </r>
      </set>
      <set comment="kpoint 15">
       <r>    1.1810    1.0000 </r>
       <r>    4.6423    1.0000 </r>
       <r>    5.6659    0.6557 </r>
       <r>    9.1663    0.0000 </r>
       <r>   10.3996    0.0000 </r>
       <r>   11.0869    0.0000 </r>
      </set>
      <set comment="kpoint 16">
       <r>    1.2069    1.0000 </r>
       <r>    4.8914    1.0000 </r>
       <r>    5.3225    1.0000 </r>
       <r>    8.3511    0.0000 </r>
       <r>   10.2858    0.0000 </r>
       <r>   10.6762    0.0000 </r>
      </set>
      <set comment="kpoint 17">
       <r>    1.4254    1.0000 </r>
       <r>    4.3100    1.0000 </r>
       <r>    6.6668    0.0000 </r>
       <r>    9.3262    0.0000 </r>
       <r>   10.7685    0.0000 </r>
       <r>   13.0392    0.0000 </r>
      </set>
      <set comment="kpoint 18">
       <r>    1.8651    1.0000 </r>
       <r>    4.5883    1.0000 </r>
       <r>    5.5693    1.0053 </r>
       <r>    8.8907    0.0000 </r>
       <r>   10.7109    0.0000 </r>
       <r>   12.6765    0.0000 </r>
      </set>
      <set comment="kpoint 19">
       <r>    2.3313    1.0000 </r>
       <r>    4.2965    1.0000 </r>
       <r>    5.3278    1.0000 </r>
       <r>    8.6578    0.0000 </r>
       <r>   10.4159    0.0000 </r>
       <r>   12.7471    0.0000 </r>
      </set>
      <set comment="kpoint 20">
       <r>    1.9219    1.0000 </r>
       <r>    4.4865    1.0000 </r>
       <r>    6.0631    0.0000 </r>
       <r>    8.8450    0.0000 </r>
       <r>   11.2178    0.0000 </r>
       <r>   13.9313    0.0000 </r>
      </set>
      <set comment="kpoint 21">
       <r>    2.8029    1.0000 </r>
       <r>    4.3537    1.0000 </r>
       <r>    5.1935    1.0000 </r>
       <r>    9.1274    0.0000 </r>
       <r>   10.6347    0.0000 </r>
       <r>   15.0397    0.0000 </r>
      </set>
      <set comment="kpoint 22">
       <r>    3.4623    1.0000 </r>
       <r>    4.4521    1.0000 </r>
       <r>    4.4521    1.0000 </r>
       <r>   10.0915    0.0000 </r>
       <r>   10.0915    0.0000 </r>
       <r>   14.6456    0.0000 </r>
      </set>
      <set comment="kpoint 23">
       <r>    2.2001    1.0000 </r>
       <r>    4.3572    1.0000 </r>
       <r>    4.3572    1.0000 </r>
       <r>   10.0398    0.0000 </r>
       <r>   10.0398    0.0000 </r>
       <r>   12.7635    0.0000 </r>
      </set>
      <set comment="kpoint 24">
       <r>    3.1097    1.0000 </r>
       <r>    4.1106    1.0000 </r>
       <r>    4.7541    1.0000 </r>
       <r>   10.2066    0.0000 </r>
       <r>   10.5193    0.0000 </r>
       <r>   14.9518    0.0000 </r>
      </set>
      <set comment="kpoint 25">
       <r>    3.1182    1.0000 </r>
       <r>    4.0383    1.0000 </r>
       <r>    5.5760    1.0084 </r>
       <r>   10.2666    0.0000 </r>
       <r>   10.6719    0.0000 </r>
       <r>   14.3391    0.0000 </r>
      </set>
      <set comment="kpoint 26">
       <r>   -0.4027    1.0000 </r>
       <r>    6.3384    0.0000 </r>
       <r>    6.3384    0.0000 </r>
       <r>    7.1503    0.0000 </r>
       <r>    7.3391    0.0000 </r>
       <r>   10.5725    0.0000 </r>
      </set>
      <set comment="kpoint 27">
       <r>    3.7121    1.0000 </r>
       <r>    4.3739    1.0000 </r>
       <r>    4.8017    1.0000 </r>
       <r>   10.5217    0.0000 </r>
       <r>   10.6522    0.0000 </r>
       <r>   13.6287    0.0000 </r>
      </set>
      <set comment="kpoint 28">
       <r>    0.8607    1.0000 </r>
       <r>    5.4893    1.0000 </r>
       <r>    5.9802    0.0000 </r>
       <r>    7.2121    0.0000 </r>
       <r>    8.7010    0.0000 </r>
       <r>   10.7758    0.0000 </r>
      </set>
      <set comment="kpoint 29">
       <r>    1.9071    1.0000 </r>
       <r>    4.8629    1.0000 </r>
       <r>    5.4720    1.0000 </r>
       <r>    8.0165    0.0000 </r>
       <r>   10.8315    0.0000 </r>
       <r>   10.8763    0.0000 </r>
      </set>
      <set comment="kpoint 30">
       <r>    2.0315    1.0000 </r>
       <r>    4.5452    1.0000 </r>
       <r>    6.1143    0.0000 </r>
       <r>    7.4933    0.0000 </r>
       <r>    9.9617    0.0000 </r>
       <r>   10.9361    0.0000 </r>
      </set>
      <set comment="kpoint 31">
       <r>    2.1319    1.0000 </r>
       <r>    5.1732    1.0000 </r>
       <r>    5.2330    1.0000 </r>
       <r>    7.9927    0.0000 </r>
       <r>   11.9698    0.0000 </r>
       <r>   12.8361    0.0000 </r>
      </set>
      <set comment="kpoint 32">
       <r>    2.7390    1.0000 </r>
       <r>    4.1593    1.0000 </r>
       <r>    5.7160    0.0060 </r>
       <r>    8.1286    0.0000 </r>
       <r>   10.7015    0.0000 </r>
       <r>   12.8911    0.0000 </r>
      </set>
      <set comment="kpoint 33">
       <r>    2.7523    1.0000 </r>
       <r>    4.5379    1.0000 </r>
       <r>    5.2686    1.0000 </r>
       <r>    8.1232    0.0000 </r>
       <r>   11.7381    0.0000 </r>
       <r>   14.5464    0.0000 </r>
      </set>
      <set comment="kpoint 34">
       <r>    3.6213    1.0000 </r>
       <r>    3.6851    1.0000 </r>
       <r>    4.9446    1.0000 </r>
       <r>    9.3925    0.0000 </r>
       <r>   10.5627    0.0000 </r>
       <r>   15.3498    0.0000 </r>
      </set>
      <set comment="kpoint 35">
       <r>    4.4430    1.0000 </r>
       <r>    4.4431    1.0000 </r>
       <r>    4.4431    1.0000 </r>
       <r>   10.7314    0.0000 </r>
       <r>   10.7314    0.0000 </r>
       <r>   12.7114    0.0000 </r>
      </set>
      <set comment="kpoint 36">
       <r>    1.9389    1.0000 </r>
       <r>    4.7634    1.0000 </r>
       <r>    6.9284    0.0000 </r>
       <r>    6.9284    0.0000 </r>
       <r>    8.8602    0.0000 </r>
       <r>   10.6708    0.0000 </r>
      </set>
      <set comment="kpoint 37">
       <r>    2.7643    1.0000 </r>
       <r>    3.8323    1.0000 </r>
       <r>    6.9884    0.0000 </r>
       <r>    7.5806    0.0000 </r>
       <r>   10.5252    0.0000 </r>
       <r>   10.8141    0.0000 </r>
      </set>
      <set comment="kpoint 38">
       <r>    2.8020    1.0000 </r>
       <r>    3.7449    1.0000 </r>
       <r>    6.8181    0.0000 </r>
       <r>    7.4636    0.0000 </r>
       <r>   12.5255    0.0000 </r>
       <r>   12.7985    0.0000 </r>
      </set>
      <set comment="kpoint 39">
       <r>    3.0932    1.0000 </r>
       <r>    3.1577    1.0000 </r>
       <r>    6.8298    0.0000 </r>
       <r>    8.8086    0.0000 </r>
       <r>   10.7931    0.0000 </r>
       <r>   12.9064    0.0000 </r>
      </set>
      <set comment="kpoint 40">
       <r>    2.8855    1.0000 </r>
       <r>    3.2098    1.0000 </r>
       <r>    6.5515    0.0000 </r>
       <r>    9.3248    0.0000 </r>
       <r>   11.6395    0.0000 </r>
       <r>   15.2468    0.0000 </r>
      </set>
      <set comment="kpoint 41">
       <r>    2.8707    1.0000 </r>
       <r>    2.9724    1.0000 </r>
       <r>    8.5869    0.0000 </r>
       <r>    8.5869    0.0000 </r>
       <r>   10.7481    0.0000 </r>
       <r>   10.9170    0.0000 </r>
      </set>
      <set comment="kpoint 42">
       <r>    2.4925    1.0000 </r>
       <r>    2.6548    1.0000 </r>
       <r>    9.0509    0.0000 </r>
       <r>    9.0591    0.0000 </r>
       <r>   12.2441    0.0000 </r>
       <r>   13.0413    0.0000 </r>
      </set>
      <set comment="kpoint 43">
       <r>    2.3386    1.0000 </r>
       <r>    2.3386    1.0000 </r>
       <r>    8.9832    0.0000 </r>
       <r>   11.4163    0.0000 </r>
       <r>   11.4163    0.0000 </r>
       <r>   15.5516    0.0000 </r>
      </set>
      <set comment="kpoint 44">
       <r>    2.0366    1.0000 </r>
       <r>    2.0834    1.0000 </r>
       <r>   11.3197    0.0000 </r>
       <r>   11.3197    0.0000 </r>
       <r>   12.2336    0.0000 </r>
       <r>   13.5185    0.0000 </r>
      </set>
     </set>
    </set>
   </array>
  </eigenvalues>
  <separator name="orbital magnetization" >
   <v name="MAGDIPOLOUT">      0.00000000      0.00000000      0.00000000</v>
  </separator>
  <dos>
   <i name="efermi">      5.67523889 </i>
   <total>
    <array>
     <dimension dim="1">gridpoints</dimension>
     <dimension dim="2">spin</dimension>
     <field>energy</field>
     <field>total</field>
     <field>integrated</field>
     <set>
      <set comment="spin 1">
       <r>    -2.8777     0.0000     0.0000 </r>
       <r>    -2.8131     0.0000     0.0000 </r>
       <r>    -2.7485     0.0000     0.0000 </r>
       <r>    -2.6839     0.0000     0.0000 </r>
       <r>    -2.6194     0.0000     0.0000 </r>
       <r>    -2.5548     0.0000     0.0000 </r>
       <r>    -2.4902     0.0000     0.0000 </r>
       <r>    -2.4256     0.0000     0.0000 </r>
       <r>    -2.3610     0.0000     0.0000 </r>
       <r>    -2.2964     0.0000     0.0000 </r>
       <r>    -2.2318     0.0000     0.0000 </r>
       <r>    -2.1673     0.0000     0.0000 </r>
       <r>    -2.1027     0.0000     0.0000 </r>
       <r>    -2.0381    -0.0004     0.0000 </r>
       <r>    -1.9735    -0.0002     0.0000 </r>
       <r>    -1.9089     0.0770     0.0049 </r>
       <r>    -1.8443     0.0182     0.0061 </r>
       <r>    -1.7798    -0.0017     0.0060 </r>
       <r>    -1.7152     0.0000     0.0060 </r>
       <r>    -1.6506     0.0000     0.0060 </r>
       <r>    -1.5860    -0.0037     0.0058 </r>
       <r>    -1.5214     0.0504     0.0090 </r>
       <r>    -1.4568     0.0814     0.0143 </r>
       <r>    -1.3922    -0.0041     0.0140 </r>
       <r>    -1.3277    -0.0002     0.0140 </r>
       <r>    -1.2631     0.0000     0.0140 </r>
       <r>    -1.1985    -0.0069     0.0136 </r>
       <r>    -1.1339     0.0755     0.0184 </r>
       <r>    -1.0693     0.3061     0.0382 </r>
       <r>    -1.0047    -0.0015     0.0381 </r>
       <r>    -0.9402    -0.0016     0.0380 </r>
       <r>    -0.8756     0.0000     0.0380 </r>
       <r>    -0.8110     0.0000     0.0380 </r>
       <r>    -0.7464     0.0000     0.0380 </r>
       <r>    -0.6818     0.0000     0.0380 </r>
       <r>    -0.6172     0.0000     0.0380 </r>
       <r>    -0.5526     0.0000     0.0380 </r>
       <r>    -0.4881    -0.0036     0.0378 </r>
       <r>    -0.4235     0.0250     0.0394 </r>
       <r>    -0.3589     0.3431     0.0615 </r>
       <r>    -0.2943     0.1037     0.0682 </r>
       <r>    -0.2297    -0.0032     0.0680 </r>
       <r>    -0.1651    -0.0007     0.0680 </r>
       <r>    -0.1006    -0.0118     0.0672 </r>
       <r>    -0.0360     0.1686     0.0781 </r>
       <r>     0.0286     0.2281     0.0928 </r>
       <r>     0.0932    -0.0137     0.0920 </r>
       <r>     0.1578    -0.0090     0.0914 </r>
       <r>     0.2224     0.2812     0.1095 </r>
       <r>     0.2870     0.1089     0.1166 </r>
       <r>     0.3515    -0.0089     0.1160 </r>
       <r>     0.4161    -0.0001     0.1160 </r>
       <r>     0.4807     0.0000     0.1160 </r>
       <r>     0.5453     0.0000     0.1160 </r>
       <r>     0.6099     0.0000     0.1160 </r>
       <r>     0.6745     0.0000     0.1160 </r>
       <r>     0.7391    -0.0001     0.1160 </r>
       <r>     0.8036    -0.0108     0.1153 </r>
       <r>     0.8682     0.1036     0.1220 </r>
       <r>     0.9328     0.6922     0.1667 </r>
       <r>     0.9974     0.3552     0.1896 </r>
       <r>     1.0620    -0.0248     0.1880 </r>
       <r>     1.1266    -0.0013     0.1879 </r>
       <r>     1.1911    -0.0277     0.1862 </r>
       <r>     1.2557     0.4467     0.2150 </r>
       <r>     1.3203     0.7222     0.2617 </r>
       <r>     1.3849    -0.0253     0.2600 </r>
       <r>     1.4495     0.0024     0.2602 </r>
       <r>     1.5141     0.3086     0.2801 </r>
       <r>     1.5787     0.3366     0.3019 </r>
       <r>     1.6432     0.2579     0.3185 </r>
       <r>     1.7078     0.0265     0.3202 </r>
       <r>     1.7724    -0.0034     0.3200 </r>
       <r>     1.8370    -0.0097     0.3194 </r>
       <r>     1.9016     0.0655     0.3236 </r>
       <r>     1.9662     0.8874     0.3809 </r>
       <r>     2.0307     0.8199     0.4339 </r>
       <r>     2.0953     0.8228     0.4870 </r>
       <r>     2.1599     0.3177     0.5075 </r>
       <r>     2.2245     0.3178     0.5281 </r>
       <r>     2.2891     0.1609     0.5384 </r>
       <r>     2.3537     0.6765     0.5821 </r>
       <r>     2.4183     0.6012     0.6210 </r>
       <r>     2.4828     0.0744     0.6258 </r>
       <r>     2.5474     0.2081     0.6392 </r>
       <r>     2.6120     0.1755     0.6505 </r>
       <r>     2.6766     0.0185     0.6517 </r>
       <r>     2.7412     0.2799     0.6698 </r>
       <r>     2.8058     0.7135     0.7159 </r>
       <r>     2.8703     1.5409     0.8154 </r>
       <r>     2.9349     0.6949     0.8603 </r>
       <r>     2.9995     0.5594     0.8964 </r>
       <r>     3.0641     0.0738     0.9012 </r>
       <r>     3.1287     0.1349     0.9099 </r>
       <r>     3.1933     1.1257     0.9826 </r>
       <r>     3.2579     0.6064     1.0218 </r>
       <r>     3.3224     0.2039     1.0349 </r>
       <r>     3.3870    -0.0140     1.0340 </r>
       <r>     3.4516    -0.0035     1.0338 </r>
       <r>     3.5162     0.0372     1.0362 </r>
       <r>     3.5808     0.0898     1.0420 </r>
       <r>     3.6454     0.0133     1.0429 </r>
       <r>     3.7099     0.3465     1.0652 </r>
       <r>     3.7745     0.5935     1.1036 </r>
       <r>     3.8391     0.5445     1.1387 </r>
       <r>     3.9037     0.2928     1.1576 </r>
       <r>     3.9683     0.0744     1.1624 </r>
       <r>     4.0329    -0.0127     1.1616 </r>
       <r>     4.0975     0.0630     1.1657 </r>
       <r>     4.1620     0.2092     1.1792 </r>
       <r>     4.2266     1.4514     1.2730 </r>
       <r>     4.2912     0.5373     1.3077 </r>
       <r>     4.3558     0.7433     1.3557 </r>
       <r>     4.4204     1.8411     1.4746 </r>
       <r>     4.4850     1.4599     1.5688 </r>
       <r>     4.5495     0.3904     1.5941 </r>
       <r>     4.6141     0.8293     1.6476 </r>
       <r>     4.6787     0.8224     1.7007 </r>
       <r>     4.7433     0.3901     1.7259 </r>
       <r>     4.8079     0.4344     1.7540 </r>
       <r>     4.8725     0.6850     1.7982 </r>
       <r>     4.9371     0.9342     1.8586 </r>
       <r>     5.0016     1.4307     1.9510 </r>
       <r>     5.0662     1.0795     2.0207 </r>
       <r>     5.1308     0.0259     2.0224 </r>
       <r>     5.1954    -0.0466     2.0194 </r>
       <r>     5.2600     0.8732     2.0758 </r>
       <r>     5.3246     1.5867     2.1782 </r>
       <r>     5.3891     1.1490     2.2524 </r>
       <r>     5.4537     0.7288     2.2995 </r>
       <r>     5.5183     0.2890     2.3182 </r>
       <r>     5.5829     0.5670     2.3548 </r>
       <r>     5.6475     1.3028     2.4389 </r>
       <r>     5.7121     0.9679     2.5014 </r>
       <r>     5.7767     0.9071     2.5600 </r>
       <r>     5.8412     0.4312     2.5879 </r>
       <r>     5.9058    -0.0601     2.5840 </r>
       <r>     5.9704     0.4327     2.6119 </r>
       <r>     6.0350     0.8459     2.6666 </r>
       <r>     6.0996     0.3353     2.6882 </r>
       <r>     6.1642     0.9199     2.7476 </r>
       <r>     6.2287     0.6038     2.7866 </r>
       <r>     6.2933     0.1252     2.7947 </r>
       <r>     6.3579    -0.0167     2.7936 </r>
       <r>     6.4225     0.1773     2.8051 </r>
       <r>     6.4871     0.2005     2.8180 </r>
       <r>     6.5517    -0.0072     2.8176 </r>
       <r>     6.6163     0.2743     2.8353 </r>
       <r>     6.6808     0.2055     2.8486 </r>
       <r>     6.7454     0.2871     2.8671 </r>
       <r>     6.8100     0.0648     2.8713 </r>
       <r>     6.8746     0.2191     2.8854 </r>
       <r>     6.9392     0.5401     2.9203 </r>
       <r>     7.0038     0.1707     2.9314 </r>
       <r>     7.0684     0.4838     2.9626 </r>
       <r>     7.1329     0.0887     2.9683 </r>
       <r>     7.1975     0.0306     2.9703 </r>
       <r>     7.2621     0.2954     2.9894 </r>
       <r>     7.3267     0.2583     3.0061 </r>
       <r>     7.3913     0.1755     3.0174 </r>
       <r>     7.4559     0.2881     3.0360 </r>
       <r>     7.5204     0.1782     3.0475 </r>
       <r>     7.5850     0.5402     3.0824 </r>
       <r>     7.6496     0.2586     3.0991 </r>
       <r>     7.7142     0.1490     3.1087 </r>
       <r>     7.7788    -0.0112     3.1080 </r>
       <r>     7.8434    -0.0001     3.1080 </r>
       <r>     7.9080    -0.0001     3.1080 </r>
       <r>     7.9725    -0.0134     3.1071 </r>
       <r>     8.0371     0.1356     3.1159 </r>
       <r>     8.1017     0.7758     3.1660 </r>
       <r>     8.1663     0.4651     3.1960 </r>
       <r>     8.2309     0.8814     3.2529 </r>
       <r>     8.2955    -0.0137     3.2521 </r>
       <r>     8.3600    -0.0056     3.2517 </r>
       <r>     8.4246     0.6115     3.2912 </r>
       <r>     8.4892     0.1873     3.3033 </r>
       <r>     8.5538     0.3140     3.3236 </r>
       <r>     8.6184     0.3458     3.3459 </r>
       <r>     8.6830     0.7672     3.3955 </r>
       <r>     8.7476     0.6627     3.4383 </r>
       <r>     8.8121     0.2648     3.4554 </r>
       <r>     8.8767     0.2834     3.4737 </r>
       <r>     8.9413     0.8998     3.5318 </r>
       <r>     9.0059     0.5932     3.5701 </r>
       <r>     9.0705     0.2828     3.5884 </r>
       <r>     9.1351     0.6395     3.6297 </r>
       <r>     9.1996     1.2145     3.7081 </r>
       <r>     9.2642     0.7620     3.7573 </r>
       <r>     9.3288     0.0252     3.7589 </r>
       <r>     9.3934     0.8611     3.8145 </r>
       <r>     9.4580     0.6416     3.8560 </r>
       <r>     9.5226     0.5383     3.8907 </r>
       <r>     9.5872     0.5330     3.9252 </r>
       <r>     9.6517    -0.0176     3.9240 </r>
       <r>     9.7163     0.4826     3.9552 </r>
       <r>     9.7809     0.7207     4.0017 </r>
       <r>     9.8455     0.7172     4.0481 </r>
       <r>     9.9101     0.2285     4.0628 </r>
       <r>     9.9747    -0.0186     4.0616 </r>
       <r>    10.0392     0.6401     4.1030 </r>
       <r>    10.1038     1.0769     4.1725 </r>
       <r>    10.1684     0.6283     4.2131 </r>
       <r>    10.2330     0.4042     4.2392 </r>
       <r>    10.2976     0.4154     4.2660 </r>
       <r>    10.3622     0.6940     4.3108 </r>
       <r>    10.4268     0.7547     4.3596 </r>
       <r>    10.4913     1.7652     4.4736 </r>
       <r>    10.5559     0.9069     4.5322 </r>
       <r>    10.6205     1.8621     4.6524 </r>
       <r>    10.6851     1.5785     4.7544 </r>
       <r>    10.7497     2.2049     4.8968 </r>
       <r>    10.8143     1.4992     4.9936 </r>
       <r>    10.8788     1.0635     5.0623 </r>
       <r>    10.9434     0.7366     5.1099 </r>
       <r>    11.0080     0.4399     5.1383 </r>
       <r>    11.0726     0.0540     5.1418 </r>
       <r>    11.1372     0.1406     5.1508 </r>
       <r>    11.2018     0.2344     5.1660 </r>
       <r>    11.2664     0.1963     5.1786 </r>
       <r>    11.3309     0.1848     5.1906 </r>
       <r>    11.3955     0.1283     5.1989 </r>
       <r>    11.4601     0.1175     5.2065 </r>
       <r>    11.5247     0.1849     5.2184 </r>
       <r>    11.5893    -0.0073     5.2179 </r>
       <r>    11.6539    -0.0003     5.2179 </r>
       <r>    11.7184     0.2999     5.2373 </r>
       <r>    11.7830     0.2073     5.2507 </r>
       <r>    11.8476     0.2497     5.2668 </r>
       <r>    11.9122    -0.0131     5.2659 </r>
       <r>    11.9768    -0.0032     5.2657 </r>
       <r>    12.0414     0.3039     5.2854 </r>
       <r>    12.1060     0.0789     5.2905 </r>
       <r>    12.1705    -0.0077     5.2900 </r>
       <r>    12.2351    -0.0152     5.2890 </r>
       <r>    12.2997     0.2824     5.3072 </r>
       <r>    12.3643     0.2127     5.3210 </r>
       <r>    12.4289    -0.0147     5.3200 </r>
       <r>    12.4935    -0.0072     5.3196 </r>
       <r>    12.5581     0.0760     5.3245 </r>
       <r>    12.6226     0.2813     5.3426 </r>
       <r>    12.6872     0.2344     5.3578 </r>
       <r>    12.7518     1.5046     5.4549 </r>
       <r>    12.8164     0.5037     5.4875 </r>
       <r>    12.8810     0.5926     5.5257 </r>
       <r>    12.9456     0.7826     5.5763 </r>
       <r>    13.0101     0.6662     5.6193 </r>
       <r>    13.0747     0.0912     5.6252 </r>
       <r>    13.1393     0.6145     5.6649 </r>
       <r>    13.2039     0.0222     5.6663 </r>
       <r>    13.2685    -0.0050     5.6660 </r>
       <r>    13.3331     0.0000     5.6660 </r>
       <r>    13.3977     0.0000     5.6660 </r>
       <r>    13.4622    -0.0001     5.6660 </r>
       <r>    13.5268    -0.0032     5.6658 </r>
       <r>    13.5914     0.0501     5.6690 </r>
       <r>    13.6560     0.0458     5.6720 </r>
       <r>    13.7206     0.3021     5.6915 </r>
       <r>    13.7852     0.0704     5.6960 </r>
       <r>    13.8497     0.1148     5.7035 </r>
       <r>    13.9143     0.0635     5.7076 </r>
       <r>    13.9789     0.1780     5.7190 </r>
       <r>    14.0435     0.2137     5.7328 </r>
       <r>    14.1081    -0.0128     5.7320 </r>
       <r>    14.1727    -0.0004     5.7320 </r>
       <r>    14.2373     0.0000     5.7320 </r>
       <r>    14.3018    -0.0016     5.7319 </r>
       <r>    14.3664    -0.0102     5.7312 </r>
       <r>    14.4310     0.4123     5.7579 </r>
       <r>    14.4956     0.1435     5.7671 </r>
       <r>    14.5602     0.3527     5.7899 </r>
       <r>    14.6248     0.7526     5.8385 </r>
       <r>    14.6893     0.0488     5.8417 </r>
       <r>    14.7539     0.0980     5.8480 </r>
       <r>    14.8185     0.0006     5.8480 </r>
       <r>    14.8831    -0.0027     5.8479 </r>
       <r>    14.9477    -0.0158     5.8469 </r>
       <r>    15.0123     0.5283     5.8810 </r>
       <r>    15.0769     0.4631     5.9109 </r>
       <r>    15.1414     0.5337     5.9453 </r>
       <r>    15.2060    -0.0217     5.9439 </r>
       <r>    15.2706     0.0118     5.9447 </r>
       <r>    15.3352     0.3122     5.9649 </r>
       <r>    15.3998     0.2088     5.9784 </r>
       <r>    15.4644     0.2244     5.9928 </r>
       <r>    15.5289    -0.0147     5.9919 </r>
       <r>    15.5935     0.0197     5.9932 </r>
       <r>    15.6581     0.1051     6.0000 </r>
       <r>    15.7227     0.0012     6.0000 </r>
       <r>    15.7873    -0.0007     6.0000 </r>
       <r>    15.8519     0.0000     6.0000 </r>
       <r>    15.9165     0.0000     6.0000 </r>
       <r>    15.9810     0.0000     6.0000 </r>
       <r>    16.0456     0.0000     6.0000 </r>
       <r>    16.1102     0.0000     6.0000 </r>
       <r>    16.1748     0.0000     6.0000 </r>
       <r>    16.2394     0.0000     6.0000 </r>
       <r>    16.3040     0.0000     6.0000 </r>
       <r>    16.3685     0.0000     6.0000 </r>
       <r>    16.4331     0.0000     6.0000 </r>
       <r>    16.4977     0.0000     6.0000 </r>
      </set>
      <set comment="spin 2">
       <r>    -2.8777     0.0000     0.0000 </r>
       <r>    -2.8131     0.0000     0.0000 </r>
       <r>    -2.7485     0.0000     0.0000 </r>
       <r>    -2.6839     0.0000     0.0000 </r>
       <r>    -2.6194     0.0000     0.0000 </r>
       <r>    -2.5548     0.0000     0.0000 </r>
       <r>    -2.4902     0.0000     0.0000 </r>
       <r>    -2.4256     0.0000     0.0000 </r>
       <r>    -2.3610     0.0000     0.0000 </r>
       <r>    -2.2964     0.0000     0.0000 </r>
       <r>    -2.2318     0.0000     0.0000 </r>
       <r>    -2.1673     0.0000     0.0000 </r>
       <r>    -2.1027    -0.0005     0.0000 </r>
       <r>    -2.0381     0.0009     0.0000 </r>
       <r>    -1.9735     0.0788     0.0051 </r>
       <r>    -1.9089     0.0151     0.0061 </r>
       <r>    -1.8443    -0.0015     0.0060 </r>
       <r>    -1.7798     0.0000     0.0060 </r>
       <r>    -1.7152    -0.0001     0.0060 </r>
       <r>    -1.6506    -0.0039     0.0057 </r>
       <r>    -1.5860     0.0556     0.0093 </r>
       <r>    -1.5214     0.0766     0.0143 </r>
       <r>    -1.4568    -0.0042     0.0140 </r>
       <r>    -1.3922    -0.0002     0.0140 </r>
       <r>    -1.3277     0.0000     0.0140 </r>
       <r>    -1.2631    -0.0076     0.0135 </r>
       <r>    -1.1985     0.0870     0.0191 </r>
       <r>    -1.1339     0.2982     0.0384 </r>
       <r>    -1.0693    -0.0046     0.0381 </r>
       <r>    -1.0047    -0.0014     0.0380 </r>
       <r>    -0.9402     0.0000     0.0380 </r>
       <r>    -0.8756     0.0000     0.0380 </r>
       <r>    -0.8110     0.0000     0.0380 </r>
       <r>    -0.7464     0.0000     0.0380 </r>
       <r>    -0.6818     0.0000     0.0380 </r>
       <r>    -0.6172     0.0000     0.0380 </r>
       <r>    -0.5526    -0.0041     0.0377 </r>
       <r>    -0.4881     0.0318     0.0398 </r>
       <r>    -0.4235     0.3444     0.0620 </r>
       <r>    -0.3589     0.0963     0.0682 </r>
       <r>    -0.2943    -0.0034     0.0680 </r>
       <r>    -0.2297    -0.0006     0.0680 </r>
       <r>    -0.1651    -0.0122     0.0672 </r>
       <r>    -0.1006     0.1795     0.0788 </r>
       <r>    -0.0360     0.2177     0.0929 </r>
       <r>     0.0286    -0.0139     0.0920 </r>
       <r>     0.0932    -0.0074     0.0915 </r>
       <r>     0.1578     0.2890     0.1101 </r>
       <r>     0.2224     0.0992     0.1165 </r>
       <r>     0.2870    -0.0083     0.1160 </r>
       <r>     0.3515    -0.0001     0.1160 </r>
       <r>     0.4161     0.0000     0.1160 </r>
       <r>     0.4807     0.0000     0.1160 </r>
       <r>     0.5453     0.0000     0.1160 </r>
       <r>     0.6099     0.0000     0.1160 </r>
       <r>     0.6745    -0.0001     0.1160 </r>
       <r>     0.7391    -0.0114     0.1153 </r>
       <r>     0.8036     0.1143     0.1226 </r>
       <r>     0.8682     0.6957     0.1676 </r>
       <r>     0.9328     0.3411     0.1896 </r>
       <r>     0.9974    -0.0244     0.1880 </r>
       <r>     1.0620    -0.0013     0.1879 </r>
       <r>     1.1266    -0.0280     0.1861 </r>
       <r>     1.1911     0.4612     0.2159 </r>
       <r>     1.2557     0.7096     0.2618 </r>
       <r>     1.3203    -0.0269     0.2600 </r>
       <r>     1.3849     0.0014     0.2601 </r>
       <r>     1.4495     0.3075     0.2800 </r>
       <r>     1.5141     0.3399     0.3019 </r>
       <r>     1.5787     0.2557     0.3184 </r>
       <r>     1.6432     0.0277     0.3202 </r>
       <r>     1.7078    -0.0035     0.3200 </r>
       <r>     1.7724    -0.0094     0.3194 </r>
       <r>     1.8370     0.0622     0.3234 </r>
       <r>     1.9016     0.8727     0.3798 </r>
       <r>     1.9662     0.8466     0.4344 </r>
       <r>     2.0307     0.7854     0.4852 </r>
       <r>     2.0953     0.3229     0.5060 </r>
       <r>     2.1599     0.3328     0.5275 </r>
       <r>     2.2245     0.1724     0.5387 </r>
       <r>     2.2891     0.6599     0.5813 </r>
       <r>     2.3537     0.5784     0.6186 </r>
       <r>     2.4183     0.1157     0.6261 </r>
       <r>     2.4828     0.1245     0.6341 </r>
       <r>     2.5474     0.2558     0.6507 </r>
       <r>     2.6120    -0.0115     0.6499 </r>
       <r>     2.6766     0.2673     0.6672 </r>
       <r>     2.7412     0.6457     0.7089 </r>
       <r>     2.8058     1.5831     0.8111 </r>
       <r>     2.8703     0.6857     0.8554 </r>
       <r>     2.9349     0.6252     0.8958 </r>
       <r>     2.9995     0.0768     0.9008 </r>
       <r>     3.0641     0.1147     0.9082 </r>
       <r>     3.1287     1.0855     0.9783 </r>
       <r>     3.1933     0.5824     1.0159 </r>
       <r>     3.2579     0.2912     1.0347 </r>
       <r>     3.3224    -0.0095     1.0341 </r>
       <r>     3.3870    -0.0046     1.0338 </r>
       <r>     3.4516     0.0435     1.0366 </r>
       <r>     3.5162     0.0856     1.0421 </r>
       <r>     3.5808    -0.0012     1.0420 </r>
       <r>     3.6454     0.3077     1.0619 </r>
       <r>     3.7099     0.5785     1.0993 </r>
       <r>     3.7745     0.5744     1.1364 </r>
       <r>     3.8391     0.2582     1.1530 </r>
       <r>     3.9037     0.1500     1.1627 </r>
       <r>     3.9683    -0.0172     1.1616 </r>
       <r>     4.0329     0.0676     1.1660 </r>
       <r>     4.0975     0.2096     1.1795 </r>
       <r>     4.1620     1.3422     1.2662 </r>
       <r>     4.2266     0.6401     1.3076 </r>
       <r>     4.2912     0.7135     1.3536 </r>
       <r>     4.3558     1.8060     1.4703 </r>
       <r>     4.4204     1.5096     1.5678 </r>
       <r>     4.4850     0.3887     1.5929 </r>
       <r>     4.5495     0.7274     1.6399 </r>
       <r>     4.6141     0.9603     1.7019 </r>
       <r>     4.6787     0.3808     1.7265 </r>
       <r>     4.7433     0.4104     1.7530 </r>
       <r>     4.8079     0.6822     1.7970 </r>
       <r>     4.8725     0.8554     1.8523 </r>
       <r>     4.9371     1.5014     1.9493 </r>
       <r>     5.0016     1.1026     2.0205 </r>
       <r>     5.0662     0.0302     2.0224 </r>
       <r>     5.1308    -0.0425     2.0197 </r>
       <r>     5.1954     0.7668     2.0692 </r>
       <r>     5.2600     1.6391     2.1750 </r>
       <r>     5.3246     1.1916     2.2520 </r>
       <r>     5.3891     0.7468     2.3002 </r>
       <r>     5.4537     0.2540     2.3166 </r>
       <r>     5.5183     0.5551     2.3525 </r>
       <r>     5.5829     1.2326     2.4321 </r>
       <r>     5.6475     1.0525     2.5001 </r>
       <r>     5.7121     0.9131     2.5590 </r>
       <r>     5.7767     0.4468     2.5879 </r>
       <r>     5.8412    -0.0596     2.5841 </r>
       <r>     5.9058     0.4016     2.6100 </r>
       <r>     5.9704     0.8879     2.6673 </r>
       <r>     6.0350     0.2918     2.6862 </r>
       <r>     6.0996     0.9263     2.7460 </r>
       <r>     6.1642     0.6310     2.7868 </r>
       <r>     6.2287     0.1231     2.7947 </r>
       <r>     6.2933    -0.0162     2.7937 </r>
       <r>     6.3579     0.1822     2.8054 </r>
       <r>     6.4225     0.1961     2.8181 </r>
       <r>     6.4871    -0.0074     2.8176 </r>
       <r>     6.5517     0.2795     2.8357 </r>
       <r>     6.6163     0.1949     2.8483 </r>
       <r>     6.6808     0.2666     2.8655 </r>
       <r>     6.7454     0.0919     2.8714 </r>
       <r>     6.8100     0.2158     2.8853 </r>
       <r>     6.8746     0.5416     2.9203 </r>
       <r>     6.9392     0.1651     2.9310 </r>
       <r>     7.0038     0.4887     2.9626 </r>
       <r>     7.0684     0.0909     2.9684 </r>
       <r>     7.1329     0.0039     2.9687 </r>
       <r>     7.1975     0.2814     2.9869 </r>
       <r>     7.2621     0.2945     3.0059 </r>
       <r>     7.3267     0.1802     3.0175 </r>
       <r>     7.3913     0.2883     3.0361 </r>
       <r>     7.4559     0.1446     3.0455 </r>
       <r>     7.5204     0.5561     3.0814 </r>
       <r>     7.5850     0.2596     3.0981 </r>
       <r>     7.6496     0.1646     3.1088 </r>
       <r>     7.7142    -0.0119     3.1080 </r>
       <r>     7.7788    -0.0002     3.1080 </r>
       <r>     7.8434     0.0000     3.1080 </r>
       <r>     7.9080    -0.0087     3.1074 </r>
       <r>     7.9725     0.0663     3.1117 </r>
       <r>     8.0371     0.7117     3.1577 </r>
       <r>     8.1017     0.5091     3.1906 </r>
       <r>     8.1663     0.9367     3.2511 </r>
       <r>     8.2309     0.0201     3.2524 </r>
       <r>     8.2955    -0.0303     3.2504 </r>
       <r>     8.3600     0.5022     3.2828 </r>
       <r>     8.4246     0.3200     3.3035 </r>
       <r>     8.4892     0.3069     3.3233 </r>
       <r>     8.5538     0.3218     3.3441 </r>
       <r>     8.6184     0.5686     3.3808 </r>
       <r>     8.6830     0.8463     3.4355 </r>
       <r>     8.7476     0.3132     3.4557 </r>
       <r>     8.8121     0.2141     3.4695 </r>
       <r>     8.8767     0.7840     3.5202 </r>
       <r>     8.9413     0.7550     3.5689 </r>
       <r>     9.0059     0.3031     3.5885 </r>
       <r>     9.0705     0.5497     3.6240 </r>
       <r>     9.1351     1.0272     3.6904 </r>
       <r>     9.1996     0.9420     3.7512 </r>
       <r>     9.2642     0.0870     3.7568 </r>
       <r>     9.3288     0.6794     3.8007 </r>
       <r>     9.3934     0.7746     3.8507 </r>
       <r>     9.4580     0.4328     3.8787 </r>
       <r>     9.5226     0.6684     3.9218 </r>
       <r>     9.5872     0.0223     3.9233 </r>
       <r>     9.6517     0.3099     3.9433 </r>
       <r>     9.7163     0.6514     3.9854 </r>
       <r>     9.7809     0.8074     4.0375 </r>
       <r>     9.8455     0.3849     4.0624 </r>
       <r>     9.9101    -0.0279     4.0606 </r>
       <r>     9.9747     0.4311     4.0884 </r>
       <r>    10.0392     0.9052     4.1469 </r>
       <r>    10.1038     0.9552     4.2086 </r>
       <r>    10.1684     0.2652     4.2257 </r>
       <r>    10.2330     0.5200     4.2593 </r>
       <r>    10.2976     0.7178     4.3056 </r>
       <r>    10.3622     0.3696     4.3295 </r>
       <r>    10.4268     1.8529     4.4492 </r>
       <r>    10.4913     0.9054     4.5076 </r>
       <r>    10.5559     1.8581     4.6277 </r>
       <r>    10.6205     1.3557     4.7152 </r>
       <r>    10.6851     2.2077     4.8578 </r>
       <r>    10.7497     1.7836     4.9730 </r>
       <r>    10.8143     1.2393     5.0530 </r>
       <r>    10.8788     0.7628     5.1023 </r>
       <r>    10.9434     0.4779     5.1332 </r>
       <r>    11.0080     0.1406     5.1422 </r>
       <r>    11.0726     0.0962     5.1485 </r>
       <r>    11.1372     0.2728     5.1661 </r>
       <r>    11.2018     0.0900     5.1719 </r>
       <r>    11.2664     0.2828     5.1902 </r>
       <r>    11.3309     0.1216     5.1980 </r>
       <r>    11.3955     0.1112     5.2052 </r>
       <r>    11.4601     0.2001     5.2181 </r>
       <r>    11.5247    -0.0017     5.2180 </r>
       <r>    11.5893    -0.0097     5.2174 </r>
       <r>    11.6539     0.2744     5.2351 </r>
       <r>    11.7184     0.1881     5.2473 </r>
       <r>    11.7830     0.2946     5.2663 </r>
       <r>    11.8476    -0.0033     5.2661 </r>
       <r>    11.9122    -0.0138     5.2652 </r>
       <r>    11.9768     0.2421     5.2808 </r>
       <r>    12.0414     0.1537     5.2907 </r>
       <r>    12.1060    -0.0114     5.2900 </r>
       <r>    12.1705    -0.0140     5.2891 </r>
       <r>    12.2351     0.1929     5.3016 </r>
       <r>    12.2997     0.3011     5.3210 </r>
       <r>    12.3643    -0.0148     5.3200 </r>
       <r>    12.4289    -0.0044     5.3198 </r>
       <r>    12.4935     0.0269     5.3215 </r>
       <r>    12.5581     0.3115     5.3416 </r>
       <r>    12.6226     0.1238     5.3496 </r>
       <r>    12.6872     1.4698     5.4445 </r>
       <r>    12.7518     0.6016     5.4834 </r>
       <r>    12.8164     0.5790     5.5208 </r>
       <r>    12.8810     0.6963     5.5658 </r>
       <r>    12.9456     0.8209     5.6188 </r>
       <r>    13.0101     0.0509     5.6221 </r>
       <r>    13.0747     0.6478     5.6639 </r>
       <r>    13.1393     0.0389     5.6664 </r>
       <r>    13.2039    -0.0063     5.6660 </r>
       <r>    13.2685     0.0000     5.6660 </r>
       <r>    13.3331     0.0000     5.6660 </r>
       <r>    13.3977    -0.0002     5.6660 </r>
       <r>    13.4622    -0.0030     5.6658 </r>
       <r>    13.5268     0.0599     5.6697 </r>
       <r>    13.5914     0.0483     5.6728 </r>
       <r>    13.6560     0.3202     5.6935 </r>
       <r>    13.7206     0.0384     5.6959 </r>
       <r>    13.7852     0.0713     5.7006 </r>
       <r>    13.8497     0.1137     5.7079 </r>
       <r>    13.9143     0.0875     5.7135 </r>
       <r>    13.9789     0.2930     5.7325 </r>
       <r>    14.0435    -0.0060     5.7321 </r>
       <r>    14.1081    -0.0012     5.7320 </r>
       <r>    14.1727     0.0000     5.7320 </r>
       <r>    14.2373    -0.0022     5.7319 </r>
       <r>    14.3018    -0.0035     5.7316 </r>
       <r>    14.3664     0.4365     5.7598 </r>
       <r>    14.4310     0.1208     5.7676 </r>
       <r>    14.4956     0.1764     5.7790 </r>
       <r>    14.5602     0.8553     5.8343 </r>
       <r>    14.6248     0.1225     5.8422 </r>
       <r>    14.6893     0.0911     5.8481 </r>
       <r>    14.7539    -0.0004     5.8480 </r>
       <r>    14.8185    -0.0013     5.8480 </r>
       <r>    14.8831    -0.0243     5.8464 </r>
       <r>    14.9477     0.4043     5.8725 </r>
       <r>    15.0123     0.4663     5.9026 </r>
       <r>    15.0769     0.6223     5.9428 </r>
       <r>    15.1414     0.0218     5.9442 </r>
       <r>    15.2060    -0.0011     5.9441 </r>
       <r>    15.2706     0.3072     5.9640 </r>
       <r>    15.3352     0.1664     5.9747 </r>
       <r>    15.3998     0.2768     5.9926 </r>
       <r>    15.4644    -0.0104     5.9919 </r>
       <r>    15.5289     0.0204     5.9933 </r>
       <r>    15.5935     0.1044     6.0000 </r>
       <r>    15.6581     0.0007     6.0000 </r>
       <r>    15.7227    -0.0006     6.0000 </r>
       <r>    15.7873     0.0000     6.0000 </r>
       <r>    15.8519     0.0000     6.0000 </r>
       <r>    15.9165     0.0000     6.0000 </r>
       <r>    15.9810     0.0000     6.0000 </r>
       <r>    16.0456     0.0000     6.0000 </r>
       <r>    16.1102     0.0000     6.0000 </r>
       <r>    16.1748     0.0000     6.0000 </r>
       <r>    16.2394     0.0000     6.0000 </r>
       <r>    16.3040     0.0000     6.0000 </r>
       <r>    16.3685     0.0000     6.0000 </r>
       <r>    16.4331     0.0000     6.0000 </r>
       <r>    16.4977     0.0000     6.0000 </r>
      </set>
     </set>
    </array>
   </total>
   <partial>
    <array>
     <dimension dim="1">gridpoints</dimension>
     <dimension dim="2">spin</dimension>
     <dimension dim="3">ion</dimension>
     <field>energy</field>
     <field>  s</field>
     <field> py</field>
     <field> pz</field>
     <field> px</field>
     <field>dxy</field>
     <field>dyz</field>
     <field>dz2</field>
     <field>dxz</field>
     <field>dx2</field>
     <set>
      <set comment="ion 1">
       <set comment="spin 1">
        <r>    -2.8777     0.0000     0.0000     0.0000     0.0000     0.0000     0.0000     0.0000     0.0000     0.0000 </r>
        <r>    -2.8131     0.0000     0.0000     0.0000     0.0000     0.0000     0.0000     0.0000     0.0000     0.0000 </r>
        <r>    -2.7485     0.0000     0.0000     0.0000     0.0000     0.0000     0.0000     0.0000     0.0000     0.0000 </r>
        <r>    -2.6839     0.0000     0.0000     0.0000     0.0000     0.0000     0.0000     0.0000     0.0000     0.0000 </r>
        <r>    -2.6194     0.0000     0.0000     0.0000     0.0000     0.0000     0.0000     0.0000     0.0000     0.0000 </r>
        <r>    -2.5548     0.0000     0.0000     0.0000     0.0000     0.0000     0.0000     0.0000     0.0000     0.0000 </r>
        <r>    -2.4902     0.0000     0.0000     0.0000     0.0000     0.0000     0.0000     0.0000     0.0000     0.0000 </r>
        <r>    -2.4256     0.0000     0.0000     0.0000     0.0000     0.0000     0.0000     0.0000     0.0000     0.0000 </r>
        <r>    -2.3610     0.0000     0.0000     0.0000     0.0000     0.0000     0.0000     0.0000     0.0000     0.0000 </r>
        <r>    -2.2964     0.0000     0.0000     0.0000     0.0000     0.0000     0.0000     0.0000     0.0000     0.0000 </r>
        <r>    -2.2318     0.0000     0.0000     0.0000     0.0000     0.0000     0.0000     0.0000     0.0000     0.0000 </r>
        <r>    -2.1673     0.0000     0.0000     0.0000     0.0000     0.0000     0.0000     0.0000     0.0000     0.0000 </r>
        <r>    -2.1027     0.0000     0.0000     0.0000     0.0000     0.0000     0.0000     0.0000     0.0000     0.0000 </r>
        <r>    -2.0381    -0.0004     0.0000     0.0000     0.0000     0.0000     0.0000     0.0000     0.0000     0.0000 </r>
        <r>    -1.9735    -0.0001     0.0000     0.0000     0.0000     0.0000     0.0000     0.0000     0.0000     0.0000 </r>
        <r>    -1.9089     0.0647     0.0002     0.0006     0.0004     0.0000     0.0000     0.0000     0.0000     0.0000 </r>
        <r>    -1.8443     0.0153     0.0001     0.0002     0.0001     0.0000     0.0000     0.0000     0.0000     0.0000 </r>
        <r>    -1.7798    -0.0014     0.0000     0.0000     0.0000     0.0000     0.0000     0.0000     0.0000     0.0000 </r>
        <r>    -1.7152     0.0000     0.0000     0.0000     0.0000     0.0000     0.0000     0.0000     0.0000     0.0000 </r>
        <r>    -1.6506     0.0000     0.0000     0.0000     0.0000     0.0000     0.0000     0.0000     0.0000     0.0000 </r>
        <r>    -1.5860    -0.0030     0.0000    -0.0001     0.0000     0.0000     0.0000     0.0000     0.0000     0.0000 </r>
[...]
       </set>
       <set comment="band 2">
        <r>  0.0000  0.0957  0.0000  0.1914  0.0238  0.1381  0.0000  0.2762  0.1901 </r>
       </set>
       <set comment="band 3">
        <r>  0.0000  0.1276  0.0957  0.0638  0.4949  0.0475  0.0000  0.0238  0.0619 </r>
       </set>
       <set comment="band 4">
        <r>  0.0000  0.0377  0.0283  0.0188  0.0777  0.0986  0.6379  0.0493  0.0097 </r>
       </set>
       <set comment="band 5">
        <r>  0.0000  0.0283  0.0000  0.0565  0.0493  0.1432  0.0000  0.2863  0.3944 </r>
       </set>
       <set comment="band 6">
        <r>  0.6122  0.0132  0.0396  0.0066  0.0157  0.0944  0.0531  0.0472  0.0020 </r>
       </set>
      </set>
      <set comment="kpoint 23">
       <set comment="band 1">
        <r>  0.5014  0.0583  0.1749  0.0292  0.0123  0.0738  0.0415  0.0369  0.0015 </r>
       </set>
       <set comment="band 2">
        <r>  0.0000  0.0675  0.0260  0.0008  0.0485  0.2093  0.5103  0.0298  0.1022 </r>
       </set>
       <set comment="band 3">
        <r>  0.0000  0.0058  0.0054  0.0830  0.0527  0.0004  0.1067  0.1191  0.6210 </r>
       </set>
       <set comment="band 4">
        <r>  0.0000  0.0001  0.0001  0.0000  0.7842  0.0018  0.0388  0.0830  0.0508 </r>
       </set>
       <set comment="band 5">
        <r>  0.0000  0.0000  0.0000  0.0001  0.0077  0.3034  0.0022  0.4848  0.1604 </r>
       </set>
       <set comment="band 6">
        <r>  0.0035  0.0499  0.1496  0.0249  0.0548  0.3290  0.1850  0.1645  0.0069 </r>
       </set>
      </set>
      <set comment="kpoint 24">
       <set comment="band 1">
        <r>  0.2510  0.0493  0.1478  0.0007  0.0763  0.0838  0.0002  0.2288  0.1263 </r>
       </set>
       <set comment="band 2">
        <r>  0.0000  0.0852  0.0284  0.0000  0.1253  0.1819  0.4092  0.0418  0.1364 </r>
       </set>
       <set comment="band 3">
        <r>  0.0613  0.0169  0.0507  0.2680  0.0052  0.0227  0.1865  0.0155  0.3296 </r>
       </set>
       <set comment="band 4">
        <r>  0.0084  0.0000  0.0000  0.0029  0.0964  0.3528  0.0175  0.2893  0.2084 </r>
       </set>
       <set comment="band 5">
        <r>  0.0000  0.0000  0.0000  0.0000  0.6155  0.0397  0.0894  0.2052  0.0298 </r>
       </set>
       <set comment="band 6">
        <r>  0.0000  0.0571  0.1714  0.0596  0.0412  0.2363  0.2071  0.1237  0.0515 </r>
       </set>
      </set>
      <set comment="kpoint 25">
       <set comment="band 1">
        <r>  0.1620  0.0251  0.0752  0.0501  0.0968  0.0692  0.0069  0.2905  0.2005 </r>
       </set>
       <set comment="band 2">
        <r>  0.0000  0.0908  0.0303  0.0000  0.2231  0.1487  0.3346  0.0744  0.1115 </r>
       </set>
       <set comment="band 3">
        <r>  0.0000  0.0434  0.1302  0.3472  0.0116  0.0696  0.1566  0.0348  0.1450 </r>
       </set>
       <set comment="band 4">
        <r>  0.0358  0.0001  0.0004  0.0003  0.0839  0.4284  0.0517  0.2518  0.1311 </r>
       </set>
       <set comment="band 5">
        <r>  0.0000  0.0000  0.0000  0.0000  0.4944  0.0824  0.1854  0.1648  0.0618 </r>
       </set>
       <set comment="band 6">
        <r>  0.7028  0.0107  0.0321  0.0214  0.0082  0.0571  0.0000  0.0245  0.0733 </r>
       </set>
      </set>
      <set comment="kpoint 26">
       <set comment="band 1">
        <r>  0.7286  0.0229  0.0687  0.0458  0.0032  0.0049  0.0012  0.0097  0.0004 </r>
       </set>
       <set comment="band 2">
        <r>  0.0000  0.0038  0.0114  0.0305  0.0268  0.1606  0.3613  0.0803  0.3345 </r>
       </set>
       <set comment="band 3">
        <r>  0.0000  0.0343  0.0114  0.0000  0.2408  0.1606  0.3613  0.0803  0.1204 </r>
       </set>
       <set comment="band 4">
        <r>  0.0000  0.0000  0.0000  0.0000  0.4171  0.0695  0.1564  0.1390  0.0521 </r>
       </set>
       <set comment="band 5">
        <r>  0.0000  0.0000  0.0000  0.0000  0.0562  0.3371  0.0000  0.1685  0.4494 </r>
       </set>
       <set comment="band 6">
        <r>  0.0165  0.0008  0.0024  0.0016  0.1576  0.2364  0.0591  0.4727  0.0197 </r>
       </set>
      </set>
      <set comment="kpoint 27">
       <set comment="band 1">
        <r>  0.0790  0.0085  0.1422  0.0043  0.0127  0.3795  0.1803  0.1897  0.0016 </r>
       </set>
       <set comment="band 2">
        <r>  0.0000  0.0893  0.0000  0.1787  0.0717  0.0208  0.0000  0.0415  0.5733 </r>
       </set>
       <set comment="band 3">
        <r>  0.0354  0.1922  0.0903  0.0961  0.1654  0.0330  0.3114  0.0165  0.0207 </r>
       </set>
       <set comment="band 4">
        <r>  0.0000  0.0012  0.0000  0.0023  0.0097  0.2975  0.0000  0.5950  0.0777 </r>
       </set>
       <set comment="band 5">
        <r>  0.0072  0.0004  0.0004  0.0002  0.6043  0.0147  0.2794  0.0073  0.0755 </r>
       </set>
       <set comment="band 6">
        <r>  0.8043  0.0033  0.0537  0.0017  0.0005  0.0505  0.0005  0.0252  0.0001 </r>
       </set>
      </set>
      <set comment="kpoint 28">
       <set comment="band 1">
        <r>  0.6002  0.0474  0.0688  0.0949  0.0455  0.0128  0.0056  0.0256  0.0057 </r>
       </set>
       <set comment="band 2">
        <r>  0.0034  0.0180  0.0055  0.0361  0.5903  0.0452  0.0271  0.0905  0.0738 </r>
       </set>
       <set comment="band 3">
        <r>  0.0000  0.0298  0.0000  0.0149  0.0061  0.6025  0.0000  0.3012  0.0486 </r>
       </set>
       <set comment="band 4">
        <r>  0.0008  0.0174  0.0042  0.0348  0.0018  0.0233  0.8046  0.0466  0.0002 </r>
       </set>
       <set comment="band 5">
        <r>  0.0000  0.0217  0.0000  0.0108  0.0964  0.0506  0.0000  0.0253  0.7714 </r>
       </set>
       <set comment="band 6">
        <r>  0.0595  0.0023  0.0034  0.0046  0.1354  0.2331  0.0687  0.4663  0.0169 </r>
       </set>
      </set>
      <set comment="kpoint 29">
       <set comment="band 1">
        <r>  0.3910  0.0358  0.0648  0.0715  0.2690  0.0110  0.0353  0.0220  0.0336 </r>
       </set>
       <set comment="band 2">
        <r>  0.0300  0.0641  0.0003  0.1282  0.3566  0.0851  0.0000  0.1703  0.0446 </r>
       </set>
       <set comment="band 3">
        <r>  0.0000  0.0271  0.0000  0.0135  0.0011  0.6370  0.0000  0.3185  0.0087 </r>
       </set>
       <set comment="band 4">
        <r>  0.0046  0.0383  0.0008  0.0766  0.0136  0.0004  0.7916  0.0007  0.0017 </r>
       </set>
       <set comment="band 5">
        <r>  0.0000  0.0361  0.0000  0.0180  0.0977  0.0146  0.0000  0.0073  0.7818 </r>
       </set>
       <set comment="band 6">
        <r>  0.1275  0.0255  0.0033  0.0511  0.1172  0.2157  0.0045  0.4313  0.0146 </r>
       </set>
      </set>
      <set comment="kpoint 30">
       <set comment="band 1">
        <r>  0.4326  0.0765  0.0931  0.0810  0.0875  0.1130  0.0065  0.0310  0.0004 </r>
       </set>
       <set comment="band 2">
        <r>  0.0000  0.0044  0.0132  0.0353  0.4106  0.1641  0.0083  0.0431  0.2027 </r>
       </set>
       <set comment="band 3">
        <r>  0.0012  0.0965  0.0007  0.0158  0.0301  0.3079  0.2294  0.2895  0.0103 </r>
       </set>
       <set comment="band 4">
        <r>  0.0000  0.0064  0.0191  0.0509  0.0294  0.0442  0.4808  0.1730  0.1415 </r>
       </set>
       <set comment="band 5">
        <r>  0.0265  0.0263  0.0052  0.0002  0.0473  0.2124  0.1314  0.0125  0.4938 </r>
       </set>
       <set comment="band 6">
        <r>  0.1294  0.0573  0.0049  0.0163  0.2674  0.0968  0.0023  0.3776  0.0332 </r>
       </set>
      </set>
      <set comment="kpoint 31">
       <set comment="band 1">
        <r>  0.2277  0.0037  0.0548  0.0074  0.5409  0.0010  0.0450  0.0020  0.0676 </r>
       </set>
       <set comment="band 2">
        <r>  0.0000  0.0261  0.0000  0.0130  0.0001  0.6466  0.0000  0.3233  0.0007 </r>
       </set>
       <set comment="band 3">
        <r>  0.0172  0.1258  0.0002  0.2517  0.0462  0.1430  0.0038  0.2861  0.0058 </r>
       </set>
       <set comment="band 4">
        <r>  0.0915  0.0098  0.0013  0.0196  0.0929  0.0035  0.6714  0.0070  0.0116 </r>
       </set>
       <set comment="band 5">
        <r>  0.0508  0.1283  0.0019  0.2566  0.0291  0.1710  0.0100  0.3420  0.0036 </r>
       </set>
       <set comment="band 6">
        <r>  0.0000  0.0122  0.0000  0.0061  0.1059  0.0023  0.0000  0.0011  0.8475 </r>
       </set>
      </set>
      <set comment="kpoint 32">
       <set comment="band 1">
        <r>  0.2265  0.0508  0.0837  0.0242  0.4277  0.0607  0.0165  0.0089  0.0347 </r>
       </set>
       <set comment="band 2">
        <r>  0.0236  0.0148  0.0008  0.1448  0.1714  0.3044  0.0176  0.1130  0.1024 </r>
       </set>
       <set comment="band 3">
        <r>  0.0050  0.1094  0.0040  0.0090  0.0000  0.2623  0.0952  0.4832  0.0004 </r>
       </set>
       <set comment="band 4">
        <r>  0.0347  0.0001  0.0182  0.0613  0.0360  0.0974  0.6299  0.0353  0.0179 </r>
       </set>
       <set comment="band 5">
        <r>  0.1202  0.0119  0.0052  0.0845  0.0000  0.1923  0.0003  0.1435  0.4049 </r>
       </set>
       <set comment="band 6">
        <r>  0.0580  0.1512  0.0049  0.0513  0.2278  0.0123  0.0255  0.1274  0.3191 </r>
       </set>
      </set>
      <set comment="kpoint 33">
       <set comment="band 1">
        <r>  0.1366  0.0090  0.0734  0.0045  0.6150  0.0058  0.0111  0.0029  0.0769 </r>
       </set>
       <set comment="band 2">
        <r>  0.0000  0.0986  0.0000  0.1973  0.0024  0.1902  0.0000  0.3803  0.0195 </r>
       </set>
       <set comment="band 3">
        <r>  0.0448  0.0357  0.0014  0.0178  0.0221  0.4842  0.1234  0.2421  0.0028 </r>
       </set>
       <set comment="band 4">
        <r>  0.0957  0.0142  0.0238  0.0071  0.0379  0.1166  0.5652  0.0583  0.0047 </r>
       </set>
       <set comment="band 5">
        <r>  0.0000  0.0793  0.0000  0.1586  0.0555  0.0791  0.0000  0.1582  0.4438 </r>
       </set>
       <set comment="band 6">
        <r>  0.0000  0.1233  0.0000  0.2467  0.0523  0.0535  0.0000  0.1070  0.4186 </r>
       </set>
      </set>
      <set comment="kpoint 34">
       <set comment="band 1">
        <r>  0.1015  0.0769  0.0479  0.0538  0.2287  0.3107  0.0137  0.0895  0.0003 </r>
       </set>
       <set comment="band 2">
        <r>  0.0000  0.0117  0.0350  0.0934  0.3932  0.1327  0.0246  0.0574  0.1524 </r>
       </set>
       <set comment="band 3">
        <r>  0.0839  0.0772  0.0003  0.0078  0.0001  0.1222  0.2000  0.4526  0.0121 </r>
       </set>
       <set comment="band 4">
        <r>  0.0000  0.0114  0.0343  0.0915  0.0293  0.0394  0.4466  0.1619  0.1279 </r>
       </set>
       <set comment="band 5">
        <r>  0.0596  0.0796  0.0275  0.0405  0.0118  0.2442  0.0919  0.0249  0.3729 </r>
       </set>
       <set comment="band 6">
        <r>  0.2777  0.0367  0.0517  0.0428  0.2311  0.0398  0.1136  0.0086  0.1549 </r>
       </set>
      </set>
      <set comment="kpoint 35">
       <set comment="band 1">
        <r>  0.0000  0.0650  0.1951  0.0325  0.0510  0.3060  0.1722  0.1530  0.0064 </r>
       </set>
       <set comment="band 2">
        <r>  0.0000  0.2206  0.0720  0.0001  0.1730  0.1129  0.2541  0.0565  0.0920 </r>
       </set>
       <set comment="band 3">
        <r>  0.0000  0.0070  0.0255  0.2600  0.0055  0.0401  0.0902  0.0200  0.5328 </r>
       </set>
       <set comment="band 4">
        <r>  0.0000  0.0000  0.0000  0.0000  0.6618  0.0000  0.2482  0.0000  0.0827 </r>
       </set>
       <set comment="band 5">
        <r>  0.0000  0.0000  0.0000  0.0000  0.0000  0.3309  0.0000  0.6618  0.0000 </r>
       </set>
       <set comment="band 6">
        <r>  0.9543  0.0000  0.0000  0.0000  0.0000  0.0000  0.0000  0.0000  0.0000 </r>
       </set>
      </set>
      <set comment="kpoint 36">
       <set comment="band 1">
        <r>  0.4488  0.0481  0.1442  0.0961  0.0290  0.0435  0.0109  0.0870  0.0036 </r>
       </set>
       <set comment="band 2">
        <r>  0.0000  0.0000  0.0000  0.0000  0.4222  0.0704  0.1583  0.1407  0.0528 </r>
       </set>
       <set comment="band 3">
        <r>  0.0000  0.0097  0.0290  0.0773  0.0238  0.1427  0.3211  0.0713  0.2973 </r>
       </set>
       <set comment="band 4">
        <r>  0.0000  0.0870  0.0290  0.0000  0.2140  0.1427  0.3211  0.0713  0.1070 </r>
       </set>
       <set comment="band 5">
        <r>  0.0000  0.0000  0.0000  0.0000  0.0535  0.3211  0.0000  0.1606  0.4281 </r>
       </set>
       <set comment="band 6">
        <r>  0.1760  0.0047  0.0141  0.0094  0.1298  0.1947  0.0487  0.3894  0.0162 </r>
       </set>
      </set>
      <set comment="kpoint 37">
       <set comment="band 1">
        <r>  0.2375  0.0464  0.1201  0.0928  0.2129  0.0594  0.0013  0.1188  0.0266 </r>
       </set>
       <set comment="band 2">
        <r>  0.0050  0.0134  0.0004  0.0267  0.4059  0.1068  0.0484  0.2136  0.0507 </r>
       </set>
       <set comment="band 3">
        <r>  0.0000  0.0743  0.0000  0.0372  0.0063  0.5326  0.0000  0.2663  0.0505 </r>
       </set>
       <set comment="band 4">
        <r>  0.0270  0.0290  0.0417  0.0579  0.0166  0.0051  0.7511  0.0102  0.0021 </r>
       </set>
       <set comment="band 5">
        <r>  0.0000  0.0230  0.0000  0.0115  0.0903  0.0657  0.0000  0.0328  0.7223 </r>
       </set>
       <set comment="band 6">
        <r>  0.2739  0.0481  0.0161  0.0962  0.1257  0.1282  0.0014  0.2564  0.0157 </r>
       </set>
      </set>
      <set comment="kpoint 38">
       <set comment="band 1">
        <r>  0.0788  0.0037  0.0788  0.0074  0.6459  0.0027  0.0105  0.0054  0.0807 </r>
       </set>
       <set comment="band 2">
        <r>  0.0115  0.0620  0.0023  0.1240  0.0265  0.2177  0.0075  0.4355  0.0033 </r>
       </set>
       <set comment="band 3">
        <r>  0.0000  0.0679  0.0000  0.0340  0.0004  0.5751  0.0000  0.2876  0.0034 </r>
       </set>
       <set comment="band 4">
        <r>  0.1584  0.0039  0.0599  0.0078  0.0015  0.0041  0.6722  0.0082  0.0002 </r>
       </set>
       <set comment="band 5">
        <r>  0.0000  0.0121  0.0000  0.0061  0.1039  0.0086  0.0000  0.0043  0.8314 </r>
       </set>
       <set comment="band 6">
        <r>  0.1167  0.1717  0.0095  0.3435  0.0473  0.0800  0.0344  0.1600  0.0059 </r>
       </set>
      </set>
      <set comment="kpoint 39">
       <set comment="band 1">
        <r>  0.0772  0.0597  0.0740  0.0640  0.1622  0.2125  0.0079  0.2485  0.0029 </r>
       </set>
       <set comment="band 2">
        <r>  0.0000  0.0031  0.0093  0.0248  0.4484  0.1081  0.0862  0.1049  0.1044 </r>
       </set>
       <set comment="band 3">
        <r>  0.0806  0.0671  0.0348  0.0005  0.0246  0.1901  0.2442  0.3048  0.0002 </r>
       </set>
       <set comment="band 4">
        <r>  0.0000  0.0150  0.0450  0.1201  0.0001  0.0805  0.3720  0.1095  0.1979 </r>
       </set>
       <set comment="band 5">
        <r>  0.1518  0.0445  0.0484  0.0438  0.0079  0.2774  0.0356  0.0006  0.3292 </r>
       </set>
       <set comment="band 6">
        <r>  0.1181  0.1748  0.0236  0.0585  0.2361  0.0029  0.0427  0.0907  0.2136 </r>
       </set>
      </set>
      <set comment="kpoint 40">
       <set comment="band 1">
        <r>  0.0138  0.0136  0.0497  0.0068  0.6614  0.0003  0.0742  0.0002  0.0827 </r>
       </set>
       <set comment="band 2">
        <r>  0.0000  0.0430  0.0000  0.0861  0.0009  0.2537  0.0000  0.5074  0.0076 </r>
       </set>
       <set comment="band 3">
        <r>  0.1267  0.0337  0.0483  0.0169  0.0123  0.3166  0.2331  0.1583  0.0015 </r>
       </set>
       <set comment="band 4">
        <r>  0.0388  0.0614  0.0813  0.0307  0.0035  0.2124  0.3998  0.1062  0.0004 </r>
       </set>
       <set comment="band 5">
        <r>  0.0000  0.0690  0.0000  0.1381  0.0752  0.0231  0.0000  0.0463  0.6014 </r>
       </set>
       <set comment="band 6">
        <r>  0.0000  0.1913  0.0000  0.3833  0.0339  0.0348  0.0000  0.0692  0.2696 </r>
       </set>
      </set>
      <set comment="kpoint 41">
       <set comment="band 1">
        <r>  0.0748  0.0325  0.0974  0.0649  0.1067  0.1601  0.0400  0.3202  0.0133 </r>
       </set>
       <set comment="band 2">
        <r>  0.0000  0.0000  0.0000  0.0000  0.4425  0.0738  0.1659  0.1475  0.0553 </r>
       </set>
       <set comment="band 3">
        <r>  0.0000  0.0164  0.0493  0.1314  0.0207  0.1240  0.2791  0.0620  0.2584 </r>
       </set>
       <set comment="band 4">
        <r>  0.0000  0.1479  0.0493  0.0000  0.1861  0.1240  0.2791  0.0620  0.0930 </r>
       </set>
       <set comment="band 5">
        <r>  0.0000  0.0000  0.0000  0.0000  0.0523  0.3138  0.0000  0.1569  0.4184 </r>
       </set>
       <set comment="band 6">
        <r>  0.3884  0.0471  0.1414  0.0943  0.0422  0.0632  0.0158  0.1265  0.0053 </r>
       </set>
      </set>
      <set comment="kpoint 42">
       <set comment="band 1">
        <r>  0.0043  0.0001  0.0222  0.0001  0.6295  0.0065  0.1492  0.0131  0.0787 </r>
       </set>
       <set comment="band 2">
        <r>  0.0072  0.0246  0.0132  0.0493  0.0097  0.2669  0.0013  0.5338  0.0012 </r>
       </set>
       <set comment="band 3">
        <r>  0.1060  0.0028  0.1956  0.0056  0.0540  0.0010  0.5508  0.0019  0.0068 </r>
       </set>
       <set comment="band 4">
        <r>  0.0000  0.1179  0.0000  0.0589  0.0024  0.4925  0.0000  0.2462  0.0191 </r>
       </set>
       <set comment="band 5">
        <r>  0.0000  0.0101  0.0000  0.0051  0.0995  0.0334  0.0000  0.0167  0.7958 </r>
       </set>
       <set comment="band 6">
        <r>  0.1694  0.1734  0.0544  0.3468  0.0478  0.0270  0.0394  0.0540  0.0060 </r>
       </set>
      </set>
      <set comment="kpoint 43">
       <set comment="band 1">
        <r>  0.0000  0.0107  0.0000  0.0214  0.0002  0.2920  0.0000  0.5839  0.0018 </r>
       </set>
       <set comment="band 2">
        <r>  0.0000  0.0143  0.0107  0.0071  0.6106  0.0004  0.1903  0.0002  0.0763 </r>
       </set>
       <set comment="band 3">
        <r>  0.0757  0.0428  0.1284  0.0214  0.0488  0.2929  0.1648  0.1465  0.0061 </r>
       </set>
       <set comment="band 4">
        <r>  0.0000  0.0675  0.0000  0.1351  0.0804  0.0047  0.0000  0.0095  0.6436 </r>
       </set>
       <set comment="band 5">
        <r>  0.0000  0.0901  0.0676  0.0451  0.0530  0.1609  0.4371  0.0804  0.0066 </r>
       </set>
       <set comment="band 6">
        <r>  0.0000  0.2162  0.0000  0.4324  0.0290  0.0088  0.0000  0.0176  0.2322 </r>
       </set>
      </set>
      <set comment="kpoint 44">
       <set comment="band 1">
        <r>  0.0000  0.0000  0.0000  0.0000  0.4574  0.0762  0.1715  0.1525  0.0572 </r>
       </set>
       <set comment="band 2">
        <r>  0.0007  0.0035  0.0106  0.0071  0.1491  0.2236  0.0559  0.4473  0.0186 </r>
       </set>
       <set comment="band 3">
        <r>  0.0000  0.1529  0.0510  0.0000  0.1833  0.1222  0.2749  0.0611  0.0916 </r>
       </set>
       <set comment="band 4">
        <r>  0.0000  0.0170  0.0510  0.1360  0.0204  0.1222  0.2749  0.0611  0.2545 </r>
       </set>
       <set comment="band 5">
        <r>  0.0000  0.0000  0.0000  0.0000  0.0535  0.3208  0.0000  0.1604  0.4278 </r>
       </set>
       <set comment="band 6">
        <r>  0.1267  0.1215  0.3645  0.2430  0.0037  0.0056  0.0014  0.0112  0.0005 </r>
       </set>
      </set>
     </set>
    </set>
   </array>
  </projected>
 </calculation>
 <structure name="finalpos" >
  <crystal>
   <varray name="basis" >
    <v>       2.86654409       0.00000000       0.00000000 </v>
    <v>      -0.95551470       2.70260368       0.00000000 </v>
    <v>      -0.95551470      -1.35130184       2.34052345 </v>
   </varray>
   <i name="volume">     18.13234550 </i>
   <varray name="rec_basis" >
    <v>       0.34885213       0.12333785       0.21362743 </v>
    <v>       0.00000000       0.37001356       0.21362743 </v>
    <v>       0.00000000       0.00000000       0.42725485 </v>
   </varray>
  </crystal>
  <varray name="positions" >
   <v>       0.00000000       0.00000000       0.00000000 </v>
  </varray>
 </structure>
</modeling>
