<?xml version="1.0" encoding="ISO-8859-1"?>
<modeling>
 <generator>
  <i name="program" type="string">vasp </i>
  <i name="version" type="string">5.2.12  </i>
  <i name="subversion" type="string">11Nov11 complex                                                      parallel </i>
  <i name="platform" type="string">LinuxIFC </i>
  <i name="date" type="string">2012 10 14 </i>
  <i name="time" type="string">15:12:12 </i>
 </generator>
 <incar>
  <i type="string" name="PREC">accurate</i>
  <i name="ENCUT">    450.00000000</i>
  <i type="logical" name="LREAL"> F  </i>
  <i type="int" name="ISMEAR">     1</i>
  <i name="SIGMA">      0.05000000</i>
 </incar>
 <kpoints>
  <generation param="Monkhorst-Pack">
   <v type="int" name="divisions">      10       10       10 </v>
   <v name="usershift">      0.00000000       0.00000000       0.00000000 </v>
   <v name="genvec1">      0.10000000       0.00000000       0.00000000 </v>
   <v name="genvec2">      0.00000000       0.10000000       0.00000000 </v>
   <v name="genvec3">      0.00000000       0.00000000       0.10000000 </v>
   <v name="shift">      0.50000000       0.50000000       0.50000000 </v>
  </generation>
  <varray name="kpointlist" >
   <v>       0.05000000       0.05000000       0.05000000 </v>
   <v>       0.15000000       0.05000000       0.05000000 </v>
   <v>       0.25000000       0.05000000       0.05000000 </v>
   <v>       0.35000000       0.05000000       0.05000000 </v>
   <v>       0.45000000       0.05000000       0.05000000 </v>
   <v>      -0.05000000       0.05000000       0.05000000 </v>
   <v>       0.15000000       0.15000000       0.05000000 </v>
   <v>       0.25000000       0.15000000       0.05000000 </v>
   <v>       0.35000000       0.15000000       0.05000000 </v>
   <v>      -0.15000000       0.15000000       0.05000000 </v>
   <v>       0.25000000       0.25000000       0.05000000 </v>
   <v>       0.35000000       0.25000000       0.05000000 </v>
   <v>      -0.25000000       0.25000000       0.05000000 </v>
   <v>      -0.15000000       0.25000000       0.05000000 </v>
   <v>      -0.35000000       0.35000000       0.05000000 </v>
   <v>      -0.25000000       0.35000000       0.05000000 </v>
   <v>      -0.45000000       0.45000000       0.05000000 </v>
   <v>      -0.35000000       0.45000000       0.05000000 </v>
   <v>      -0.25000000       0.45000000       0.05000000 </v>
   <v>      -0.45000000      -0.45000000       0.05000000 </v>
   <v>      -0.35000000      -0.45000000       0.05000000 </v>
   <v>      -0.35000000      -0.35000000       0.05000000 </v>
   <v>       0.15000000       0.15000000       0.15000000 </v>
   <v>       0.25000000       0.15000000       0.15000000 </v>
   <v>       0.35000000       0.15000000       0.15000000 </v>
   <v>      -0.15000000       0.15000000       0.15000000 </v>
   <v>       0.25000000       0.25000000       0.15000000 </v>
   <v>      -0.25000000       0.25000000       0.15000000 </v>
   <v>      -0.35000000       0.35000000       0.15000000 </v>
   <v>      -0.25000000       0.35000000       0.15000000 </v>
   <v>      -0.45000000       0.45000000       0.15000000 </v>
   <v>      -0.35000000       0.45000000       0.15000000 </v>
   <v>      -0.45000000      -0.45000000       0.15000000 </v>
   <v>      -0.35000000      -0.45000000       0.15000000 </v>
   <v>       0.25000000       0.25000000       0.25000000 </v>
   <v>      -0.25000000       0.25000000       0.25000000 </v>
   <v>      -0.35000000       0.35000000       0.25000000 </v>
   <v>      -0.45000000       0.45000000       0.25000000 </v>
   <v>      -0.35000000       0.45000000       0.25000000 </v>
   <v>      -0.45000000      -0.45000000       0.25000000 </v>
   <v>      -0.35000000       0.35000000       0.35000000 </v>
   <v>      -0.45000000       0.45000000       0.35000000 </v>
   <v>      -0.45000000      -0.45000000       0.35000000 </v>
   <v>      -0.45000000       0.45000000       0.45000000 </v>
  </varray>
  <varray name="weights" >
   <v>       0.00800000 </v>
   <v>       0.02400000 </v>
   <v>       0.02400000 </v>
   <v>       0.02400000 </v>
   <v>       0.01200000 </v>
   <v>       0.00600000 </v>
   <v>       0.02400000 </v>
   <v>       0.04800000 </v>
   <v>       0.04800000 </v>
   <v>       0.02400000 </v>
   <v>       0.02400000 </v>
   <v>       0.02400000 </v>
   <v>       0.02400000 </v>
   <v>       0.02400000 </v>
   <v>       0.02400000 </v>
   <v>       0.04800000 </v>
   <v>       0.02400000 </v>
   <v>       0.04800000 </v>
   <v>       0.02400000 </v>
   <v>       0.02400000 </v>
   <v>       0.04800000 </v>
   <v>       0.00800000 </v>
   <v>       0.00800000 </v>
   <v>       0.02400000 </v>
   <v>       0.01200000 </v>
   <v>       0.00600000 </v>
   <v>       0.02400000 </v>
   <v>       0.02400000 </v>
   <v>       0.02400000 </v>
   <v>       0.02400000 </v>
   <v>       0.02400000 </v>
   <v>       0.04800000 </v>
   <v>       0.02400000 </v>
   <v>       0.02400000 </v>
   <v>       0.00200000 </v>
   <v>       0.00600000 </v>
   <v>       0.02400000 </v>
   <v>       0.02400000 </v>
   <v>       0.02400000 </v>
   <v>       0.02400000 </v>
   <v>       0.00600000 </v>
   <v>       0.02400000 </v>
   <v>       0.00800000 </v>
   <v>       0.00600000 </v>
  </varray>
 </kpoints>
 <parameters>
  <separator name="general" >
   <i type="string" name="SYSTEM">unknown system</i>
   <i type="logical" name="LCOMPAT"> F  </i>
  </separator>
  <separator name="electronic" >
   <i type="string" name="PREC">accura</i>
   <i name="ENMAX">    450.00000000</i>
   <i name="ENAUG">    332.07500000</i>
   <i name="EDIFF">      0.00010000</i>
   <i type="int" name="IALGO">    38</i>
   <i type="int" name="IWAVPR">    10</i>
   <i type="int" name="NBANDS">     6</i>
   <i name="NELECT">      5.00000000</i>
   <i type="int" name="TURBO">     0</i>
   <i type="int" name="IRESTART">     0</i>
   <i type="int" name="NREBOOT">     0</i>
   <i type="int" name="NMIN">     0</i>
   <i name="EREF">      0.00000000</i>
   <separator name="electronic smearing" >
    <i type="int" name="ISMEAR">     1</i>
    <i name="SIGMA">      0.05000000</i>
    <i name="KSPACING">      0.50000000</i>
    <i type="logical" name="KGAMMA"> T  </i>
   </separator>
   <separator name="electronic projectors" >
    <i type="logical" name="LREAL"> F  </i>
    <v name="ROPT">      0.00000000</v>
    <i type="int" name="LMAXPAW">  -100</i>
    <i type="int" name="LMAXMIX">     2</i>
    <i type="logical" name="NLSPLINE"> F  </i>
   </separator>
   <separator name="electronic startup" >
    <i type="int" name="ISTART">     0</i>
    <i type="int" name="ICHARG">     2</i>
    <i type="int" name="INIWAV">     1</i>
   </separator>
   <separator name="electronic spin" >
    <i type="int" name="ISPIN">     1</i>
    <i type="logical" name="LNONCOLLINEAR"> F  </i>
    <v name="MAGMOM">      1.00000000</v>
    <i name="NUPDOWN">     -1.00000000</i>
    <i type="logical" name="LSORBIT"> F  </i>
    <v name="SAXIS">      0.00000000      0.00000000      1.00000000</v>
    <i type="logical" name="LSPIRAL"> F  </i>
    <v name="QSPIRAL">      0.00000000      0.00000000      0.00000000</v>
    <i type="logical" name="LZEROZ"> F  </i>
   </separator>
   <separator name="electronic exchange-correlation" >
    <i type="logical" name="LASPH"> F  </i>
    <i type="logical" name="LMETAGGA"> F  </i>
   </separator>
   <separator name="electronic convergence" >
    <i type="int" name="NELM">    60</i>
    <i type="int" name="NELMDL">    -5</i>
    <i type="int" name="NELMIN">     2</i>
    <i name="ENINI">    450.00000000</i>
    <separator name="electronic convergence detail" >
     <i type="logical" name="LDIAG"> T  </i>
     <i type="logical" name="LSUBROT"> T  </i>
     <i name="WEIMIN">      0.00000000</i>
     <i name="EBREAK">      0.00000417</i>
     <i name="DEPER">      0.30000000</i>
     <i type="int" name="NRMM">     4</i>
     <i name="TIME">      0.40000000</i>
    </separator>
   </separator>
   <separator name="electronic mixer" >
    <i name="AMIX">      0.40000000</i>
    <i name="BMIX">      1.00000000</i>
    <i name="AMIN">      0.10000000</i>
    <i name="AMIX_MAG">      1.60000000</i>
    <i name="BMIX_MAG">      1.00000000</i>
    <separator name="electronic mixer details" >
     <i type="int" name="IMIX">     4</i>
     <i type="int" name="MAXMIX">   -45</i>
     <i name="WC">    100.00000000</i>
     <i type="int" name="INIMIX">     1</i>
     <i type="int" name="MIXPRE">     1</i>
     <i type="int" name="MREMOVE">     5</i>
    </separator>
   </separator>
   <separator name="electronic dipolcorrection" >
    <i type="logical" name="LDIPOL"> F  </i>
    <i type="logical" name="LMONO"> F  </i>
    <i type="int" name="IDIPOL">     0</i>
    <i name="EPSILON">      1.00000000</i>
    <v name="DIPOL">   -100.00000000   -100.00000000   -100.00000000</v>
    <i name="EFIELD">      0.00000000</i>
   </separator>
  </separator>
  <separator name="grids" >
   <i type="int" name="NGX">    20</i>
   <i type="int" name="NGY">    20</i>
   <i type="int" name="NGZ">    20</i>
   <i type="int" name="NGXF">    40</i>
   <i type="int" name="NGYF">    40</i>
   <i type="int" name="NGZF">    40</i>
   <i type="logical" name="ADDGRID"> F  </i>
  </separator>
  <separator name="ionic" >
   <i type="int" name="NSW">     0</i>
   <i type="int" name="IBRION">    -1</i>
   <i type="int" name="ISIF">     2</i>
   <i name="PSTRESS">      0.00000000</i>
   <i name="EDIFFG">      0.00100000</i>
   <i type="int" name="NFREE">     0</i>
   <i name="POTIM">      0.50000000</i>
   <i name="SMASS">     -3.00000000</i>
   <i name="SCALEE">      1.00000000</i>
  </separator>
  <separator name="ionic md" >
   <i name="TEBEG">      0.00010000</i>
   <i name="TEEND">      0.00010000</i>
   <i type="int" name="NBLOCK">     1</i>
   <i type="int" name="KBLOCK">     1</i>
   <i type="int" name="NPACO">   256</i>
   <i name="APACO">     16.00000000</i>
  </separator>
  <separator name="symmetry" >
   <i type="int" name="ISYM">     2</i>
   <i name="SYMPREC">      0.00001000</i>
  </separator>
  <separator name="dos" >
   <i type="logical" name="LORBIT"> F  </i>
   <v name="RWIGS">     -1.00000000</v>
   <i type="int" name="NEDOS">   301</i>
   <i name="EMIN">     10.00000000</i>
   <i name="EMAX">    -10.00000000</i>
   <i name="EFERMI">      0.00000000</i>
  </separator>
  <separator name="writing" >
   <i type="int" name="NWRITE">     2</i>
   <i type="logical" name="LWAVE"> T  </i>
   <i type="logical" name="LCHARG"> T  </i>
   <i type="logical" name="LPARD"> F  </i>
   <i type="logical" name="LVTOT"> F  </i>
   <i type="logical" name="LVHAR"> F  </i>
   <i type="logical" name="LELF"> F  </i>
   <i type="logical" name="LOPTICS"> F  </i>
   <v name="STM">      0.00000000      0.00000000      0.00000000      0.00000000      0.00000000      0.00000000      0.00000000</v>
  </separator>
  <separator name="performance" >
   <i type="int" name="NPAR">     1</i>
   <i type="int" name="NSIM">     4</i>
   <i type="int" name="NBLK">    -1</i>
   <i type="logical" name="LPLANE"> T  </i>
   <i type="logical" name="LSCALAPACK"> F  </i>
   <i type="logical" name="LSCAAWARE"> F  </i>
   <i type="logical" name="LSCALU"> F  </i>
   <i type="logical" name="LASYNC"> F  </i>
   <i type="logical" name="LORBITALREAL"> F  </i>
  </separator>
  <separator name="miscellaneous" >
   <i type="int" name="IDIOT">     3</i>
   <i type="logical" name="LMUSIC"> F  </i>
   <v name="POMASS">    180.94800000</v>
   <v name="DARWINR">      0.00000000</v>
   <v name="DARWINV">      1.00000000</v>
   <i type="logical" name="LCORR"> T  </i>
  </separator>
  <i type="logical" name="GGA_COMPAT"> T  </i>
  <i type="logical" name="LBERRY"> F  </i>
  <i type="int" name="ICORELEVEL">     0</i>
  <i type="logical" name="LDAU"> F  </i>
  <i type="int" name="I_CONSTRAINED_M">     0</i>
  <separator name="electronic exchange-correlation" >
   <i type="string" name="GGA">--</i>
   <i type="int" name="VOSKOWN">     0</i>
   <i type="logical" name="LHFCALC"> F  </i>
   <i type="string" name="PRECFOCK"></i>
   <i type="logical" name="LHFONE"> F  </i>
   <i type="logical" name="LRHFCALC"> F  </i>
   <i type="logical" name="LTHOMAS"> F  </i>
   <i type="logical" name="LMODELHF"> F  </i>
   <i name="ENCUT4O">     -1.00000000</i>
   <i type="int" name="EXXOEP">     0</i>
   <i type="int" name="FOURORBIT">     0</i>
   <i name="AEXX">      0.00000000</i>
   <i name="HFALPHA">      0.00000000</i>
   <i name="ALDAX">      1.00000000</i>
   <i name="AGGAX">      1.00000000</i>
   <i name="ALDAC">      1.00000000</i>
   <i name="AGGAC">      1.00000000</i>
   <i type="int" name="NKREDX">     1</i>
   <i type="int" name="NKREDY">     1</i>
   <i type="int" name="NKREDZ">     1</i>
   <i type="logical" name="SHIFTRED"> F  </i>
   <i type="logical" name="ODDONLY"> F  </i>
   <i type="logical" name="EVENONLY"> F  </i>
   <i type="int" name="LMAXFOCK">     0</i>
   <i type="int" name="NMAXFOCKAE">     0</i>
   <i type="logical" name="LFOCKAEDFT"> F  </i>
   <i name="HFSCREEN">      0.00000000</i>
   <i name="HFSCREENC">      0.00000000</i>
  </separator>
  <separator name="vdW DFT" >
   <i type="logical" name="LUSE_VDW"> F  </i>
   <i name="Zab_VDW">     -0.84910000</i>
   <i name="PARAM1">      0.12340000</i>
   <i name="PARAM2">      1.00000000</i>
   <i name="PARAM3">      0.00000000</i>
  </separator>
  <separator name="model GW" >
   <i type="int" name="MODEL_GW">     0</i>
   <i name="MODEL_EPS0">     10.87940730</i>
   <i name="MODEL_ALPHA">      1.00000000</i>
  </separator>
  <separator name="linear response parameters" >
   <i type="logical" name="LEPSILON"> F  </i>
   <i type="logical" name="LRPA"> F  </i>
   <i type="logical" name="LNABLA"> F  </i>
   <i type="logical" name="LVEL"> F  </i>
   <i type="int" name="KINTER">     0</i>
   <i name="CSHIFT">      0.10000000</i>
   <i name="OMEGAMAX">     -1.00000000</i>
  </separator>
  <separator name="orbital magnetization" >
   <i type="logical" name="NUCIND"> F  </i>
   <v name="MAGPOS">      0.00000000      0.00000000      0.00000000</v>
   <i type="logical" name="LNICSALL"> T  </i>
   <i type="logical" name="ORBITALMAG"> F  </i>
   <i type="logical" name="LMAGBLOCH"> F  </i>
   <i type="logical" name="LCHIMAG"> F  </i>
   <i type="logical" name="LGAUGE"> T  </i>
   <i type="int" name="MAGATOM">     0</i>
   <v name="MAGDIPOL">      0.00000000      0.00000000      0.00000000</v>
   <v name="AVECCONST">      0.00000000      0.00000000      0.00000000</v>
  </separator>
  <separator name="response functions" >
   <i type="logical" name="LADDER"> F  </i>
   <i type="logical" name="LHARTREE"> T  </i>
   <i type="int" name="IBSE">     0</i>
   <i type="logical" name="LTCTE"> F  </i>
   <i type="logical" name="LTETE"> F  </i>
   <i type="logical" name="LFXCEPS"> F  </i>
   <i type="logical" name="L2ORDER"> F  </i>
   <i type="logical" name="LUSEW"> F  </i>
   <i name="ENCUTGW">     -2.00000000</i>
   <i name="ENCUTGWSOFT">     -2.00000000</i>
   <i name="ENCUTLF">     -1.00000000</i>
   <i type="int" name="LMAXMP2">    -1</i>
   <i name="SCISSOR">      0.00000000</i>
   <i type="int" name="NOMEGA">     0</i>
   <i type="int" name="NOMEGAR">     0</i>
   <i type="int" name="NBANDSGW">    -1</i>
   <i type="int" name="NBANDSO">    -1</i>
   <i type="int" name="NBANDSV">    -1</i>
   <i name="OPTEMAX">      0.00000000</i>
   <i type="int" name="NELM">     1</i>
   <i type="int" name="DIM">     3</i>
   <i type="int" name="ANTIRES">     0</i>
   <i name="OMEGAMAX">    -30.00000000</i>
   <i name="OMEGATL">   -200.00000000</i>
   <i type="int" name="OMEGAGRID">     0</i>
   <i name="CSHIFT">     -0.10000000</i>
   <i type="logical" name="SELFENERGY"> F  </i>
   <i type="logical" name="LSPECTRAL"> F  </i>
   <i type="logical" name="ODDONLYGW"> F  </i>
   <i type="logical" name="EVENONLYGW"> F  </i>
   <i type="int" name="NKREDLFX">     1</i>
   <i type="int" name="NKREDLFY">     1</i>
   <i type="int" name="NKREDLFZ">     1</i>
   <i type="int" name="MAXMEM">  1800</i>
   <i type="int" name="TELESCOPE">     0</i>
  </separator>
 </parameters>
 <atominfo>
  <atoms>       1 </atoms>
  <types>       1 </types>
  <array name="atoms" >
   <dimension dim="1">ion</dimension>
   <field type="string">element</field>
   <field type="int">atomtype</field>
   <set>
    <rc><c>Ta</c><c>   1</c></rc>
   </set>
  </array>
  <array name="atomtypes" >
   <dimension dim="1">type</dimension>
   <field type="int">atomspertype</field>
   <field type="string">element</field>
   <field>mass</field>
   <field>valence</field>
   <field type="string">pseudopotential</field>
   <set>
    <rc><c>   1</c><c>Ta</c><c>    180.94800000</c><c>      5.00000000</c><c>  PAW_PBE Ta 17Jan2003                  </c></rc>
   </set>
  </array>
 </atominfo>
 <structure name="initialpos" >
  <crystal>
   <varray name="basis" >
    <v>       2.86654409       0.00000000       0.00000000 </v>
    <v>      -0.95551470       2.70260368       0.00000000 </v>
    <v>      -0.95551470      -1.35130184       2.34052345 </v>
   </varray>
   <i name="volume">     18.13234550 </i>
   <varray name="rec_basis" >
    <v>       0.34885213       0.12333785       0.21362743 </v>
    <v>       0.00000000       0.37001356       0.21362743 </v>
    <v>       0.00000000       0.00000000       0.42725485 </v>
   </varray>
  </crystal>
  <varray name="positions" >
   <v>       0.00000000       0.00000000       0.00000000 </v>
  </varray>
 </structure>
 <calculation>
  <scstep>
   <time name="dav">    0.73    0.89</time>
   <time name="total">    0.84    1.01</time>
   <energy>
    <i name="alphaZ">     30.58334069 </i>
    <i name="ewald">   -197.90100875 </i>
    <i name="hartreedc">     -2.50452612 </i>
    <i name="XCdc">    -66.68582606 </i>
    <i name="pawpsdc">    148.27821850 </i>
    <i name="pawaedc">    -73.99089003 </i>
    <i name="eentropy">     -0.00051390 </i>
    <i name="bandstr">     31.56430629 </i>
    <i name="atom">    130.64904277 </i>
    <i name="e_fr_energy">     -0.00785661 </i>
    <i name="e_wo_entrp">     -0.00734271 </i>
    <i name="e_0_energy">     -0.00768531 </i>
   </energy>
  </scstep>
  <scstep>
   <time name="dav">    1.14    1.14</time>
   <time name="total">    1.14    1.15</time>
   <energy>
    <i name="e_fr_energy">    -12.27562692 </i>
    <i name="e_wo_entrp">    -12.27520407 </i>
    <i name="e_0_energy">    -12.27548597 </i>
   </energy>
  </scstep>
  <scstep>
   <time name="dav">    0.74    0.78</time>
   <time name="total">    0.74    0.86</time>
   <energy>
    <i name="e_fr_energy">    -12.34424308 </i>
    <i name="e_wo_entrp">    -12.34360964 </i>
    <i name="e_0_energy">    -12.34403194 </i>
   </energy>
  </scstep>
  <scstep>
   <time name="dav">    0.88    0.90</time>
   <time name="total">    0.88    1.04</time>
   <energy>
    <i name="e_fr_energy">    -12.34439681 </i>
    <i name="e_wo_entrp">    -12.34376323 </i>
    <i name="e_0_energy">    -12.34418562 </i>
   </energy>
  </scstep>
  <scstep>
   <time name="dav">    0.71    0.72</time>
   <time name="total">    0.79    1.84</time>
   <energy>
    <i name="e_fr_energy">    -12.34439712 </i>
    <i name="e_wo_entrp">    -12.34376354 </i>
    <i name="e_0_energy">    -12.34418593 </i>
   </energy>
  </scstep>
  <scstep>
   <time name="dav">    0.82    0.88</time>
   <time name="total">    1.00    1.15</time>
   <energy>
    <i name="e_fr_energy">    -12.01621390 </i>
    <i name="e_wo_entrp">    -12.01610817 </i>
    <i name="e_0_energy">    -12.01617865 </i>
   </energy>
  </scstep>
  <scstep>
   <time name="dav">    0.81    0.81</time>
   <time name="total">    1.14    1.28</time>
   <energy>
    <i name="e_fr_energy">    -11.86507901 </i>
    <i name="e_wo_entrp">    -11.86562134 </i>
    <i name="e_0_energy">    -11.86525979 </i>
   </energy>
  </scstep>
  <scstep>
   <time name="dav">    0.74    0.74</time>
   <time name="total">    0.94    0.99</time>
   <energy>
    <i name="e_fr_energy">    -11.86411751 </i>
    <i name="e_wo_entrp">    -11.86473319 </i>
    <i name="e_0_energy">    -11.86432273 </i>
   </energy>
  </scstep>
  <scstep>
   <time name="dav">    0.56    0.56</time>
   <time name="total">    0.67    0.87</time>
   <energy>
    <i name="alphaZ">     30.58334069 </i>
    <i name="ewald">   -197.90100875 </i>
    <i name="hartreedc">     -0.58986346 </i>
    <i name="XCdc">    -66.00231382 </i>
    <i name="pawpsdc">    192.93393252 </i>
    <i name="pawaedc">   -119.51257168 </i>
    <i name="eentropy">      0.00062152 </i>
    <i name="bandstr">     17.97468818 </i>
    <i name="atom">    130.64904277 </i>
    <i name="e_fr_energy">    -11.86413203 </i>
    <i name="e_wo_entrp">    -11.86475355 </i>
    <i name="e_0_energy">    -11.86433920 </i>
   </energy>
  </scstep>
  <parameters_embedded>
   <separator name="dft+d2" >
    <i type="logical" name="LVDW"> F  </i>
   </separator>
  </parameters_embedded>
  <structure>
   <crystal>
    <varray name="basis" >
     <v>       2.86654409       0.00000000       0.00000000 </v>
     <v>      -0.95551470       2.70260368       0.00000000 </v>
     <v>      -0.95551470      -1.35130184       2.34052345 </v>
    </varray>
    <i name="volume">     18.13234550 </i>
    <varray name="rec_basis" >
     <v>       0.34885213       0.12333785       0.21362743 </v>
     <v>       0.00000000       0.37001356       0.21362743 </v>
     <v>       0.00000000       0.00000000       0.42725485 </v>
    </varray>
   </crystal>
   <varray name="positions" >
    <v>       0.00000000       0.00000000       0.00000000 </v>
   </varray>
  </structure>
  <varray name="forces" >
   <v>       0.00000000       0.00000000       0.00000000 </v>
  </varray>
  <varray name="stress" >
   <v>      -8.82863613       0.00000000       0.00000000 </v>
   <v>       0.00000000      -8.82863613       0.00000000 </v>
   <v>       0.00000000       0.00000000      -8.82863613 </v>
  </varray>
  <energy>
   <i name="e_fr_energy">    -11.86413203 </i>
   <i name="e_wo_entrp">    -11.86433920 </i>
   <i name="e_0_energy">      0.00062152 </i>
  </energy>
  <time name="totalsc">    9.19   13.82</time>
  <eigenvalues>
   <array>
    <dimension dim="1">band</dimension>
    <dimension dim="2">kpoint</dimension>
    <dimension dim="3">spin</dimension>
    <field>eigene</field>
    <field>occ</field>
    <set>
     <set comment="spin 1">
      <set comment="kpoint 1">
       <r>   -1.5465    1.0000 </r>
       <r>    6.0874    0.0000 </r>
       <r>    6.0874    0.0000 </r>
       <r>    7.2023    0.0000 </r>
       <r>    9.4435    0.0000 </r>
       <r>    9.4435    0.0000 </r>
      </set>
      <set comment="kpoint 2">
       <r>   -0.4239    1.0000 </r>
       <r>    5.4143    1.0000 </r>
       <r>    5.5978    1.0268 </r>
       <r>    8.5515    0.0000 </r>
       <r>    9.1273    0.0000 </r>
       <r>    9.7115    0.0000 </r>
      </set>
      <set comment="kpoint 3">
       <r>    0.9018    1.0000 </r>
       <r>    4.7573    1.0000 </r>
       <r>    5.2965    1.0000 </r>
       <r>    9.3458    0.0000 </r>
       <r>   10.0391    0.0000 </r>
       <r>   10.5240    0.0000 </r>
      </set>
      <set comment="kpoint 4">
       <r>    1.5304    1.0000 </r>
       <r>    4.3077    1.0000 </r>
       <r>    6.1083    0.0000 </r>
       <r>    9.6683    0.0000 </r>
       <r>   10.4029    0.0000 </r>
       <r>   12.6594    0.0000 </r>
      </set>
      <set comment="kpoint 5">
       <r>    1.5878    1.0000 </r>
       <r>    4.1497    1.0000 </r>
       <r>    6.9842    0.0000 </r>
       <r>    9.6499    0.0000 </r>
       <r>   10.5875    0.0000 </r>
       <r>   13.8051    0.0000 </r>
      </set>
      <set comment="kpoint 6">
       <r>   -1.9623    1.0000 </r>
       <r>    6.4060    0.0000 </r>
       <r>    6.4060    0.0000 </r>
       <r>    6.5432    0.0000 </r>
       <r>    9.3070    0.0000 </r>
       <r>    9.8039    0.0000 </r>
      </set>
      <set comment="kpoint 7">
       <r>    0.8464    1.0000 </r>
       <r>    4.8686    1.0000 </r>
       <r>    4.9410    1.0000 </r>
       <r>    9.2025    0.0000 </r>
       <r>   10.0847    0.0000 </r>
       <r>   10.4484    0.0000 </r>
      </set>
      <set comment="kpoint 8">
       <r>    2.0125    1.0000 </r>
       <r>    4.3969    1.0000 </r>
       <r>    4.9740    1.0000 </r>
       <r>    9.5035    0.0000 </r>
       <r>   10.4273    0.0000 </r>
       <r>   12.6743    0.0000 </r>
      </set>
      <set comment="kpoint 9">
       <r>    2.2903    1.0000 </r>
       <r>    4.1825    1.0000 </r>
       <r>    5.9393    0.0000 </r>
       <r>    9.7558    0.0000 </r>
       <r>   10.6288    0.0000 </r>
       <r>   14.5273    0.0000 </r>
      </set>
      <set comment="kpoint 10">
       <r>   -1.1459    1.0000 </r>
       <r>    5.9522    0.0000 </r>
       <r>    6.1806    0.0000 </r>
       <r>    7.3562    0.0000 </r>
       <r>    8.6253    0.0000 </r>
       <r>    9.9867    0.0000 </r>
      </set>
      <set comment="kpoint 11">
       <r>    2.9313    1.0000 </r>
       <r>    4.2918    1.0000 </r>
       <r>    5.0101    1.0000 </r>
       <r>    9.8180    0.0000 </r>
       <r>   10.5255    0.0000 </r>
       <r>   14.9580    0.0000 </r>
      </set>
      <set comment="kpoint 12">
       <r>    3.1123    1.0000 </r>
       <r>    4.3759    1.0000 </r>
       <r>    5.2509    1.0000 </r>
       <r>   10.0574    0.0000 </r>
       <r>   10.5701    0.0000 </r>
       <r>   14.3830    0.0000 </r>
      </set>
      <set comment="kpoint 13">
       <r>    0.1754    1.0000 </r>
       <r>    5.2638    1.0000 </r>
       <r>    5.6094    1.0349 </r>
       <r>    8.6504    0.0000 </r>
       <r>    8.9695    0.0000 </r>
       <r>   10.1828    0.0000 </r>
      </set>
      <set comment="kpoint 14">
       <r>   -0.0637    1.0000 </r>
       <r>    5.6271    1.0170 </r>
       <r>    5.6981    0.1374 </r>
       <r>    8.0679    0.0000 </r>
       <r>    8.4757    0.0000 </r>
       <r>   10.3859    0.0000 </r>
      </set>
      <set comment="kpoint 15">
       <r>    1.2128    1.0000 </r>
       <r>    4.6693    1.0000 </r>
       <r>    5.6931    0.1993 </r>
       <r>    9.1834    0.0000 </r>
       <r>   10.4106    0.0000 </r>
       <r>   11.1053    0.0000 </r>
      </set>
      <set comment="kpoint 16">
       <r>    1.2395    1.0000 </r>
       <r>    4.9170    1.0000 </r>
       <r>    5.3491    1.0000 </r>
       <r>    8.3699    0.0000 </r>
       <r>   10.3039    0.0000 </r>
       <r>   10.6891    0.0000 </r>
      </set>
      <set comment="kpoint 17">
       <r>    1.4555    1.0000 </r>
       <r>    4.3373    1.0000 </r>
       <r>    6.6961    0.0000 </r>
       <r>    9.3426    0.0000 </r>
       <r>   10.7803    0.0000 </r>
       <r>   13.0524    0.0000 </r>
      </set>
      <set comment="kpoint 18">
       <r>    1.8955    1.0000 </r>
       <r>    4.6151    1.0000 </r>
       <r>    5.5964    1.0254 </r>
       <r>    8.9091    0.0000 </r>
       <r>   10.7240    0.0000 </r>
       <r>   12.6930    0.0000 </r>
      </set>
      <set comment="kpoint 19">
       <r>    2.3624    1.0000 </r>
       <r>    4.3217    1.0000 </r>
       <r>    5.3552    1.0000 </r>
       <r>    8.6766    0.0000 </r>
       <r>   10.4295    0.0000 </r>
       <r>   12.7646    0.0000 </r>
      </set>
      <set comment="kpoint 20">
       <r>    1.9513    1.0000 </r>
       <r>    4.5136    1.0000 </r>
       <r>    6.0904    0.0000 </r>
       <r>    8.8629    0.0000 </r>
       <r>   11.2323    0.0000 </r>
       <r>   13.9447    0.0000 </r>
      </set>
      <set comment="kpoint 21">
       <r>    2.8322    1.0000 </r>
       <r>    4.3799    1.0000 </r>
       <r>    5.2201    1.0000 </r>
       <r>    9.1457    0.0000 </r>
       <r>   10.6504    0.0000 </r>
       <r>   15.0549    0.0000 </r>
      </set>
      <set comment="kpoint 22">
       <r>    3.4918    1.0000 </r>
       <r>    4.4778    1.0000 </r>
       <r>    4.4778    1.0000 </r>
       <r>   10.1084    0.0000 </r>
       <r>   10.1084    0.0000 </r>
       <r>   14.6740    0.0000 </r>
      </set>
      <set comment="kpoint 23">
       <r>    2.2329    1.0000 </r>
       <r>    4.3843    1.0000 </r>
       <r>    4.3843    1.0000 </r>
       <r>   10.0517    0.0000 </r>
       <r>   10.0517    0.0000 </r>
       <r>   12.7820    0.0000 </r>
      </set>
      <set comment="kpoint 24">
       <r>    3.1400    1.0000 </r>
       <r>    4.1383    1.0000 </r>
       <r>    4.7828    1.0000 </r>
       <r>   10.2184    0.0000 </r>
       <r>   10.5293    0.0000 </r>
       <r>   14.9690    0.0000 </r>
      </set>
      <set comment="kpoint 25">
       <r>    3.1474    1.0000 </r>
       <r>    4.0663    1.0000 </r>
       <r>    5.6050    1.0326 </r>
       <r>   10.2786    0.0000 </r>
       <r>   10.6811    0.0000 </r>
       <r>   14.3692    0.0000 </r>
      </set>
      <set comment="kpoint 26">
       <r>   -0.3688    1.0000 </r>
       <r>    6.3638    0.0000 </r>
       <r>    6.3638    0.0000 </r>
       <r>    7.1683    0.0000 </r>
       <r>    7.3627    0.0000 </r>
       <r>   10.5822    0.0000 </r>
      </set>
      <set comment="kpoint 27">
       <r>    3.7410    1.0000 </r>
       <r>    4.4018    1.0000 </r>
       <r>    4.8306    1.0000 </r>
       <r>   10.5321    0.0000 </r>
       <r>   10.6618    0.0000 </r>
       <r>   13.6611    0.0000 </r>
      </set>
      <set comment="kpoint 28">
       <r>    0.8937    1.0000 </r>
       <r>    5.5123    1.0000 </r>
       <r>    6.0061    0.0000 </r>
       <r>    7.2343    0.0000 </r>
       <r>    8.7231    0.0000 </r>
       <r>   10.7862    0.0000 </r>
      </set>
      <set comment="kpoint 29">
       <r>    1.9380    1.0000 </r>
       <r>    4.8873    1.0000 </r>
       <r>    5.4984    1.0000 </r>
       <r>    8.0384    0.0000 </r>
       <r>   10.8503    0.0000 </r>
       <r>   10.8906    0.0000 </r>
      </set>
      <set comment="kpoint 30">
       <r>    2.0629    1.0000 </r>
       <r>    4.5684    1.0000 </r>
       <r>    6.1404    0.0000 </r>
       <r>    7.5163    0.0000 </r>
       <r>    9.9808    0.0000 </r>
       <r>   10.9517    0.0000 </r>
      </set>
      <set comment="kpoint 31">
       <r>    2.1607    1.0000 </r>
       <r>    5.1999    1.0000 </r>
       <r>    5.2584    1.0000 </r>
       <r>    8.0136    0.0000 </r>
       <r>   11.9887    0.0000 </r>
       <r>   12.8498    0.0000 </r>
      </set>
      <set comment="kpoint 32">
       <r>    2.7676    1.0000 </r>
       <r>    4.1838    1.0000 </r>
       <r>    5.7421   -0.0329 </r>
       <r>    8.1508    0.0000 </r>
       <r>   10.7204    0.0000 </r>
       <r>   12.9088    0.0000 </r>
      </set>
      <set comment="kpoint 33">
       <r>    2.7794    1.0000 </r>
       <r>    4.5626    1.0000 </r>
       <r>    5.2952    1.0000 </r>
       <r>    8.1456    0.0000 </r>
       <r>   11.7562    0.0000 </r>
       <r>   14.5638    0.0000 </r>
      </set>
      <set comment="kpoint 34">
       <r>    3.6479    1.0000 </r>
       <r>    3.7092    1.0000 </r>
       <r>    4.9716    1.0000 </r>
       <r>    9.4136    0.0000 </r>
       <r>   10.5826    0.0000 </r>
       <r>   15.3686    0.0000 </r>
      </set>
      <set comment="kpoint 35">
       <r>    4.4714    1.0000 </r>
       <r>    4.4714    1.0000 </r>
       <r>    4.4714    1.0000 </r>
       <r>   10.7403    0.0000 </r>
       <r>   10.7403    0.0000 </r>
       <r>   12.7460    0.0000 </r>
      </set>
      <set comment="kpoint 36">
       <r>    1.9703    1.0000 </r>
       <r>    4.7848    1.0000 </r>
       <r>    6.9538    0.0000 </r>
       <r>    6.9538    0.0000 </r>
       <r>    8.8817    0.0000 </r>
       <r>   10.6855    0.0000 </r>
      </set>
      <set comment="kpoint 37">
       <r>    2.7928    1.0000 </r>
       <r>    3.8552    1.0000 </r>
       <r>    7.0138    0.0000 </r>
       <r>    7.6050    0.0000 </r>
       <r>   10.5444    0.0000 </r>
       <r>   10.8355    0.0000 </r>
      </set>
      <set comment="kpoint 38">
       <r>    2.8275    1.0000 </r>
       <r>    3.7692    1.0000 </r>
       <r>    6.8435    0.0000 </r>
       <r>    7.4887    0.0000 </r>
       <r>   12.5399    0.0000 </r>
       <r>   12.8239    0.0000 </r>
      </set>
      <set comment="kpoint 39">
       <r>    3.1189    1.0000 </r>
       <r>    3.1811    1.0000 </r>
       <r>    6.8559    0.0000 </r>
       <r>    8.8322    0.0000 </r>
       <r>   10.8151    0.0000 </r>
       <r>   12.9272    0.0000 </r>
      </set>
      <set comment="kpoint 40">
       <r>    2.9096    1.0000 </r>
       <r>    3.2338    1.0000 </r>
       <r>    6.5786    0.0000 </r>
       <r>    9.3481    0.0000 </r>
       <r>   11.6590    0.0000 </r>
       <r>   15.2704    0.0000 </r>
      </set>
      <set comment="kpoint 41">
       <r>    2.8964    1.0000 </r>
       <r>    2.9955    1.0000 </r>
       <r>    8.6113    0.0000 </r>
       <r>    8.6113    0.0000 </r>
       <r>   10.7662    0.0000 </r>
       <r>   10.9449    0.0000 </r>
      </set>
      <set comment="kpoint 42">
       <r>    2.5163    1.0000 </r>
       <r>    2.6788    1.0000 </r>
       <r>    9.0763    0.0000 </r>
       <r>    9.0827    0.0000 </r>
       <r>   12.2590    0.0000 </r>
       <r>   13.0713    0.0000 </r>
      </set>
      <set comment="kpoint 43">
       <r>    2.3624    1.0000 </r>
       <r>    2.3624    1.0000 </r>
       <r>    9.0083    0.0000 </r>
       <r>   11.4367    0.0000 </r>
       <r>   11.4367    0.0000 </r>
       <r>   15.5792    0.0000 </r>
      </set>
      <set comment="kpoint 44">
       <r>    2.0604    1.0000 </r>
       <r>    2.1073    1.0000 </r>
       <r>   11.3404    0.0000 </r>
       <r>   11.3404    0.0000 </r>
       <r>   12.2481    0.0000 </r>
       <r>   13.5529    0.0000 </r>
      </set>
     </set>
    </set>
   </array>
  </eigenvalues>
  <separator name="orbital magnetization" >
   <v name="MAGDIPOLOUT">      0.00000000      0.00000000      0.00000000</v>
  </separator>
  <dos>
   <i name="efermi">      5.67381532 </i>
   <total>
    <array>
     <dimension dim="1">gridpoints</dimension>
     <dimension dim="2">spin</dimension>
     <field>energy</field>
     <field>total</field>
     <field>integrated</field>
     <set>
      <set comment="spin 1">
       <r>    -2.8394     0.0000     0.0000 </r>
       <r>    -2.7751     0.0000     0.0000 </r>
       <r>    -2.7107     0.0000     0.0000 </r>
       <r>    -2.6464     0.0000     0.0000 </r>
       <r>    -2.5821     0.0000     0.0000 </r>
       <r>    -2.5178     0.0000     0.0000 </r>
       <r>    -2.4535     0.0000     0.0000 </r>
       <r>    -2.3891     0.0000     0.0000 </r>
       <r>    -2.3248     0.0000     0.0000 </r>
       <r>    -2.2605     0.0000     0.0000 </r>
       <r>    -2.1962     0.0000     0.0000 </r>
       <r>    -2.1319     0.0000     0.0000 </r>
       <r>    -2.0676    -0.0010    -0.0001 </r>
       <r>    -2.0032     0.0020     0.0001 </r>
       <r>    -1.9389     0.1579     0.0102 </r>
       <r>    -1.8746     0.0307     0.0122 </r>
       <r>    -1.8103    -0.0030     0.0120 </r>
       <r>    -1.7460     0.0000     0.0120 </r>
       <r>    -1.6816    -0.0001     0.0120 </r>
       <r>    -1.6173    -0.0076     0.0115 </r>
       <r>    -1.5530     0.1050     0.0183 </r>
       <r>    -1.4887     0.1601     0.0286 </r>
       <r>    -1.4244    -0.0083     0.0280 </r>
       <r>    -1.3600    -0.0004     0.0280 </r>
       <r>    -1.2957    -0.0001     0.0280 </r>
       <r>    -1.2314    -0.0135     0.0271 </r>
       <r>    -1.1671     0.1443     0.0364 </r>
       <r>    -1.1028     0.6190     0.0762 </r>
       <r>    -1.0384     0.0002     0.0762 </r>
       <r>    -0.9741    -0.0036     0.0760 </r>
       <r>    -0.9098     0.0000     0.0760 </r>
       <r>    -0.8455     0.0000     0.0760 </r>
       <r>    -0.7812     0.0000     0.0760 </r>
       <r>    -0.7169     0.0000     0.0760 </r>
       <r>    -0.6525     0.0000     0.0760 </r>
       <r>    -0.5882     0.0000     0.0760 </r>
       <r>    -0.5239    -0.0060     0.0756 </r>
       <r>    -0.4596     0.0298     0.0775 </r>
       <r>    -0.3953     0.6746     0.1209 </r>
       <r>    -0.3309     0.2396     0.1363 </r>
       <r>    -0.2666    -0.0038     0.1361 </r>
       <r>    -0.2023    -0.0016     0.1360 </r>
       <r>    -0.1380    -0.0209     0.1346 </r>
       <r>    -0.0737     0.2717     0.1521 </r>
       <r>    -0.0093     0.5196     0.1855 </r>
       <r>     0.0550    -0.0237     0.1840 </r>
       <r>     0.1193    -0.0253     0.1824 </r>
       <r>     0.1836     0.5001     0.2146 </r>
       <r>     0.2479     0.2935     0.2334 </r>
       <r>     0.3122    -0.0220     0.2320 </r>
       <r>     0.3766    -0.0003     0.2320 </r>
       <r>     0.4409     0.0000     0.2320 </r>
       <r>     0.5052     0.0000     0.2320 </r>
       <r>     0.5695     0.0000     0.2320 </r>
       <r>     0.6338     0.0000     0.2320 </r>
       <r>     0.6982    -0.0001     0.2320 </r>
       <r>     0.7625    -0.0152     0.2310 </r>
       <r>     0.8268     0.1149     0.2384 </r>
       <r>     0.8911     1.2376     0.3180 </r>
       <r>     0.9554     0.9545     0.3794 </r>
       <r>     1.0198    -0.0505     0.3762 </r>
       <r>     1.0841    -0.0031     0.3760 </r>
       <r>     1.1484    -0.0457     0.3730 </r>
       <r>     1.2127     0.5842     0.4106 </r>
       <r>     1.2770     1.6919     0.5194 </r>
       <r>     1.3413     0.0181     0.5206 </r>
       <r>     1.4057    -0.0284     0.5188 </r>
       <r>     1.4700     0.5397     0.5535 </r>
       <r>     1.5343     0.6554     0.5956 </r>
       <r>     1.5986     0.5951     0.6339 </r>
       <r>     1.6629     0.1056     0.6407 </r>
       <r>     1.7273    -0.0106     0.6400 </r>
       <r>     1.7916    -0.0094     0.6394 </r>
       <r>     1.8559     0.0029     0.6396 </r>
       <r>     1.9202     1.4932     0.7356 </r>
       <r>     1.9845     1.7545     0.8485 </r>
       <r>     2.0489     1.6431     0.9542 </r>
       <r>     2.1132     0.8459     1.0086 </r>
       <r>     2.1775     0.6216     1.0485 </r>
       <r>     2.2418     0.3215     1.0692 </r>
       <r>     2.3061     1.1952     1.1461 </r>
       <r>     2.3705     1.2261     1.2250 </r>
       <r>     2.4348     0.4418     1.2534 </r>
       <r>     2.4991     0.1489     1.2629 </r>
       <r>     2.5634     0.5877     1.3007 </r>
       <r>     2.6277    -0.0298     1.2988 </r>
       <r>     2.6920     0.4925     1.3305 </r>
       <r>     2.7564     0.8341     1.3842 </r>
       <r>     2.8207     3.1243     1.5851 </r>
       <r>     2.8850     1.7713     1.6990 </r>
       <r>     2.9493     1.2828     1.7815 </r>
       <r>     3.0136     0.3180     1.8020 </r>
       <r>     3.0780     0.0293     1.8039 </r>
       <r>     3.1423     1.8821     1.9249 </r>
       <r>     3.2066     1.5238     2.0229 </r>
       <r>     3.2709     0.6929     2.0675 </r>
       <r>     3.3352     0.0130     2.0684 </r>
       <r>     3.3996    -0.0086     2.0678 </r>
       <r>     3.4639     0.0278     2.0696 </r>
       <r>     3.5282     0.2150     2.0834 </r>
       <r>     3.5925    -0.0155     2.0824 </r>
       <r>     3.6568     0.4698     2.1126 </r>
       <r>     3.7211     0.9687     2.1749 </r>
       <r>     3.7855     1.3957     2.2647 </r>
       <r>     3.8498     0.5012     2.2969 </r>
       <r>     3.9141     0.4470     2.3257 </r>
       <r>     3.9784    -0.0313     2.3237 </r>
       <r>     4.0427     0.0489     2.3268 </r>
       <r>     4.1071     0.2979     2.3460 </r>
       <r>     4.1714     1.9635     2.4723 </r>
       <r>     4.2357     2.2076     2.6143 </r>
       <r>     4.3000     0.7862     2.6648 </r>
       <r>     4.3643     2.9338     2.8535 </r>
       <r>     4.4287     4.0752     3.1156 </r>
       <r>     4.4930     0.7780     3.1657 </r>
       <r>     4.5573     1.2913     3.2487 </r>
       <r>     4.6216     1.9294     3.3728 </r>
       <r>     4.6859     1.1347     3.4458 </r>
       <r>     4.7503     0.4935     3.4776 </r>
       <r>     4.8146     1.4315     3.5696 </r>
       <r>     4.8789     1.4327     3.6618 </r>
       <r>     4.9432     2.6404     3.8316 </r>
       <r>     5.0075     2.8430     4.0145 </r>
       <r>     5.0718     0.5049     4.0469 </r>
       <r>     5.1362    -0.1041     4.0402 </r>
       <r>     5.2005     0.6421     4.0815 </r>
       <r>     5.2648     3.1435     4.2837 </r>
       <r>     5.3291     2.5969     4.4508 </r>
       <r>     5.3934     2.0262     4.5811 </r>
       <r>     5.4578     0.6011     4.6197 </r>
       <r>     5.5221     1.0535     4.6875 </r>
       <r>     5.5864     1.3988     4.7775 </r>
       <r>     5.6507     3.0784     4.9755 </r>
       <r>     5.7150     1.4502     5.0687 </r>
       <r>     5.7794     1.5966     5.1714 </r>
       <r>     5.8437     0.0006     5.1715 </r>
       <r>     5.9080     0.0976     5.1778 </r>
       <r>     5.9723     1.9608     5.3039 </r>
       <r>     6.0366     0.8430     5.3581 </r>
       <r>     6.1009     1.2354     5.4376 </r>
       <r>     6.1653     1.7423     5.5496 </r>
       <r>     6.2296     0.6263     5.5899 </r>
       <r>     6.2939    -0.0404     5.5873 </r>
       <r>     6.3582     0.1552     5.5973 </r>
       <r>     6.4225     0.5267     5.6312 </r>
       <r>     6.4869     0.0680     5.6355 </r>
       <r>     6.5512     0.2034     5.6486 </r>
       <r>     6.6155     0.7049     5.6940 </r>
       <r>     6.6798     0.2164     5.7079 </r>
       <r>     6.7441     0.5683     5.7444 </r>
       <r>     6.8085     0.0112     5.7451 </r>
       <r>     6.8728     1.2270     5.8241 </r>
       <r>     6.9371     0.3339     5.8455 </r>
       <r>     7.0014     0.8048     5.8973 </r>
       <r>     7.0657     0.6311     5.9379 </r>
       <r>     7.1300    -0.0359     5.9356 </r>
       <r>     7.1944     0.2701     5.9530 </r>
       <r>     7.2587     0.8185     6.0056 </r>
       <r>     7.3230     0.1537     6.0155 </r>
       <r>     7.3873     0.7956     6.0667 </r>
       <r>     7.4516     0.0875     6.0723 </r>
       <r>     7.5160     1.0195     6.1379 </r>
       <r>     7.5803     0.6039     6.1767 </r>
       <r>     7.6446     0.6027     6.2155 </r>
       <r>     7.7089     0.0129     6.2163 </r>
       <r>     7.7732    -0.0046     6.2160 </r>
       <r>     7.8376     0.0000     6.2160 </r>
       <r>     7.9019    -0.0029     6.2158 </r>
       <r>     7.9662    -0.0389     6.2133 </r>
       <r>     8.0305     0.9047     6.2715 </r>
       <r>     8.0948     1.2661     6.3529 </r>
       <r>     8.1592     1.6140     6.4567 </r>
       <r>     8.2235     0.7974     6.5080 </r>
       <r>     8.2878    -0.0936     6.5020 </r>
       <r>     8.3521     0.3575     6.5250 </r>
       <r>     8.4164     1.1639     6.5999 </r>
       <r>     8.4807     0.4205     6.6269 </r>
       <r>     8.5451     0.6095     6.6661 </r>
       <r>     8.6094     0.8242     6.7191 </r>
       <r>     8.6737     1.7437     6.8313 </r>
       <r>     8.7380     1.0933     6.9016 </r>
       <r>     8.8023     0.2022     6.9146 </r>
       <r>     8.8667     1.1340     6.9876 </r>
       <r>     8.9310     1.7924     7.1028 </r>
       <r>     8.9953     0.9297     7.1626 </r>
       <r>     9.0596     0.5230     7.1963 </r>
       <r>     9.1239     1.7881     7.3113 </r>
       <r>     9.1883     2.3612     7.4632 </r>
       <r>     9.2526     0.8394     7.5171 </r>
       <r>     9.3169     0.3112     7.5372 </r>
       <r>     9.3812     2.0455     7.6687 </r>
       <r>     9.4455     0.9822     7.7319 </r>
       <r>     9.5098     1.2413     7.8117 </r>
       <r>     9.5742     0.5920     7.8498 </r>
       <r>     9.6385     0.1244     7.8578 </r>
       <r>     9.7028     1.1626     7.9326 </r>
       <r>     9.7671     1.5928     8.0350 </r>
       <r>     9.8314     1.1954     8.1119 </r>
       <r>     9.8958     0.1851     8.1238 </r>
       <r>     9.9601     0.1894     8.1360 </r>
       <r>    10.0244     1.5464     8.2355 </r>
       <r>    10.0887     2.2224     8.3784 </r>
       <r>    10.1530     0.8494     8.4331 </r>
       <r>    10.2174     0.9587     8.4947 </r>
       <r>    10.2817     0.9294     8.5545 </r>
       <r>    10.3460     1.3087     8.6387 </r>
       <r>    10.4103     2.0717     8.7719 </r>
       <r>    10.4746     3.1204     8.9726 </r>
       <r>    10.5390     2.4901     9.1328 </r>
       <r>    10.6033     3.3023     9.3452 </r>
       <r>    10.6676     3.5046     9.5706 </r>
       <r>    10.7319     4.4340     9.8558 </r>
       <r>    10.7962     2.5212    10.0179 </r>
       <r>    10.8605     2.2107    10.1601 </r>
       <r>    10.9249     1.1127    10.2317 </r>
       <r>    10.9892     0.8020    10.2833 </r>
       <r>    11.0535    -0.0039    10.2830 </r>
       <r>    11.1178     0.5392    10.3177 </r>
       <r>    11.1821     0.2226    10.3320 </r>
       <r>    11.2465     0.5402    10.3668 </r>
       <r>    11.3108     0.2547    10.3831 </r>
       <r>    11.3751     0.2910    10.4019 </r>
       <r>    11.4394     0.3079    10.4217 </r>
       <r>    11.5037     0.2395    10.4371 </r>
       <r>    11.5681    -0.0266    10.4354 </r>
       <r>    11.6324     0.0929    10.4413 </r>
       <r>    11.6967     0.6200    10.4812 </r>
       <r>    11.7610     0.4821    10.5122 </r>
       <r>    11.8253     0.3317    10.5336 </r>
       <r>    11.8896    -0.0301    10.5316 </r>
       <r>    11.9540     0.0373    10.5340 </r>
       <r>    12.0183     0.6525    10.5760 </r>
       <r>    12.0826     0.0711    10.5806 </r>
       <r>    12.1469    -0.0125    10.5798 </r>
       <r>    12.2112    -0.0058    10.5794 </r>
       <r>    12.2756     0.7465    10.6274 </r>
       <r>    12.3399     0.2151    10.6412 </r>
       <r>    12.4042    -0.0193    10.6400 </r>
       <r>    12.4685    -0.0227    10.6385 </r>
       <r>    12.5328     0.3069    10.6583 </r>
       <r>    12.5972     0.4077    10.6845 </r>
       <r>    12.6615     0.9827    10.7477 </r>
       <r>    12.7258     2.7944    10.9274 </r>
       <r>    12.7901     0.9084    10.9858 </r>
       <r>    12.8544     1.2281    11.0648 </r>
       <r>    12.9187     1.7151    11.1751 </r>
       <r>    12.9831     0.9779    11.2380 </r>
       <r>    13.0474     0.3854    11.2628 </r>
       <r>    13.1117     1.0957    11.3333 </r>
       <r>    13.1760    -0.0150    11.3323 </r>
       <r>    13.2403    -0.0053    11.3320 </r>
       <r>    13.3047     0.0000    11.3320 </r>
       <r>    13.3690     0.0000    11.3320 </r>
       <r>    13.4333    -0.0003    11.3320 </r>
       <r>    13.4976    -0.0058    11.3316 </r>
       <r>    13.5619     0.1213    11.3394 </r>
       <r>    13.6263     0.1073    11.3463 </r>
       <r>    13.6906     0.6458    11.3878 </r>
       <r>    13.7549     0.0638    11.3919 </r>
       <r>    13.8192     0.2719    11.4094 </r>
       <r>    13.8835     0.0847    11.4149 </r>
       <r>    13.9479     0.4303    11.4426 </r>
       <r>    14.0122     0.3583    11.4656 </r>
       <r>    14.0765    -0.0245    11.4640 </r>
       <r>    14.1408    -0.0005    11.4640 </r>
       <r>    14.2051     0.0000    11.4640 </r>
       <r>    14.2694    -0.0053    11.4637 </r>
       <r>    14.3338     0.0017    11.4638 </r>
       <r>    14.3981     0.8962    11.5214 </r>
       <r>    14.4624     0.1918    11.5337 </r>
       <r>    14.5267     0.7868    11.5843 </r>
       <r>    14.5910     1.4550    11.6779 </r>
       <r>    14.6554     0.0949    11.6840 </r>
       <r>    14.7197     0.1895    11.6962 </r>
       <r>    14.7840    -0.0024    11.6961 </r>
       <r>    14.8483    -0.0053    11.6957 </r>
       <r>    14.9126    -0.0306    11.6938 </r>
       <r>    14.9770     1.0652    11.7623 </r>
       <r>    15.0413     0.9161    11.8212 </r>
       <r>    15.1056     1.0787    11.8906 </r>
       <r>    15.1699    -0.0418    11.8879 </r>
       <r>    15.2342     0.0256    11.8895 </r>
       <r>    15.2985     0.6264    11.9298 </r>
       <r>    15.3629     0.4065    11.9560 </r>
       <r>    15.4272     0.4619    11.9857 </r>
       <r>    15.4915    -0.0291    11.9838 </r>
       <r>    15.5558     0.0398    11.9864 </r>
       <r>    15.6201     0.2106    11.9999 </r>
       <r>    15.6845     0.0027    12.0001 </r>
       <r>    15.7488    -0.0014    12.0000 </r>
       <r>    15.8131     0.0000    12.0000 </r>
       <r>    15.8774     0.0000    12.0000 </r>
       <r>    15.9417     0.0000    12.0000 </r>
       <r>    16.0061     0.0000    12.0000 </r>
       <r>    16.0704     0.0000    12.0000 </r>
       <r>    16.1347     0.0000    12.0000 </r>
       <r>    16.1990     0.0000    12.0000 </r>
       <r>    16.2633     0.0000    12.0000 </r>
       <r>    16.3276     0.0000    12.0000 </r>
       <r>    16.3920     0.0000    12.0000 </r>
       <r>    16.4563     0.0000    12.0000 </r>
      </set>
     </set>
    </array>
   </total>
  </dos>
 </calculation>
 <structure name="finalpos" >
  <crystal>
   <varray name="basis" >
    <v>       2.86654409       0.00000000       0.00000000 </v>
    <v>      -0.95551470       2.70260368       0.00000000 </v>
    <v>      -0.95551470      -1.35130184       2.34052345 </v>
   </varray>
   <i name="volume">     18.13234550 </i>
   <varray name="rec_basis" >
    <v>       0.34885213       0.12333785       0.21362743 </v>
    <v>       0.00000000       0.37001356       0.21362743 </v>
    <v>       0.00000000       0.00000000       0.42725485 </v>
   </varray>
  </crystal>
  <varray name="positions" >
   <v>       0.00000000       0.00000000       0.00000000 </v>
  </varray>
 </structure>
</modeling>
