   1   1   1   0
  0.1786834E+02  0.2934493E-09  0.2934493E-09  0.2934493E-09  0.5000000E-15
  1.000000000000000E-004
  CAR 
 unknown system                          
     25.13679769     -3.23657754  301      6.17634320      1.00000000
     -3.237  0.0000E+00  0.0000E+00  0.0000E+00  0.0000E+00
     -3.142  0.0000E+00  0.0000E+00  0.0000E+00  0.0000E+00
     -3.047  0.0000E+00  0.0000E+00  0.0000E+00  0.0000E+00
     -2.953  0.0000E+00  0.0000E+00  0.0000E+00  0.0000E+00
     -2.858  0.0000E+00  0.0000E+00  0.0000E+00  0.0000E+00
     -2.764  0.0000E+00  0.0000E+00  0.0000E+00  0.0000E+00
     -2.669  0.0000E+00  0.0000E+00  0.0000E+00  0.0000E+00
     -2.575  0.0000E+00  0.0000E+00  0.0000E+00  0.0000E+00
     -2.480  0.0000E+00  0.0000E+00  0.0000E+00  0.0000E+00
     -2.385 -0.2457E-34 -0.4045E-34 -0.2324E-35 -0.3825E-35
     -2.291 -0.1539E-21 -0.2272E-21 -0.1456E-22 -0.2149E-22
     -2.196 -0.6685E-12 -0.8840E-12 -0.6323E-13 -0.8361E-13
     -2.102 -0.1898E-05 -0.2242E-05 -0.1795E-06 -0.2120E-06
     -2.007 -0.1462E-02 -0.1459E-02 -0.1385E-03 -0.1382E-03
     -1.912  0.4049E-01  0.4093E-01  0.3691E-02  0.3733E-02
     -1.818  0.2316E-02  0.1869E-02  0.3910E-02  0.3909E-02
     -1.723 -0.3801E-04 -0.3332E-04  0.3906E-02  0.3906E-02
     -1.629 -0.6578E-03 -0.7274E-03  0.3844E-02  0.3837E-02
     -1.534  0.3927E-01  0.4211E-01  0.7558E-02  0.7821E-02
     -1.440  0.8780E-01  0.8487E-01  0.1586E-01  0.1585E-01
     -1.345 -0.2504E-02 -0.2347E-02  0.1563E-01  0.1563E-01
     -1.250 -0.1462E-03 -0.1659E-03  0.1561E-01  0.1561E-01
     -1.156  0.9793E-02  0.1144E-01  0.1654E-01  0.1669E-01
     -1.061  0.1186E+00  0.1169E+00  0.2775E-01  0.2775E-01
     -0.967 -0.4322E-02 -0.4251E-02  0.2734E-01  0.2734E-01
     -0.872 -0.2734E-03 -0.3022E-03  0.2732E-01  0.2732E-01
     -0.778  0.1150E-01  0.1296E-01  0.2841E-01  0.2854E-01
     -0.683  0.1567E+00  0.1557E+00  0.4322E-01  0.4327E-01
     -0.588 -0.2671E-02 -0.3134E-02  0.4297E-01  0.4297E-01
     -0.494 -0.6144E-03 -0.6819E-03  0.4291E-01  0.4291E-01
     -0.399  0.4101E-01  0.4549E-01  0.4679E-01  0.4721E-01
     -0.305  0.2148E+00  0.2101E+00  0.6711E-01  0.6708E-01
     -0.210 -0.7650E-02 -0.7380E-02  0.6638E-01  0.6638E-01
     -0.116  0.1819E-01  0.2033E-01  0.6810E-01  0.6830E-01
     -0.021  0.1098E+00  0.1076E+00  0.7849E-01  0.7848E-01
      0.074 -0.3851E-02 -0.3709E-02  0.7813E-01  0.7813E-01
      0.168 -0.2794E-03 -0.3158E-03  0.7810E-01  0.7810E-01
      0.263  0.1657E-01  0.1946E-01  0.7967E-01  0.7994E-01
      0.357  0.2375E+00  0.2346E+00  0.1021E+00  0.1021E+00
      0.452  0.6656E-01  0.6962E-01  0.1084E+00  0.1087E+00
      0.547  0.4379E-01  0.4060E-01  0.1126E+00  0.1125E+00
      0.641  0.2350E+00  0.2383E+00  0.1348E+00  0.1351E+00
      0.736  0.2119E-01  0.1859E-01  0.1368E+00  0.1368E+00
      0.830  0.1474E+00  0.1489E+00  0.1507E+00  0.1509E+00
      0.925  0.1727E-01  0.1527E-01  0.1524E+00  0.1524E+00
      1.019 -0.2891E-03 -0.2638E-03  0.1523E+00  0.1523E+00
      1.114 -0.1747E-01 -0.1743E-01  0.1507E+00  0.1507E+00
      1.209  0.5050E+00  0.5126E+00  0.1984E+00  0.1992E+00
      1.303  0.2228E+00  0.2171E+00  0.2195E+00  0.2197E+00
      1.398  0.8604E-01  0.8630E-01  0.2277E+00  0.2279E+00
      1.492  0.1108E+00  0.1085E+00  0.2381E+00  0.2381E+00
      1.587  0.2115E+00  0.2174E+00  0.2581E+00  0.2587E+00
      1.681  0.3558E+00  0.3536E+00  0.2918E+00  0.2921E+00
      1.776  0.2964E+00  0.3012E+00  0.3198E+00  0.3206E+00
      1.871  0.5109E+00  0.5023E+00  0.3681E+00  0.3681E+00
      1.965  0.2787E+00  0.2889E+00  0.3945E+00  0.3954E+00
      2.060  0.4460E+00  0.4354E+00  0.4367E+00  0.4366E+00
      2.154  0.6088E+00  0.6180E+00  0.4943E+00  0.4951E+00
      2.249  0.2308E+00  0.2285E+00  0.5161E+00  0.5167E+00
      2.344  0.4899E+00  0.4906E+00  0.5624E+00  0.5631E+00
      2.438  0.3471E+00  0.3428E+00  0.5953E+00  0.5955E+00
      2.533  0.5469E-01  0.5146E-01  0.6004E+00  0.6004E+00
      2.627  0.4511E+00  0.4597E+00  0.6431E+00  0.6438E+00
      2.722  0.3042E+00  0.3062E+00  0.6719E+00  0.6728E+00
      2.816  0.9485E+00  0.9434E+00  0.7616E+00  0.7620E+00
      2.911  0.4727E+00  0.4752E+00  0.8063E+00  0.8070E+00
      3.006  0.3892E+00  0.3889E+00  0.8431E+00  0.8438E+00
      3.100  0.4321E+00  0.4255E+00  0.8840E+00  0.8840E+00
      3.195  0.1212E+00  0.1243E+00  0.8954E+00  0.8958E+00
      3.289  0.6217E+00  0.6191E+00  0.9542E+00  0.9543E+00
      3.384  0.2064E+00  0.2072E+00  0.9737E+00  0.9739E+00
      3.478  0.7607E+00  0.7685E+00  0.1046E+01  0.1047E+01
      3.573  0.4837E+00  0.4820E+00  0.1091E+01  0.1092E+01
      3.668  0.6360E+00  0.6308E+00  0.1152E+01  0.1152E+01
      3.762  0.3773E-01  0.3938E-01  0.1155E+01  0.1156E+01
      3.857  0.4664E+00  0.4640E+00  0.1199E+01  0.1199E+01
      3.951  0.3401E+00  0.3448E+00  0.1231E+01  0.1232E+01
      4.046  0.2566E+00  0.2560E+00  0.1256E+01  0.1256E+01
      4.141  0.7986E+00  0.8029E+00  0.1331E+01  0.1332E+01
      4.235  0.5701E+00  0.5605E+00  0.1385E+01  0.1385E+01
      4.330  0.9231E-01  0.9762E-01  0.1394E+01  0.1394E+01
      4.424  0.9564E+00  0.9612E+00  0.1484E+01  0.1485E+01
      4.519  0.6508E+00  0.6435E+00  0.1546E+01  0.1546E+01
      4.613  0.2005E+00  0.1988E+00  0.1565E+01  0.1565E+01
      4.708  0.2981E+00  0.2999E+00  0.1593E+01  0.1593E+01
      4.803  0.2886E+00  0.2847E+00  0.1620E+01  0.1620E+01
      4.897  0.6285E+00  0.6430E+00  0.1680E+01  0.1681E+01
      4.992  0.9081E+00  0.8978E+00  0.1766E+01  0.1766E+01
      5.086  0.2624E+00  0.2631E+00  0.1790E+01  0.1791E+01
      5.181  0.3348E+00  0.3427E+00  0.1822E+01  0.1823E+01
      5.275  0.6087E+00  0.5957E+00  0.1880E+01  0.1880E+01
      5.370  0.4552E+00  0.4707E+00  0.1923E+01  0.1924E+01
      5.465  0.8442E+00  0.8350E+00  0.2003E+01  0.2003E+01
      5.559  0.7208E+00  0.7228E+00  0.2071E+01  0.2072E+01
      5.654  0.6406E+00  0.6436E+00  0.2131E+01  0.2132E+01
      5.748  0.8224E+00  0.8168E+00  0.2209E+01  0.2210E+01
      5.843  0.5145E+00  0.5171E+00  0.2258E+01  0.2259E+01
      5.937  0.2866E+00  0.2807E+00  0.2285E+01  0.2285E+01
      6.032  0.8588E+00  0.8730E+00  0.2366E+01  0.2368E+01
      6.127  0.1144E+01  0.1136E+01  0.2474E+01  0.2475E+01
      6.221  0.3790E+00  0.3752E+00  0.2510E+01  0.2511E+01
      6.316  0.4171E+00  0.4152E+00  0.2550E+01  0.2550E+01
      6.410  0.2599E+00  0.2659E+00  0.2574E+01  0.2575E+01
      6.505  0.7077E+00  0.7121E+00  0.2641E+01  0.2642E+01
      6.600  0.7400E+00  0.7296E+00  0.2711E+01  0.2711E+01
      6.694  0.5764E+00  0.5908E+00  0.2766E+01  0.2767E+01
      6.789  0.4889E+00  0.4728E+00  0.2812E+01  0.2812E+01
      6.883  0.6338E+00  0.6411E+00  0.2872E+01  0.2873E+01
      6.978  0.5597E+00  0.5585E+00  0.2925E+01  0.2925E+01
      7.072  0.4057E+00  0.4117E+00  0.2963E+01  0.2964E+01
      7.167  0.1165E+01  0.1155E+01  0.3073E+01  0.3074E+01
      7.262  0.2221E+00  0.2251E+00  0.3094E+01  0.3095E+01
      7.356  0.4444E+00  0.4430E+00  0.3136E+01  0.3137E+01
      7.451  0.5670E+00  0.5701E+00  0.3190E+01  0.3191E+01
      7.545  0.4149E+00  0.4097E+00  0.3229E+01  0.3229E+01
      7.640  0.1921E+00  0.1949E+00  0.3247E+01  0.3248E+01
      7.734  0.4078E+00  0.4042E+00  0.3286E+01  0.3286E+01
      7.829  0.1057E+00  0.1056E+00  0.3296E+01  0.3296E+01
      7.924  0.3519E+00  0.3649E+00  0.3329E+01  0.3331E+01
      8.018  0.8007E+00  0.7889E+00  0.3405E+01  0.3405E+01
      8.113  0.6215E+00  0.6227E+00  0.3464E+01  0.3464E+01
      8.207  0.2158E+00  0.2140E+00  0.3484E+01  0.3484E+01
      8.302  0.1066E+00  0.1085E+00  0.3494E+01  0.3495E+01
      8.397  0.3236E+00  0.3229E+00  0.3525E+01  0.3525E+01
      8.491  0.6045E+00  0.6063E+00  0.3582E+01  0.3582E+01
      8.586  0.6963E+00  0.6960E+00  0.3648E+01  0.3648E+01
      8.680  0.5142E+00  0.5134E+00  0.3697E+01  0.3697E+01
      8.775  0.3268E+00  0.3281E+00  0.3728E+01  0.3728E+01
      8.869  0.9704E+00  0.9715E+00  0.3819E+01  0.3820E+01
      8.964  0.1868E+00  0.1829E+00  0.3837E+01  0.3837E+01
      9.059  0.3648E+00  0.3651E+00  0.3871E+01  0.3872E+01
      9.153  0.5571E+00  0.5577E+00  0.3924E+01  0.3924E+01
      9.248  0.2553E+00  0.2543E+00  0.3948E+01  0.3948E+01
      9.342  0.5180E-01  0.5100E-01  0.3953E+01  0.3953E+01
      9.437  0.4430E-02  0.4944E-02  0.3954E+01  0.3954E+01
      9.531  0.4810E+00  0.4818E+00  0.3999E+01  0.3999E+01
      9.626  0.3980E+00  0.4002E+00  0.4037E+01  0.4037E+01
      9.721  0.1016E+01  0.1019E+01  0.4133E+01  0.4133E+01
      9.815  0.3304E+00  0.3273E+00  0.4164E+01  0.4164E+01
      9.910  0.4581E+00  0.4570E+00  0.4207E+01  0.4208E+01
     10.004  0.2081E+00  0.2062E+00  0.4227E+01  0.4227E+01
     10.099 -0.1940E-02 -0.1343E-02  0.4227E+01  0.4227E+01
     10.193  0.2272E+00  0.2275E+00  0.4248E+01  0.4248E+01
     10.288  0.2768E+00  0.2775E+00  0.4275E+01  0.4275E+01
     10.383  0.3498E+00  0.3486E+00  0.4308E+01  0.4308E+01
     10.477  0.1319E+00  0.1318E+00  0.4320E+01  0.4320E+01
     10.572  0.2989E+00  0.2998E+00  0.4348E+01  0.4349E+01
     10.666  0.1514E+00  0.1505E+00  0.4363E+01  0.4363E+01
     10.761  0.2987E+00  0.3047E+00  0.4391E+01  0.4392E+01
     10.856  0.1146E+01  0.1143E+01  0.4499E+01  0.4500E+01
     10.950  0.3454E+00  0.3450E+00  0.4532E+01  0.4532E+01
     11.045  0.5886E+00  0.5890E+00  0.4588E+01  0.4588E+01
     11.139  0.4780E+00  0.4760E+00  0.4633E+01  0.4633E+01
     11.234  0.1236E+00  0.1247E+00  0.4645E+01  0.4645E+01
     11.328  0.1864E+00  0.1846E+00  0.4662E+01  0.4662E+01
     11.423  0.5141E-01  0.5149E-01  0.4667E+01  0.4667E+01
     11.518  0.3034E+00  0.3063E+00  0.4696E+01  0.4696E+01
     11.612  0.3653E+00  0.3649E+00  0.4730E+01  0.4731E+01
     11.707  0.2987E+00  0.2982E+00  0.4759E+01  0.4759E+01
     11.801  0.5580E+00  0.5595E+00  0.4811E+01  0.4812E+01
     11.896  0.1202E+01  0.1207E+01  0.4925E+01  0.4926E+01
     11.990  0.8688E+00  0.8597E+00  0.5007E+01  0.5007E+01
     12.085  0.5346E+00  0.5449E+00  0.5058E+01  0.5059E+01
     12.180  0.8050E+00  0.7978E+00  0.5134E+01  0.5134E+01
     12.274  0.2360E+00  0.2341E+00  0.5156E+01  0.5156E+01
     12.369  0.1970E+00  0.1969E+00  0.5175E+01  0.5175E+01
     12.463  0.2806E+00  0.2833E+00  0.5201E+01  0.5202E+01
     12.558  0.4134E+00  0.4107E+00  0.5241E+01  0.5241E+01
     12.653  0.4003E+00  0.4023E+00  0.5278E+01  0.5279E+01
     12.747  0.4247E+00  0.4267E+00  0.5319E+01  0.5319E+01
     12.842  0.6406E+00  0.6397E+00  0.5379E+01  0.5379E+01
     12.936  0.6451E+00  0.6443E+00  0.5440E+01  0.5440E+01
     13.031  0.9740E-01  0.9473E-01  0.5449E+01  0.5449E+01
     13.125 -0.3525E-02 -0.3549E-02  0.5449E+01  0.5449E+01
     13.220  0.7217E-01  0.7368E-01  0.5456E+01  0.5456E+01
     13.315  0.2119E+00  0.2129E+00  0.5476E+01  0.5476E+01
     13.409  0.1095E+00  0.1085E+00  0.5486E+01  0.5486E+01
     13.504  0.6598E+00  0.6610E+00  0.5549E+01  0.5549E+01
     13.598  0.5458E-01  0.5223E-01  0.5554E+01  0.5554E+01
     13.693  0.5592E+00  0.5654E+00  0.5607E+01  0.5607E+01
     13.787  0.4757E+00  0.4717E+00  0.5652E+01  0.5652E+01
     13.882  0.4091E+00  0.4080E+00  0.5690E+01  0.5691E+01
     13.977  0.5309E-01  0.5157E-01  0.5695E+01  0.5695E+01
     14.071  0.5961E-02  0.8182E-02  0.5696E+01  0.5696E+01
     14.166  0.7823E+00  0.7846E+00  0.5770E+01  0.5770E+01
     14.260  0.7905E-01  0.7447E-01  0.5777E+01  0.5777E+01
     14.355  0.1943E-01  0.2171E-01  0.5779E+01  0.5779E+01
     14.449  0.3570E+00  0.3595E+00  0.5813E+01  0.5813E+01
     14.544  0.3813E+00  0.3798E+00  0.5849E+01  0.5849E+01
     14.639  0.2378E+00  0.2354E+00  0.5872E+01  0.5872E+01
     14.733  0.2465E+00  0.2472E+00  0.5895E+01  0.5895E+01
     14.828  0.2750E+00  0.2761E+00  0.5921E+01  0.5921E+01
     14.922  0.9610E-01  0.9344E-01  0.5930E+01  0.5930E+01
     15.017 -0.3449E-02 -0.3300E-02  0.5930E+01  0.5930E+01
     15.112 -0.1082E-05 -0.9137E-06  0.5930E+01  0.5930E+01
     15.206 -0.8173E-04 -0.8958E-04  0.5930E+01  0.5930E+01
     15.301 -0.1453E-02 -0.5335E-03  0.5930E+01  0.5930E+01
     15.395  0.2560E+00  0.2554E+00  0.5954E+01  0.5954E+01
     15.490 -0.1083E-01 -0.1024E-01  0.5953E+01  0.5953E+01
     15.584  0.3540E+00  0.3563E+00  0.5986E+01  0.5987E+01
     15.679  0.2777E+00  0.2745E+00  0.6012E+01  0.6012E+01
     15.774  0.5245E-01  0.5545E-01  0.6017E+01  0.6018E+01
     15.868  0.1992E+00  0.1973E+00  0.6036E+01  0.6036E+01
     15.963  0.2444E+00  0.2434E+00  0.6059E+01  0.6059E+01
     16.057 -0.7280E-02 -0.6914E-02  0.6059E+01  0.6059E+01
     16.152  0.2811E+00  0.2840E+00  0.6085E+01  0.6086E+01
     16.246  0.3336E+00  0.3315E+00  0.6117E+01  0.6117E+01
     16.341 -0.8500E-02 -0.9795E-02  0.6116E+01  0.6116E+01
     16.436  0.4785E+00  0.4875E+00  0.6161E+01  0.6162E+01
     16.530  0.4006E+00  0.3913E+00  0.6199E+01  0.6199E+01
     16.625  0.2627E+00  0.2700E+00  0.6224E+01  0.6225E+01
     16.719  0.4869E+00  0.4807E+00  0.6270E+01  0.6270E+01
     16.814  0.6296E-01  0.6371E-01  0.6276E+01  0.6276E+01
     16.909  0.5590E-01  0.5512E-01  0.6281E+01  0.6281E+01
     17.003  0.2623E+00  0.2626E+00  0.6306E+01  0.6306E+01
     17.098  0.2001E+00  0.2033E+00  0.6325E+01  0.6325E+01
     17.192  0.4557E+00  0.4516E+00  0.6368E+01  0.6368E+01
     17.287  0.1025E+00  0.1029E+00  0.6378E+01  0.6378E+01
     17.381  0.2816E+00  0.2862E+00  0.6404E+01  0.6405E+01
     17.476  0.3532E+00  0.3480E+00  0.6438E+01  0.6438E+01
     17.571  0.1010E+00  0.1013E+00  0.6447E+01  0.6447E+01
     17.665  0.4472E+00  0.4514E+00  0.6490E+01  0.6490E+01
     17.760  0.6532E-01  0.6088E-01  0.6496E+01  0.6496E+01
     17.854  0.1874E+00  0.1892E+00  0.6514E+01  0.6514E+01
     17.949  0.6525E-01  0.6417E-01  0.6520E+01  0.6520E+01
     18.043  0.2543E+00  0.2539E+00  0.6544E+01  0.6544E+01
     18.138  0.8079E-01  0.8224E-01  0.6551E+01  0.6552E+01
     18.233  0.1860E+00  0.1868E+00  0.6569E+01  0.6569E+01
     18.327  0.5717E+00  0.5733E+00  0.6623E+01  0.6624E+01
     18.422  0.3589E+00  0.3588E+00  0.6657E+01  0.6658E+01
     18.516  0.3070E+00  0.3038E+00  0.6686E+01  0.6686E+01
     18.611  0.1933E+00  0.2013E+00  0.6704E+01  0.6705E+01
     18.705  0.6614E+00  0.6545E+00  0.6767E+01  0.6767E+01
     18.800  0.7193E-01  0.7347E-01  0.6774E+01  0.6774E+01
     18.895  0.3349E+00  0.3318E+00  0.6805E+01  0.6806E+01
     18.989  0.1395E+00  0.1401E+00  0.6819E+01  0.6819E+01
     19.084  0.1736E-01  0.1604E-01  0.6820E+01  0.6820E+01
     19.178  0.2814E-01  0.2971E-01  0.6823E+01  0.6823E+01
     19.273  0.9161E-02  0.7445E-02  0.6824E+01  0.6824E+01
     19.368  0.1662E+00  0.1707E+00  0.6840E+01  0.6840E+01
     19.462  0.1110E+00  0.1078E+00  0.6850E+01  0.6850E+01
     19.557  0.2634E+00  0.2685E+00  0.6875E+01  0.6876E+01
     19.651  0.4504E+00  0.4456E+00  0.6918E+01  0.6918E+01
     19.746  0.5411E+00  0.5485E+00  0.6969E+01  0.6970E+01
     19.840  0.9269E+00  0.9281E+00  0.7056E+01  0.7057E+01
     19.935 -0.5587E-01 -0.6224E-01  0.7051E+01  0.7051E+01
     20.030  0.9641E+01  0.9686E+01  0.7963E+01  0.7967E+01
     20.124  0.1345E+01  0.1298E+01  0.8090E+01  0.8090E+01
     20.219  0.2300E+00  0.2305E+00  0.8112E+01  0.8112E+01
     20.313  0.4072E+00  0.4066E+00  0.8150E+01  0.8150E+01
     20.408  0.5646E-01  0.5605E-01  0.8156E+01  0.8156E+01
     20.502  0.3630E+00  0.3682E+00  0.8190E+01  0.8191E+01
     20.597  0.1427E+00  0.3596E-01  0.8204E+01  0.8194E+01
     20.692  0.3830E+00  0.4370E+00  0.8240E+01  0.8235E+01
     20.786  0.2540E+00  0.3056E+00  0.8264E+01  0.8264E+01
     20.881  0.3440E+00  0.3398E+00  0.8296E+01  0.8296E+01
     20.975  0.2262E+00  0.2269E+00  0.8318E+01  0.8318E+01
     21.070  0.2115E+00  0.2136E+00  0.8338E+01  0.8338E+01
     21.165  0.5048E+00  0.5111E+00  0.8385E+01  0.8386E+01
     21.259  0.2249E+00  0.2180E+00  0.8407E+01  0.8407E+01
     21.354  0.1342E+00  0.1339E+00  0.8419E+01  0.8420E+01
     21.448  0.9019E-01  0.9081E-01  0.8428E+01  0.8428E+01
     21.543  0.6263E+00  0.6302E+00  0.8487E+01  0.8488E+01
     21.637  0.6931E+00  0.7003E+00  0.8553E+01  0.8554E+01
     21.732  0.7522E+00  0.7403E+00  0.8624E+01  0.8624E+01
     21.827  0.4185E-01  0.4246E-01  0.8628E+01  0.8628E+01
     21.921  0.2412E+00  0.2395E+00  0.8651E+01  0.8651E+01
     22.016  0.7796E-02  0.6443E-02  0.8651E+01  0.8651E+01
     22.110  0.3073E+00  0.3121E+00  0.8680E+01  0.8681E+01
     22.205  0.1805E+00  0.1760E+00  0.8698E+01  0.8698E+01
     22.299  0.3977E+00  0.4087E+00  0.8735E+01  0.8736E+01
     22.394  0.4891E+00  0.4852E+00  0.8781E+01  0.8782E+01
     22.489  0.2979E+00  0.2116E+00  0.8810E+01  0.8802E+01
     22.583  0.1113E+00  0.1930E+00  0.8820E+01  0.8820E+01
     22.678  0.1159E+00  0.1141E+00  0.8831E+01  0.8831E+01
     22.772  0.2262E+00  0.2286E+00  0.8852E+01  0.8853E+01
     22.867  0.8811E-01  0.8878E-01  0.8861E+01  0.8861E+01
     22.962  0.6858E-01  0.6473E-01  0.8867E+01  0.8867E+01
     23.056  0.1851E-01  0.2109E-01  0.8869E+01  0.8869E+01
     23.151  0.2511E+00  0.2515E+00  0.8893E+01  0.8893E+01
     23.245  0.1825E-01  0.1538E-01  0.8895E+01  0.8895E+01
     23.340  0.2360E-01  0.2628E-01  0.8897E+01  0.8897E+01
     23.434  0.9414E-01  0.8976E-01  0.8906E+01  0.8905E+01
     23.529  0.3228E+00  0.4171E+00  0.8936E+01  0.8945E+01
     23.624  0.3076E+00  0.2115E+00  0.8965E+01  0.8965E+01
     23.718  0.1160E+00  0.1209E+00  0.8976E+01  0.8976E+01
     23.813  0.1430E-01  0.1647E-01  0.8978E+01  0.8978E+01
     23.907  0.2455E+00  0.2420E+00  0.9001E+01  0.9001E+01
     24.002 -0.8756E-02 -0.8766E-02  0.9000E+01  0.9000E+01
     24.096 -0.1345E-04 -0.1081E-04  0.9000E+01  0.9000E+01
     24.191 -0.5304E-11 -0.3675E-11  0.9000E+01  0.9000E+01
     24.286  0.0000E+00  0.0000E+00  0.9000E+01  0.9000E+01
     24.380  0.0000E+00  0.0000E+00  0.9000E+01  0.9000E+01
     24.475  0.0000E+00  0.0000E+00  0.9000E+01  0.9000E+01
     24.569  0.0000E+00  0.0000E+00  0.9000E+01  0.9000E+01
     24.664  0.0000E+00  0.0000E+00  0.9000E+01  0.9000E+01
     24.758  0.0000E+00  0.0000E+00  0.9000E+01  0.9000E+01
     24.853  0.0000E+00  0.0000E+00  0.9000E+01  0.9000E+01
     24.948  0.0000E+00  0.0000E+00  0.9000E+01  0.9000E+01
     25.042  0.0000E+00  0.0000E+00  0.9000E+01  0.9000E+01
     25.137  0.0000E+00  0.0000E+00  0.9000E+01  0.9000E+01
     25.13679769     -3.23657754  301      6.17634320      1.00000000
     -3.237  0.0000E+00  0.0000E+00  0.0000E+00  0.0000E+00  0.0000E+00  0.0000E+00  0.0000E+00  0.0000E+00  0.0000E+00  0.0000E+00  0.0000E+00  0.0000E+00  0.0000E+00  0.0000E+00  0.0000E+00  0.0000E+00  0.0000E+00  0.0000E+00
     -3.142  0.0000E+00  0.0000E+00  0.0000E+00  0.0000E+00  0.0000E+00  0.0000E+00  0.0000E+00  0.0000E+00  0.0000E+00  0.0000E+00  0.0000E+00  0.0000E+00  0.0000E+00  0.0000E+00  0.0000E+00  0.0000E+00  0.0000E+00  0.0000E+00
     -3.047  0.0000E+00  0.0000E+00  0.0000E+00  0.0000E+00  0.0000E+00  0.0000E+00  0.0000E+00  0.0000E+00  0.0000E+00  0.0000E+00  0.0000E+00  0.0000E+00  0.0000E+00  0.0000E+00  0.0000E+00  0.0000E+00  0.0000E+00  0.0000E+00
     -2.953  0.0000E+00  0.0000E+00  0.0000E+00  0.0000E+00  0.0000E+00  0.0000E+00  0.0000E+00  0.0000E+00  0.0000E+00  0.0000E+00  0.0000E+00  0.0000E+00  0.0000E+00  0.0000E+00  0.0000E+00  0.0000E+00  0.0000E+00  0.0000E+00
     -2.858  0.0000E+00  0.0000E+00  0.0000E+00  0.0000E+00  0.0000E+00  0.0000E+00  0.0000E+00  0.0000E+00  0.0000E+00  0.0000E+00  0.0000E+00  0.0000E+00  0.0000E+00  0.0000E+00  0.0000E+00  0.0000E+00  0.0000E+00  0.0000E+00
     -2.764  0.0000E+00  0.0000E+00  0.0000E+00  0.0000E+00  0.0000E+00  0.0000E+00  0.0000E+00  0.0000E+00  0.0000E+00  0.0000E+00  0.0000E+00  0.0000E+00  0.0000E+00  0.0000E+00  0.0000E+00  0.0000E+00  0.0000E+00  0.0000E+00
     -2.669  0.0000E+00  0.0000E+00  0.0000E+00  0.0000E+00  0.0000E+00  0.0000E+00  0.0000E+00  0.0000E+00  0.0000E+00  0.0000E+00  0.0000E+00  0.0000E+00  0.0000E+00  0.0000E+00  0.0000E+00  0.0000E+00  0.0000E+00  0.0000E+00
     -2.575  0.0000E+00  0.0000E+00  0.0000E+00  0.0000E+00  0.0000E+00  0.0000E+00  0.0000E+00  0.0000E+00  0.0000E+00  0.0000E+00  0.0000E+00  0.0000E+00  0.0000E+00  0.0000E+00  0.0000E+00  0.0000E+00  0.0000E+00  0.0000E+00
     -2.480  0.0000E+00  0.0000E+00  0.0000E+00  0.0000E+00  0.0000E+00  0.0000E+00  0.0000E+00  0.0000E+00  0.0000E+00  0.0000E+00  0.0000E+00  0.0000E+00  0.0000E+00  0.0000E+00  0.0000E+00  0.0000E+00  0.0000E+00  0.0000E+00
     -2.385 -0.2127E-34 -0.3500E-34 -0.1042E-36 -0.1715E-36 -0.1042E-36 -0.1715E-36 -0.1042E-36 -0.1715E-36 -0.2255E-38 -0.3710E-38 -0.2255E-38 -0.3710E-38 -0.1115E-47 -0.1598E-51 -0.2255E-38 -0.3710E-38 -0.3508E-47 -0.3400E-54
     -2.291 -0.1332E-21 -0.1966E-21 -0.6525E-24 -0.9632E-24 -0.6525E-24 -0.9632E-24 -0.6525E-24 -0.9632E-24 -0.1412E-25 -0.2084E-25 -0.1412E-25 -0.2084E-25 -0.6981E-35 -0.8977E-39 -0.1412E-25 -0.2084E-25 -0.2197E-34 -0.1910E-41
     -2.196 -0.5786E-12 -0.7650E-12 -0.2834E-14 -0.3748E-14 -0.2834E-14 -0.3748E-14 -0.2834E-14 -0.3748E-14 -0.6134E-16 -0.8110E-16 -0.6134E-16 -0.8110E-16 -0.3032E-25 -0.3493E-29 -0.6134E-16 -0.8110E-16 -0.9544E-25 -0.7431E-32
     -2.102 -0.1643E-05 -0.1940E-05 -0.8048E-08 -0.9506E-08 -0.8048E-08 -0.9506E-08 -0.8048E-08 -0.9506E-08 -0.1742E-09 -0.2057E-09 -0.1742E-09 -0.2057E-09 -0.8611E-19 -0.8859E-23 -0.1742E-09 -0.2057E-09 -0.2710E-18 -0.1885E-25
     -2.007 -0.1266E-02 -0.1263E-02 -0.6199E-05 -0.6187E-05 -0.6199E-05 -0.6187E-05 -0.6199E-05 -0.6187E-05 -0.1342E-06 -0.1339E-06 -0.1342E-06 -0.1339E-06 -0.6633E-16 -0.5767E-20 -0.1342E-06 -0.1339E-06 -0.2088E-15 -0.1227E-22
     -1.912  0.3504E-01  0.3542E-01  0.1717E-03  0.1735E-03  0.1717E-03  0.1735E-03  0.1717E-03  0.1735E-03  0.3715E-05  0.3755E-05  0.3715E-05  0.3755E-05  0.1837E-14  0.1617E-18  0.3715E-05  0.3755E-05  0.5780E-14  0.3441E-21
     -1.818  0.2004E-02  0.1617E-02  0.9819E-05  0.7924E-05  0.9819E-05  0.7924E-05  0.9819E-05  0.7924E-05  0.2125E-06  0.1714E-06  0.2125E-06  0.1714E-06  0.1050E-15 -0.4429E-19  0.2125E-06  0.1714E-06  0.3305E-15 -0.1550E-18
     -1.723 -0.3289E-04 -0.2883E-04 -0.1611E-06 -0.1413E-06 -0.1611E-06 -0.1413E-06 -0.1616E-06 -0.1418E-06 -0.3497E-08 -0.3068E-08 -0.3487E-08 -0.3057E-08 -0.3427E-11 -0.4272E-11 -0.3497E-08 -0.3068E-08 -0.1028E-10 -0.1282E-10
     -1.629 -0.5516E-03 -0.6098E-03 -0.2602E-05 -0.2877E-05 -0.2602E-05 -0.2877E-05 -0.2451E-04 -0.2710E-04 -0.5225E-06 -0.5777E-06 -0.7916E-07 -0.8752E-07 -0.1677E-06 -0.1854E-06 -0.5225E-06 -0.5777E-06 -0.5031E-06 -0.5562E-06
     -1.534  0.3292E-01  0.3531E-01  0.1553E-03  0.1666E-03  0.1553E-03  0.1666E-03  0.1463E-02  0.1569E-02  0.3119E-04  0.3345E-04  0.4725E-05  0.5067E-05  0.1001E-04  0.1073E-04  0.3119E-04  0.3345E-04  0.3003E-04  0.3220E-04
     -1.440  0.7361E-01  0.7115E-01  0.3473E-03  0.3357E-03  0.3473E-03  0.3357E-03  0.3272E-02  0.3162E-02  0.6974E-04  0.6740E-04  0.1056E-04  0.1021E-04  0.2238E-04  0.2163E-04  0.6974E-04  0.6740E-04  0.6715E-04  0.6489E-04
     -1.345 -0.2100E-02 -0.1967E-02 -0.9905E-05 -0.9282E-05 -0.9905E-05 -0.9282E-05 -0.9331E-04 -0.8744E-04 -0.1989E-05 -0.1864E-05 -0.3013E-06 -0.2823E-06 -0.6384E-06 -0.5981E-06 -0.1989E-05 -0.1864E-05 -0.1915E-05 -0.1794E-05
     -1.250 -0.1187E-03 -0.1346E-03 -0.5074E-05 -0.5761E-05 -0.5074E-05 -0.5761E-05 -0.5317E-06 -0.5994E-06 -0.1524E-06 -0.1729E-06 -0.1009E-05 -0.1146E-05 -0.2951E-07 -0.3348E-07 -0.1524E-06 -0.1729E-06 -0.8854E-07 -0.1004E-06
     -1.156  0.7947E-02  0.9286E-02  0.3406E-03  0.3980E-03  0.3406E-03  0.3980E-03  0.3476E-04  0.4063E-04  0.1021E-04  0.1193E-04  0.6776E-04  0.7918E-04  0.1975E-05  0.2308E-05  0.1021E-04  0.1193E-04  0.5926E-05  0.6923E-05
     -1.061  0.9624E-01  0.9484E-01  0.4124E-02  0.4065E-02  0.4124E-02  0.4065E-02  0.4210E-03  0.4149E-03  0.1236E-03  0.1219E-03  0.8205E-03  0.8087E-03  0.2392E-04  0.2357E-04  0.1236E-03  0.1219E-03  0.7176E-04  0.7071E-04
     -0.967 -0.3507E-02 -0.3450E-02 -0.1503E-03 -0.1478E-03 -0.1503E-03 -0.1478E-03 -0.1534E-04 -0.1509E-04 -0.4506E-05 -0.4432E-05 -0.2990E-04 -0.2942E-04 -0.8717E-06 -0.8573E-06 -0.4506E-05 -0.4432E-05 -0.2615E-05 -0.2572E-05
     -0.872 -0.2141E-03 -0.2366E-03 -0.7819E-05 -0.8599E-05 -0.1018E-04 -0.1134E-04 -0.7690E-05 -0.8491E-05 -0.2224E-05 -0.2455E-05 -0.2293E-05 -0.2527E-05 -0.2699E-06 -0.3132E-06 -0.2269E-05 -0.2507E-05 -0.2495E-08 -0.2099E-08
     -0.778  0.9009E-02  0.1015E-01  0.4294E-03  0.4614E-03  0.1837E-03  0.2613E-03  0.4294E-03  0.4614E-03  0.1274E-03  0.1364E-03  0.1227E-03  0.1326E-03 -0.2804E-04 -0.2284E-04  0.1227E-03  0.1326E-03 -0.2237E-14 -0.5321E-15
     -0.683  0.1224E+00  0.1216E+00  0.1322E-02  0.1291E-02  0.1341E-01  0.1338E-01  0.1322E-02  0.1291E-02  0.2820E-03  0.2729E-03  0.5127E-03  0.5037E-03  0.1380E-02  0.1380E-02  0.5127E-03  0.5037E-03  0.8290E-13  0.4591E-18
     -0.588 -0.2087E-02 -0.2449E-02 -0.3075E-04 -0.3093E-04 -0.2089E-03 -0.2575E-03 -0.3075E-04 -0.3093E-04 -0.7446E-05 -0.7083E-05 -0.1084E-04 -0.1141E-04 -0.2033E-04 -0.2585E-04 -0.1084E-04 -0.1141E-04 -0.1817E-10 -0.2297E-10
     -0.494 -0.4645E-03 -0.5153E-03 -0.1784E-04 -0.2001E-04 -0.4681E-05 -0.4464E-05 -0.5337E-04 -0.5992E-04 -0.1034E-04 -0.1161E-04 -0.1096E-05 -0.1214E-05 -0.2232E-05 -0.2419E-05 -0.1619E-05 -0.1802E-05 -0.2156E-05 -0.2421E-05
     -0.399  0.3095E-01  0.3432E-01  0.1247E-02  0.1383E-02  0.1158E-03  0.1285E-03  0.3745E-02  0.4154E-02  0.7264E-03  0.8057E-03  0.7264E-04  0.8056E-04  0.1335E-03  0.1480E-03  0.1094E-03  0.1213E-03  0.1516E-03  0.1681E-03
     -0.305  0.1621E+00  0.1585E+00  0.6530E-02  0.6387E-02  0.6067E-03  0.5934E-03  0.1961E-01  0.1918E-01  0.3804E-02  0.3721E-02  0.3804E-03  0.3721E-03  0.6992E-03  0.6837E-03  0.5729E-03  0.5604E-03  0.7940E-03  0.7763E-03
     -0.210 -0.5766E-02 -0.5560E-02 -0.2311E-03 -0.2227E-03 -0.2716E-04 -0.2710E-04 -0.6960E-03 -0.6710E-03 -0.1369E-03 -0.1323E-03 -0.1698E-04 -0.1693E-04 -0.2431E-04 -0.2335E-04 -0.2567E-04 -0.2561E-04 -0.2806E-04 -0.2703E-04
     -0.116  0.1317E-01  0.1472E-01  0.4452E-03  0.4977E-03  0.4453E-03  0.4977E-03  0.1473E-02  0.1647E-02  0.4214E-03  0.4710E-03  0.2751E-03  0.3076E-03  0.1725E-04  0.1928E-04  0.4214E-03  0.4710E-03  0.5178E-04  0.5786E-04
     -0.021  0.7951E-01  0.7787E-01  0.2689E-02  0.2634E-02  0.2689E-02  0.2634E-02  0.8897E-02  0.8714E-02  0.2545E-02  0.2492E-02  0.1661E-02  0.1627E-02  0.1042E-03  0.1021E-03  0.2545E-02  0.2492E-02  0.3127E-03  0.3062E-03
      0.074 -0.2788E-02 -0.2685E-02 -0.9429E-04 -0.9079E-04 -0.9429E-04 -0.9079E-04 -0.3120E-03 -0.3004E-03 -0.8924E-04 -0.8592E-04 -0.5826E-04 -0.5610E-04 -0.3656E-05 -0.3519E-05 -0.8924E-04 -0.8592E-04 -0.1097E-04 -0.1056E-04
      0.168 -0.1946E-03 -0.2199E-03 -0.1825E-04 -0.2059E-04 -0.2670E-04 -0.3028E-04 -0.6922E-06 -0.7399E-06 -0.1100E-05 -0.1230E-05 -0.1080E-04 -0.1219E-04 -0.3126E-05 -0.3578E-05 -0.1239E-05 -0.1389E-05 -0.8512E-06 -0.9592E-06
      0.263  0.1159E-01  0.1360E-01  0.1284E-02  0.1450E-02  0.1368E-02  0.1673E-02  0.2933E-04  0.3535E-04  0.7375E-04  0.8346E-04  0.7558E-03  0.8542E-03  0.4828E-04  0.9781E-04  0.7513E-04  0.8713E-04  0.6011E-04  0.6772E-04
      0.357  0.1639E+00  0.1618E+00  0.9211E-02  0.9029E-02  0.3006E-01  0.2978E-01  0.5394E-03  0.5317E-03  0.4996E-03  0.4841E-03  0.5552E-02  0.5441E-02  0.7156E-02  0.7115E-02  0.8415E-03  0.8243E-03  0.4167E-03  0.4083E-03
      0.452  0.4379E-01  0.4581E-01  0.4326E-02  0.4532E-02  0.3704E-02  0.3876E-02  0.1080E-02  0.1126E-02  0.2767E-02  0.2884E-02  0.4201E-02  0.4391E-02 -0.1754E-03 -0.1849E-03  0.2756E-02  0.2874E-02  0.1015E-03  0.1068E-03
      0.547  0.2898E-01  0.2687E-01  0.3062E-02  0.2867E-02  0.1916E-02  0.1707E-02  0.7572E-03  0.7115E-03  0.1932E-02  0.1816E-02  0.2855E-02  0.2670E-02 -0.3274E-03 -0.3332E-03  0.1927E-02  0.1811E-02  0.8063E-04  0.7576E-04
      0.641  0.1549E+00  0.1571E+00  0.5959E-02  0.6045E-02  0.3734E-01  0.3785E-01  0.4447E-03  0.4519E-03  0.8483E-03  0.8629E-03  0.6699E-02  0.6795E-02  0.9712E-02  0.9839E-02  0.9866E-03  0.1003E-02  0.3734E-04  0.3800E-04
      0.736  0.1379E-01  0.1203E-01  0.6245E-03  0.5666E-03  0.2895E-02  0.2409E-02  0.1388E-03  0.1539E-03  0.3390E-03  0.3779E-03  0.8242E-03  0.7851E-03  0.7383E-03  0.6068E-03  0.3235E-03  0.3596E-03  0.3400E-05  0.2888E-05
      0.830  0.9108E-01  0.9205E-01  0.3219E-02  0.3231E-02  0.1663E-01  0.1691E-01  0.3226E-02  0.3237E-02  0.6686E-02  0.6695E-02  0.7468E-02  0.7493E-02  0.3130E-02  0.3191E-02  0.7475E-02  0.7500E-02 -0.5010E-07 -0.4416E-07
      0.925  0.1089E-01  0.9635E-02  0.2582E-03  0.2258E-03  0.2554E-02  0.2271E-02  0.2582E-03  0.2258E-03  0.4562E-03  0.3965E-03  0.5909E-03  0.5165E-03  0.5363E-03  0.4776E-03  0.5909E-03  0.5165E-03 -0.3000E-12 -0.2759E-12
      1.019 -0.1802E-03 -0.1641E-03 -0.5588E-05 -0.5308E-05 -0.3691E-04 -0.3279E-04 -0.7262E-05 -0.7287E-05 -0.1051E-04 -0.1001E-04 -0.1141E-04 -0.1050E-04 -0.7744E-05 -0.6922E-05 -0.1122E-04 -0.1028E-04 -0.1903E-06 -0.2250E-06
      1.114 -0.1024E-01 -0.1022E-01 -0.9183E-03 -0.9189E-03 -0.5413E-04 -0.5372E-04 -0.2134E-02 -0.2132E-02 -0.1584E-02 -0.1580E-02 -0.7303E-03 -0.7224E-03 -0.1373E-03 -0.1376E-03 -0.6272E-03 -0.6209E-03 -0.1453E-03 -0.1453E-03
      1.209  0.2947E+00  0.2989E+00  0.2596E-01  0.2630E-01  0.1234E-02  0.1253E-02  0.6090E-01  0.6174E-01  0.4668E-01  0.4746E-01  0.2292E-01  0.2342E-01  0.3308E-02  0.3326E-02  0.1987E-01  0.2032E-01  0.4124E-02  0.4177E-02
      1.303  0.1157E+00  0.1124E+00  0.3443E-02  0.3106E-02  0.1913E-01  0.1954E-01  0.1052E-01  0.9678E-02  0.1558E-01  0.1477E-01  0.1457E-01  0.1404E-01  0.1896E-01  0.1939E-01  0.1383E-01  0.1334E-01  0.5731E-03  0.5174E-03
      1.398  0.3815E-01  0.3807E-01  0.5503E-03  0.6019E-03  0.7466E-02  0.7075E-02  0.1928E-04  0.3456E-04  0.1005E-01  0.1048E-01  0.1032E-01  0.1077E-01  0.7351E-02  0.6880E-02  0.1015E-01  0.1057E-01 -0.7506E-05 -0.5508E-05
      1.492  0.4756E-01  0.4655E-01  0.2966E-02  0.2909E-02  0.2555E-02  0.2481E-02  0.5072E-04  0.4964E-04  0.1889E-01  0.1850E-01  0.2049E-01  0.2008E-01 -0.3974E-03 -0.4132E-03  0.1889E-01  0.1851E-01  0.5833E-04  0.5728E-04