    1    1    1    2
  0.1786834E+02  0.2934493E-09  0.2934493E-09  0.2934493E-09  0.5000000E-15
  1.000000000000000E-004
  CAR 
 unknown system                          
    5   60    9
 
  0.6250000E-01  0.6250000E-01  0.6250000E-01  0.3906250E-02
   1       -1.945451     -1.946879
   2        6.502344      6.501272
   3        6.728164      6.727126
   4        6.728164      6.727126
   5        9.761736      9.761760
   6        9.761736      9.761760
   7       19.167864     19.165597
   8       19.996942     19.996474
   9       23.070229     23.069258
 
  0.1875000E+00  0.6250000E-01  0.6250000E-01  0.1171875E-01
   1       -1.125625     -1.127061
   2        5.875675      5.874494
   3        7.053049      7.052071
   4        7.083297      7.082287
   5        9.135388      9.135315
   6        9.891141      9.891095
   7       19.995870     19.995397
   8       20.610754     20.608850
   9       21.523645     21.522577
 
  0.3125000E+00  0.6250000E-01  0.6250000E-01  0.1171875E-01
   1        0.446898      0.445441
   2        5.347018      5.345709
   3        6.905510      6.904773
   4        7.138832      7.138138
   5        9.507924      9.507517
   6       10.741035     10.740749
   7       18.938259     18.937349
   8       19.999733     19.999268
   9       23.084223     23.082627
 
  0.4375000E+00  0.6250000E-01  0.6250000E-01  0.1171875E-01
   1        1.425157      1.423678
   2        6.079746      6.078624
   3        6.479460      6.478565
   4        6.660014      6.659443
   5       11.218998     11.218559
   6       12.249288     12.248969
   7       17.431818     17.431018
   8       19.942074     19.941128
   9       20.084742     20.083775
 
 -0.4375000E+00  0.6250000E-01  0.6250000E-01  0.1171875E-01
   1        1.547073      1.545587
   2        6.082638      6.082031
   3        6.539741      6.539164
   4        6.979139      6.977728
   5       12.362958     12.362654
   6       12.468479     12.468116
   7       16.810714     16.809945
   8       18.808448     18.807003
   9       20.003123     20.002667
 
 -0.3125000E+00  0.6250000E-01  0.6250000E-01  0.1171875E-01
   1        1.228464      1.226994
   2        5.687301      5.685992
   3        6.516373      6.515715
   4        6.864910      6.864272
   5       10.853934     10.853439
   6       11.576470     11.576167
   7       17.855777     17.854935
   8       19.995308     19.994832
   9       21.149978     21.148560
 
 -0.1875000E+00  0.6250000E-01  0.6250000E-01  0.1171875E-01
   1       -0.091824     -0.093270
   2        5.385948      5.384679
   3        7.069052      7.068285
   4        7.237701      7.236855
   5        9.238162      9.237790
   6       10.256497     10.256338
   7       19.593131     19.592159
   8       20.003404     20.002941
   9       22.869695     22.867931
 
 -0.6250000E-01  0.6250000E-01  0.6250000E-01  0.1171875E-01
   1       -1.522717     -1.524148
   2        6.095728      6.094598
   3        6.957338      6.956309
   4        6.971505      6.970477
   5        9.217485      9.217429
   6        9.943239      9.943271
   7       19.996503     19.996027
   8       20.034480     20.032291
   9       22.291711     22.290838
 
  0.1875000E+00  0.1875000E+00  0.6250000E-01  0.1171875E-01
   1       -0.729235     -0.730664
   2        5.407731      5.406522
   3        7.369180      7.368249
   4        7.454508      7.453501
   5        8.407066      8.406790
   6       10.289990     10.290039
   7       19.996457     19.995986
   8       21.519890     21.518004
   9       22.090474     22.089514
 
  0.3125000E+00  0.1875000E+00  0.6250000E-01  0.2343750E-01
   1        0.611337      0.609929
   2        4.742560      4.741260
   3        6.692101      6.691506
   4        8.051783      8.050943
   5        8.829872      8.829187
   6       11.066756     11.066629
   7       19.993000     19.992521
   8       20.945681     20.944996
   9       23.847099     23.845226
 
  0.4375000E+00  0.1875000E+00  0.6250000E-01  0.2343750E-01
   1        1.963782      1.962375
   2        4.854490      4.853328
   3        5.842538      5.841699
   4        7.675056      7.674463
   5       10.801940     10.801283
   6       12.589894     12.589569
   7       18.482032     18.481237
   8       20.003622     20.003166
   9       21.631160     21.629812
 
 -0.4375000E+00  0.1875000E+00  0.6250000E-01  0.2343750E-01
   1        2.354718      2.353242
   2        4.980962      4.980389
   3        6.402458      6.401025
   4        7.304852      7.304330
   5       12.071102     12.070661
   6       13.687627     13.687057
   7       16.142567     16.141744
   8       20.001826     20.001366
   9       20.654003     20.652774
 
 -0.3125000E+00  0.1875000E+00  0.6250000E-01  0.2343750E-01
   1        2.259048      2.257575
   2        5.203690      5.202938
   3        5.807351      5.806101
   4        7.403369      7.402872
   5       10.773481     10.772875
   6       13.453385     13.452994
   7       17.647985     17.647175
   8       20.002747     20.002290
   9       21.133005     21.131646
 
 -0.1875000E+00  0.1875000E+00  0.6250000E-01  0.2343750E-01
   1        1.179507      1.178065
   2        4.881713      4.880375
   3        6.298501      6.297853
   4        7.918977      7.918421
   5        8.844724      8.844048
   6       11.890203     11.889900
   7       19.958783     19.958211
   8       20.151345     20.150793
   9       23.512449     23.510851
 
 -0.6250000E-01  0.1875000E+00  0.6250000E-01  0.2343750E-01
   1       -0.377118     -0.378556
   2        5.373034      5.371790
   3        7.110014      7.109188
   4        7.475703      7.474742
   5        8.670007      8.669731
   6       10.352101     10.352003
   7       19.994264     19.993787
   8       20.780138     20.779243
   9       22.280615     22.278724
 
  0.3125000E+00  0.3125000E+00  0.6250000E-01  0.1171875E-01
   1        1.290053      1.288833
   2        3.929881      3.928548
   3        6.585840      6.585117
   4        9.089170      9.088271
   5        9.494354      9.493397
   6       11.329247     11.329325
   7       19.994708     19.994234
   8       22.276000     22.275215
   9       23.485372     23.484294
 
  0.4375000E+00  0.3125000E+00  0.6250000E-01  0.2343750E-01
   1        2.138622      2.137694
   2        3.606682      3.605316
   3        6.247299      6.246160
   4        9.665431      9.664865
   5       10.917010     10.916191
   6       12.667904     12.667591
   7       19.358207     19.357125
   8       20.011787     20.011333
   9       21.611356     21.610132
 
 -0.4375000E+00  0.3125000E+00  0.6250000E-01  0.2343750E-01
   1        2.845864      2.844955
   2        3.954306      3.953170
   3        6.037009      6.035574
   4        9.008618      9.008223
   5       12.179256     12.178654
   6       14.684340     14.683346
   7       15.789568     15.788713
   8       19.998960     19.998495
   9       21.611579     21.610539
 
 -0.3125000E+00  0.3125000E+00  0.6250000E-01  0.2343750E-01
   1        3.581947      3.580627
   2        4.156155      4.155465
   3        5.515794      5.514309
   4        8.505998      8.505722
   5       11.017773     11.016975
   6       13.813700     13.812804
   7       18.232423     18.231732
   8       19.998890     19.998419
   9       20.453562     20.452592
 
 -0.1875000E+00  0.3125000E+00  0.6250000E-01  0.2343750E-01
   1        2.729214      2.727761
   2        4.887525      4.886298
   3        5.181871      5.181079
   4        8.065173      8.064847
   5        9.824387      9.823558
   6       13.698075     13.697659
   7       18.641595     18.640718
   8       20.006335     20.005883
   9       22.469470     22.490574
 
 -0.6250000E-01  0.3125000E+00  0.6250000E-01  0.2343750E-01
   1        1.171943      1.170488
   2        5.188333      5.187015
   3        6.426464      6.425814
   4        7.265217      7.264580
   5        9.894650      9.894082
   6       11.681509     11.681209
   7       18.842741     18.841952
   8       20.000443     19.999980
   9       22.342702     22.341200
 
  0.4375000E+00  0.4375000E+00  0.6250000E-01  0.1171875E-01
   1        1.780072      1.779415
   2        2.944118      2.942724
   3        7.934671      7.933054
   4       11.247515     11.247092
   5       12.138058     12.137146
   6       12.450519     12.450338
   7       18.697548     18.696309
   8       19.611631     19.610314
   9       19.991906     19.991421
 
 -0.4375000E+00  0.4375000E+00  0.6250000E-01  0.2343750E-01
   1        2.008582      2.008010
   2        3.046889      3.045485
   3        7.951024      7.949337
   4       10.987668     10.987587
   5       12.829304     12.828612
   6       14.383330     14.382355
   7       16.438103     16.436978
   8       18.644287     18.643018
   9       19.992209     19.991734
 
 -0.3125000E+00  0.4375000E+00  0.6250000E-01  0.2343750E-01
   1        2.802782      2.802088
   2        3.817552      3.816266
   3        6.499335      6.497783
   4        9.469979      9.469742
   5       12.107844     12.107099
   6       14.448025     14.446916
   7       16.638503     16.637485
   8       19.971492     19.970961
   9       20.255807     20.255248
 
 -0.1875000E+00  0.4375000E+00  0.6250000E-01  0.2343750E-01
   1        3.020229      3.018776
   2        4.423632      4.423062
   3        5.992496      5.991027
   4        7.929981      7.929554
   5       11.599393     11.598797
   6       14.147082     14.146263
   7       16.438918     16.438201
   8       20.001168     20.000707
   9       21.698535     21.697590
 
 -0.6250000E-01  0.4375000E+00  0.6250000E-01  0.2343750E-01
   1        1.801977      1.800495
   2        5.666489      5.665847
   3        6.540166      6.538812
   4        6.850081      6.849511
   5       11.774254     11.773810
   6       12.918181     12.917822
   7       16.950879     16.950094
   8       19.740115     19.738706
   9       20.006263     20.005799
 
 -0.4375000E+00 -0.4375000E+00  0.6250000E-01  0.1171875E-01
   1        1.658325      1.657753
   2        2.736450      2.735045
   3        8.910411      8.908532
   4       11.947657     11.947779
   5       12.923705     12.923094
   6       13.308810     13.307986
   7       17.248010     17.246674
   8       18.297455     18.296040
   9       19.839759     19.839033
 
 -0.3125000E+00 -0.4375000E+00  0.6250000E-01  0.2343750E-01
   1        2.136996      2.136332
   2        3.236877      3.235487
   3        7.096538      7.095046
   4       10.525513     10.525180
   5       12.094082     12.093364
   6       13.492568     13.491899
   7       17.630729     17.629617
   8       19.820158     19.818885
   9       20.003882     20.003403
 
 -0.1875000E+00 -0.4375000E+00  0.6250000E-01  0.2343750E-01
   1        2.605793      2.604555
   2        4.340454      4.339467
   3        5.689918      5.688707
   4        8.305559      8.305036
   5       11.840635     11.840032
   6       13.436792     13.436233
   7       17.139741     17.138803
   8       20.001807     20.001348
   9       22.089989     22.089064
 
 -0.3125000E+00 -0.3125000E+00  0.6250000E-01  0.1171875E-01
   1        1.792153      1.791261
   2        3.349624      3.348254
   3        6.887057      6.885859
   4       10.165722     10.164966
   5       10.749046     10.748097
   6       11.907662     11.907697
   7       19.987489     19.986996
   8       20.712338     20.711215
   9       21.520940     21.519729
 
 -0.1875000E+00 -0.3125000E+00  0.6250000E-01  0.2343750E-01
   1        1.594131      1.592868
   2        4.126120      4.124780
   3        6.141159      6.140432
   4        8.783792      8.783077
   5        9.721053      9.720230
   6       11.869161     11.868985
   7       19.988409     19.987919
   8       20.837673     20.836917
   9       23.568724     23.537348
 
 -0.1875000E+00 -0.1875000E+00  0.6250000E-01  0.1171875E-01
   1        0.304079      0.302691
   2        4.641605      4.640326
   3        7.091584      7.091099
   4        8.167662      8.166695
   5        8.513090      8.512195
   6       10.768752     10.768819
   7       19.995788     19.995317
   8       22.170873     22.170205
   9       23.680733     23.678752
 
  0.1875000E+00  0.1875000E+00  0.1875000E+00  0.3906250E-02
   1       -0.767627     -0.769069
   2        5.729109      5.727891
   3        7.100056      7.099121
   4        7.100056      7.099121
   5        9.555650      9.555527
   6        9.555650      9.555527
   7       19.944779     19.943815
   8       20.029226     20.028522
   9       21.928385     21.926667
 
  0.3125000E+00  0.1875000E+00  0.1875000E+00  0.1171875E-01
   1        0.288001      0.286551
   2        5.206386      5.205091
   3        6.830224      6.829462
   4        7.643691      7.642879
   5        8.580341      8.580018
   6       10.948722     10.948461
   7       19.982989     19.982475
   8       20.246479     20.245770
   9       23.130602     23.128717
 
  0.4375000E+00  0.1875000E+00  0.1875000E+00  0.1171875E-01
   1        1.921500      1.920031
   2        4.960796      4.959421
   3        5.833012      5.832363
   4        7.789905      7.789570
   5        9.117908      9.117107
   6       12.908239     12.907901
   7       19.479933     19.479202
   8       20.015761     20.015323
   9       22.489710     22.488211
 
 -0.4375000E+00  0.1875000E+00  0.1875000E+00  0.1171875E-01
   1        2.605353      2.603863
   2        4.941067      4.940496
   3        6.026333      6.024882
   4        7.477810      7.477366
   5       11.106192     11.105607
   6       13.837460     13.836895
   7       17.032848     17.032092
   8       20.002191     20.001733
   9       21.356872     21.355647
 
 -0.3125000E+00  0.1875000E+00  0.1875000E+00  0.1171875E-01
   1        2.444876      2.443475
   2        4.710846      4.710145
   3        6.089992      6.088632
   4        7.656199      7.655671
   5       12.477701     12.477381
   6       13.213922     13.213155
   7       16.392980     16.392122
   8       20.001656     20.001197
   9       21.177673     21.176567
 
 -0.1875000E+00  0.1875000E+00  0.1875000E+00  0.1171875E-01
   1        1.728919      1.727598
   2        4.391027      4.389741
   3        6.019127      6.018379
   4        8.115859      8.115182
   5       10.620657     10.619833
   6       11.892948     11.892784
   7       19.568251     19.567449
   8       20.016006     20.015563
   9       22.638752     22.637489
 
  0.3125000E+00  0.3125000E+00  0.1875000E+00  0.1171875E-01
   1        0.806917      0.805488
   2        4.908584      4.907280
   3        6.594204      6.593599
   4        7.569692      7.568924
   5        9.590416      9.589738
   6       11.087042     11.086880
   7       19.703399     19.702595
   8       20.010324     20.009868
   9       23.359741     23.358155
 
  0.4375000E+00  0.3125000E+00  0.1875000E+00  0.2343750E-01
   1        2.126467      2.125117
   2        4.481148      4.479799
   3        5.612755      5.612053
   4        8.426467      8.425985
   5        9.695722      9.694919
   6       12.853377     12.853041
   7       19.556845     19.555994
   8       20.020607     20.020168
   9       22.746686     22.745485
 
 -0.4375000E+00  0.3125000E+00  0.1875000E+00  0.2343750E-01
   1        3.444659      3.443399
   2        4.397197      4.396391
   3        4.944956      4.943580
   4        8.593983      8.593641
   5       10.810284     10.809455
   6       14.106196     14.105530
   7       17.989809     17.988986
   8       20.002807     20.002349
   9       21.050660     21.049479
 
 -0.3125000E+00  0.3125000E+00  0.1875000E+00  0.2343750E-01
   1        3.444541      3.443369
   2        4.055315      4.054490
   3        5.635928      5.634469
   4        8.469882      8.469486
   5       11.743179     11.742446
   6       15.344281     15.343373
   7       15.623004     15.622223
   8       19.999721     19.999257
   9       21.665227     21.664077
 
 -0.1875000E+00  0.3125000E+00  0.1875000E+00  0.2343750E-01
   1        2.757593      2.756570
   2        4.083042      4.081709
   3        5.397814      5.396753
   4        9.125090      9.124668
   5       10.811238     10.810418
   6       13.680045     13.679552
   7       18.291384     18.290378
   8       20.004195     20.003739
   9       21.471758     21.470533
 
  0.4375000E+00  0.4375000E+00  0.1875000E+00  0.1171875E-01
   1        2.311061      2.310016
   2        3.895230      3.893980
   3        6.009700      6.008556
   4        8.853002      8.852438
   5       12.071150     12.070231
   6       12.484191     12.483987
   7       18.143700     18.142693
   8       20.002831     20.002373
   9       22.384110     22.382850
 
 -0.4375000E+00  0.4375000E+00  0.1875000E+00  0.2343750E-01
   1        2.778744      2.778070
   2        3.785295      3.783912
   3        5.973600      5.972203
   4        9.638877      9.638532
   5       11.914834     11.914038
   6       14.507037     14.506239
   7       17.117751     17.116788
   8       19.809534     19.808305
   9       20.009314     20.008839
 
 -0.3125000E+00  0.4375000E+00  0.1875000E+00  0.2343750E-01
   1        3.233206      3.232688
   2        4.438229      4.436780
   3        5.492746      5.491257
   4        8.565766      8.565356
   5       12.759110     12.758376
   6       15.905753     15.904921
   7       16.676135     16.674891
   8       18.407582     18.406488
   9       20.004944     20.004489
 
 -0.1875000E+00  0.4375000E+00  0.1875000E+00  0.2343750E-01
   1        3.482588      3.481979
   2        4.363466      4.362076
   3        5.071286      5.069856
   4        8.805137      8.804760
   5       11.854527     11.853712
   6       14.776488     14.775612
   7       17.351867     17.350975
   8       19.698916     19.697786
   9       20.010349     20.009888
 
 -0.4375000E+00 -0.4375000E+00  0.1875000E+00  0.1171875E-01
   1        2.280099      2.279467
   2        3.342531      3.341185
   3        7.401284      7.399650
   4       10.415682     10.415552
   5       12.476916     12.476263
   6       14.847268     14.845964
   7       15.570047     15.569108
   8       19.984719     19.984225
   9       20.575634     20.685704
 
 -0.3125000E+00 -0.4375000E+00  0.1875000E+00  0.2343750E-01
   1        2.625144      2.624583
   2        3.638060      3.636649
   3        6.694940      6.693389
   4        9.626335      9.626039
   5       12.774021     12.773293
   6       15.533170     15.532112
   7       16.208525     16.207538
   8       18.604762     18.603582
   9       20.002902     20.002437
 
 -0.3125000E+00 -0.3125000E+00  0.1875000E+00  0.1171875E-01
   1        2.381322      2.380564
   2        3.524468      3.523169
   3        6.689116      6.687642
   4        9.699436      9.699051
   5       12.666454     12.666089
   6       13.736956     13.735895
   7       16.397179     16.396146
   8       19.998151     19.997684
   9       21.153960     21.152692
 
  0.3125000E+00  0.3125000E+00  0.3125000E+00  0.3906250E-02
   1        0.763088      0.761620
   2        5.564548      5.563207
   3        6.865070      6.864402
   4        6.865070      6.864402
   5       10.566814     10.566448
   6       10.566814     10.566448
   7       18.075455     18.074526
   8       19.997221     19.996752
   9       22.330732     22.329300
 
  0.4375000E+00  0.3125000E+00  0.3125000E+00  0.1171875E-01
   1        1.668040      1.666565
   2        5.430828      5.429542
   3        6.117274      6.116540
   4        7.133780      7.133264
   5       10.130788     10.130211
   6       12.647366     12.647037
   7       18.377244     18.376507
   8       20.000789     20.000326
   9       21.268006     21.266479
 
 -0.4375000E+00  0.3125000E+00  0.3125000E+00  0.1171875E-01
   1        3.234032      3.232535
   2        4.644630      4.644071
   3        5.320304      5.318845
   4        8.099126      8.098856
   5       10.271330     10.270518
   6       13.881781     13.881141
   7       18.314343     18.313617
   8       20.003680     20.003224
   9       21.518279     21.517141
 
 -0.3125000E+00  0.3125000E+00  0.3125000E+00  0.1171875E-01
   1        3.144216      3.143291
   2        4.073190      4.072115
   3        6.085709      6.084181
   4        8.995277      8.995050
   5       11.485643     11.484899
   6       13.639420     13.638336
   7       17.805720     17.804817
   8       19.985267     19.984770
   9       20.319387     20.318872
 
  0.4375000E+00  0.4375000E+00  0.3125000E+00  0.1171875E-01
   1        1.814481      1.813023
   2        5.367082      5.366204
   3        6.185322      6.184219
   4        7.137264      7.136665
   5       11.798351     11.797735
   6       12.299662     12.299401
   7       17.534226     17.533443
   8       19.998433     19.997960
   9       20.477109     20.475727
 
 -0.4375000E+00  0.4375000E+00  0.3125000E+00  0.2343750E-01
   1        2.900575      2.899138
   2        4.532369      4.531763
   3        5.731380      5.729966
   4        7.946817      7.946346
   5       11.501410     11.500787
   6       14.143405     14.142788
   7       16.604924     16.604083
   8       20.001594     20.001135
   9       21.852296     21.851275
 
 -0.3125000E+00  0.4375000E+00  0.3125000E+00  0.2343750E-01
   1        3.470720      3.470110
   2        4.169058      4.167690
   3        5.551212      5.549719
   4        8.688089      8.687752
   5       11.904949     11.904150
   6       14.574232     14.573278
   7       17.401558     17.400576
   8       19.770738     19.769878
   9       20.023264     20.022813
 
 -0.4375000E+00 -0.4375000E+00  0.3125000E+00  0.1171875E-01
   1        2.952946      2.951722
   2        4.219273      4.218462
   3        6.064549      6.063083
   4        8.349936      8.349524
   5       12.076232     12.075732
   6       14.100063     14.098997
   7       16.091560     16.090848
   8       20.000241     19.999779
   9       21.701602     21.700863
 
  0.4375000E+00  0.4375000E+00  0.4375000E+00  0.3906250E-02
   1        1.363797      1.362312
   2        6.457138      6.456548
   3        6.457138      6.456548
   4        6.752722      6.751297
   5       12.071188     12.070862
   6       12.071188     12.070862
   7       17.060202     17.059398
   8       18.989800     18.988365
   9       20.005821     20.005367
 
 -0.4375000E+00  0.4375000E+00  0.4375000E+00  0.1171875E-01
   1        1.978296      1.976807
   2        5.474292      5.473705
   3        6.700209      6.698775
   4        6.896275      6.895739
   5       11.959926     11.959522
   6       13.303883     13.303447
   7       16.486231     16.485435
   8       19.824660     19.823301
   9       20.002690     20.002232
