       N       E                     dE             d eps       ncg     rms          rms(c)
DAV:   1     0.947298958572E+01    0.94730E+01   -0.21896E+03  2280   0.413E+02
DAV:   2    -0.172107871565E+01   -0.11194E+02   -0.99509E+01  2776   0.627E+01
DAV:   3    -0.190429735098E+01   -0.18322E+00   -0.17978E+00  2593   0.741E+00
DAV:   4    -0.190461658039E+01   -0.31923E-03   -0.31920E-03  2957   0.245E-01
DAV:   5    -0.190461689103E+01   -0.31064E-06   -0.31151E-06  2541   0.486E-03    0.733E+00
DAV:   6    -0.112468864841E+02   -0.93423E+01   -0.26533E+00  2456   0.548E+00    0.419E+00
DAV:   7    -0.113459436909E+02   -0.99057E-01   -0.66711E-02  2763   0.134E+00    0.386E+00
DAV:   8    -0.113598972848E+02   -0.13954E-01   -0.42261E-01  2431   0.380E+00    0.349E+00
DAV:   9    -0.116028607740E+02   -0.24296E+00   -0.35694E-01  2265   0.366E+00    0.654E-01
DAV:  10    -0.115973947046E+02    0.54661E-02   -0.12663E-02  2356   0.634E-01    0.270E-01
DAV:  11    -0.115924865349E+02    0.49082E-02   -0.13527E-02  2292   0.618E-01    0.294E-01
DAV:  12    -0.115953393036E+02   -0.28528E-02   -0.90919E-04  2422   0.194E-01    0.106E-01
DAV:  13    -0.115950940585E+02    0.24525E-03   -0.47121E-04  2246   0.118E-01    0.412E-02
DAV:  14    -0.115950506459E+02    0.43413E-04   -0.22608E-04  2174   0.799E-02
   1 F= -.11595051E+02 E0= -.11595137E+02  d E =0.258933E-03  mag=     0.0003
