 vasp.5.2.12 11Nov11 complex                                                    
  
 executed on             LinuxIFC date 2012.10.17  11:07:02
 running on    1 nodes
 distr:  one band on    1 nodes,    1 groups


--------------------------------------------------------------------------------------------------------


 INCAR:
 POTCAR:    PAW_PBE Ta 17Jan2003                  
 POTCAR:    PAW_PBE Ta 17Jan2003                  
   VRHFIN =Ta:  6s5d                                                            
   LEXCH  = PE                                                                  
   EATOM  =   130.6506 eV,    9.6025 Ry                                         
                                                                                
   TITEL  = PAW_PBE Ta 17Jan2003                                                
   LULTRA =        F    use ultrasoft PP ?                                      
   IUNSCR =        1    unscreen: 0-lin 1-nonlin 2-no                           
   RPACOR =    2.330    partial core radius                                     
   POMASS =  180.948; ZVAL   =    5.000    mass and valenz                      
   RCORE  =    2.900    outmost cutoff radius                                   
   RWIGS  =    2.840; RWIGS  =    1.503    wigner-seitz radius (au A)           
   ENMAX  =  223.667; ENMIN  =  167.750 eV                                      
   RCLOC  =    2.205    cutoff for local pot                                    
   LCOR   =        T    correct aug charges                                     
   LPAW   =        T    paw PP                                                  
   EAUG   =  332.075                                                            
   DEXC   =    -.049                                                            
   RMAX   =    3.083    core radius for proj-oper                               
   RAUG   =    1.300    factor for augmentation sphere                          
   RDEP   =    3.060    radius for radial grids                                 
   QCUT   =   -4.055; QGAM   =    8.109    optimization parameters              
                                                                                
   Description                                                                  
     l     E      TYP  RCUT    TYP  RCUT                                        
     2   .000     23  2.500                                                     
     2   .000     23  2.500                                                     
     0   .000     23  2.500                                                     
     0   .000     23  2.500                                                     
     1   .000     23  2.900                                                     
     1  2.000     23  2.900                                                     
     3   .000      7   .000                                                     
  local pseudopotential read in
  partial core-charges read in
  atomic valenz-charges read in
  non local Contribution for L=           2  read in
    real space projection operators read in
  non local Contribution for L=           2  read in
    real space projection operators read in
  non local Contribution for L=           0  read in
    real space projection operators read in
  non local Contribution for L=           0  read in
    real space projection operators read in
  non local Contribution for L=           1  read in
    real space projection operators read in
  non local Contribution for L=           1  read in
    real space projection operators read in
    PAW grid and wavefunctions read in
 
   number of l-projection  operators is LMAX  =           6
   number of lm-projection operators is LMMAX =          18
 
  PAW_PBE Ta 17Jan2003                  :
 energy of atom  1       EATOM= -130.6506
 kinetic energy error for atom=    0.0018 (will be added to EATOM!!)
 
 
 POSCAR: Ta                                      
  positions in cartesian coordinates
  No initial velocities read in
 exchange correlation table for  LEXCH =        8
   RHO(1)=    0.500       N(1)  =     2000
   RHO(2)=  100.500       N(2)  =     4000
 


--------------------------------------------------------------------------------------------------------


 ion  position               nearest neighbor table
   1  0.000  0.000  0.000-
 
  LATTYP: Found a face centered cubic cell.
 ALAT       =     4.1500000000
  
  Lattice vectors:
  
 A1 = (   0.0000000000,   2.0750000000,   2.0750000000)
 A2 = (   2.0750000000,   0.0000000000,   2.0750000000)
 A3 = (   2.0750000000,   2.0750000000,   0.0000000000)
 Subroutine PRICEL returns:
 Original cell was already a primitive cell.
 

Analysis of symmetry for initial positions (statically):

 Routine SETGRP: Setting up the symmetry group for a 
 face centered cubic supercell.


 Subroutine GETGRP returns: Found 48 space group operations
 (whereof 48 operations were pure point group operations)
 out of a pool of 48 trial point group operations.


The static configuration has the point symmetry O_h .

Analysis of symmetry for dynamics (positions and initial velocities):

 Subroutine DYNSYM returns: Found 48 space group operations
 (whereof 48 operations were pure point group operations)
 out of a pool of 48 trial space group operations
 (whereof 48 operations were pure point group operations)
 and found also     1 'primitive' translations


The dynamic configuration has the point symmetry O_h .

Analysis of magnetic symmetry:

 Subroutine MAGSYM returns: Found 48 space group operations
 (whereof 48 operations were pure point group operations)
 out of a pool of 48 trial space group operations
 (whereof 48 operations were pure point group operations)
 and found also     1 'primitive' translations


The magnetic configuration has the point symmetry O_h .
 
 
 KPOINTS: KPOINTS created by Atomic Simulation Env

Automatic generation of k-mesh.
 
 Subroutine IBZKPT returns following result:
 ===========================================
 
 Found     60 irreducible k-points:
 
 Following reciprocal coordinates:
            Coordinates               Weight
  0.062500  0.062500  0.062500     96.000000
  0.187500  0.062500  0.062500    288.000000
  0.312500  0.062500  0.062500    288.000000
  0.437500  0.062500  0.062500    288.000000
 -0.437500  0.062500  0.062500    288.000000
 -0.312500  0.062500  0.062500    288.000000
 -0.187500  0.062500  0.062500    288.000000
 -0.062500  0.062500  0.062500    288.000000
  0.187500  0.187500  0.062500    288.000000
  0.312500  0.187500  0.062500    576.000000
  0.437500  0.187500  0.062500    576.000000
 -0.437500  0.187500  0.062500    576.000000
 -0.312500  0.187500  0.062500    576.000000
 -0.187500  0.187500  0.062500    576.000000
 -0.062500  0.187500  0.062500    576.000000
  0.312500  0.312500  0.062500    288.000000
  0.437500  0.312500  0.062500    576.000000
 -0.437500  0.312500  0.062500    576.000000
 -0.312500  0.312500  0.062500    576.000000
 -0.187500  0.312500  0.062500    576.000000
 -0.062500  0.312500  0.062500    576.000000
  0.437500  0.437500  0.062500    288.000000
 -0.437500  0.437500  0.062500    576.000000
 -0.312500  0.437500  0.062500    576.000000
 -0.187500  0.437500  0.062500    576.000000
 -0.062500  0.437500  0.062500    576.000000
 -0.437500 -0.437500  0.062500    288.000000
 -0.312500 -0.437500  0.062500    576.000000
 -0.187500 -0.437500  0.062500    576.000000
 -0.312500 -0.312500  0.062500    288.000000
 -0.187500 -0.312500  0.062500    576.000000
 -0.187500 -0.187500  0.062500    288.000000
  0.187500  0.187500  0.187500     96.000000
  0.312500  0.187500  0.187500    288.000000
  0.437500  0.187500  0.187500    288.000000
 -0.437500  0.187500  0.187500    288.000000
 -0.312500  0.187500  0.187500    288.000000
 -0.187500  0.187500  0.187500    288.000000
  0.312500  0.312500  0.187500    288.000000
  0.437500  0.312500  0.187500    576.000000
 -0.437500  0.312500  0.187500    576.000000
 -0.312500  0.312500  0.187500    576.000000
 -0.187500  0.312500  0.187500    576.000000
  0.437500  0.437500  0.187500    288.000000
 -0.437500  0.437500  0.187500    576.000000
 -0.312500  0.437500  0.187500    576.000000
 -0.187500  0.437500  0.187500    576.000000
 -0.437500 -0.437500  0.187500    288.000000
 -0.312500 -0.437500  0.187500    576.000000
 -0.312500 -0.312500  0.187500    288.000000
  0.312500  0.312500  0.312500     96.000000
  0.437500  0.312500  0.312500    288.000000
 -0.437500  0.312500  0.312500    288.000000
 -0.312500  0.312500  0.312500    288.000000
  0.437500  0.437500  0.312500    288.000000
 -0.437500  0.437500  0.312500    576.000000
 -0.312500  0.437500  0.312500    576.000000
 -0.437500 -0.437500  0.312500    288.000000
  0.437500  0.437500  0.437500     96.000000
 -0.437500  0.437500  0.437500    288.000000
 
 Following cartesian coordinates:
            Coordinates               Weight
  0.015060  0.015060  0.015060     96.000000
 -0.015060  0.045181  0.045181    288.000000
 -0.045181  0.075301  0.075301    288.000000
 -0.075301  0.105422  0.105422    288.000000
  0.135542 -0.105422 -0.105422    288.000000
  0.105422 -0.075301 -0.075301    288.000000
  0.075301 -0.045181 -0.045181    288.000000
  0.045181 -0.015060 -0.015060    288.000000
  0.015060  0.015060  0.075301    288.000000
 -0.015060  0.045181  0.105422    576.000000
 -0.045181  0.075301  0.135542    576.000000
  0.165663 -0.135542 -0.075301    576.000000
  0.135542 -0.105422 -0.045181    576.000000
  0.105422 -0.075301 -0.015060    576.000000
  0.075301 -0.045181  0.015060    576.000000
  0.015060  0.015060  0.135542    288.000000
 -0.015060  0.045181  0.165663    576.000000
  0.195783 -0.165663 -0.045181    576.000000
  0.165663 -0.135542 -0.015060    576.000000
  0.135542 -0.105422  0.015060    576.000000
  0.105422 -0.075301  0.045181    576.000000
  0.015060  0.015060  0.195783    288.000000
  0.225904 -0.195783 -0.015060    576.000000
  0.195783 -0.165663  0.015060    576.000000
  0.165663 -0.135542  0.045181    576.000000
  0.135542 -0.105422  0.075301    576.000000
  0.015060  0.015060 -0.225904    288.000000
 -0.015060  0.045181 -0.195783    576.000000
 -0.045181  0.075301 -0.165663    576.000000
  0.015060  0.015060 -0.165663    288.000000
 -0.015060  0.045181 -0.135542    576.000000
  0.015060  0.015060 -0.105422    288.000000
  0.045181  0.045181  0.045181     96.000000
  0.015060  0.075301  0.075301    288.000000
 -0.015060  0.105422  0.105422    288.000000
  0.195783 -0.105422 -0.105422    288.000000
  0.165663 -0.075301 -0.075301    288.000000
  0.135542 -0.045181 -0.045181    288.000000
  0.045181  0.045181  0.105422    288.000000
  0.015060  0.075301  0.135542    576.000000
  0.225904 -0.135542 -0.075301    576.000000
  0.195783 -0.105422 -0.045181    576.000000
  0.165663 -0.075301 -0.015060    576.000000
  0.045181  0.045181  0.165663    288.000000
  0.256024 -0.165663 -0.045181    576.000000
  0.225904 -0.135542 -0.015060    576.000000
  0.195783 -0.105422  0.015060    576.000000
  0.045181  0.045181 -0.256024    288.000000
  0.015060  0.075301 -0.225904    576.000000
  0.045181  0.045181 -0.195783    288.000000
  0.075301  0.075301  0.075301     96.000000
  0.045181  0.105422  0.105422    288.000000
  0.256024 -0.105422 -0.105422    288.000000
  0.225904 -0.075301 -0.075301    288.000000
  0.075301  0.075301  0.135542    288.000000
  0.286145 -0.135542 -0.075301    576.000000
  0.256024 -0.105422 -0.045181    576.000000
  0.075301  0.075301 -0.286145    288.000000
  0.105422  0.105422  0.105422     96.000000
  0.316265 -0.105422 -0.105422    288.000000
 


--------------------------------------------------------------------------------------------------------




 Dimension of arrays:
   k-points           NKPTS =     60   k-points in BZ     NKDIM =     60   number of bands    NBANDS=      9
   number of dos      NEDOS =    301   number of ions     NIONS =      1
   non local maximal  LDIM  =      6   non local SUM 2l+1 LMDIM =     18
   total plane-waves  NPLWV =   8000
   max r-space proj   IRMAX =      1   max aug-charges    IRDMAX=  30673
   dimension x,y,z NGX =    20 NGY =   20 NGZ =   20
   dimension x,y,z NGXF=    40 NGYF=   40 NGZF=   40
   support grid    NGXF=    40 NGYF=   40 NGZF=   40
   ions per type =               1
 NGX,Y,Z   is equivalent  to a cutoff of  11.33, 11.33, 11.33 a.u.
 NGXF,Y,Z  is equivalent  to a cutoff of  22.66, 22.66, 22.66 a.u.


 I would recommend the setting:
   dimension x,y,z NGX =    19 NGY =   19 NGZ =   19
 SYSTEM =  unknown system                          
 POSCAR =  Ta                                      

 Startparameter for this run:
   NWRITE =      2    write-flag & timer
   PREC   = accura    normal or accurate (medium, high low for compatibility)
   ISTART =      0    job   : 0-new  1-cont  2-samecut
   ICHARG =      2    charge: 1-file 2-atom 10-const
   ISPIN  =      2    spin polarized calculation?
   LNONCOLLINEAR =      F non collinear calculations
   LSORBIT =      F    spin-orbit coupling
   INIWAV =      1    electr: 0-lowe 1-rand  2-diag
   LASPH  =      F    aspherical Exc in radial PAW
   METAGGA=      F    non-selfconsistent MetaGGA calc.

 Electronic Relaxation 1
   ENCUT  =  400.0 eV  29.40 Ry    5.42 a.u.   4.79  4.79  4.79*2*pi/ulx,y,z
   ENINI  =  400.0     initial cutoff
   ENAUG  =  332.1 eV  augmentation charge cutoff
   NELM   =     60;   NELMIN=  2; NELMDL= -5     # of ELM steps 
   EDIFF  = 0.1E-03   stopping-criterion for ELM
   LREAL  =      F    real-space projection
   NLSPLINE    = F    spline interpolate recip. space projectors
   LCOMPAT=      F    compatible to vasp.4.4
   GGA_COMPAT  = T    GGA compatible to vasp.4.4-vasp.4.6
   LMAXPAW     = -100 max onsite density
   LMAXMIX     =    2 max onsite mixed and CHGCAR
   VOSKOWN=      0    Vosko Wilk Nusair interpolation
   ROPT   =    0.00000
 Ionic relaxation
   EDIFFG = 0.1E-02   stopping-criterion for IOM
   NSW    =      0    number of steps for IOM
   NBLOCK =      1;   KBLOCK =      1    inner block; outer block 
   IBRION =     -1    ionic relax: 0-MD 1-quasi-New 2-CG
   NFREE  =      0    steps in history (QN), initial steepest desc. (CG)
   ISIF   =      2    stress and relaxation
   IWAVPR =     10    prediction:  0-non 1-charg 2-wave 3-comb
   ISYM   =      2    0-nonsym 1-usesym 2-fastsym
   LCORR  =      T    Harris-Foulkes like correction to forces

   POTIM  = 0.5000    time-step for ionic-motion
   TEIN   =    0.0    initial temperature
   TEBEG  =    0.0;   TEEND  =   0.0 temperature during run
   SMASS  =  -3.00    Nose mass-parameter (am)
   estimated Nose-frequenzy (Omega)   =  0.10E-29 period in steps =****** mass=  -0.197E-27a.u.
   SCALEE = 1.0000    scale energy and forces
   NPACO  =    256;   APACO  = 16.0  distance and # of slots for P.C.
   PSTRESS=    0.0 pullay stress

  Mass of Ions in am
   POMASS = 180.95
  Ionic Valenz
   ZVAL   =   5.00
  Atomic Wigner-Seitz radii
   RWIGS  =  -1.00
  virtual crystal weights 
   VCA    =   1.00
   NELECT =       5.0000    total number of electrons
   NUPDOWN=      -1.0000    fix difference up-down

 DOS related values:
   EMIN   =  10.00;   EMAX   =-10.00  energy-range for DOS
   EFERMI =   0.00
   ISMEAR =     1;   SIGMA  =   0.05  broadening in eV -4-tet -1-fermi 0-gaus

 Electronic relaxation 2 (details)
   IALGO  =     38    algorithm
   LDIAG  =      T    sub-space diagonalisation (order eigenvalues)
   LSUBROT=      T    optimize rotation matrix (better conditioning)
   TURBO    =      0    0=normal 1=particle mesh
   IRESTART =      0    0=no restart 2=restart with 2 vectors
   NREBOOT  =      0    no. of reboots
   NMIN     =      0    reboot dimension
   EREF     =   0.00    reference energy to select bands
   IMIX   =      4    mixing-type and parameters
     AMIX     =   0.40;   BMIX     =  1.00
     AMIX_MAG =   1.60;   BMIX_MAG =  1.00
     AMIN     =   0.10
     WC   =   100.;   INIMIX=   1;  MIXPRE=   1

 Intra band minimization:
   WEIMIN = 0.0000     energy-eigenvalue tresh-hold
   EBREAK =  0.28E-05  absolut break condition
   DEPER  =   0.30     relativ break condition  

   TIME   =   0.40     timestep for ELM

  volume/ion in A,a.u.               =      17.87       120.58
  Fermi-wavevector in a.u.,A,eV,Ry     =   1.070788  2.023495 15.600256  1.146586
  Thomas-Fermi vector in A             =   2.206508
 
 Write flags
   LWAVE  =      T    write WAVECAR
   LCHARG =      T    write CHGCAR
   LVTOT  =      F    write LOCPOT, total local potential
   LVHAR  =      F    write LOCPOT, Hartree potential only
   LELF   =      F    write electronic localiz. function (ELF)
   LORBIT =     11    0 simple, 1 ext, 2 COOP (PROOUT)


 Dipole corrections
   LMONO  =      F    monopole corrections only (constant potential shift)
   LDIPOL =      F    correct potential (dipole corrections)
   IDIPOL =      0    1-x, 2-y, 3-z, 4-all directions 
   EPSILON=  1.0000000 bulk dielectric constant

 Exchange correlation treatment:
   GGA     =    --    GGA type
   LEXCH   =     8    internal setting for exchange type
   VOSKOWN=      0    Vosko Wilk Nusair interpolation
   LHFCALC =     F    Hartree Fock is set to
   LHFONE  =     F    Hartree Fock one center treatment
   AEXX    =    0.0000 exact exchange contribution

 Linear response parameters
   LEPSILON=     F    determine dielectric tensor
   LRPA    =     F    only Hartree local field effects (RPA)
   LNABLA  =     F    use nabla operator in PAW spheres
   LVEL    =     F    velocity operator in full k-point grid
   LINTERFAST=   F  fast interpolation
   KINTER  =     0    interpolate to denser k-point grid
   CSHIFT  =0.1000    complex shift for real part using Kramers Kronig
   OMEGAMAX=  -1.0    maximum frequency
   RTIME   =    0.100 relaxation time in fs

 Orbital magnetization related:
   ORBITALMAG=     F  switch on orbital magnetization
   LCHIMAG   =     F  perturbation theory with respect to B field
   DQ        =  0.001000  dq finite difference perturbation B field



--------------------------------------------------------------------------------------------------------


 Static calculation
 charge density and potential will be updated during run
 spin polarized calculation
 Variant of blocked Davidson
 Davidson routine will perform the subspace rotation
 perform sub-space diagonalisation
    after iterative eigenvector-optimisation
 modified Broyden-mixing scheme, WC =      100.0
 initial mixing is a Kerker type mixing with AMIX =  0.4000 and BMIX =      1.0000
 Hartree-type preconditioning will be used
 using additional bands            6
 reciprocal scheme for non local part
 use partial core corrections
 calculate Harris-corrections to forces 
   (improved forces if not selfconsistent)
 use gradient corrections 
 use of overlap-Matrix (Vanderbilt PP)
 Methfessel and Paxton  Order N= 1 SIGMA  =   0.05


--------------------------------------------------------------------------------------------------------


  energy-cutoff  :      400.00
  volume of cell :       17.87
      direct lattice vectors                 reciprocal lattice vectors
     0.000000000  2.075000000  2.075000000    -0.240963855  0.240963855  0.240963855
     2.075000000  0.000000000  2.075000000     0.240963855 -0.240963855  0.240963855
     2.075000000  2.075000000  0.000000000     0.240963855  0.240963855 -0.240963855

  length of vectors
     2.934493142  2.934493142  2.934493142     0.417361640  0.417361640  0.417361640


 
 k-points in units of 2pi/SCALE and weight: KPOINTS created by Atomic Simulation Env
   0.01506024  0.01506024  0.01506024       0.004
  -0.01506024  0.04518072  0.04518072       0.012
  -0.04518072  0.07530120  0.07530120       0.012
  -0.07530120  0.10542169  0.10542169       0.012
   0.13554217 -0.10542169 -0.10542169       0.012
   0.10542169 -0.07530120 -0.07530120       0.012
   0.07530120 -0.04518072 -0.04518072       0.012
   0.04518072 -0.01506024 -0.01506024       0.012
   0.01506024  0.01506024  0.07530120       0.012
  -0.01506024  0.04518072  0.10542169       0.023
  -0.04518072  0.07530120  0.13554217       0.023
   0.16566265 -0.13554217 -0.07530120       0.023
   0.13554217 -0.10542169 -0.04518072       0.023
   0.10542169 -0.07530120 -0.01506024       0.023
   0.07530120 -0.04518072  0.01506024       0.023
   0.01506024  0.01506024  0.13554217       0.012
  -0.01506024  0.04518072  0.16566265       0.023
   0.19578313 -0.16566265 -0.04518072       0.023
   0.16566265 -0.13554217 -0.01506024       0.023
   0.13554217 -0.10542169  0.01506024       0.023
   0.10542169 -0.07530120  0.04518072       0.023
   0.01506024  0.01506024  0.19578313       0.012
   0.22590361 -0.19578313 -0.01506024       0.023
   0.19578313 -0.16566265  0.01506024       0.023
   0.16566265 -0.13554217  0.04518072       0.023
   0.13554217 -0.10542169  0.07530120       0.023
   0.01506024  0.01506024 -0.22590361       0.012
  -0.01506024  0.04518072 -0.19578313       0.023
  -0.04518072  0.07530120 -0.16566265       0.023
   0.01506024  0.01506024 -0.16566265       0.012
  -0.01506024  0.04518072 -0.13554217       0.023
   0.01506024  0.01506024 -0.10542169       0.012
   0.04518072  0.04518072  0.04518072       0.004
   0.01506024  0.07530120  0.07530120       0.012
  -0.01506024  0.10542169  0.10542169       0.012
   0.19578313 -0.10542169 -0.10542169       0.012
   0.16566265 -0.07530120 -0.07530120       0.012
   0.13554217 -0.04518072 -0.04518072       0.012
   0.04518072  0.04518072  0.10542169       0.012
   0.01506024  0.07530120  0.13554217       0.023
   0.22590361 -0.13554217 -0.07530120       0.023
   0.19578313 -0.10542169 -0.04518072       0.023
   0.16566265 -0.07530120 -0.01506024       0.023
   0.04518072  0.04518072  0.16566265       0.012
   0.25602410 -0.16566265 -0.04518072       0.023
   0.22590361 -0.13554217 -0.01506024       0.023
   0.19578313 -0.10542169  0.01506024       0.023
   0.04518072  0.04518072 -0.25602410       0.012
   0.01506024  0.07530120 -0.22590361       0.023
   0.04518072  0.04518072 -0.19578313       0.012
   0.07530120  0.07530120  0.07530120       0.004
   0.04518072  0.10542169  0.10542169       0.012
   0.25602410 -0.10542169 -0.10542169       0.012
   0.22590361 -0.07530120 -0.07530120       0.012
   0.07530120  0.07530120  0.13554217       0.012
   0.28614458 -0.13554217 -0.07530120       0.023
   0.25602410 -0.10542169 -0.04518072       0.023
   0.07530120  0.07530120 -0.28614458       0.012
   0.10542169  0.10542169  0.10542169       0.004
   0.31626506 -0.10542169 -0.10542169       0.012
 
 k-points in reciprocal lattice and weights: KPOINTS created by Atomic Simulation Env
   0.06250000  0.06250000  0.06250000       0.004
   0.18750000  0.06250000  0.06250000       0.012
   0.31250000  0.06250000  0.06250000       0.012
   0.43750000  0.06250000  0.06250000       0.012
  -0.43750000  0.06250000  0.06250000       0.012
  -0.31250000  0.06250000  0.06250000       0.012
  -0.18750000  0.06250000  0.06250000       0.012
  -0.06250000  0.06250000  0.06250000       0.012
   0.18750000  0.18750000  0.06250000       0.012
   0.31250000  0.18750000  0.06250000       0.023
   0.43750000  0.18750000  0.06250000       0.023
  -0.43750000  0.18750000  0.06250000       0.023
  -0.31250000  0.18750000  0.06250000       0.023
  -0.18750000  0.18750000  0.06250000       0.023
  -0.06250000  0.18750000  0.06250000       0.023
   0.31250000  0.31250000  0.06250000       0.012
   0.43750000  0.31250000  0.06250000       0.023
  -0.43750000  0.31250000  0.06250000       0.023
  -0.31250000  0.31250000  0.06250000       0.023
  -0.18750000  0.31250000  0.06250000       0.023
  -0.06250000  0.31250000  0.06250000       0.023
   0.43750000  0.43750000  0.06250000       0.012
  -0.43750000  0.43750000  0.06250000       0.023
  -0.31250000  0.43750000  0.06250000       0.023
  -0.18750000  0.43750000  0.06250000       0.023
  -0.06250000  0.43750000  0.06250000       0.023
  -0.43750000 -0.43750000  0.06250000       0.012
  -0.31250000 -0.43750000  0.06250000       0.023
  -0.18750000 -0.43750000  0.06250000       0.023
  -0.31250000 -0.31250000  0.06250000       0.012
  -0.18750000 -0.31250000  0.06250000       0.023
  -0.18750000 -0.18750000  0.06250000       0.012
   0.18750000  0.18750000  0.18750000       0.004
   0.31250000  0.18750000  0.18750000       0.012
   0.43750000  0.18750000  0.18750000       0.012
  -0.43750000  0.18750000  0.18750000       0.012
  -0.31250000  0.18750000  0.18750000       0.012
  -0.18750000  0.18750000  0.18750000       0.012
   0.31250000  0.31250000  0.18750000       0.012
   0.43750000  0.31250000  0.18750000       0.023
  -0.43750000  0.31250000  0.18750000       0.023
  -0.31250000  0.31250000  0.18750000       0.023
  -0.18750000  0.31250000  0.18750000       0.023
   0.43750000  0.43750000  0.18750000       0.012
  -0.43750000  0.43750000  0.18750000       0.023
  -0.31250000  0.43750000  0.18750000       0.023
  -0.18750000  0.43750000  0.18750000       0.023
  -0.43750000 -0.43750000  0.18750000       0.012
  -0.31250000 -0.43750000  0.18750000       0.023
  -0.31250000 -0.31250000  0.18750000       0.012
   0.31250000  0.31250000  0.31250000       0.004
   0.43750000  0.31250000  0.31250000       0.012
  -0.43750000  0.31250000  0.31250000       0.012
  -0.31250000  0.31250000  0.31250000       0.012
   0.43750000  0.43750000  0.31250000       0.012
  -0.43750000  0.43750000  0.31250000       0.023
  -0.31250000  0.43750000  0.31250000       0.023
  -0.43750000 -0.43750000  0.31250000       0.012
   0.43750000  0.43750000  0.43750000       0.004
  -0.43750000  0.43750000  0.43750000       0.012
 
 position of ions in fractional coordinates (direct lattice) 
   0.00000000  0.00000000  0.00000000
 
 position of ions in cartesian coordinates  (Angst):
   0.00000000  0.00000000  0.00000000
 


--------------------------------------------------------------------------------------------------------


 k-point  1 :  0.06250.06250.0625  plane waves:     331
 k-point  2 :  0.18750.06250.0625  plane waves:     323
 k-point  3 :  0.31250.06250.0625  plane waves:     321
 k-point  4 :  0.43750.06250.0625  plane waves:     326
 k-point  5 :  -.43750.06250.0625  plane waves:     330
 k-point  6 :  -.31250.06250.0625  plane waves:     327
 k-point  7 :  -.18750.06250.0625  plane waves:     321
 k-point  8 :  -.06250.06250.0625  plane waves:     329
 k-point  9 :  0.18750.18750.0625  plane waves:     321
 k-point 10 :  0.31250.18750.0625  plane waves:     323
 k-point 11 :  0.43750.18750.0625  plane waves:     325
 k-point 12 :  -.43750.18750.0625  plane waves:     325
 k-point 13 :  -.31250.18750.0625  plane waves:     325
 k-point 14 :  -.18750.18750.0625  plane waves:     323
 k-point 15 :  -.06250.18750.0625  plane waves:     321
 k-point 16 :  0.31250.31250.0625  plane waves:     321
 k-point 17 :  0.43750.31250.0625  plane waves:     326
 k-point 18 :  -.43750.31250.0625  plane waves:     325
 k-point 19 :  -.31250.31250.0625  plane waves:     328
 k-point 20 :  -.18750.31250.0625  plane waves:     324
 k-point 21 :  -.06250.31250.0625  plane waves:     324
 k-point 22 :  0.43750.43750.0625  plane waves:     324
 k-point 23 :  -.43750.43750.0625  plane waves:     325
 k-point 24 :  -.31250.43750.0625  plane waves:     328
 k-point 25 :  -.18750.43750.0625  plane waves:     323
 k-point 26 :  -.06250.43750.0625  plane waves:     327
 k-point 27 :  -.4375-.43750.0625  plane waves:     328
 k-point 28 :  -.3125-.43750.0625  plane waves:     327
 k-point 29 :  -.1875-.43750.0625  plane waves:     326
 k-point 30 :  -.3125-.31250.0625  plane waves:     323
 k-point 31 :  -.1875-.31250.0625  plane waves:     323
 k-point 32 :  -.1875-.18750.0625  plane waves:     323
 k-point 33 :  0.18750.18750.1875  plane waves:     320
 k-point 34 :  0.31250.18750.1875  plane waves:     319
 k-point 35 :  0.43750.18750.1875  plane waves:     323
 k-point 36 :  -.43750.18750.1875  plane waves:     326
 k-point 37 :  -.31250.18750.1875  plane waves:     323
 k-point 38 :  -.18750.18750.1875  plane waves:     324
 k-point 39 :  0.31250.31250.1875  plane waves:     326
 k-point 40 :  0.43750.31250.1875  plane waves:     323
 k-point 41 :  -.43750.31250.1875  plane waves:     326
 k-point 42 :  -.31250.31250.1875  plane waves:     322
 k-point 43 :  -.18750.31250.1875  plane waves:     325
 k-point 44 :  0.43750.43750.1875  plane waves:     326
 k-point 45 :  -.43750.43750.1875  plane waves:     326
 k-point 46 :  -.31250.43750.1875  plane waves:     323
 k-point 47 :  -.18750.43750.1875  plane waves:     326
 k-point 48 :  -.4375-.43750.1875  plane waves:     324
 k-point 49 :  -.3125-.43750.1875  plane waves:     326
 k-point 50 :  -.3125-.31250.1875  plane waves:     326
 k-point 51 :  0.31250.31250.3125  plane waves:     326
 k-point 52 :  0.43750.31250.3125  plane waves:     324
 k-point 53 :  -.43750.31250.3125  plane waves:     330
 k-point 54 :  -.31250.31250.3125  plane waves:     325
 k-point 55 :  0.43750.43750.3125  plane waves:     326
 k-point 56 :  -.43750.43750.3125  plane waves:     325
 k-point 57 :  -.31250.43750.3125  plane waves:     327
 k-point 58 :  -.4375-.43750.3125  plane waves:     322
 k-point 59 :  0.43750.43750.4375  plane waves:     329
 k-point 60 :  -.43750.43750.4375  plane waves:     326

 maximum and minimum number of plane-waves per node :       331      319

 maximum number of plane-waves:       331
 maximum index in each direction: 
   IXMAX=    5   IYMAX=    5   IZMAX=    4
   IXMIN=   -5   IYMIN=   -5   IZMIN=   -5

 WARNING: aliasing errors must be expected set NGX to  22 to avoid them
 WARNING: aliasing errors must be expected set NGY to  22 to avoid them
 NGZ is ok and might be reduce to  20
 aliasing errors are usually negligible using standard VASP settings
 and one can safely disregard these warnings

 serial   3D FFT for wavefunctions
 parallel 3D FFT for charge:
    minimum data exchange during FFTs selected (reduces bandwidth)


 total amount of memory used by VASP on root node    46650. kBytes
========================================================================

   base      :      30000. kBytes
   nonl-proj :       2865. kBytes
   fftplans  :       2284. kBytes
   grid      :       5440. kBytes
   one-center:         31. kBytes
   wavefun   :       6030. kBytes
 
 Broyden mixing: mesh for mixing (old mesh)
   NGX =  9   NGY =  9   NGZ =  9
  (NGX  = 40   NGY  = 40   NGZ  = 40)
  gives a total of    729 points

 initial charge density was supplied:
 charge density of overlapping atoms calculated
 number of electron       5.0000000 magnetization       6.0000000
 keeping initial charge density in first step


--------------------------------------------------------------------------------------------------------


 Maximum index for augmentation-charges        29581 (set IRDMAX)


--------------------------------------------------------------------------------------------------------


 First call to EWALD:  gamma=   0.678
 Maximum number of real-space cells 3x 3x 3
 Maximum number of reciprocal cells 3x 3x 3

    FEWALD:  cpu time    0.00: real time    0.00


----------------------------------------- Iteration    1(   1)  ---------------------------------------


    POTLOK:  cpu time    0.20: real time    0.20
    SETDIJ:  cpu time    0.05: real time    0.05
     EDDAV:  cpu time    3.07: real time    3.07
       DOS:  cpu time    0.01: real time    0.01
    --------------------------------------------
      LOOP:  cpu time    3.33: real time    3.33

 eigenvalue-minimisations  :  2280
 total energy-change (2. order) : 0.9472990E+01  (-0.2189612E+03)
 number of electron       5.0000000 magnetization       6.0000000
 augmentation part        5.0000000 magnetization       6.0000000

 Free energy of the ion-electron system (eV)
  ---------------------------------------------------
  alpha Z        PSCENC =        31.03520437
  Ewald energy   TEWEN  =      -198.85854833
  -1/2 Hartree   DENC   =        -2.45820869
  -exchange  EXHF       =         0.00000000
  -V(xc)+E(xc)   XCENC  =       -60.67202212
  PAW double counting   =       143.51874798      -69.33493833
  entropy T*S    EENTRO =         0.00004524
  eigenvalues    EBANDS =        35.59386811
  atomic energy  EATOM  =       130.64884137
  ---------------------------------------------------
  free energy    TOTEN  =         9.47298959 eV

  energy without entropy =        9.47294435  energy(sigma->0) =        9.47297451


--------------------------------------------------------------------------------------------------------




----------------------------------------- Iteration    1(   2)  ---------------------------------------


     EDDAV:  cpu time    3.74: real time    3.74
       DOS:  cpu time    0.01: real time    0.01
    --------------------------------------------
      LOOP:  cpu time    3.75: real time    3.75

 eigenvalue-minimisations  :  2776
 total energy-change (2. order) :-0.1119407E+02  (-0.9950920E+01)
 number of electron       5.0000000 magnetization       6.0000000
 augmentation part        5.0000000 magnetization       6.0000000

 Free energy of the ion-electron system (eV)
  ---------------------------------------------------
  alpha Z        PSCENC =        31.03520437
  Ewald energy   TEWEN  =      -198.85854833
  -1/2 Hartree   DENC   =        -2.45820869
  -exchange  EXHF       =         0.00000000
  -V(xc)+E(xc)   XCENC  =       -60.67202212
  PAW double counting   =       143.51874798      -69.33493833
  entropy T*S    EENTRO =        -0.00018225
  eigenvalues    EBANDS =        24.40002729
  atomic energy  EATOM  =       130.64884137
  ---------------------------------------------------
  free energy    TOTEN  =        -1.72107872 eV

  energy without entropy =       -1.72089646  energy(sigma->0) =       -1.72101797


--------------------------------------------------------------------------------------------------------




----------------------------------------- Iteration    1(   3)  ---------------------------------------


     EDDAV:  cpu time    3.59: real time    3.59
       DOS:  cpu time    0.01: real time    0.01
    --------------------------------------------
      LOOP:  cpu time    3.60: real time    3.62

 eigenvalue-minimisations  :  2593
 total energy-change (2. order) :-0.1832186E+00  (-0.1797775E+00)
 number of electron       5.0000000 magnetization       6.0000000
 augmentation part        5.0000000 magnetization       6.0000000

 Free energy of the ion-electron system (eV)
  ---------------------------------------------------
  alpha Z        PSCENC =        31.03520437
  Ewald energy   TEWEN  =      -198.85854833
  -1/2 Hartree   DENC   =        -2.45820869
  -exchange  EXHF       =         0.00000000
  -V(xc)+E(xc)   XCENC  =       -60.67202212
  PAW double counting   =       143.51874798      -69.33493833
  entropy T*S    EENTRO =        -0.00017856
  eigenvalues    EBANDS =        24.21680497
  atomic energy  EATOM  =       130.64884137
  ---------------------------------------------------
  free energy    TOTEN  =        -1.90429735 eV

  energy without entropy =       -1.90411879  energy(sigma->0) =       -1.90423783


--------------------------------------------------------------------------------------------------------




----------------------------------------- Iteration    1(   4)  ---------------------------------------


     EDDAV:  cpu time    3.93: real time    3.93
       DOS:  cpu time    0.01: real time    0.01
    --------------------------------------------
      LOOP:  cpu time    3.94: real time    3.98

 eigenvalue-minimisations  :  2957
 total energy-change (2. order) :-0.3192294E-03  (-0.3192005E-03)
 number of electron       5.0000000 magnetization       6.0000000
 augmentation part        5.0000000 magnetization       6.0000000

 Free energy of the ion-electron system (eV)
  ---------------------------------------------------
  alpha Z        PSCENC =        31.03520437
  Ewald energy   TEWEN  =      -198.85854833
  -1/2 Hartree   DENC   =        -2.45820869
  -exchange  EXHF       =         0.00000000
  -V(xc)+E(xc)   XCENC  =       -60.67202212
  PAW double counting   =       143.51874798      -69.33493833
  entropy T*S    EENTRO =        -0.00017887
  eigenvalues    EBANDS =        24.21648605
  atomic energy  EATOM  =       130.64884137
  ---------------------------------------------------
  free energy    TOTEN  =        -1.90461658 eV

  energy without entropy =       -1.90443771  energy(sigma->0) =       -1.90455696


--------------------------------------------------------------------------------------------------------




----------------------------------------- Iteration    1(   5)  ---------------------------------------


     EDDAV:  cpu time    3.23: real time    3.23
       DOS:  cpu time    0.01: real time    0.01
    CHARGE:  cpu time    0.20: real time    0.20
    MIXING:  cpu time    0.00: real time    0.00
    --------------------------------------------
      LOOP:  cpu time    3.44: real time    3.45

 eigenvalue-minimisations  :  2541
 total energy-change (2. order) :-0.3106416E-06  (-0.3115059E-06)
 number of electron       5.0000000 magnetization       2.2290910
 augmentation part        0.4524243 magnetization      -0.7377182

 Broyden mixing:
  rms(total) = 0.73292E+00    rms(broyden)= 0.73291E+00
  rms(prec ) = 0.95099E+00
  weight for this iteration     100.00

 Free energy of the ion-electron system (eV)
  ---------------------------------------------------
  alpha Z        PSCENC =        31.03520437
  Ewald energy   TEWEN  =      -198.85854833
  -1/2 Hartree   DENC   =        -2.45820869
  -exchange  EXHF       =         0.00000000
  -V(xc)+E(xc)   XCENC  =       -60.67202212
  PAW double counting   =       143.51874798      -69.33493833
  entropy T*S    EENTRO =        -0.00017888
  eigenvalues    EBANDS =        24.21648574
  atomic energy  EATOM  =       130.64884137
  ---------------------------------------------------
  free energy    TOTEN  =        -1.90461689 eV

  energy without entropy =       -1.90443802  energy(sigma->0) =       -1.90455727


--------------------------------------------------------------------------------------------------------




----------------------------------------- Iteration    1(   6)  ---------------------------------------


    POTLOK:  cpu time    0.20: real time    0.20
    SETDIJ:  cpu time    0.04: real time    0.04
     EDDAV:  cpu time    3.14: real time    3.14
       DOS:  cpu time    0.01: real time    0.01
    CHARGE:  cpu time    0.20: real time    0.20
    MIXING:  cpu time    0.00: real time    0.00
    --------------------------------------------
      LOOP:  cpu time    3.60: real time    3.61

 eigenvalue-minimisations  :  2456
 total energy-change (2. order) :-0.9342270E+01  (-0.2653273E+00)
 number of electron       5.0000000 magnetization       2.0117877
 augmentation part        0.3722429 magnetization       1.2098565

 Broyden mixing:
  rms(total) = 0.41910E+00    rms(broyden)= 0.41908E+00
  rms(prec ) = 0.10961E+01
  weight for this iteration     100.00

 eigenvalues of (default mixing * dielectric matrix)
  average eigenvalue GAMMA=   1.5570
  1.5570

 Free energy of the ion-electron system (eV)
  ---------------------------------------------------
  alpha Z        PSCENC =        31.03520437
  Ewald energy   TEWEN  =      -198.85854833
  -1/2 Hartree   DENC   =        -1.95808097
  -exchange  EXHF       =         0.00000000
  -V(xc)+E(xc)   XCENC  =       -66.00929537
  PAW double counting   =       164.53971464      -90.62027522
  entropy T*S    EENTRO =         0.00016124
  eigenvalues    EBANDS =        19.97539179
  atomic energy  EATOM  =       130.64884137
  ---------------------------------------------------
  free energy    TOTEN  =       -11.24688648 eV

  energy without entropy =      -11.24704773  energy(sigma->0) =      -11.24694023


--------------------------------------------------------------------------------------------------------




----------------------------------------- Iteration    1(   7)  ---------------------------------------


    POTLOK:  cpu time    0.20: real time    0.20
    SETDIJ:  cpu time    0.04: real time    0.04
     EDDAV:  cpu time    3.44: real time    3.44
       DOS:  cpu time    0.01: real time    0.01
    CHARGE:  cpu time    0.21: real time    0.21
    MIXING:  cpu time    0.00: real time    0.00
    --------------------------------------------
      LOOP:  cpu time    3.90: real time    3.92

 eigenvalue-minimisations  :  2763
 total energy-change (2. order) :-0.9905721E-01  (-0.6671087E-02)
 number of electron       5.0000000 magnetization       1.8577332
 augmentation part        0.3700331 magnetization       1.1201070

 Broyden mixing:
  rms(total) = 0.38562E+00    rms(broyden)= 0.38562E+00
  rms(prec ) = 0.10597E+01
  weight for this iteration     100.00

 eigenvalues of (default mixing * dielectric matrix)
  average eigenvalue GAMMA=   1.0340
  1.0340  1.0340

 Free energy of the ion-electron system (eV)
  ---------------------------------------------------
  alpha Z        PSCENC =        31.03520437
  Ewald energy   TEWEN  =      -198.85854833
  -1/2 Hartree   DENC   =        -1.86692380
  -exchange  EXHF       =         0.00000000
  -V(xc)+E(xc)   XCENC  =       -66.08472247
  PAW double counting   =       166.29911486      -92.40835656
  entropy T*S    EENTRO =        -0.00025448
  eigenvalues    EBANDS =        19.88970136
  atomic energy  EATOM  =       130.64884137
  ---------------------------------------------------
  free energy    TOTEN  =       -11.34594369 eV

  energy without entropy =      -11.34568921  energy(sigma->0) =      -11.34585886


--------------------------------------------------------------------------------------------------------




----------------------------------------- Iteration    1(   8)  ---------------------------------------


    POTLOK:  cpu time    0.20: real time    0.20
    SETDIJ:  cpu time    0.04: real time    0.04
     EDDAV:  cpu time    3.12: real time    3.12
       DOS:  cpu time    0.01: real time    0.01
    CHARGE:  cpu time    0.20: real time    0.21
    MIXING:  cpu time    0.00: real time    0.00
    --------------------------------------------
      LOOP:  cpu time    3.58: real time    3.59

 eigenvalue-minimisations  :  2431
 total energy-change (2. order) :-0.1395359E-01  (-0.4226136E-01)
 number of electron       5.0000000 magnetization       0.1395144
 augmentation part        0.3934759 magnetization      -0.4301528

 Broyden mixing:
  rms(total) = 0.34908E+00    rms(broyden)= 0.34908E+00
  rms(prec ) = 0.44122E+00
  weight for this iteration     100.00

 eigenvalues of (default mixing * dielectric matrix)
  average eigenvalue GAMMA=   1.2026
  1.4567  1.4567  0.6945

 Free energy of the ion-electron system (eV)
  ---------------------------------------------------
  alpha Z        PSCENC =        31.03520437
  Ewald energy   TEWEN  =      -198.85854833
  -1/2 Hartree   DENC   =        -0.86568500
  -exchange  EXHF       =         0.00000000
  -V(xc)+E(xc)   XCENC  =       -65.72228167
  PAW double counting   =       170.12174461      -96.62014209
  entropy T*S    EENTRO =         0.00029984
  eigenvalues    EBANDS =        18.90066962
  atomic energy  EATOM  =       130.64884137
  ---------------------------------------------------
  free energy    TOTEN  =       -11.35989728 eV

  energy without entropy =      -11.36019713  energy(sigma->0) =      -11.35999723


--------------------------------------------------------------------------------------------------------




----------------------------------------- Iteration    1(   9)  ---------------------------------------


    POTLOK:  cpu time    0.19: real time    0.19
    SETDIJ:  cpu time    0.04: real time    0.04
     EDDAV:  cpu time    2.97: real time    2.97
       DOS:  cpu time    0.01: real time    0.01
    CHARGE:  cpu time    0.21: real time    0.21
    MIXING:  cpu time    0.00: real time    0.00
    --------------------------------------------
      LOOP:  cpu time    3.43: real time    3.45

 eigenvalue-minimisations  :  2265
 total energy-change (2. order) :-0.2429635E+00  (-0.3569422E-01)
 number of electron       5.0000000 magnetization       0.0082249
 augmentation part        0.4058891 magnetization      -0.0160198

 Broyden mixing:
  rms(total) = 0.65363E-01    rms(broyden)= 0.65358E-01
  rms(prec ) = 0.22096E+00
  weight for this iteration     100.00

 eigenvalues of (default mixing * dielectric matrix)
  average eigenvalue GAMMA=   1.1770
  2.0498  1.0013  1.0013  0.6557

 Free energy of the ion-electron system (eV)
  ---------------------------------------------------
  alpha Z        PSCENC =        31.03520437
  Ewald energy   TEWEN  =      -198.85854833
  -1/2 Hartree   DENC   =        -0.46498563
  -exchange  EXHF       =         0.00000000
  -V(xc)+E(xc)   XCENC  =       -65.78968714
  PAW double counting   =       186.72603451     -113.41325703
  entropy T*S    EENTRO =         0.00003313
  eigenvalues    EBANDS =        18.51350399
  atomic energy  EATOM  =       130.64884137
  ---------------------------------------------------
  free energy    TOTEN  =       -11.60286077 eV

  energy without entropy =      -11.60289390  energy(sigma->0) =      -11.60287182


--------------------------------------------------------------------------------------------------------




----------------------------------------- Iteration    1(  10)  ---------------------------------------


    POTLOK:  cpu time    0.19: real time    0.19
    SETDIJ:  cpu time    0.04: real time    0.04
     EDDAV:  cpu time    3.04: real time    3.04
       DOS:  cpu time    0.01: real time    0.01
    CHARGE:  cpu time    0.20: real time    0.20
    MIXING:  cpu time    0.00: real time    0.00
    --------------------------------------------
      LOOP:  cpu time    3.50: real time    3.51

 eigenvalue-minimisations  :  2356
 total energy-change (2. order) : 0.5466069E-02  (-0.1266347E-02)
 number of electron       5.0000000 magnetization       0.1439485
 augmentation part        0.4022480 magnetization       0.1450101

 Broyden mixing:
  rms(total) = 0.26989E-01    rms(broyden)= 0.26989E-01
  rms(prec ) = 0.10315E+00
  weight for this iteration     100.00

 eigenvalues of (default mixing * dielectric matrix)
  average eigenvalue GAMMA=   1.0655
  1.5872  1.1344  1.1344  0.8084  0.6633

 Free energy of the ion-electron system (eV)
  ---------------------------------------------------
  alpha Z        PSCENC =        31.03520437
  Ewald energy   TEWEN  =      -198.85854833
  -1/2 Hartree   DENC   =        -0.53687334
  -exchange  EXHF       =         0.00000000
  -V(xc)+E(xc)   XCENC  =       -65.86235998
  PAW double counting   =       188.35892349     -115.02161393
  entropy T*S    EENTRO =         0.00027715
  eigenvalues    EBANDS =        18.63875450
  atomic energy  EATOM  =       130.64884137
  ---------------------------------------------------
  free energy    TOTEN  =       -11.59739470 eV

  energy without entropy =      -11.59767185  energy(sigma->0) =      -11.59748709


--------------------------------------------------------------------------------------------------------




----------------------------------------- Iteration    1(  11)  ---------------------------------------


    POTLOK:  cpu time    0.19: real time    0.19
    SETDIJ:  cpu time    0.04: real time    0.04
     EDDAV:  cpu time    2.98: real time    2.98
       DOS:  cpu time    0.01: real time    0.01
    CHARGE:  cpu time    0.21: real time    0.21
    MIXING:  cpu time    0.00: real time    0.00
    --------------------------------------------
      LOOP:  cpu time    3.44: real time    3.46

 eigenvalue-minimisations  :  2292
 total energy-change (2. order) : 0.4908170E-02  (-0.1352732E-02)
 number of electron       5.0000000 magnetization       0.0029546
 augmentation part        0.3970270 magnetization      -0.0316247

 Broyden mixing:
  rms(total) = 0.29420E-01    rms(broyden)= 0.29419E-01
  rms(prec ) = 0.54358E-01
  weight for this iteration     100.00

 eigenvalues of (default mixing * dielectric matrix)
  average eigenvalue GAMMA=   1.3045
  2.0842  2.0842  1.1469  1.1469  0.7223  0.6426

 Free energy of the ion-electron system (eV)
  ---------------------------------------------------
  alpha Z        PSCENC =        31.03520437
  Ewald energy   TEWEN  =      -198.85854833
  -1/2 Hartree   DENC   =        -0.63760019
  -exchange  EXHF       =         0.00000000
  -V(xc)+E(xc)   XCENC  =       -65.94282647
  PAW double counting   =       190.42145502     -117.05188219
  entropy T*S    EENTRO =        -0.00000518
  eigenvalues    EBANDS =        18.79287508
  atomic energy  EATOM  =       130.64884137
  ---------------------------------------------------
  free energy    TOTEN  =       -11.59248653 eV

  energy without entropy =      -11.59248135  energy(sigma->0) =      -11.59248481


--------------------------------------------------------------------------------------------------------




----------------------------------------- Iteration    1(  12)  ---------------------------------------


    POTLOK:  cpu time    0.19: real time    0.19
    SETDIJ:  cpu time    0.05: real time    0.05
     EDDAV:  cpu time    3.10: real time    3.10
       DOS:  cpu time    0.01: real time    0.01
    CHARGE:  cpu time    0.20: real time    0.20
    MIXING:  cpu time    0.00: real time    0.00
    --------------------------------------------
      LOOP:  cpu time    3.56: real time    3.57

 eigenvalue-minimisations  :  2422
 total energy-change (2. order) :-0.2852769E-02  (-0.9091908E-04)
 number of electron       5.0000000 magnetization       0.0045091
 augmentation part        0.3974919 magnetization       0.0034529

 Broyden mixing:
  rms(total) = 0.10603E-01    rms(broyden)= 0.10603E-01
  rms(prec ) = 0.40606E-01
  weight for this iteration     100.00

 eigenvalues of (default mixing * dielectric matrix)
  average eigenvalue GAMMA=   1.1655
  2.0238  2.0238  1.1459  1.1459  0.6611  0.6611  0.4970

 Free energy of the ion-electron system (eV)
  ---------------------------------------------------
  alpha Z        PSCENC =        31.03520437
  Ewald energy   TEWEN  =      -198.85854833
  -1/2 Hartree   DENC   =        -0.63496714
  -exchange  EXHF       =         0.00000000
  -V(xc)+E(xc)   XCENC  =       -65.94449445
  PAW double counting   =       195.60998117     -122.26734853
  entropy T*S    EENTRO =         0.00025546
  eigenvalues    EBANDS =        18.81573679
  atomic energy  EATOM  =       130.64884137
  ---------------------------------------------------
  free energy    TOTEN  =       -11.59533930 eV

  energy without entropy =      -11.59559477  energy(sigma->0) =      -11.59542446


--------------------------------------------------------------------------------------------------------




----------------------------------------- Iteration    1(  13)  ---------------------------------------


    POTLOK:  cpu time    0.19: real time    0.19
    SETDIJ:  cpu time    0.04: real time    0.04
     EDDAV:  cpu time    2.94: real time    2.94
       DOS:  cpu time    0.01: real time    0.01
    CHARGE:  cpu time    0.20: real time    0.20
    MIXING:  cpu time    0.01: real time    0.01
    --------------------------------------------
      LOOP:  cpu time    3.40: real time    3.41

 eigenvalue-minimisations  :  2246
 total energy-change (2. order) : 0.2452450E-03  (-0.4712145E-04)
 number of electron       5.0000000 magnetization      -0.0011829
 augmentation part        0.3983341 magnetization      -0.0020698

 Broyden mixing:
  rms(total) = 0.41243E-02    rms(broyden)= 0.41242E-02
  rms(prec ) = 0.15937E-01
  weight for this iteration     100.00

 eigenvalues of (default mixing * dielectric matrix)
  average eigenvalue GAMMA=   1.2155
  2.2569  1.7824  1.2716  1.2716  0.9072  0.9072  0.7025  0.6244

 Free energy of the ion-electron system (eV)
  ---------------------------------------------------
  alpha Z        PSCENC =        31.03520437
  Ewald energy   TEWEN  =      -198.85854833
  -1/2 Hartree   DENC   =        -0.61612455
  -exchange  EXHF       =         0.00000000
  -V(xc)+E(xc)   XCENC  =       -65.93038909
  PAW double counting   =       195.22931908     -121.89153251
  entropy T*S    EENTRO =         0.00025741
  eigenvalues    EBANDS =        18.78787818
  atomic energy  EATOM  =       130.64884137
  ---------------------------------------------------
  free energy    TOTEN  =       -11.59509406 eV

  energy without entropy =      -11.59535147  energy(sigma->0) =      -11.59517986


--------------------------------------------------------------------------------------------------------




----------------------------------------- Iteration    1(  14)  ---------------------------------------


    POTLOK:  cpu time    0.20: real time    0.20
    SETDIJ:  cpu time    0.05: real time    0.05
     EDDAV:  cpu time    2.93: real time    2.93
       DOS:  cpu time    0.01: real time    0.01
    --------------------------------------------
      LOOP:  cpu time    3.20: real time    3.22

 eigenvalue-minimisations  :  2174
 total energy-change (2. order) : 0.4341265E-04  (-0.2260834E-04)
 number of electron       5.0000000 magnetization      -0.0011829
 augmentation part        0.3983341 magnetization      -0.0020698

 Free energy of the ion-electron system (eV)
  ---------------------------------------------------
  alpha Z        PSCENC =        31.03520437
  Ewald energy   TEWEN  =      -198.85854833
  -1/2 Hartree   DENC   =        -0.60251625
  -exchange  EXHF       =         0.00000000
  -V(xc)+E(xc)   XCENC  =       -65.92019878
  PAW double counting   =       195.16932345     -121.83537556
  entropy T*S    EENTRO =         0.00025893
  eigenvalues    EBANDS =        18.76796016
  atomic energy  EATOM  =       130.64884137
  ---------------------------------------------------
  free energy    TOTEN  =       -11.59505065 eV

  energy without entropy =      -11.59530958  energy(sigma->0) =      -11.59513696


--------------------------------------------------------------------------------------------------------




 average (electrostatic) potential at core
  the test charge radii are     1.2538
  (the norm of the test charge is              1.0000)
       1 -34.8649
 
 
 
 E-fermi :   6.1763     XC(G=0): -12.4466     alpha+bet :-13.7030


 spin component 1

 k-point   1 :       0.0625    0.0625    0.0625
  band No.  band energies     occupation 
      1      -1.9455      1.00000
      2       6.5023      0.00000
      3       6.7282      0.00000
      4       6.7282      0.00000
      5       9.7617      0.00000
      6       9.7617      0.00000
      7      19.1679      0.00000
      8      19.9969      0.00000
      9      23.0702      0.00000

 k-point   2 :       0.1875    0.0625    0.0625
  band No.  band energies     occupation 
      1      -1.1256      1.00000
      2       5.8757      1.00000
      3       7.0530      0.00000
      4       7.0833      0.00000
      5       9.1354      0.00000
      6       9.8911      0.00000
      7      19.9959      0.00000
      8      20.6108      0.00000
      9      21.5236      0.00000

 k-point   3 :       0.3125    0.0625    0.0625
  band No.  band energies     occupation 
      1       0.4469      1.00000
      2       5.3470      1.00000
      3       6.9055      0.00000
      4       7.1388      0.00000
      5       9.5079      0.00000
      6      10.7410      0.00000
      7      18.9383      0.00000
      8      19.9997      0.00000
      9      23.0842      0.00000

 k-point   4 :       0.4375    0.0625    0.0625
  band No.  band energies     occupation 
      1       1.4252      1.00000
      2       6.0797      1.00990
      3       6.4795      0.00000
      4       6.6600      0.00000
      5      11.2190      0.00000
      6      12.2493      0.00000
      7      17.4318      0.00000
      8      19.9421      0.00000
      9      20.0847      0.00000

 k-point   5 :      -0.4375    0.0625    0.0625
  band No.  band energies     occupation 
      1       1.5471      1.00000
      2       6.0826      1.01175
      3       6.5397      0.00000
      4       6.9791      0.00000
      5      12.3630      0.00000
      6      12.4685      0.00000
      7      16.8107      0.00000
      8      18.8084      0.00000
      9      20.0031      0.00000

 k-point   6 :      -0.3125    0.0625    0.0625
  band No.  band energies     occupation 
      1       1.2285      1.00000
      2       5.6873      1.00000
      3       6.5164      0.00000
      4       6.8649      0.00000
      5      10.8539      0.00000
      6      11.5765      0.00000
      7      17.8558      0.00000
      8      19.9953      0.00000
      9      21.1500      0.00000

 k-point   7 :      -0.1875    0.0625    0.0625
  band No.  band energies     occupation 
      1      -0.0918      1.00000
      2       5.3859      1.00000
      3       7.0691      0.00000
      4       7.2377      0.00000
      5       9.2382      0.00000
      6      10.2565      0.00000
      7      19.5931      0.00000
      8      20.0034      0.00000
      9      22.8697      0.00000

 k-point   8 :      -0.0625    0.0625    0.0625
  band No.  band energies     occupation 
      1      -1.5227      1.00000
      2       6.0957      1.02250
      3       6.9573      0.00000
      4       6.9715      0.00000
      5       9.2175      0.00000
      6       9.9432      0.00000
      7      19.9965      0.00000
      8      20.0345      0.00000
      9      22.2917      0.00000

 k-point   9 :       0.1875    0.1875    0.0625
  band No.  band energies     occupation 
      1      -0.7292      1.00000
      2       5.4077      1.00000
      3       7.3692      0.00000
      4       7.4545      0.00000
      5       8.4071      0.00000
      6      10.2900      0.00000
      7      19.9965      0.00000
      8      21.5199      0.00000
      9      22.0905      0.00000

 k-point  10 :       0.3125    0.1875    0.0625
  band No.  band energies     occupation 
      1       0.6113      1.00000
      2       4.7426      1.00000
      3       6.6921      0.00000
      4       8.0518      0.00000
      5       8.8299      0.00000
      6      11.0668      0.00000
      7      19.9930      0.00000
      8      20.9457      0.00000
      9      23.8471      0.00000

 k-point  11 :       0.4375    0.1875    0.0625
  band No.  band energies     occupation 
      1       1.9638      1.00000
      2       4.8545      1.00000
      3       5.8425      1.00000
      4       7.6751      0.00000
      5      10.8019      0.00000
      6      12.5899      0.00000
      7      18.4820      0.00000
      8      20.0036      0.00000
      9      21.6312      0.00000

 k-point  12 :      -0.4375    0.1875    0.0625
  band No.  band energies     occupation 
      1       2.3547      1.00000
      2       4.9810      1.00000
      3       6.4025      0.00000
      4       7.3049      0.00000
      5      12.0711      0.00000
      6      13.6876      0.00000
      7      16.1426      0.00000
      8      20.0018      0.00000
      9      20.6540      0.00000

 k-point  13 :      -0.3125    0.1875    0.0625
  band No.  band energies     occupation 
      1       2.2590      1.00000
      2       5.2037      1.00000
      3       5.8074      1.00000
      4       7.4034      0.00000
      5      10.7735      0.00000
      6      13.4534      0.00000
      7      17.6480      0.00000
      8      20.0027      0.00000
      9      21.1330      0.00000

 k-point  14 :      -0.1875    0.1875    0.0625
  band No.  band energies     occupation 
      1       1.1795      1.00000
      2       4.8817      1.00000
      3       6.2985     -0.00149
      4       7.9190      0.00000
      5       8.8447      0.00000
      6      11.8902      0.00000
      7      19.9588      0.00000
      8      20.1513      0.00000
      9      23.5124      0.00000

 k-point  15 :      -0.0625    0.1875    0.0625
  band No.  band energies     occupation 
      1      -0.3771      1.00000
      2       5.3730      1.00000
      3       7.1100      0.00000
      4       7.4757      0.00000
      5       8.6700      0.00000
      6      10.3521      0.00000
      7      19.9943      0.00000
      8      20.7801      0.00000
      9      22.2806      0.00000

 k-point  16 :       0.3125    0.3125    0.0625
  band No.  band energies     occupation 
      1       1.2901      1.00000
      2       3.9299      1.00000
      3       6.5858      0.00000
      4       9.0892      0.00000
      5       9.4944      0.00000
      6      11.3292      0.00000
      7      19.9947      0.00000
      8      22.2760      0.00000
      9      23.4854      0.00000

 k-point  17 :       0.4375    0.3125    0.0625
  band No.  band energies     occupation 
      1       2.1386      1.00000
      2       3.6067      1.00000
      3       6.2473     -0.03105
      4       9.6654      0.00000
      5      10.9170      0.00000
      6      12.6679      0.00000
      7      19.3582      0.00000
      8      20.0118      0.00000
      9      21.6114      0.00000

 k-point  18 :      -0.4375    0.3125    0.0625
  band No.  band energies     occupation 
      1       2.8459      1.00000
      2       3.9543      1.00000
      3       6.0370      1.00029
      4       9.0086      0.00000
      5      12.1793      0.00000
      6      14.6843      0.00000
      7      15.7896      0.00000
      8      19.9990      0.00000
      9      21.6116      0.00000

 k-point  19 :      -0.3125    0.3125    0.0625
  band No.  band energies     occupation 
      1       3.5819      1.00000
      2       4.1562      1.00000
      3       5.5158      1.00000
      4       8.5060      0.00000
      5      11.0178      0.00000
      6      13.8137      0.00000
      7      18.2324      0.00000
      8      19.9989      0.00000
      9      20.4536      0.00000

 k-point  20 :      -0.1875    0.3125    0.0625
  band No.  band energies     occupation 
      1       2.7292      1.00000
      2       4.8875      1.00000
      3       5.1819      1.00000
      4       8.0652      0.00000
      5       9.8244      0.00000
      6      13.6981      0.00000
      7      18.6416      0.00000
      8      20.0063      0.00000
      9      22.4695      0.00000

 k-point  21 :      -0.0625    0.3125    0.0625
  band No.  band energies     occupation 
      1       1.1719      1.00000
      2       5.1883      1.00000
      3       6.4265      0.00000
      4       7.2652      0.00000
      5       9.8947      0.00000
      6      11.6815      0.00000
      7      18.8427      0.00000
      8      20.0004      0.00000
      9      22.3427      0.00000

 k-point  22 :       0.4375    0.4375    0.0625
  band No.  band energies     occupation 
      1       1.7801      1.00000
      2       2.9441      1.00000
      3       7.9347      0.00000
      4      11.2475      0.00000
      5      12.1381      0.00000
      6      12.4505      0.00000
      7      18.6975      0.00000
      8      19.6116      0.00000
      9      19.9919      0.00000

 k-point  23 :      -0.4375    0.4375    0.0625
  band No.  band energies     occupation 
      1       2.0086      1.00000
      2       3.0469      1.00000
      3       7.9510      0.00000
      4      10.9877      0.00000
      5      12.8293      0.00000
      6      14.3833      0.00000
      7      16.4381      0.00000
      8      18.6443      0.00000
      9      19.9922      0.00000

 k-point  24 :      -0.3125    0.4375    0.0625
  band No.  band energies     occupation 
      1       2.8028      1.00000
      2       3.8176      1.00000
      3       6.4993      0.00000
      4       9.4700      0.00000
      5      12.1078      0.00000
      6      14.4480      0.00000
      7      16.6385      0.00000
      8      19.9715      0.00000
      9      20.2558      0.00000

 k-point  25 :      -0.1875    0.4375    0.0625
  band No.  band energies     occupation 
      1       3.0202      1.00000
      2       4.4236      1.00000
      3       5.9925      1.00000
      4       7.9300      0.00000
      5      11.5994      0.00000
      6      14.1471      0.00000
      7      16.4389      0.00000
      8      20.0012      0.00000
      9      21.6985      0.00000

 k-point  26 :      -0.0625    0.4375    0.0625
  band No.  band energies     occupation 
      1       1.8020      1.00000
      2       5.6665      1.00000
      3       6.5402      0.00000
      4       6.8501      0.00000
      5      11.7743      0.00000
      6      12.9182      0.00000
      7      16.9509      0.00000
      8      19.7401      0.00000
      9      20.0063      0.00000

 k-point  27 :      -0.4375   -0.4375    0.0625
  band No.  band energies     occupation 
      1       1.6583      1.00000
      2       2.7365      1.00000
      3       8.9104      0.00000
      4      11.9477      0.00000
      5      12.9237      0.00000
      6      13.3088      0.00000
      7      17.2480      0.00000
      8      18.2975      0.00000
      9      19.8398      0.00000

 k-point  28 :      -0.3125   -0.4375    0.0625
  band No.  band energies     occupation 
      1       2.1370      1.00000
      2       3.2369      1.00000
      3       7.0965      0.00000
      4      10.5255      0.00000
      5      12.0941      0.00000
      6      13.4926      0.00000
      7      17.6307      0.00000
      8      19.8202      0.00000
      9      20.0039      0.00000

 k-point  29 :      -0.1875   -0.4375    0.0625
  band No.  band energies     occupation 
      1       2.6058      1.00000
      2       4.3405      1.00000
      3       5.6899      1.00000
      4       8.3056      0.00000
      5      11.8406      0.00000
      6      13.4368      0.00000
      7      17.1397      0.00000
      8      20.0018      0.00000
      9      22.0900      0.00000

 k-point  30 :      -0.3125   -0.3125    0.0625
  band No.  band energies     occupation 
      1       1.7922      1.00000
      2       3.3496      1.00000
      3       6.8871      0.00000
      4      10.1657      0.00000
      5      10.7490      0.00000
      6      11.9077      0.00000
      7      19.9875      0.00000
      8      20.7123      0.00000
      9      21.5209      0.00000

 k-point  31 :      -0.1875   -0.3125    0.0625
  band No.  band energies     occupation 
      1       1.5941      1.00000
      2       4.1261      1.00000
      3       6.1412      0.96115
      4       8.7838      0.00000
      5       9.7211      0.00000
      6      11.8692      0.00000
      7      19.9884      0.00000
      8      20.8377      0.00000
      9      23.5687      0.00000

 k-point  32 :      -0.1875   -0.1875    0.0625
  band No.  band energies     occupation 
      1       0.3041      1.00000
      2       4.6416      1.00000
      3       7.0916      0.00000
      4       8.1677      0.00000
      5       8.5131      0.00000
      6      10.7688      0.00000
      7      19.9958      0.00000
      8      22.1709      0.00000
      9      23.6807      0.00000

 k-point  33 :       0.1875    0.1875    0.1875
  band No.  band energies     occupation 
      1      -0.7676      1.00000
      2       5.7291      1.00000
      3       7.1001      0.00000
      4       7.1001      0.00000
      5       9.5556      0.00000
      6       9.5556      0.00000
      7      19.9448      0.00000
      8      20.0292      0.00000
      9      21.9284      0.00000

 k-point  34 :       0.3125    0.1875    0.1875
  band No.  band energies     occupation 
      1       0.2880      1.00000
      2       5.2064      1.00000
      3       6.8302      0.00000
      4       7.6437      0.00000
      5       8.5803      0.00000
      6      10.9487      0.00000
      7      19.9830      0.00000
      8      20.2465      0.00000
      9      23.1306      0.00000

 k-point  35 :       0.4375    0.1875    0.1875
  band No.  band energies     occupation 
      1       1.9215      1.00000
      2       4.9608      1.00000
      3       5.8330      1.00000
      4       7.7899      0.00000
      5       9.1179      0.00000
      6      12.9082      0.00000
      7      19.4799      0.00000
      8      20.0158      0.00000
      9      22.4897      0.00000

 k-point  36 :      -0.4375    0.1875    0.1875
  band No.  band energies     occupation 
      1       2.6054      1.00000
      2       4.9411      1.00000
      3       6.0263      1.00009
      4       7.4778      0.00000
      5      11.1062      0.00000
      6      13.8375      0.00000
      7      17.0328      0.00000
      8      20.0022      0.00000
      9      21.3569      0.00000

 k-point  37 :      -0.3125    0.1875    0.1875
  band No.  band energies     occupation 
      1       2.4449      1.00000
      2       4.7108      1.00000
      3       6.0900      1.01739
      4       7.6562      0.00000
      5      12.4777      0.00000
      6      13.2139      0.00000
      7      16.3930      0.00000
      8      20.0017      0.00000
      9      21.1777      0.00000

 k-point  38 :      -0.1875    0.1875    0.1875
  band No.  band energies     occupation 
      1       1.7289      1.00000
      2       4.3910      1.00000
      3       6.0191      1.00004
      4       8.1159      0.00000
      5      10.6207      0.00000
      6      11.8929      0.00000
      7      19.5683      0.00000
      8      20.0160      0.00000
      9      22.6388      0.00000

 k-point  39 :       0.3125    0.3125    0.1875
  band No.  band energies     occupation 
      1       0.8069      1.00000
      2       4.9086      1.00000
      3       6.5942      0.00000
      4       7.5697      0.00000
      5       9.5904      0.00000
      6      11.0870      0.00000
      7      19.7034      0.00000
      8      20.0103      0.00000
      9      23.3597      0.00000

 k-point  40 :       0.4375    0.3125    0.1875
  band No.  band energies     occupation 
      1       2.1265      1.00000
      2       4.4811      1.00000
      3       5.6128      1.00000
      4       8.4265      0.00000
      5       9.6957      0.00000
      6      12.8534      0.00000
      7      19.5568      0.00000
      8      20.0206      0.00000
      9      22.7467      0.00000

 k-point  41 :      -0.4375    0.3125    0.1875
  band No.  band energies     occupation 
      1       3.4447      1.00000
      2       4.3972      1.00000
      3       4.9450      1.00000
      4       8.5940      0.00000
      5      10.8103      0.00000
      6      14.1062      0.00000
      7      17.9898      0.00000
      8      20.0028      0.00000
      9      21.0507      0.00000

 k-point  42 :      -0.3125    0.3125    0.1875
  band No.  band energies     occupation 
      1       3.4445      1.00000
      2       4.0553      1.00000
      3       5.6359      1.00000
      4       8.4699      0.00000
      5      11.7432      0.00000
      6      15.3443      0.00000
      7      15.6230      0.00000
      8      19.9997      0.00000
      9      21.6652      0.00000

 k-point  43 :      -0.1875    0.3125    0.1875
  band No.  band energies     occupation 
      1       2.7576      1.00000
      2       4.0830      1.00000
      3       5.3978      1.00000
      4       9.1251      0.00000
      5      10.8112      0.00000
      6      13.6800      0.00000
      7      18.2914      0.00000
      8      20.0042      0.00000
      9      21.4718      0.00000

 k-point  44 :       0.4375    0.4375    0.1875
  band No.  band energies     occupation 
      1       2.3111      1.00000
      2       3.8952      1.00000
      3       6.0097      1.00001
      4       8.8530      0.00000
      5      12.0711      0.00000
      6      12.4842      0.00000
      7      18.1437      0.00000
      8      20.0028      0.00000
      9      22.3841      0.00000

 k-point  45 :      -0.4375    0.4375    0.1875
  band No.  band energies     occupation 
      1       2.7787      1.00000
      2       3.7853      1.00000
      3       5.9736      1.00000
      4       9.6389      0.00000
      5      11.9148      0.00000
      6      14.5070      0.00000
      7      17.1178      0.00000
      8      19.8095      0.00000
      9      20.0093      0.00000

 k-point  46 :      -0.3125    0.4375    0.1875
  band No.  band energies     occupation 
      1       3.2332      1.00000
      2       4.4382      1.00000
      3       5.4927      1.00000
      4       8.5658      0.00000
      5      12.7591      0.00000
      6      15.9058      0.00000
      7      16.6761      0.00000
      8      18.4076      0.00000
      9      20.0049      0.00000

 k-point  47 :      -0.1875    0.4375    0.1875
  band No.  band energies     occupation 
      1       3.4826      1.00000
      2       4.3635      1.00000
      3       5.0713      1.00000
      4       8.8051      0.00000
      5      11.8545      0.00000
      6      14.7765      0.00000
      7      17.3519      0.00000
      8      19.6989      0.00000
      9      20.0103      0.00000

 k-point  48 :      -0.4375   -0.4375    0.1875
  band No.  band energies     occupation 
      1       2.2801      1.00000
      2       3.3425      1.00000
      3       7.4013      0.00000
      4      10.4157      0.00000
      5      12.4769      0.00000
      6      14.8473      0.00000
      7      15.5700      0.00000
      8      19.9847      0.00000
      9      20.5756      0.00000

 k-point  49 :      -0.3125   -0.4375    0.1875
  band No.  band energies     occupation 
      1       2.6251      1.00000
      2       3.6381      1.00000
      3       6.6949      0.00000
      4       9.6263      0.00000
      5      12.7740      0.00000
      6      15.5332      0.00000
      7      16.2085      0.00000
      8      18.6048      0.00000
      9      20.0029      0.00000

 k-point  50 :      -0.3125   -0.3125    0.1875
  band No.  band energies     occupation 
      1       2.3813      1.00000
      2       3.5245      1.00000
      3       6.6891      0.00000
      4       9.6994      0.00000
      5      12.6665      0.00000
      6      13.7370      0.00000
      7      16.3972      0.00000
      8      19.9982      0.00000
      9      21.1540      0.00000

 k-point  51 :       0.3125    0.3125    0.3125
  band No.  band energies     occupation 
      1       0.7631      1.00000
      2       5.5645      1.00000
      3       6.8651      0.00000
      4       6.8651      0.00000
      5      10.5668      0.00000
      6      10.5668      0.00000
      7      18.0755      0.00000
      8      19.9972      0.00000
      9      22.3307      0.00000

 k-point  52 :       0.4375    0.3125    0.3125
  band No.  band energies     occupation 
      1       1.6680      1.00000
      2       5.4308      1.00000
      3       6.1173      1.03515
      4       7.1338      0.00000
      5      10.1308      0.00000
      6      12.6474      0.00000
      7      18.3772      0.00000
      8      20.0008      0.00000
      9      21.2680      0.00000

 k-point  53 :      -0.4375    0.3125    0.3125
  band No.  band energies     occupation 
      1       3.2340      1.00000
      2       4.6446      1.00000
      3       5.3203      1.00000
      4       8.0991      0.00000
      5      10.2713      0.00000
      6      13.8818      0.00000
      7      18.3143      0.00000
      8      20.0037      0.00000
      9      21.5183      0.00000

 k-point  54 :      -0.3125    0.3125    0.3125
  band No.  band energies     occupation 
      1       3.1442      1.00000
      2       4.0732      1.00000
      3       6.0857      1.01395
      4       8.9953      0.00000
      5      11.4856      0.00000
      6      13.6394      0.00000
      7      17.8057      0.00000
      8      19.9853      0.00000
      9      20.3194      0.00000

 k-point  55 :       0.4375    0.4375    0.3125
  band No.  band energies     occupation 
      1       1.8145      1.00000
      2       5.3671      1.00000
      3       6.1853      0.35072
      4       7.1373      0.00000
      5      11.7984      0.00000
      6      12.2997      0.00000
      7      17.5342      0.00000
      8      19.9984      0.00000
      9      20.4771      0.00000

 k-point  56 :      -0.4375    0.4375    0.3125
  band No.  band energies     occupation 
      1       2.9006      1.00000
      2       4.5324      1.00000
      3       5.7314      1.00000
      4       7.9468      0.00000
      5      11.5014      0.00000
      6      14.1434      0.00000
      7      16.6049      0.00000
      8      20.0016      0.00000
      9      21.8523      0.00000

 k-point  57 :      -0.3125    0.4375    0.3125
  band No.  band energies     occupation 
      1       3.4707      1.00000
      2       4.1691      1.00000
      3       5.5512      1.00000
      4       8.6881      0.00000
      5      11.9049      0.00000
      6      14.5742      0.00000
      7      17.4016      0.00000
      8      19.7707      0.00000
      9      20.0233      0.00000

 k-point  58 :      -0.4375   -0.4375    0.3125
  band No.  band energies     occupation 
      1       2.9529      1.00000
      2       4.2193      1.00000
      3       6.0645      1.00347
      4       8.3499      0.00000
      5      12.0762      0.00000
      6      14.1001      0.00000
      7      16.0916      0.00000
      8      20.0002      0.00000
      9      21.7016      0.00000

 k-point  59 :       0.4375    0.4375    0.4375
  band No.  band energies     occupation 
      1       1.3638      1.00000
      2       6.4571      0.00000
      3       6.4571      0.00000
      4       6.7527      0.00000
      5      12.0712      0.00000
      6      12.0712      0.00000
      7      17.0602      0.00000
      8      18.9898      0.00000
      9      20.0058      0.00000

 k-point  60 :      -0.4375    0.4375    0.4375
  band No.  band energies     occupation 
      1       1.9783      1.00000
      2       5.4743      1.00000
      3       6.7002      0.00000
      4       6.8963      0.00000
      5      11.9599      0.00000
      6      13.3039      0.00000
      7      16.4862      0.00000
      8      19.8247      0.00000
      9      20.0027      0.00000

 spin component 2

 k-point   1 :       0.0625    0.0625    0.0625
  band No.  band energies     occupation 
      1      -1.9469      1.00000
      2       6.5013      0.00000
      3       6.7271      0.00000
      4       6.7271      0.00000
      5       9.7618      0.00000
      6       9.7618      0.00000
      7      19.1656      0.00000
      8      19.9965      0.00000
      9      23.0693      0.00000

 k-point   2 :       0.1875    0.0625    0.0625
  band No.  band energies     occupation 
      1      -1.1271      1.00000
      2       5.8745      1.00000
      3       7.0521      0.00000
      4       7.0823      0.00000
      5       9.1353      0.00000
      6       9.8911      0.00000
      7      19.9954      0.00000
      8      20.6088      0.00000
      9      21.5226      0.00000

 k-point   3 :       0.3125    0.0625    0.0625
  band No.  band energies     occupation 
      1       0.4454      1.00000
      2       5.3457      1.00000
      3       6.9048      0.00000
      4       7.1381      0.00000
      5       9.5075      0.00000
      6      10.7407      0.00000
      7      18.9373      0.00000
      8      19.9993      0.00000
      9      23.0826      0.00000

 k-point   4 :       0.4375    0.0625    0.0625
  band No.  band energies     occupation 
      1       1.4237      1.00000
      2       6.0786      1.00924
      3       6.4786      0.00000
      4       6.6594      0.00000
      5      11.2186      0.00000
      6      12.2490      0.00000
      7      17.4310      0.00000
      8      19.9411      0.00000
      9      20.0838      0.00000

[...]
      2       3.8940      1.00000
      3       6.0086      1.00001
      4       8.8524      0.00000
      5      12.0702      0.00000
      6      12.4840      0.00000
      7      18.1427      0.00000
      8      20.0024      0.00000
      9      22.3829      0.00000

 k-point  45 :      -0.4375    0.4375    0.1875
  band No.  band energies     occupation 
      1       2.7781      1.00000
      2       3.7839      1.00000
      3       5.9722      1.00000
      4       9.6385      0.00000
      5      11.9140      0.00000
      6      14.5062      0.00000
      7      17.1168      0.00000
      8      19.8083      0.00000
      9      20.0088      0.00000

 k-point  46 :      -0.3125    0.4375    0.1875
  band No.  band energies     occupation 
      1       3.2327      1.00000
      2       4.4368      1.00000
      3       5.4913      1.00000
      4       8.5654      0.00000
      5      12.7584      0.00000
      6      15.9049      0.00000
      7      16.6749      0.00000
      8      18.4065      0.00000
      9      20.0045      0.00000

 k-point  47 :      -0.1875    0.4375    0.1875
  band No.  band energies     occupation 
      1       3.4820      1.00000
      2       4.3621      1.00000
      3       5.0699      1.00000
      4       8.8048      0.00000
      5      11.8537      0.00000
      6      14.7756      0.00000
      7      17.3510      0.00000
      8      19.6978      0.00000
      9      20.0099      0.00000

 k-point  48 :      -0.4375   -0.4375    0.1875
  band No.  band energies     occupation 
      1       2.2795      1.00000
      2       3.3412      1.00000
      3       7.3996      0.00000
      4      10.4156      0.00000
      5      12.4763      0.00000
      6      14.8460      0.00000
      7      15.5691      0.00000
      8      19.9842      0.00000
      9      20.6857      0.00000

 k-point  49 :      -0.3125   -0.4375    0.1875
  band No.  band energies     occupation 
      1       2.6246      1.00000
      2       3.6366      1.00000
      3       6.6934      0.00000
      4       9.6260      0.00000
      5      12.7733      0.00000
      6      15.5321      0.00000
      7      16.2075      0.00000
      8      18.6036      0.00000
      9      20.0024      0.00000

 k-point  50 :      -0.3125   -0.3125    0.1875
  band No.  band energies     occupation 
      1       2.3806      1.00000
      2       3.5232      1.00000
      3       6.6876      0.00000
      4       9.6991      0.00000
      5      12.6661      0.00000
      6      13.7359      0.00000
      7      16.3961      0.00000
      8      19.9977      0.00000
      9      21.1527      0.00000

 k-point  51 :       0.3125    0.3125    0.3125
  band No.  band energies     occupation 
      1       0.7616      1.00000
      2       5.5632      1.00000
      3       6.8644      0.00000
      4       6.8644      0.00000
      5      10.5664      0.00000
      6      10.5664      0.00000
      7      18.0745      0.00000
      8      19.9968      0.00000
      9      22.3293      0.00000

 k-point  52 :       0.4375    0.3125    0.3125
  band No.  band energies     occupation 
      1       1.6666      1.00000
      2       5.4295      1.00000
      3       6.1165      1.03533
      4       7.1333      0.00000
      5      10.1302      0.00000
      6      12.6470      0.00000
      7      18.3765      0.00000
      8      20.0003      0.00000
      9      21.2665      0.00000

 k-point  53 :      -0.4375    0.3125    0.3125
  band No.  band energies     occupation 
      1       3.2325      1.00000
      2       4.6441      1.00000
      3       5.3188      1.00000
      4       8.0989      0.00000
      5      10.2705      0.00000
      6      13.8811      0.00000
      7      18.3136      0.00000
      8      20.0032      0.00000
      9      21.5171      0.00000

 k-point  54 :      -0.3125    0.3125    0.3125
  band No.  band energies     occupation 
      1       3.1433      1.00000
      2       4.0721      1.00000
      3       6.0842      1.01282
      4       8.9951      0.00000
      5      11.4849      0.00000
      6      13.6383      0.00000
      7      17.8048      0.00000
      8      19.9848      0.00000
      9      20.3189      0.00000

 k-point  55 :       0.4375    0.4375    0.3125
  band No.  band energies     occupation 
      1       1.8130      1.00000
      2       5.3662      1.00000
      3       6.1842      0.36851
      4       7.1367      0.00000
      5      11.7977      0.00000
      6      12.2994      0.00000
      7      17.5334      0.00000
      8      19.9980      0.00000
      9      20.4757      0.00000

 k-point  56 :      -0.4375    0.4375    0.3125
  band No.  band energies     occupation 
      1       2.8991      1.00000
      2       4.5318      1.00000
      3       5.7300      1.00000
      4       7.9463      0.00000
      5      11.5008      0.00000
      6      14.1428      0.00000
      7      16.6041      0.00000
      8      20.0011      0.00000
      9      21.8513      0.00000

 k-point  57 :      -0.3125    0.4375    0.3125
  band No.  band energies     occupation 
      1       3.4701      1.00000
      2       4.1677      1.00000
      3       5.5497      1.00000
      4       8.6878      0.00000
      5      11.9042      0.00000
      6      14.5733      0.00000
      7      17.4006      0.00000
      8      19.7699      0.00000
      9      20.0228      0.00000

 k-point  58 :      -0.4375   -0.4375    0.3125
  band No.  band energies     occupation 
      1       2.9517      1.00000
      2       4.2185      1.00000
      3       6.0631      1.00310
      4       8.3495      0.00000
      5      12.0757      0.00000
      6      14.0990      0.00000
      7      16.0908      0.00000
      8      19.9998      0.00000
      9      21.7009      0.00000

 k-point  59 :       0.4375    0.4375    0.4375
  band No.  band energies     occupation 
      1       1.3623      1.00000
      2       6.4565      0.00000
      3       6.4565      0.00000
      4       6.7513      0.00000
      5      12.0709      0.00000
      6      12.0709      0.00000
      7      17.0594      0.00000
      8      18.9884      0.00000
      9      20.0054      0.00000

 k-point  60 :      -0.4375    0.4375    0.4375
  band No.  band energies     occupation 
      1       1.9768      1.00000
      2       5.4737      1.00000
      3       6.6988      0.00000
      4       6.8957      0.00000
      5      11.9595      0.00000
      6      13.3034      0.00000
      7      16.4854      0.00000
      8      19.8233      0.00000
      9      20.0022      0.00000


--------------------------------------------------------------------------------------------------------


 soft charge-density along one line, spin component           1
         0         1         2         3         4         5         6         7         8         9
 total charge-density along one line
 
 soft charge-density along one line, spin component           2
         0         1         2         3         4         5         6         7         8         9
 total charge-density along one line
 
 pseudopotential strength for first ion, spin component:           1
 -6.535   0.000   0.000   0.000   0.000   0.092   0.000   0.000
  0.000  -6.535   0.000   0.000   0.000   0.000   0.092   0.000
  0.000   0.000  -6.547   0.000   0.000   0.000   0.000   0.091
  0.000   0.000   0.000  -6.535   0.000   0.000   0.000   0.000
  0.000   0.000   0.000   0.000  -6.547   0.000   0.000   0.000
  0.092   0.000   0.000   0.000   0.000   0.071   0.000   0.000
  0.000   0.092   0.000   0.000   0.000   0.000   0.071   0.000
  0.000   0.000   0.091   0.000   0.000   0.000   0.000   0.071
  0.000   0.000   0.000   0.092   0.000   0.000   0.000   0.000
  0.000   0.000   0.000   0.000   0.091   0.000   0.000   0.000
  0.000   0.000   0.000   0.000   0.000   0.000   0.000   0.000
  0.000   0.000   0.000   0.000   0.000   0.000   0.000   0.000
  0.000   0.000   0.000   0.000   0.000   0.000   0.000   0.000
  0.000   0.000   0.000   0.000   0.000   0.000   0.000   0.000
  0.000   0.000   0.000   0.000   0.000   0.000   0.000   0.000
  0.000   0.000   0.000   0.000   0.000   0.000   0.000   0.000
  0.000   0.000   0.000   0.000   0.000   0.000   0.000   0.000
  0.000   0.000   0.000   0.000   0.000   0.000   0.000   0.000
 pseudopotential strength for first ion, spin component:           2
 -6.535   0.000   0.000   0.000   0.000   0.092   0.000   0.000
  0.000  -6.535   0.000   0.000   0.000   0.000   0.092   0.000
  0.000   0.000  -6.547   0.000   0.000   0.000   0.000   0.091
  0.000   0.000   0.000  -6.535   0.000   0.000   0.000   0.000
  0.000   0.000   0.000   0.000  -6.547   0.000   0.000   0.000
  0.092   0.000   0.000   0.000   0.000   0.071   0.000   0.000
  0.000   0.092   0.000   0.000   0.000   0.000   0.071   0.000
  0.000   0.000   0.091   0.000   0.000   0.000   0.000   0.071
  0.000   0.000   0.000   0.092   0.000   0.000   0.000   0.000
  0.000   0.000   0.000   0.000   0.091   0.000   0.000   0.000
  0.000   0.000   0.000   0.000   0.000   0.000   0.000   0.000
  0.000   0.000   0.000   0.000   0.000   0.000   0.000   0.000
  0.000   0.000   0.000   0.000   0.000   0.000   0.000   0.000
  0.000   0.000   0.000   0.000   0.000   0.000   0.000   0.000
  0.000   0.000   0.000   0.000   0.000   0.000   0.000   0.000
  0.000   0.000   0.000   0.000   0.000   0.000   0.000   0.000
  0.000   0.000   0.000   0.000   0.000   0.000   0.000   0.000
  0.000   0.000   0.000   0.000   0.000   0.000   0.000   0.000
 total augmentation occupancy for first ion, spin component:           1
  0.772   0.000   0.000   0.000   0.000  -0.571   0.000   0.000   0.000   0.000   0.000   0.000   0.000   0.000   0.000   0.000
  0.000   0.772   0.000   0.000   0.000   0.000  -0.571   0.000   0.000   0.000   0.000   0.000   0.000   0.000   0.000   0.000
  0.000   0.000   0.543   0.000   0.000   0.000   0.000  -0.444   0.000   0.000   0.000   0.000   0.000   0.000   0.000   0.000
  0.000   0.000   0.000   0.772   0.000   0.000   0.000   0.000  -0.571   0.000   0.000   0.000   0.000   0.000   0.000   0.000
  0.000   0.000   0.000   0.000   0.543   0.000   0.000   0.000   0.000  -0.444   0.000   0.000   0.000   0.000   0.000   0.000
 -0.571   0.000   0.000   0.000   0.000   0.484   0.000   0.000   0.000   0.000   0.000   0.000   0.000   0.000   0.000   0.000
  0.000  -0.571   0.000   0.000   0.000   0.000   0.484   0.000   0.000   0.000   0.000   0.000   0.000   0.000   0.000   0.000
  0.000   0.000  -0.444   0.000   0.000   0.000   0.000   0.413   0.000   0.000   0.000   0.000   0.000   0.000   0.000   0.000
  0.000   0.000   0.000  -0.571   0.000   0.000   0.000   0.000   0.484   0.000   0.000   0.000   0.000   0.000   0.000   0.000
  0.000   0.000   0.000   0.000  -0.444   0.000   0.000   0.000   0.000   0.413   0.000   0.000   0.000   0.000   0.000   0.000
  0.000   0.000   0.000   0.000   0.000   0.000   0.000   0.000   0.000   0.000   1.469  -0.296   0.000   0.000   0.000   0.000
  0.000   0.000   0.000   0.000   0.000   0.000   0.000   0.000   0.000   0.000  -0.296   0.065   0.000   0.000   0.000   0.000
  0.000   0.000   0.000   0.000   0.000   0.000   0.000   0.000   0.000   0.000   0.000   0.000   0.330   0.000   0.000   0.012
  0.000   0.000   0.000   0.000   0.000   0.000   0.000   0.000   0.000   0.000   0.000   0.000   0.000   0.330   0.000   0.000
  0.000   0.000   0.000   0.000   0.000   0.000   0.000   0.000   0.000   0.000   0.000   0.000   0.000   0.000   0.330   0.000
  0.000   0.000   0.000   0.000   0.000   0.000   0.000   0.000   0.000   0.000   0.000   0.000   0.012   0.000   0.000   0.001
  0.000   0.000   0.000   0.000   0.000   0.000   0.000   0.000   0.000   0.000   0.000   0.000   0.000   0.012   0.000   0.000
  0.000   0.000   0.000   0.000   0.000   0.000   0.000   0.000   0.000   0.000   0.000   0.000   0.000   0.000   0.012   0.000
 total augmentation occupancy for first ion, spin component:           2
  0.000   0.000   0.000   0.000   0.000   0.000   0.000   0.000   0.000   0.000   0.000   0.000   0.000   0.000   0.000   0.000
  0.000   0.000   0.000   0.000   0.000   0.000   0.000   0.000   0.000   0.000   0.000   0.000   0.000   0.000   0.000   0.000
  0.000   0.000   0.000   0.000   0.000   0.000   0.000   0.000   0.000   0.000   0.000   0.000   0.000   0.000   0.000   0.000
  0.000   0.000   0.000   0.000   0.000   0.000   0.000   0.000   0.000   0.000   0.000   0.000   0.000   0.000   0.000   0.000
  0.000   0.000   0.000   0.000   0.000   0.000   0.000   0.000   0.000   0.000   0.000   0.000   0.000   0.000   0.000   0.000
  0.000   0.000   0.000   0.000   0.000   0.000   0.000   0.000   0.000   0.000   0.000   0.000   0.000   0.000   0.000   0.000
  0.000   0.000   0.000   0.000   0.000   0.000   0.000   0.000   0.000   0.000   0.000   0.000   0.000   0.000   0.000   0.000
  0.000   0.000   0.000   0.000   0.000   0.000   0.000   0.000   0.000   0.000   0.000   0.000   0.000   0.000   0.000   0.000
  0.000   0.000   0.000   0.000   0.000   0.000   0.000   0.000   0.000   0.000   0.000   0.000   0.000   0.000   0.000   0.000
  0.000   0.000   0.000   0.000   0.000   0.000   0.000   0.000   0.000   0.000   0.000   0.000   0.000   0.000   0.000   0.000
  0.000   0.000   0.000   0.000   0.000   0.000   0.000   0.000   0.000   0.000   0.000  -0.001   0.000   0.000   0.000   0.000
  0.000   0.000   0.000   0.000   0.000   0.000   0.000   0.000   0.000   0.000  -0.001   0.000   0.000   0.000   0.000   0.000
  0.000   0.000   0.000   0.000   0.000   0.000   0.000   0.000   0.000   0.000   0.000   0.000   0.000   0.000   0.000   0.000
  0.000   0.000   0.000   0.000   0.000   0.000   0.000   0.000   0.000   0.000   0.000   0.000   0.000   0.000   0.000   0.000
  0.000   0.000   0.000   0.000   0.000   0.000   0.000   0.000   0.000   0.000   0.000   0.000   0.000   0.000   0.000   0.000
  0.000   0.000   0.000   0.000   0.000   0.000   0.000   0.000   0.000   0.000   0.000   0.000   0.000   0.000   0.000   0.000
  0.000   0.000   0.000   0.000   0.000   0.000   0.000   0.000   0.000   0.000   0.000   0.000   0.000   0.000   0.000   0.000
  0.000   0.000   0.000   0.000   0.000   0.000   0.000   0.000   0.000   0.000   0.000   0.000   0.000   0.000   0.000   0.000


------------------------ aborting loop because EDIFF is reached ----------------------------------------


 


 total charge     
 
# of ion     s       p       d       tot
----------------------------------------
  1        0.744   0.762   3.296   4.802
 


 magnetization (x)
 
# of ion     s       p       d       tot
----------------------------------------
  1        0.000   0.000   0.000   0.000
 
    CHARGE:  cpu time    0.21: real time    0.21
    FORLOC:  cpu time    0.00: real time    0.00
    FORNL :  cpu time    0.40: real time    0.40
    STRESS:  cpu time    0.76: real time    0.76
    FORCOR:  cpu time    0.20: real time    0.20
    FORHAR:  cpu time    0.02: real time    0.02
    MIXING:  cpu time    0.00: real time    0.01

  FORCE on cell =-STRESS in cart. coord.  units (eV):
  Direction    XX          YY          ZZ          XY          YZ          ZX
  --------------------------------------------------------------------------------------
  Alpha Z    31.03520    31.03520    31.03520
  Ewald     -66.28618   -66.28618   -66.28618     0.00000     0.00000     0.00000
  Hartree     0.20133     0.20133     0.20133     0.00000     0.00000     0.00000
  E(xc)     -22.55213   -22.55213   -22.55213     0.00000     0.00000     0.00000
  Local       3.53252     3.53252     3.53252     0.00000     0.00000     0.00000
  n-local    -6.09400    -2.86107    -7.66697     2.03408    -1.94356     0.01299
  augment     2.90587     2.90587     2.90587     0.00000     0.00000     0.00000
  Kinetic    60.00030    56.03993    57.16784    -2.08436     2.10525    -0.25290
  Fock        0.00000     0.00000     0.00000     0.00000     0.00000     0.00000
  -------------------------------------------------------------------------------------
  Total       1.03195     1.03195     1.03195     0.00000     0.00000     0.00000
  in kB      92.53037    92.53037    92.53037     0.00000     0.00000     0.00000
  external pressure =       92.53 kB  Pullay stress =        0.00 kB


 VOLUME and BASIS-vectors are now :
 -----------------------------------------------------------------------------
  energy-cutoff  :      400.00
  volume of cell :       17.87
      direct lattice vectors                 reciprocal lattice vectors
     0.000000000  2.075000000  2.075000000    -0.240963855  0.240963855  0.240963855
     2.075000000  0.000000000  2.075000000     0.240963855 -0.240963855  0.240963855
     2.075000000  2.075000000  0.000000000     0.240963855  0.240963855 -0.240963855

  length of vectors
     2.934493142  2.934493142  2.934493142     0.417361640  0.417361640  0.417361640


 FORCES acting on ions
    electron-ion (+dipol)            ewald-force                    non-local-force                 convergence-correction
 -----------------------------------------------------------------------------------------------
   -.841E-16 -.746E-15 -.190E-14   -.775E-16 -.232E-15 -.782E-15   0.000E+00 0.000E+00 0.000E+00   -.128E-15 0.206E-16 0.628E-16
 -----------------------------------------------------------------------------------------------
   -.841E-16 -.746E-15 -.190E-14   -.775E-16 -.232E-15 -.782E-15   0.000E+00 0.000E+00 0.000E+00   -.128E-15 0.206E-16 0.628E-16
 
 
 POSITION                                       TOTAL-FORCE (eV/Angst)
 -----------------------------------------------------------------------------------
      0.00000      0.00000      0.00000         0.000000      0.000000      0.000000
 -----------------------------------------------------------------------------------
    total drift:                                0.000000      0.000000      0.000000


--------------------------------------------------------------------------------------------------------



  FREE ENERGIE OF THE ION-ELECTRON SYSTEM (eV)
  ---------------------------------------------------
  free  energy   TOTEN  =       -11.595051 eV

  energy  without entropy=      -11.595310  energy(sigma->0) =      -11.595137
 


--------------------------------------------------------------------------------------------------------


    POTLOK:  cpu time    0.26: real time    0.26


--------------------------------------------------------------------------------------------------------


 writing wavefunctions
     LOOP+:  cpu time   51.87: real time   52.27
    4ORBIT:  cpu time    0.00: real time    0.00
 


 total charge     
 
# of ion     s       p       d       tot
----------------------------------------
  1        0.744   0.762   3.296   4.802
 


 magnetization (x)
 
# of ion     s       p       d       tot
----------------------------------------
  1        0.000   0.000   0.000   0.000
 

 total amount of memory used by VASP on root node    46650. kBytes
========================================================================

   base      :      30000. kBytes
   nonl-proj :       2865. kBytes
   fftplans  :       2284. kBytes
   grid      :       5440. kBytes
   one-center:         31. kBytes
   wavefun   :       6030. kBytes
 
  
  
 General timing and accounting informations for this job:
 ========================================================
  
                  Total CPU time used (sec):       52.744
                            User time (sec):       52.594
                          System time (sec):        0.150
                         Elapsed time (sec):       53.358
  
                   Maximum memory used (kb):           0.
                   Average memory used (kb):           0.
  
                          Minor page faults:        12585
                          Major page faults:            0
                 Voluntary context switches:         2336
