PROCAR lm decomposed
# of k-points:   60         # of bands:   9         # of ions:   1

 k-point    1 :    0.06250000 0.06250000 0.06250000     weight = 0.00390625

band   1 # energy   -1.94545111 # occ.  1.00000000
 
ion      s     py     pz     px    dxy    dyz    dz2    dxz    dx2    tot
  1  0.866  0.004  0.004  0.004  0.000  0.000  0.000  0.000  0.000  0.879
 
band   2 # energy    6.50234378 # occ.  0.00000000
 
ion      s     py     pz     px    dxy    dyz    dz2    dxz    dx2    tot
  1  0.000  0.002  0.002  0.002  0.336  0.336  0.000  0.336  0.000  1.013
 
band   3 # energy    6.72816423 # occ.  0.00000000
 
ion      s     py     pz     px    dxy    dyz    dz2    dxz    dx2    tot
  1  0.000  0.001  0.000  0.001  0.132  0.428  0.000  0.455  0.001  1.018
 
band   4 # energy    6.72816423 # occ.  0.00000000
 
ion      s     py     pz     px    dxy    dyz    dz2    dxz    dx2    tot
  1  0.000  0.000  0.001  0.000  0.545  0.249  0.001  0.222  0.000  1.018
 
band   5 # energy    9.76173637 # occ.  0.00000000
 
ion      s     py     pz     px    dxy    dyz    dz2    dxz    dx2    tot
  1  0.000  0.000  0.000  0.000  0.000  0.000  0.239  0.000  0.753  0.993
 
band   6 # energy    9.76173637 # occ.  0.00000000
 
ion      s     py     pz     px    dxy    dyz    dz2    dxz    dx2    tot
  1  0.000  0.000  0.000  0.000  0.001  0.000  0.753  0.000  0.239  0.993
 
band   7 # energy   19.16786380 # occ.  0.00000000
 
ion      s     py     pz     px    dxy    dyz    dz2    dxz    dx2    tot
  1  0.000  0.000  0.000  0.000  0.005  0.005  0.000  0.005  0.000  0.016
 
band   8 # energy   19.99694234 # occ.  0.00000000
 
ion      s     py     pz     px    dxy    dyz    dz2    dxz    dx2    tot
  1 43.921  0.000  0.000  0.000  0.000  0.000  0.000  0.000  0.000 43.921
 
band   9 # energy   23.07022872 # occ.  0.00000000
 
ion      s     py     pz     px    dxy    dyz    dz2    dxz    dx2    tot
  1  0.042  0.034  0.034  0.034  0.003  0.003  0.000  0.003  0.000  0.152
 

 k-point    2 :    0.18750000 0.06250000 0.06250000     weight = 0.01171875

band   1 # energy   -1.12562508 # occ.  1.00000000
 
ion      s     py     pz     px    dxy    dyz    dz2    dxz    dx2    tot
  1  0.812  0.035  0.035  0.004  0.001  0.007  0.000  0.001  0.001  0.894
 
band   2 # energy    5.87567459 # occ.  1.00000000
 
ion      s     py     pz     px    dxy    dyz    dz2    dxz    dx2    tot
  1  0.000  0.004  0.004  0.027  0.459  0.039  0.000  0.459  0.000  0.991
 
band   3 # energy    7.05304870 # occ.  0.00000000
 
ion      s     py     pz     px    dxy    dyz    dz2    dxz    dx2    tot
  1  0.000  0.011  0.011  0.001  0.021  0.865  0.018  0.021  0.054  1.003
 
band   4 # energy    7.08329740 # occ.  0.00000000
 
ion      s     py     pz     px    dxy    dyz    dz2    dxz    dx2    tot
  1  0.000  0.000  0.000  0.000  0.493  0.000  0.013  0.493  0.004  1.005
 
band   5 # energy    9.13538796 # occ.  0.00000000
 
ion      s     py     pz     px    dxy    dyz    dz2    dxz    dx2    tot
  1  0.000  0.000  0.000  0.000  0.009  0.000  0.712  0.009  0.237  0.968
 
band   6 # energy    9.89114080 # occ.  0.00000000
 
ion      s     py     pz     px    dxy    dyz    dz2    dxz    dx2    tot
  1  0.001  0.001  0.001  0.000  0.001  0.067  0.226  0.001  0.677  0.977
 
band   7 # energy   19.99587021 # occ.  0.00000000
 
ion      s     py     pz     px    dxy    dyz    dz2    dxz    dx2    tot
  1 43.772  0.000  0.000  0.000  0.000  0.000  0.000  0.000  0.000 43.773
 
band   8 # energy   20.61075436 # occ.  0.00000000
 
ion      s     py     pz     px    dxy    dyz    dz2    dxz    dx2    tot
  1  0.078  0.005  0.005  0.003  0.021  0.000  0.001  0.021  0.002  0.137
 
band   9 # energy   21.52364499 # occ.  0.00000000
 
ion      s     py     pz     px    dxy    dyz    dz2    dxz    dx2    tot
  1  0.148  0.027  0.027  0.007  0.021  0.030  0.004  0.021  0.013  0.300
 

 k-point    3 :    0.31250000 0.06250000 0.06250000     weight = 0.01171875

band   1 # energy    0.44689769 # occ.  1.00000000
 
ion      s     py     pz     px    dxy    dyz    dz2    dxz    dx2    tot
  1  0.661  0.063  0.063  0.015  0.037  0.059  0.001  0.037  0.002  0.938
 
band   2 # energy    5.34701763 # occ.  1.00000000
 
ion      s     py     pz     px    dxy    dyz    dz2    dxz    dx2    tot
  1  0.017  0.050  0.050  0.088  0.336  0.083  0.001  0.336  0.002  0.964
 
band   3 # energy    6.90551043 # occ.  0.00000000
 
ion      s     py     pz     px    dxy    dyz    dz2    dxz    dx2    tot
  1  0.000  0.009  0.009  0.002  0.055  0.477  0.094  0.055  0.281  0.983
 
band   4 # energy    7.13883219 # occ.  0.00000000
 
ion      s     py     pz     px    dxy    dyz    dz2    dxz    dx2    tot
  1  0.000  0.000  0.000  0.000  0.291  0.000  0.303  0.291  0.101  0.987
 
band   5 # energy    9.50792392 # occ.  0.00000000
 
ion      s     py     pz     px    dxy    dyz    dz2    dxz    dx2    tot
  1  0.000  0.005  0.005  0.000  0.197  0.000  0.409  0.197  0.136  0.950
 
band   6 # energy   10.74103540 # occ.  0.00000000
 
ion      s     py     pz     px    dxy    dyz    dz2    dxz    dx2    tot
  1  0.005  0.011  0.011  0.001  0.022  0.311  0.145  0.022  0.434  0.961
 
band   7 # energy   18.93825896 # occ.  0.00000000
 
ion      s     py     pz     px    dxy    dyz    dz2    dxz    dx2    tot
  1  0.077  0.020  0.020  0.020  0.008  0.037  0.004  0.008  0.011  0.203
 
band   8 # energy   19.99973259 # occ.  0.00000000
 
ion      s     py     pz     px    dxy    dyz    dz2    dxz    dx2    tot
  1 43.891  0.000  0.000  0.000  0.000  0.000  0.000  0.000  0.000 43.891
 
band   9 # energy   23.08422270 # occ.  0.00000000
 
ion      s     py     pz     px    dxy    dyz    dz2    dxz    dx2    tot
  1  0.178  0.056  0.056  0.046  0.139  0.104  0.000  0.139  0.000  0.718
 

 k-point    4 :    0.43750000 0.06250000 0.06250000     weight = 0.01171875

band   1 # energy    1.42515739 # occ.  1.00000000
 
ion      s     py     pz     px    dxy    dyz    dz2    dxz    dx2    tot
  1  0.429  0.026  0.026  0.001  0.168  0.183  0.000  0.168  0.001  1.001
 
band   2 # energy    6.07974565 # occ.  1.00989840
 
ion      s     py     pz     px    dxy    dyz    dz2    dxz    dx2    tot
  1  0.030  0.170  0.170  0.148  0.038  0.113  0.049  0.038  0.148  0.903
 
band   3 # energy    6.47946040 # occ.  0.00000000
 
ion      s     py     pz     px    dxy    dyz    dz2    dxz    dx2    tot
  1  0.015  0.024  0.024  0.069  0.151  0.194  0.090  0.151  0.271  0.989
 
band   4 # energy    6.66001357 # occ.  0.00000000
 
ion      s     py     pz     px    dxy    dyz    dz2    dxz    dx2    tot
  1  0.000  0.000  0.000  0.000  0.197  0.000  0.445  0.197  0.148  0.988
 
band   5 # energy   11.21899814 # occ.  0.00000000
 
ion      s     py     pz     px    dxy    dyz    dz2    dxz    dx2    tot
  1  0.000  0.006  0.006  0.000  0.291  0.000  0.269  0.291  0.090  0.953
 
band   6 # energy   12.24928781 # occ.  0.00000000
 
ion      s     py     pz     px    dxy    dyz    dz2    dxz    dx2    tot
  1  0.006  0.019  0.019  0.001  0.051  0.418  0.102  0.051  0.306  0.973
 
band   7 # energy   17.43181771 # occ.  0.00000000
 
ion      s     py     pz     px    dxy    dyz    dz2    dxz    dx2    tot
  1  0.219  0.017  0.017  0.016  0.065  0.115  0.002  0.065  0.007  0.522
 
band   8 # energy   19.94207419 # occ.  0.00000000
 
ion      s     py     pz     px    dxy    dyz    dz2    dxz    dx2    tot
  1 23.885  0.025  0.025  0.014  0.029  0.012  0.000  0.029  0.001 24.021
 
band   9 # energy   20.08474231 # occ.  0.00000000
 
ion      s     py     pz     px    dxy    dyz    dz2    dxz    dx2    tot
  1 20.376  0.036  0.036  0.022  0.049  0.024  0.000  0.049  0.001 20.592
 

 k-point    5 :   -0.43750000 0.06250000 0.06250000     weight = 0.01171875

band   1 # energy    1.54707310 # occ.  1.00000000
 
ion      s     py     pz     px    dxy    dyz    dz2    dxz    dx2    tot
  1  0.358  0.000  0.000  0.012  0.210  0.229  0.000  0.210  0.000  1.020
 
band   2 # energy    6.08263834 # occ.  1.01175018
 
ion      s     py     pz     px    dxy    dyz    dz2    dxz    dx2    tot
  1  0.000  0.046  0.046  0.023  0.053  0.138  0.147  0.053  0.441  0.948
 
band   3 # energy    6.53974051 # occ.  0.00000000
 
ion      s     py     pz     px    dxy    dyz    dz2    dxz    dx2    tot
  1  0.000  0.002  0.002  0.000  0.193  0.000  0.450  0.193  0.150  0.991
 
band   4 # energy    6.97913861 # occ.  0.00000000
 
ion      s     py     pz     px    dxy    dyz    dz2    dxz    dx2    tot
  1  0.003  0.221  0.221  0.242  0.018  0.171  0.006  0.018  0.018  0.920
 
band   5 # energy   12.36295828 # occ.  0.00000000
 
ion      s     py     pz     px    dxy    dyz    dz2    dxz    dx2    tot
  1  0.000  0.000  0.000  0.000  0.306  0.000  0.277  0.306  0.092  0.981
 
band   6 # energy   12.46847930 # occ.  0.00000000
 
ion      s     py     pz     px    dxy    dyz    dz2    dxz    dx2    tot
  1  0.000  0.014  0.014  0.034  0.099  0.351  0.089  0.099  0.266  0.965
 
band   7 # energy   16.81071409 # occ.  0.00000000
 
ion      s     py     pz     px    dxy    dyz    dz2    dxz    dx2    tot
  1  0.429  0.001  0.001  0.002  0.167  0.134  0.000  0.167  0.000  0.901
 
band   8 # energy   18.80844806 # occ.  0.00000000
 
ion      s     py     pz     px    dxy    dyz    dz2    dxz    dx2    tot
  1  0.006  0.017  0.017  0.023  0.000  0.024  0.002  0.000  0.005  0.094
 
band   9 # energy   20.00312338 # occ.  0.00000000
 
ion      s     py     pz     px    dxy    dyz    dz2    dxz    dx2    tot
  1 44.178  0.000  0.000  0.000  0.000  0.000  0.000  0.000  0.000 44.180
 

 k-point    6 :   -0.31250000 0.06250000 0.06250000     weight = 0.01171875

band   1 # energy    1.22846403 # occ.  1.00000000
 
ion      s     py     pz     px    dxy    dyz    dz2    dxz    dx2    tot
  1  0.499  0.014  0.014  0.062  0.128  0.134  0.001  0.128  0.003  0.982
 
band   2 # energy    5.68730104 # occ.  1.00000000
 
ion      s     py     pz     px    dxy    dyz    dz2    dxz    dx2    tot
  1  0.043  0.153  0.153  0.129  0.089  0.220  0.012  0.089  0.036  0.924
 
band   3 # energy    6.51637260 # occ.  0.00000000
 
ion      s     py     pz     px    dxy    dyz    dz2    dxz    dx2    tot
  1  0.005  0.001  0.001  0.003  0.065  0.320  0.131  0.065  0.393  0.984
 
band   4 # energy    6.86491032 # occ.  0.00000000
 
ion      s     py     pz     px    dxy    dyz    dz2    dxz    dx2    tot
  1  0.000  0.006  0.006  0.000  0.238  0.000  0.376  0.238  0.125  0.990
 
band   5 # energy   10.85393392 # occ.  0.00000000
 
ion      s     py     pz     px    dxy    dyz    dz2    dxz    dx2    tot
  1  0.005  0.004  0.004  0.042  0.140  0.244  0.092  0.140  0.277  0.948
 
band   6 # energy   11.57646961 # occ.  0.00000000
 
ion      s     py     pz     px    dxy    dyz    dz2    dxz    dx2    tot
  1  0.000  0.005  0.005  0.000  0.245  0.000  0.348  0.245  0.116  0.965
 
band   7 # energy   17.85577674 # occ.  0.00000000
 
ion      s     py     pz     px    dxy    dyz    dz2    dxz    dx2    tot
  1  0.134  0.020  0.020  0.017  0.064  0.023  0.002  0.064  0.006  0.351
 
band   8 # energy   19.99530830 # occ.  0.00000000
 
ion      s     py     pz     px    dxy    dyz    dz2    dxz    dx2    tot
  1 43.558  0.000  0.000  0.000  0.000  0.000  0.000  0.000  0.000 43.559
 
band   9 # energy   21.14997757 # occ.  0.00000000
 
ion      s     py     pz     px    dxy    dyz    dz2    dxz    dx2    tot
  1  0.695  0.065  0.065  0.088  0.086  0.113  0.001  0.086  0.004  1.201
 

 k-point    7 :   -0.18750000 0.06250000 0.06250000     weight = 0.01171875

band   1 # energy   -0.09182413 # occ.  1.00000000
 
ion      s     py     pz     px    dxy    dyz    dz2    dxz    dx2    tot
  1  0.724  0.024  0.024  0.081  0.023  0.015  0.001  0.023  0.003  0.919
 
band   2 # energy    5.38594752 # occ.  1.00000000
 
ion      s     py     pz     px    dxy    dyz    dz2    dxz    dx2    tot
  1  0.007  0.042  0.042  0.022  0.144  0.573  0.000  0.144  0.001  0.975
 
band   3 # energy    7.06905222 # occ.  0.00000000
 
ion      s     py     pz     px    dxy    dyz    dz2    dxz    dx2    tot
  1  0.000  0.002  0.002  0.004  0.194  0.267  0.080  0.194  0.240  0.984
 
band   4 # energy    7.23770067 # occ.  0.00000000
 
ion      s     py     pz     px    dxy    dyz    dz2    dxz    dx2    tot
  1  0.000  0.010  0.010  0.000  0.375  0.000  0.169  0.375  0.056  0.995
 
band   5 # energy    9.23816159 # occ.  0.00000000
 
ion      s     py     pz     px    dxy    dyz    dz2    dxz    dx2    tot
  1  0.004  0.001  0.001  0.016  0.101  0.108  0.156  0.101  0.467  0.954
 
band   6 # energy   10.25649689 # occ.  0.00000000
 
ion      s     py     pz     px    dxy    dyz    dz2    dxz    dx2    tot
  1  0.000  0.003  0.003  0.000  0.108  0.000  0.557  0.108  0.186  0.965
 
band   7 # energy   19.59313129 # occ.  0.00000000
 
ion      s     py     pz     px    dxy    dyz    dz2    dxz    dx2    tot
  1  0.437  0.020  0.020  0.018  0.013  0.000  0.004  0.013  0.011  0.536
 
band   8 # energy   20.00340397 # occ.  0.00000000
 
ion      s     py     pz     px    dxy    dyz    dz2    dxz    dx2    tot
  1 43.534  0.000  0.000  0.000  0.000  0.000  0.000  0.000  0.000 43.535
 
band   9 # energy   22.86969513 # occ.  0.00000000
 
ion      s     py     pz     px    dxy    dyz    dz2    dxz    dx2    tot
  1  0.076  0.020  0.020  0.018  0.078  0.131  0.000  0.078  0.001  0.422
 

 k-point    8 :   -0.06250000 0.06250000 0.06250000     weight = 0.01171875

band   1 # energy   -1.52271729 # occ.  1.00000000
 
ion      s     py     pz     px    dxy    dyz    dz2    dxz    dx2    tot
  1  0.838  0.004  0.004  0.037  0.001  0.000  0.000  0.001  0.001  0.886
 
band   2 # energy    6.09572806 # occ.  1.02249780
 
ion      s     py     pz     px    dxy    dyz    dz2    dxz    dx2    tot
  1  0.000  0.005  0.005  0.001  0.064  0.862  0.000  0.064  0.000  1.000
 
band   3 # energy    6.95733848 # occ.  0.00000000
 
ion      s     py     pz     px    dxy    dyz    dz2    dxz    dx2    tot
  1  0.000  0.004  0.004  0.003  0.427  0.137  0.002  0.427  0.006  1.010
 
band   4 # energy    6.97150469 # occ.  0.00000000
 
ion      s     py     pz     px    dxy    dyz    dz2    dxz    dx2    tot
  1  0.000  0.006  0.006  0.000  0.494  0.000  0.007  0.494  0.002  1.010
 
band   5 # energy    9.21748523 # occ.  0.00000000
 
ion      s     py     pz     px    dxy    dyz    dz2    dxz    dx2    tot
  1  0.001  0.000  0.000  0.001  0.003  0.001  0.241  0.003  0.722  0.971
 
band   6 # energy    9.94323862 # occ.  0.00000000
 
ion      s     py     pz     px    dxy    dyz    dz2    dxz    dx2    tot
  1  0.000  0.000  0.000  0.000  0.005  0.000  0.735  0.005  0.245  0.990
 
band   7 # energy   19.99650317 # occ.  0.00000000
 
ion      s     py     pz     px    dxy    dyz    dz2    dxz    dx2    tot
  1 43.739  0.000  0.000  0.000  0.000  0.000  0.000  0.000  0.000 43.739
 
band   8 # energy   20.03448000 # occ.  0.00000000
 
ion      s     py     pz     px    dxy    dyz    dz2    dxz    dx2    tot
  1  0.151  0.000  0.000  0.000  0.004  0.042  0.000  0.004  0.000  0.201
 
band   9 # energy   22.29171050 # occ.  0.00000000
 
ion      s     py     pz     px    dxy    dyz    dz2    dxz    dx2    tot
  1  0.095  0.018  0.018  0.040  0.008  0.003  0.006  0.008  0.019  0.216
 

 k-point    9 :    0.18750000 0.18750000 0.06250000     weight = 0.01171875

band   1 # energy   -0.72923541 # occ.  1.00000000
 
ion      s     py     pz     px    dxy    dyz    dz2    dxz    dx2    tot
  1  0.781  0.003  0.098  0.003  0.000  0.002  0.011  0.002  0.000  0.900
 
band   2 # energy    5.40773138 # occ.  1.00000000
 
ion      s     py     pz     px    dxy    dyz    dz2    dxz    dx2    tot
  1  0.000  0.005  0.000  0.005  0.941  0.020  0.000  0.020  0.000  0.991
 
band   3 # energy    7.36918038 # occ.  0.00000000
 
ion      s     py     pz     px    dxy    dyz    dz2    dxz    dx2    tot
  1  0.000  0.014  0.001  0.014  0.043  0.400  0.117  0.400  0.000  0.988
 
band   4 # energy    7.45450815 # occ.  0.00000000
 
ion      s     py     pz     px    dxy    dyz    dz2    dxz    dx2    tot
  1  0.000  0.017  0.000  0.017  0.000  0.468  0.000  0.468  0.027  0.996
 
band   5 # energy    8.40706583 # occ.  0.00000000
 
ion      s     py     pz     px    dxy    dyz    dz2    dxz    dx2    tot
  1  0.009  0.002  0.009  0.002  0.005  0.056  0.812  0.056  0.000  0.951
 
band   6 # energy   10.28999022 # occ.  0.00000000
 
ion      s     py     pz     px    dxy    dyz    dz2    dxz    dx2    tot
  1  0.000  0.000  0.000  0.000  0.000  0.013  0.000  0.013  0.959  0.985
 
band   7 # energy   19.99645718 # occ.  0.00000000
 
ion      s     py     pz     px    dxy    dyz    dz2    dxz    dx2    tot
  1 43.846  0.000  0.000  0.000  0.000  0.000  0.000  0.000  0.000 43.846
 
band   8 # energy   21.51989001 # occ.  0.00000000
 
ion      s     py     pz     px    dxy    dyz    dz2    dxz    dx2    tot
  1  0.025  0.003  0.004  0.003  0.079  0.000  0.012  0.000  0.000  0.127
 
band   9 # energy   22.09047360 # occ.  0.00000000
 
ion      s     py     pz     px    dxy    dyz    dz2    dxz    dx2    tot
  1  0.117  0.014  0.023  0.014  0.027  0.017  0.069  0.017  0.000  0.297
 

 k-point   10 :    0.31250000 0.18750000 0.06250000     weight = 0.02343750

band   1 # energy    0.61133733 # occ.  1.00000000
 
ion      s     py     pz     px    dxy    dyz    dz2    dxz    dx2    tot
  1  0.659  0.026  0.158  0.002  0.004  0.029  0.041  0.004  0.000  0.923
 
band   2 # energy    4.74256020 # occ.  1.00000000
 
ion      s     py     pz     px    dxy    dyz    dz2    dxz    dx2    tot
  1  0.001  0.006  0.003  0.039  0.855  0.007  0.002  0.076  0.000  0.989
 
band   3 # energy    6.69210146 # occ.  0.00000000
 
ion      s     py     pz     px    dxy    dyz    dz2    dxz    dx2    tot
  1  0.013  0.021  0.003  0.000  0.019  0.296  0.551  0.014  0.029  0.946
 
band   4 # energy    8.05178274 # occ.  0.00000000
 
ion      s     py     pz     px    dxy    dyz    dz2    dxz    dx2    tot
  1  0.002  0.012  0.005  0.026  0.043  0.162  0.052  0.525  0.149  0.976
 
band   5 # energy    8.82987173 # occ.  0.00000000
 
ion      s     py     pz     px    dxy    dyz    dz2    dxz    dx2    tot
  1  0.011  0.015  0.035  0.015  0.052  0.196  0.253  0.281  0.101  0.961
 
band   6 # energy   11.06675608 # occ.  0.00000000
 
ion      s     py     pz     px    dxy    dyz    dz2    dxz    dx2    tot
  1  0.005  0.012  0.006  0.000  0.000  0.227  0.020  0.011  0.693  0.975
 
band   7 # energy   19.99299962 # occ.  0.00000000
 
ion      s     py     pz     px    dxy    dyz    dz2    dxz    dx2    tot
  1 43.514  0.000  0.000  0.000  0.000  0.000  0.000  0.000  0.000 43.515
 
band   8 # energy   20.94568086 # occ.  0.00000000
 
ion      s     py     pz     px    dxy    dyz    dz2    dxz    dx2    tot
  1  0.483  0.059  0.023  0.014  0.000  0.073  0.071  0.010  0.012  0.746
 
band   9 # energy   23.84709882 # occ.  0.00000000
 
ion      s     py     pz     px    dxy    dyz    dz2    dxz    dx2    tot
  1  0.031  0.028  0.012  0.007  0.182  0.031  0.000  0.042  0.001  0.335
 

 k-point   11 :    0.43750000 0.18750000 0.06250000     weight = 0.02343750

band   1 # energy    1.96378172 # occ.  1.00000000
 
ion      s     py     pz     px    dxy    dyz    dz2    dxz    dx2    tot
  1  0.434  0.022  0.134  0.000  0.140  0.116  0.056  0.069  0.000  0.972
 
band   2 # energy    4.85449016 # occ.  1.00000000
 
ion      s     py     pz     px    dxy    dyz    dz2    dxz    dx2    tot
  1  0.017  0.096  0.049  0.115  0.397  0.028  0.169  0.065  0.007  0.941
 
band   3 # energy    5.84253805 # occ.  1.00000000
 
ion      s     py     pz     px    dxy    dyz    dz2    dxz    dx2    tot
  1  0.035  0.001  0.030  0.009  0.250  0.198  0.399  0.006  0.038  0.965
 
band   4 # energy    7.67505629 # occ.  0.00000000
 
ion      s     py     pz     px    dxy    dyz    dz2    dxz    dx2    tot
  1  0.001  0.014  0.013  0.012  0.022  0.118  0.064  0.275  0.451  0.970
 
band   5 # energy   10.80194018 # occ.  0.00000000
 
ion      s     py     pz     px    dxy    dyz    dz2    dxz    dx2    tot
  1  0.007  0.011  0.070  0.032  0.113  0.013  0.172  0.425  0.102  0.945
 
band   6 # energy   12.58989368 # occ.  0.00000000
 
ion      s     py     pz     px    dxy    dyz    dz2    dxz    dx2    tot
  1  0.020  0.026  0.037  0.003  0.009  0.442  0.058  0.030  0.361  0.985
 
band   7 # energy   18.48203232 # occ.  0.00000000
 
ion      s     py     pz     px    dxy    dyz    dz2    dxz    dx2    tot
  1  0.197  0.081  0.056  0.050  0.029  0.124  0.012  0.092  0.015  0.655
 
band   8 # energy   20.00362224 # occ.  0.00000000
 
ion      s     py     pz     px    dxy    dyz    dz2    dxz    dx2    tot
  1 44.023  0.000  0.000  0.000  0.000  0.001  0.000  0.000  0.000 44.024
 
band   9 # energy   21.63116025 # occ.  0.00000000
 
ion      s     py     pz     px    dxy    dyz    dz2    dxz    dx2    tot
  1  0.160  0.037  0.079  0.014  0.056  0.002  0.083  0.016  0.001  0.448
 

 k-point   12 :   -0.43750000 0.18750000 0.06250000     weight = 0.02343750

band   1 # energy    2.35471794 # occ.  1.00000000
 
ion      s     py     pz     px    dxy    dyz    dz2    dxz    dx2    tot
  1  0.296  0.000  0.050  0.019  0.291  0.205  0.010  0.142  0.001  1.014
 
band   2 # energy    4.98096247 # occ.  1.00000000
 
ion      s     py     pz     px    dxy    dyz    dz2    dxz    dx2    tot
  1  0.000  0.108  0.018  0.053  0.016  0.056  0.574  0.009  0.063  0.898
 
band   3 # energy    6.40245849 # occ.  0.00000000
 
ion      s     py     pz     px    dxy    dyz    dz2    dxz    dx2    tot
  1  0.006  0.093  0.183  0.147  0.328  0.195  0.010  0.006  0.006  0.974
 
band   4 # energy    7.30485186 # occ.  0.00000000
 
ion      s     py     pz     px    dxy    dyz    dz2    dxz    dx2    tot
  1  0.000  0.005  0.013  0.012  0.016  0.059  0.068  0.243  0.554  0.970
 
band   5 # energy   12.07110222 # occ.  0.00000000
 
ion      s     py     pz     px    dxy    dyz    dz2    dxz    dx2    tot
  1  0.014  0.002  0.007  0.000  0.078  0.160  0.048  0.409  0.244  0.963
 
band   6 # energy   13.68762709 # occ.  0.00000000
 
ion      s     py     pz     px    dxy    dyz    dz2    dxz    dx2    tot
  1  0.000  0.051  0.134  0.092  0.175  0.201  0.224  0.001  0.065  0.944
 
band   7 # energy   16.14256739 # occ.  0.00000000
 
ion      s     py     pz     px    dxy    dyz    dz2    dxz    dx2    tot
  1  0.470  0.002  0.000  0.002  0.080  0.130  0.009  0.192  0.010  0.895
 
band   8 # energy   20.00182564 # occ.  0.00000000
 
ion      s     py     pz     px    dxy    dyz    dz2    dxz    dx2    tot
  1 44.120  0.000  0.000  0.000  0.000  0.000  0.000  0.000  0.000 44.121
 
band   9 # energy   20.65400305 # occ.  0.00000000
 
ion      s     py     pz     px    dxy    dyz    dz2    dxz    dx2    tot
  1  0.011  0.003  0.041  0.014  0.038  0.030  0.064  0.001  0.005  0.208
 

 k-point   13 :   -0.31250000 0.18750000 0.06250000     weight = 0.02343750

band   1 # energy    2.25904758 # occ.  1.00000000
 
ion      s     py     pz     px    dxy    dyz    dz2    dxz    dx2    tot
  1  0.374  0.033  0.006  0.087  0.217  0.162  0.003  0.105  0.008  0.995
 
band   2 # energy    5.20368977 # occ.  1.00000000
 
ion      s     py     pz     px    dxy    dyz    dz2    dxz    dx2    tot
  1  0.006  0.128  0.069  0.067  0.084  0.032  0.395  0.029  0.088  0.897
 
band   3 # energy    5.80735130 # occ.  1.00000000
 
ion      s     py     pz     px    dxy    dyz    dz2    dxz    dx2    tot
  1  0.031  0.019  0.122  0.049  0.172  0.387  0.122  0.075  0.010  0.986
 
band   4 # energy    7.40336888 # occ.  0.00000000
 
ion      s     py     pz     px    dxy    dyz    dz2    dxz    dx2    tot
  1  0.001  0.001  0.002  0.026  0.017  0.074  0.071  0.206  0.569  0.967
 
band   5 # energy   10.77348145 # occ.  0.00000000
 
ion      s     py     pz     px    dxy    dyz    dz2    dxz    dx2    tot
  1  0.000  0.000  0.010  0.027  0.001  0.219  0.005  0.432  0.249  0.944
 
band   6 # energy   13.45338462 # occ.  0.00000000
 
ion      s     py     pz     px    dxy    dyz    dz2    dxz    dx2    tot
  1  0.065  0.030  0.016  0.051  0.474  0.013  0.335  0.007  0.000  0.990
 
band   7 # energy   17.64798531 # occ.  0.00000000
 
ion      s     py     pz     px    dxy    dyz    dz2    dxz    dx2    tot
  1  0.270  0.072  0.038  0.065  0.082  0.061  0.066  0.096  0.000  0.751
 
band   8 # energy   20.00274722 # occ.  0.00000000
 
ion      s     py     pz     px    dxy    dyz    dz2    dxz    dx2    tot
  1 44.096  0.000  0.000  0.000  0.000  0.000  0.000  0.000  0.000 44.097
 
band   9 # energy   21.13300462 # occ.  0.00000000
 
ion      s     py     pz     px    dxy    dyz    dz2    dxz    dx2    tot
  1  0.075  0.027  0.012  0.054  0.012  0.043  0.030  0.020  0.015  0.288
 

 k-point   14 :   -0.18750000 0.18750000 0.06250000     weight = 0.02343750

band   1 # energy    1.17950651 # occ.  1.00000000
 
ion      s     py     pz     px    dxy    dyz    dz2    dxz    dx2    tot
  1  0.611  0.066  0.001  0.141  0.082  0.010  0.011  0.008  0.010  0.938
 
band   2 # energy    4.88171270 # occ.  1.00000000
 
ion      s     py     pz     px    dxy    dyz    dz2    dxz    dx2    tot
  1  0.004  0.010  0.095  0.008  0.004  0.644  0.002  0.215  0.001  0.984
 
band   3 # energy    6.29850109 # occ. -0.00148712
 
ion      s     py     pz     px    dxy    dyz    dz2    dxz    dx2    tot
  1  0.003  0.034  0.000  0.004  0.373  0.019  0.399  0.000  0.110  0.943
 
band   4 # energy    7.91897657 # occ.  0.00000000
 
ion      s     py     pz     px    dxy    dyz    dz2    dxz    dx2    tot
  1  0.002  0.003  0.005  0.016  0.051  0.093  0.037  0.270  0.490  0.965
 
band   5 # energy    8.84472372 # occ.  0.00000000
 
ion      s     py     pz     px    dxy    dyz    dz2    dxz    dx2    tot
  1  0.002  0.001  0.009  0.018  0.018  0.176  0.005  0.410  0.317  0.956
 
band   6 # energy   11.89020286 # occ.  0.00000000
 
ion      s     py     pz     px    dxy    dyz    dz2    dxz    dx2    tot
  1  0.022  0.027  0.000  0.026  0.400  0.001  0.492  0.003  0.008  0.979
 
band   7 # energy   19.95878337 # occ.  0.00000000
 
ion      s     py     pz     px    dxy    dyz    dz2    dxz    dx2    tot
  1 33.675  0.015  0.002  0.010  0.022  0.000  0.016  0.001  0.001 33.742
 
band   8 # energy   20.15134515 # occ.  0.00000000
 
ion      s     py     pz     px    dxy    dyz    dz2    dxz    dx2    tot
  1 10.381  0.051  0.009  0.032  0.089  0.001  0.066  0.006  0.003 10.638
 
band   9 # energy   23.51244946 # occ.  0.00000000
 
ion      s     py     pz     px    dxy    dyz    dz2    dxz    dx2    tot
  1  0.162  0.110  0.022  0.104  0.046  0.088  0.008  0.060  0.011  0.611
 

 k-point   15 :   -0.06250000 0.18750000 0.06250000     weight = 0.02343750

band   1 # energy   -0.37711823 # occ.  1.00000000
 
ion      s     py     pz     px    dxy    dyz    dz2    dxz    dx2    tot
  1  0.755  0.030  0.003  0.091  0.018  0.002  0.003  0.003  0.004  0.908
 
band   2 # energy    5.37303394 # occ.  1.00000000
 
ion      s     py     pz     px    dxy    dyz    dz2    dxz    dx2    tot
  1  0.001  0.005  0.037  0.003  0.017  0.741  0.000  0.182  0.000  0.986
 
band   3 # energy    7.11001395 # occ.  0.00000000
 
ion      s     py     pz     px    dxy    dyz    dz2    dxz    dx2    tot
  1  0.000  0.025  0.000  0.007  0.653  0.037  0.197  0.006  0.056  0.980
 
band   4 # energy    7.47570328 # occ.  0.00000000
 
ion      s     py     pz     px    dxy    dyz    dz2    dxz    dx2    tot
  1  0.000  0.002  0.012  0.000  0.037  0.169  0.008  0.703  0.060  0.992
 
band   5 # energy    8.67000656 # occ.  0.00000000
 
ion      s     py     pz     px    dxy    dyz    dz2    dxz    dx2    tot
  1  0.005  0.002  0.001  0.012  0.077  0.026  0.022  0.052  0.760  0.957
 
band   6 # energy   10.35210128 # occ.  0.00000000
 
ion      s     py     pz     px    dxy    dyz    dz2    dxz    dx2    tot
  1  0.003  0.006  0.000  0.003  0.148  0.000  0.734  0.007  0.071  0.973
 
band   7 # energy   19.99426367 # occ.  0.00000000
 
ion      s     py     pz     px    dxy    dyz    dz2    dxz    dx2    tot
  1 43.583  0.000  0.000  0.000  0.000  0.000  0.000  0.000  0.000 43.584
 
band   8 # energy   20.78013825 # occ.  0.00000000
 
ion      s     py     pz     px    dxy    dyz    dz2    dxz    dx2    tot
  1  0.395  0.029  0.009  0.021  0.031  0.002  0.034  0.001  0.011  0.533
 
band   9 # energy   22.28061527 # occ.  0.00000000
 
ion      s     py     pz     px    dxy    dyz    dz2    dxz    dx2    tot
  1  0.029  0.008  0.000  0.006  0.021  0.098  0.006  0.038  0.001  0.208
 

 k-point   16 :    0.31250000 0.31250000 0.06250000     weight = 0.01171875

band   1 # energy    1.29005331 # occ.  1.00000000
 
ion      s     py     pz     px    dxy    dyz    dz2    dxz    dx2    tot
  1  0.515  0.003  0.194  0.003  0.001  0.003  0.204  0.003  0.000  0.924
 
band   2 # energy    3.92988063 # occ.  1.00000000
 
ion      s     py     pz     px    dxy    dyz    dz2    dxz    dx2    tot
  1  0.000  0.004  0.000  0.004  0.986  0.004  0.001  0.004  0.000  1.003
 
band   3 # energy    6.58583966 # occ.  0.00000000
 
ion      s     py     pz     px    dxy    dyz    dz2    dxz    dx2    tot
  1  0.094  0.002  0.122  0.002  0.002  0.036  0.645  0.036  0.000  0.938
 
band   4 # energy    9.08916952 # occ.  0.00000000
 
ion      s     py     pz     px    dxy    dyz    dz2    dxz    dx2    tot
  1  0.000  0.040  0.000  0.040  0.000  0.389  0.000  0.389  0.102  0.961
 
band   5 # energy    9.49435442 # occ.  0.00000000
 
ion      s     py     pz     px    dxy    dyz    dz2    dxz    dx2    tot
  1  0.008  0.042  0.025  0.042  0.010  0.392  0.046  0.392  0.000  0.957
 
band   6 # energy   11.32924735 # occ.  0.00000000
 
ion      s     py     pz     px    dxy    dyz    dz2    dxz    dx2    tot
  1  0.000  0.003  0.000  0.003  0.000  0.049  0.000  0.049  0.877  0.980
 