<?xml version="1.0" encoding="ISO-8859-1"?>
<modeling>
 <generator>
  <i name="program" type="string">vasp </i>
  <i name="version" type="string">5.2.12  </i>
  <i name="subversion" type="string">11Nov11 complex                                                      parallel </i>
  <i name="platform" type="string">LinuxIFC </i>
  <i name="date" type="string">2012 10 17 </i>
  <i name="time" type="string">11:07:02 </i>
 </generator>
 <incar>
  <i type="int" name="ISTART">     0</i>
  <i type="string" name="PREC">accurate</i>
  <i type="int" name="ISPIN">     2</i>
  <i name="ENCUT">    400.00000000</i>
  <v name="MAGMOM">      6.00000000</v>
  <i type="logical" name="LREAL"> F  </i>
  <i type="int" name="ISMEAR">     1</i>
  <i name="SIGMA">      0.05000000</i>
  <i type="logical" name="LORBIT"> F  </i>
 </incar>
 <kpoints>
  <generation param="Monkhorst-Pack">
   <v type="int" name="divisions">       8        8        8 </v>
   <v name="usershift">      0.00000000       0.00000000       0.00000000 </v>
   <v name="genvec1">      0.12500000       0.00000000       0.00000000 </v>
   <v name="genvec2">      0.00000000       0.12500000       0.00000000 </v>
   <v name="genvec3">      0.00000000       0.00000000       0.12500000 </v>
   <v name="shift">      0.50000000       0.50000000       0.50000000 </v>
  </generation>
  <varray name="kpointlist" >
   <v>       0.06250000       0.06250000       0.06250000 </v>
   <v>       0.18750000       0.06250000       0.06250000 </v>
   <v>       0.31250000       0.06250000       0.06250000 </v>
   <v>       0.43750000       0.06250000       0.06250000 </v>
   <v>      -0.43750000       0.06250000       0.06250000 </v>
   <v>      -0.31250000       0.06250000       0.06250000 </v>
   <v>      -0.18750000       0.06250000       0.06250000 </v>
   <v>      -0.06250000       0.06250000       0.06250000 </v>
   <v>       0.18750000       0.18750000       0.06250000 </v>
   <v>       0.31250000       0.18750000       0.06250000 </v>
   <v>       0.43750000       0.18750000       0.06250000 </v>
   <v>      -0.43750000       0.18750000       0.06250000 </v>
   <v>      -0.31250000       0.18750000       0.06250000 </v>
   <v>      -0.18750000       0.18750000       0.06250000 </v>
   <v>      -0.06250000       0.18750000       0.06250000 </v>
   <v>       0.31250000       0.31250000       0.06250000 </v>
   <v>       0.43750000       0.31250000       0.06250000 </v>
   <v>      -0.43750000       0.31250000       0.06250000 </v>
   <v>      -0.31250000       0.31250000       0.06250000 </v>
   <v>      -0.18750000       0.31250000       0.06250000 </v>
   <v>      -0.06250000       0.31250000       0.06250000 </v>
   <v>       0.43750000       0.43750000       0.06250000 </v>
   <v>      -0.43750000       0.43750000       0.06250000 </v>
   <v>      -0.31250000       0.43750000       0.06250000 </v>
   <v>      -0.18750000       0.43750000       0.06250000 </v>
   <v>      -0.06250000       0.43750000       0.06250000 </v>
   <v>      -0.43750000      -0.43750000       0.06250000 </v>
   <v>      -0.31250000      -0.43750000       0.06250000 </v>
   <v>      -0.18750000      -0.43750000       0.06250000 </v>
   <v>      -0.31250000      -0.31250000       0.06250000 </v>
   <v>      -0.18750000      -0.31250000       0.06250000 </v>
   <v>      -0.18750000      -0.18750000       0.06250000 </v>
   <v>       0.18750000       0.18750000       0.18750000 </v>
   <v>       0.31250000       0.18750000       0.18750000 </v>
   <v>       0.43750000       0.18750000       0.18750000 </v>
   <v>      -0.43750000       0.18750000       0.18750000 </v>
   <v>      -0.31250000       0.18750000       0.18750000 </v>
   <v>      -0.18750000       0.18750000       0.18750000 </v>
   <v>       0.31250000       0.31250000       0.18750000 </v>
   <v>       0.43750000       0.31250000       0.18750000 </v>
   <v>      -0.43750000       0.31250000       0.18750000 </v>
   <v>      -0.31250000       0.31250000       0.18750000 </v>
   <v>      -0.18750000       0.31250000       0.18750000 </v>
   <v>       0.43750000       0.43750000       0.18750000 </v>
   <v>      -0.43750000       0.43750000       0.18750000 </v>
   <v>      -0.31250000       0.43750000       0.18750000 </v>
   <v>      -0.18750000       0.43750000       0.18750000 </v>
   <v>      -0.43750000      -0.43750000       0.18750000 </v>
   <v>      -0.31250000      -0.43750000       0.18750000 </v>
   <v>      -0.31250000      -0.31250000       0.18750000 </v>
   <v>       0.31250000       0.31250000       0.31250000 </v>
   <v>       0.43750000       0.31250000       0.31250000 </v>
   <v>      -0.43750000       0.31250000       0.31250000 </v>
   <v>      -0.31250000       0.31250000       0.31250000 </v>
   <v>       0.43750000       0.43750000       0.31250000 </v>
   <v>      -0.43750000       0.43750000       0.31250000 </v>
   <v>      -0.31250000       0.43750000       0.31250000 </v>
   <v>      -0.43750000      -0.43750000       0.31250000 </v>
   <v>       0.43750000       0.43750000       0.43750000 </v>
   <v>      -0.43750000       0.43750000       0.43750000 </v>
  </varray>
  <varray name="weights" >
   <v>       0.00390625 </v>
   <v>       0.01171875 </v>
   <v>       0.01171875 </v>
   <v>       0.01171875 </v>
   <v>       0.01171875 </v>
   <v>       0.01171875 </v>
   <v>       0.01171875 </v>
   <v>       0.01171875 </v>
   <v>       0.01171875 </v>
   <v>       0.02343750 </v>
   <v>       0.02343750 </v>
   <v>       0.02343750 </v>
   <v>       0.02343750 </v>
   <v>       0.02343750 </v>
   <v>       0.02343750 </v>
   <v>       0.01171875 </v>
   <v>       0.02343750 </v>
   <v>       0.02343750 </v>
   <v>       0.02343750 </v>
   <v>       0.02343750 </v>
   <v>       0.02343750 </v>
   <v>       0.01171875 </v>
   <v>       0.02343750 </v>
   <v>       0.02343750 </v>
   <v>       0.02343750 </v>
   <v>       0.02343750 </v>
   <v>       0.01171875 </v>
   <v>       0.02343750 </v>
   <v>       0.02343750 </v>
   <v>       0.01171875 </v>
   <v>       0.02343750 </v>
   <v>       0.01171875 </v>
   <v>       0.00390625 </v>
   <v>       0.01171875 </v>
   <v>       0.01171875 </v>
   <v>       0.01171875 </v>
   <v>       0.01171875 </v>
   <v>       0.01171875 </v>
   <v>       0.01171875 </v>
   <v>       0.02343750 </v>
   <v>       0.02343750 </v>
   <v>       0.02343750 </v>
   <v>       0.02343750 </v>
   <v>       0.01171875 </v>
   <v>       0.02343750 </v>
   <v>       0.02343750 </v>
   <v>       0.02343750 </v>
   <v>       0.01171875 </v>
   <v>       0.02343750 </v>
   <v>       0.01171875 </v>
   <v>       0.00390625 </v>
   <v>       0.01171875 </v>
   <v>       0.01171875 </v>
   <v>       0.01171875 </v>
   <v>       0.01171875 </v>
   <v>       0.02343750 </v>
   <v>       0.02343750 </v>
   <v>       0.01171875 </v>
   <v>       0.00390625 </v>
   <v>       0.01171875 </v>
  </varray>
 </kpoints>
 <parameters>
  <separator name="general" >
   <i type="string" name="SYSTEM">unknown system</i>
   <i type="logical" name="LCOMPAT"> F  </i>
  </separator>
  <separator name="electronic" >
   <i type="string" name="PREC">accura</i>
   <i name="ENMAX">    400.00000000</i>
   <i name="ENAUG">    332.07500000</i>
   <i name="EDIFF">      0.00010000</i>
   <i type="int" name="IALGO">    38</i>
   <i type="int" name="IWAVPR">    10</i>
   <i type="int" name="NBANDS">     9</i>
   <i name="NELECT">      5.00000000</i>
   <i type="int" name="TURBO">     0</i>
   <i type="int" name="IRESTART">     0</i>
   <i type="int" name="NREBOOT">     0</i>
   <i type="int" name="NMIN">     0</i>
   <i name="EREF">      0.00000000</i>
   <separator name="electronic smearing" >
    <i type="int" name="ISMEAR">     1</i>
    <i name="SIGMA">      0.05000000</i>
    <i name="KSPACING">      0.50000000</i>
    <i type="logical" name="KGAMMA"> T  </i>
   </separator>
   <separator name="electronic projectors" >
    <i type="logical" name="LREAL"> F  </i>
    <v name="ROPT">      0.00000000</v>
    <i type="int" name="LMAXPAW">  -100</i>
    <i type="int" name="LMAXMIX">     2</i>
    <i type="logical" name="NLSPLINE"> F  </i>
   </separator>
   <separator name="electronic startup" >
    <i type="int" name="ISTART">     0</i>
    <i type="int" name="ICHARG">     2</i>
    <i type="int" name="INIWAV">     1</i>
   </separator>
   <separator name="electronic spin" >
    <i type="int" name="ISPIN">     2</i>
    <i type="logical" name="LNONCOLLINEAR"> F  </i>
    <v name="MAGMOM">      6.00000000</v>
    <i name="NUPDOWN">     -1.00000000</i>
    <i type="logical" name="LSORBIT"> F  </i>
    <v name="SAXIS">      0.00000000      0.00000000      1.00000000</v>
    <i type="logical" name="LSPIRAL"> F  </i>
    <v name="QSPIRAL">      0.00000000      0.00000000      0.00000000</v>
    <i type="logical" name="LZEROZ"> F  </i>
   </separator>
   <separator name="electronic exchange-correlation" >
    <i type="logical" name="LASPH"> F  </i>
    <i type="logical" name="LMETAGGA"> F  </i>
   </separator>
   <separator name="electronic convergence" >
    <i type="int" name="NELM">    60</i>
    <i type="int" name="NELMDL">    -5</i>
    <i type="int" name="NELMIN">     2</i>
    <i name="ENINI">    400.00000000</i>
    <separator name="electronic convergence detail" >
     <i type="logical" name="LDIAG"> T  </i>
     <i type="logical" name="LSUBROT"> T  </i>
     <i name="WEIMIN">      0.00000000</i>
     <i name="EBREAK">      0.00000278</i>
     <i name="DEPER">      0.30000000</i>
     <i type="int" name="NRMM">     4</i>
     <i name="TIME">      0.40000000</i>
    </separator>
   </separator>
   <separator name="electronic mixer" >
    <i name="AMIX">      0.40000000</i>
    <i name="BMIX">      1.00000000</i>
    <i name="AMIN">      0.10000000</i>
    <i name="AMIX_MAG">      1.60000000</i>
    <i name="BMIX_MAG">      1.00000000</i>
    <separator name="electronic mixer details" >
     <i type="int" name="IMIX">     4</i>
     <i type="int" name="MAXMIX">   -45</i>
     <i name="WC">    100.00000000</i>
     <i type="int" name="INIMIX">     1</i>
     <i type="int" name="MIXPRE">     1</i>
     <i type="int" name="MREMOVE">     5</i>
    </separator>
   </separator>
   <separator name="electronic dipolcorrection" >
    <i type="logical" name="LDIPOL"> F  </i>
    <i type="logical" name="LMONO"> F  </i>
    <i type="int" name="IDIPOL">     0</i>
    <i name="EPSILON">      1.00000000</i>
    <v name="DIPOL">   -100.00000000   -100.00000000   -100.00000000</v>
    <i name="EFIELD">      0.00000000</i>
   </separator>
  </separator>
  <separator name="grids" >
   <i type="int" name="NGX">    20</i>
   <i type="int" name="NGY">    20</i>
   <i type="int" name="NGZ">    20</i>
   <i type="int" name="NGXF">    40</i>
   <i type="int" name="NGYF">    40</i>
   <i type="int" name="NGZF">    40</i>
   <i type="logical" name="ADDGRID"> F  </i>
  </separator>
  <separator name="ionic" >
   <i type="int" name="NSW">     0</i>
   <i type="int" name="IBRION">    -1</i>
   <i type="int" name="ISIF">     2</i>
   <i name="PSTRESS">      0.00000000</i>
   <i name="EDIFFG">      0.00100000</i>
   <i type="int" name="NFREE">     0</i>
   <i name="POTIM">      0.50000000</i>
   <i name="SMASS">     -3.00000000</i>
   <i name="SCALEE">      1.00000000</i>
  </separator>
  <separator name="ionic md" >
   <i name="TEBEG">      0.00010000</i>
   <i name="TEEND">      0.00010000</i>
   <i type="int" name="NBLOCK">     1</i>
   <i type="int" name="KBLOCK">     1</i>
   <i type="int" name="NPACO">   256</i>
   <i name="APACO">     16.00000000</i>
  </separator>
  <separator name="symmetry" >
   <i type="int" name="ISYM">     2</i>
   <i name="SYMPREC">      0.00001000</i>
  </separator>
  <separator name="dos" >
   <i type="logical" name="LORBIT"> F  </i>
   <v name="RWIGS">     -1.00000000</v>
   <i type="int" name="NEDOS">   301</i>
   <i name="EMIN">     10.00000000</i>
   <i name="EMAX">    -10.00000000</i>
   <i name="EFERMI">      0.00000000</i>
  </separator>
  <separator name="writing" >
   <i type="int" name="NWRITE">     2</i>
   <i type="logical" name="LWAVE"> T  </i>
   <i type="logical" name="LCHARG"> T  </i>
   <i type="logical" name="LPARD"> F  </i>
   <i type="logical" name="LVTOT"> F  </i>
   <i type="logical" name="LVHAR"> F  </i>
   <i type="logical" name="LELF"> F  </i>
   <i type="logical" name="LOPTICS"> F  </i>
   <v name="STM">      0.00000000      0.00000000      0.00000000      0.00000000      0.00000000      0.00000000      0.00000000</v>
  </separator>
  <separator name="performance" >
   <i type="int" name="NPAR">     1</i>
   <i type="int" name="NSIM">     4</i>
   <i type="int" name="NBLK">    -1</i>
   <i type="logical" name="LPLANE"> T  </i>
   <i type="logical" name="LSCALAPACK"> F  </i>
   <i type="logical" name="LSCAAWARE"> F  </i>
   <i type="logical" name="LSCALU"> F  </i>
   <i type="logical" name="LASYNC"> F  </i>
   <i type="logical" name="LORBITALREAL"> F  </i>
  </separator>
  <separator name="miscellaneous" >
   <i type="int" name="IDIOT">     3</i>
   <i type="logical" name="LMUSIC"> F  </i>
   <v name="POMASS">    180.94800000</v>
   <v name="DARWINR">      0.00000000</v>
   <v name="DARWINV">      1.00000000</v>
   <i type="logical" name="LCORR"> T  </i>
  </separator>
  <i type="logical" name="GGA_COMPAT"> T  </i>
  <i type="logical" name="LBERRY"> F  </i>
  <i type="int" name="ICORELEVEL">     0</i>
  <i type="logical" name="LDAU"> F  </i>
  <i type="int" name="I_CONSTRAINED_M">     0</i>
  <separator name="electronic exchange-correlation" >
   <i type="string" name="GGA">--</i>
   <i type="int" name="VOSKOWN">     0</i>
   <i type="logical" name="LHFCALC"> F  </i>
   <i type="string" name="PRECFOCK"></i>
   <i type="logical" name="LHFONE"> F  </i>
   <i type="logical" name="LRHFCALC"> F  </i>
   <i type="logical" name="LTHOMAS"> F  </i>
   <i type="logical" name="LMODELHF"> F  </i>
   <i name="ENCUT4O">     -1.00000000</i>
   <i type="int" name="EXXOEP">     0</i>
   <i type="int" name="FOURORBIT">     0</i>
   <i name="AEXX">      0.00000000</i>
   <i name="HFALPHA">      0.00000000</i>
   <i name="ALDAX">      1.00000000</i>
   <i name="AGGAX">      1.00000000</i>
   <i name="ALDAC">      1.00000000</i>
   <i name="AGGAC">      1.00000000</i>
   <i type="int" name="NKREDX">     1</i>
   <i type="int" name="NKREDY">     1</i>
   <i type="int" name="NKREDZ">     1</i>
   <i type="logical" name="SHIFTRED"> F  </i>
   <i type="logical" name="ODDONLY"> F  </i>
   <i type="logical" name="EVENONLY"> F  </i>
   <i type="int" name="LMAXFOCK">     0</i>
   <i type="int" name="NMAXFOCKAE">     0</i>
   <i type="logical" name="LFOCKAEDFT"> F  </i>
   <i name="HFSCREEN">      0.00000000</i>
   <i name="HFSCREENC">      0.00000000</i>
  </separator>
  <separator name="vdW DFT" >
   <i type="logical" name="LUSE_VDW"> F  </i>
   <i name="Zab_VDW">     -0.84910000</i>
   <i name="PARAM1">      0.12340000</i>
   <i name="PARAM2">      1.00000000</i>
   <i name="PARAM3">      0.00000000</i>
  </separator>
  <separator name="model GW" >
   <i type="int" name="MODEL_GW">     0</i>
   <i name="MODEL_EPS0">     10.72100625</i>
   <i name="MODEL_ALPHA">      1.00000000</i>
  </separator>
  <separator name="linear response parameters" >
   <i type="logical" name="LEPSILON"> F  </i>
   <i type="logical" name="LRPA"> F  </i>
   <i type="logical" name="LNABLA"> F  </i>
   <i type="logical" name="LVEL"> F  </i>
   <i type="int" name="KINTER">     0</i>
   <i name="CSHIFT">      0.10000000</i>
   <i name="OMEGAMAX">     -1.00000000</i>
  </separator>
  <separator name="orbital magnetization" >
   <i type="logical" name="NUCIND"> F  </i>
   <v name="MAGPOS">      0.00000000      0.00000000      0.00000000</v>
   <i type="logical" name="LNICSALL"> T  </i>
   <i type="logical" name="ORBITALMAG"> F  </i>
   <i type="logical" name="LMAGBLOCH"> F  </i>
   <i type="logical" name="LCHIMAG"> F  </i>
   <i type="logical" name="LGAUGE"> T  </i>
   <i type="int" name="MAGATOM">     0</i>
   <v name="MAGDIPOL">      0.00000000      0.00000000      0.00000000</v>
   <v name="AVECCONST">      0.00000000      0.00000000      0.00000000</v>
  </separator>
  <separator name="response functions" >
   <i type="logical" name="LADDER"> F  </i>
   <i type="logical" name="LHARTREE"> T  </i>
   <i type="int" name="IBSE">     0</i>
   <i type="logical" name="LTCTE"> F  </i>
   <i type="logical" name="LTETE"> F  </i>
   <i type="logical" name="LFXCEPS"> F  </i>
   <i type="logical" name="L2ORDER"> F  </i>
   <i type="logical" name="LUSEW"> F  </i>
   <i name="ENCUTGW">     -2.00000000</i>
   <i name="ENCUTGWSOFT">     -2.00000000</i>
   <i name="ENCUTLF">     -1.00000000</i>
   <i type="int" name="LMAXMP2">    -1</i>
   <i name="SCISSOR">      0.00000000</i>
   <i type="int" name="NOMEGA">     0</i>
   <i type="int" name="NOMEGAR">     0</i>
   <i type="int" name="NBANDSGW">    -1</i>
   <i type="int" name="NBANDSO">    -1</i>
   <i type="int" name="NBANDSV">    -1</i>
   <i name="OPTEMAX">      0.00000000</i>
   <i type="int" name="NELM">     1</i>
   <i type="int" name="DIM">     3</i>
   <i type="int" name="ANTIRES">     0</i>
   <i name="OMEGAMAX">    -30.00000000</i>
   <i name="OMEGATL">   -200.00000000</i>
   <i type="int" name="OMEGAGRID">     0</i>
   <i name="CSHIFT">     -0.10000000</i>
   <i type="logical" name="SELFENERGY"> F  </i>
   <i type="logical" name="LSPECTRAL"> F  </i>
   <i type="logical" name="ODDONLYGW"> F  </i>
   <i type="logical" name="EVENONLYGW"> F  </i>
   <i type="int" name="NKREDLFX">     1</i>
   <i type="int" name="NKREDLFY">     1</i>
   <i type="int" name="NKREDLFZ">     1</i>
   <i type="int" name="MAXMEM">  1800</i>
   <i type="int" name="TELESCOPE">     0</i>
  </separator>
 </parameters>
 <atominfo>
  <atoms>       1 </atoms>
  <types>       1 </types>
  <array name="atoms" >
   <dimension dim="1">ion</dimension>
   <field type="string">element</field>
   <field type="int">atomtype</field>
   <set>
    <rc><c>Ta</c><c>   1</c></rc>
   </set>
  </array>
  <array name="atomtypes" >
   <dimension dim="1">type</dimension>
   <field type="int">atomspertype</field>
   <field type="string">element</field>
   <field>mass</field>
   <field>valence</field>
   <field type="string">pseudopotential</field>
   <set>
    <rc><c>   1</c><c>Ta</c><c>    180.94800000</c><c>      5.00000000</c><c>  PAW_PBE Ta 17Jan2003                  </c></rc>
   </set>
  </array>
 </atominfo>
 <structure name="initialpos" >
  <crystal>
   <varray name="basis" >
    <v>       0.00000000       2.07500000       2.07500000 </v>
    <v>       2.07500000       0.00000000       2.07500000 </v>
    <v>       2.07500000       2.07500000       0.00000000 </v>
   </varray>
   <i name="volume">     17.86834375 </i>
   <varray name="rec_basis" >
    <v>      -0.24096386       0.24096386       0.24096386 </v>
    <v>       0.24096386      -0.24096386       0.24096386 </v>
    <v>       0.24096386       0.24096386      -0.24096386 </v>
   </varray>
  </crystal>
  <varray name="positions" >
   <v>       0.00000000       0.00000000       0.00000000 </v>
  </varray>
 </structure>
 <calculation>
  <scstep>
   <time name="dav">    3.07    3.07</time>
   <time name="total">    3.33    3.33</time>
   <energy>
    <i name="alphaZ">     31.03520437 </i>
    <i name="ewald">   -198.85854833 </i>
    <i name="hartreedc">     -2.45820869 </i>
    <i name="XCdc">    -60.67202212 </i>
    <i name="pawpsdc">    143.51874798 </i>
    <i name="pawaedc">    -69.33493833 </i>
    <i name="eentropy">      0.00004524 </i>
    <i name="bandstr">     35.59386811 </i>
    <i name="atom">    130.64884137 </i>
    <i name="e_fr_energy">      9.47298959 </i>
    <i name="e_wo_entrp">      9.47294435 </i>
    <i name="e_0_energy">      9.47297451 </i>
   </energy>
  </scstep>
  <scstep>
   <time name="dav">    3.74    3.74</time>
   <time name="total">    3.75    3.75</time>
   <energy>
    <i name="e_fr_energy">     -1.72107872 </i>
    <i name="e_wo_entrp">     -1.72089646 </i>
    <i name="e_0_energy">     -1.72101797 </i>
   </energy>
  </scstep>
  <scstep>
   <time name="dav">    3.59    3.59</time>
   <time name="total">    3.60    3.62</time>
   <energy>
    <i name="e_fr_energy">     -1.90429735 </i>
    <i name="e_wo_entrp">     -1.90411879 </i>
    <i name="e_0_energy">     -1.90423783 </i>
   </energy>
  </scstep>
  <scstep>
   <time name="dav">    3.93    3.93</time>
   <time name="total">    3.94    3.98</time>
   <energy>
    <i name="e_fr_energy">     -1.90461658 </i>
    <i name="e_wo_entrp">     -1.90443771 </i>
    <i name="e_0_energy">     -1.90455696 </i>
   </energy>
  </scstep>
  <scstep>
   <time name="dav">    3.23    3.23</time>
   <time name="total">    3.44    3.45</time>
   <energy>
    <i name="e_fr_energy">     -1.90461689 </i>
    <i name="e_wo_entrp">     -1.90443802 </i>
    <i name="e_0_energy">     -1.90455727 </i>
   </energy>
  </scstep>
  <scstep>
   <time name="dav">    3.14    3.14</time>
   <time name="total">    3.60    3.61</time>
   <energy>
    <i name="e_fr_energy">    -11.24688648 </i>
    <i name="e_wo_entrp">    -11.24704773 </i>
    <i name="e_0_energy">    -11.24694023 </i>
   </energy>
  </scstep>
  <scstep>
   <time name="dav">    3.44    3.44</time>
   <time name="total">    3.90    3.92</time>
   <energy>
    <i name="e_fr_energy">    -11.34594369 </i>
    <i name="e_wo_entrp">    -11.34568921 </i>
    <i name="e_0_energy">    -11.34585886 </i>
   </energy>
  </scstep>
  <scstep>
   <time name="dav">    3.12    3.12</time>
   <time name="total">    3.58    3.59</time>
   <energy>
    <i name="e_fr_energy">    -11.35989728 </i>
    <i name="e_wo_entrp">    -11.36019713 </i>
    <i name="e_0_energy">    -11.35999723 </i>
   </energy>
  </scstep>
  <scstep>
   <time name="dav">    2.97    2.97</time>
   <time name="total">    3.43    3.45</time>
   <energy>
    <i name="e_fr_energy">    -11.60286077 </i>
    <i name="e_wo_entrp">    -11.60289390 </i>
    <i name="e_0_energy">    -11.60287182 </i>
   </energy>
  </scstep>
  <scstep>
   <time name="dav">    3.04    3.04</time>
   <time name="total">    3.50    3.51</time>
   <energy>
    <i name="e_fr_energy">    -11.59739470 </i>
    <i name="e_wo_entrp">    -11.59767185 </i>
    <i name="e_0_energy">    -11.59748709 </i>
   </energy>
  </scstep>
  <scstep>
   <time name="dav">    2.98    2.98</time>
   <time name="total">    3.44    3.46</time>
   <energy>
    <i name="e_fr_energy">    -11.59248653 </i>
    <i name="e_wo_entrp">    -11.59248135 </i>
    <i name="e_0_energy">    -11.59248481 </i>
   </energy>
  </scstep>
  <scstep>
   <time name="dav">    3.10    3.10</time>
   <time name="total">    3.56    3.57</time>
   <energy>
    <i name="e_fr_energy">    -11.59533930 </i>
    <i name="e_wo_entrp">    -11.59559477 </i>
    <i name="e_0_energy">    -11.59542446 </i>
   </energy>
  </scstep>
  <scstep>
   <time name="dav">    2.94    2.94</time>
   <time name="total">    3.40    3.41</time>
   <energy>
    <i name="e_fr_energy">    -11.59509406 </i>
    <i name="e_wo_entrp">    -11.59535147 </i>
    <i name="e_0_energy">    -11.59517986 </i>
   </energy>
  </scstep>
  <scstep>
   <time name="dav">    2.93    2.93</time>
   <time name="total">    3.20    3.22</time>
   <energy>
    <i name="alphaZ">     31.03520437 </i>
    <i name="ewald">   -198.85854833 </i>
    <i name="hartreedc">     -0.60251625 </i>
    <i name="XCdc">    -65.92019878 </i>
    <i name="pawpsdc">    195.16932345 </i>
    <i name="pawaedc">   -121.83537556 </i>
    <i name="eentropy">      0.00025893 </i>
    <i name="bandstr">     18.76796016 </i>
    <i name="atom">    130.64884137 </i>
    <i name="e_fr_energy">    -11.59505065 </i>
    <i name="e_wo_entrp">    -11.59530958 </i>
    <i name="e_0_energy">    -11.59513696 </i>
   </energy>
  </scstep>
  <parameters_embedded>
   <separator name="dft+d2" >
    <i type="logical" name="LVDW"> F  </i>
   </separator>
  </parameters_embedded>
  <structure>
   <crystal>
    <varray name="basis" >
     <v>       0.00000000       2.07500000       2.07500000 </v>
     <v>       2.07500000       0.00000000       2.07500000 </v>
     <v>       2.07500000       2.07500000       0.00000000 </v>
    </varray>
    <i name="volume">     17.86834375 </i>
    <varray name="rec_basis" >
     <v>      -0.24096386       0.24096386       0.24096386 </v>
     <v>       0.24096386      -0.24096386       0.24096386 </v>
     <v>       0.24096386       0.24096386      -0.24096386 </v>
    </varray>
   </crystal>
   <varray name="positions" >
    <v>       0.00000000       0.00000000       0.00000000 </v>
   </varray>
  </structure>
  <varray name="forces" >
   <v>       0.00000000       0.00000000       0.00000000 </v>
  </varray>
  <varray name="stress" >
   <v>      92.53036937       0.00000000       0.00000000 </v>
   <v>       0.00000000      92.53036937       0.00000000 </v>
   <v>       0.00000000       0.00000000      92.53036937 </v>
  </varray>
  <energy>
   <i name="e_fr_energy">    -11.59505065 </i>
   <i name="e_wo_entrp">    -11.59513696 </i>
   <i name="e_0_energy">      0.00025893 </i>
  </energy>
  <time name="totalsc">   51.87   52.27</time>
  <eigenvalues>
   <array>
    <dimension dim="1">band</dimension>
    <dimension dim="2">kpoint</dimension>
    <dimension dim="3">spin</dimension>
    <field>eigene</field>
    <field>occ</field>
    <set>
     <set comment="spin 1">
      <set comment="kpoint 1">
       <r>   -1.9455    1.0000 </r>
       <r>    6.5023    0.0000 </r>
       <r>    6.7282    0.0000 </r>
       <r>    6.7282    0.0000 </r>
       <r>    9.7617    0.0000 </r>
       <r>    9.7617    0.0000 </r>
       <r>   19.1679    0.0000 </r>
       <r>   19.9969    0.0000 </r>
       <r>   23.0702    0.0000 </r>
      </set>
      <set comment="kpoint 2">
       <r>   -1.1256    1.0000 </r>
       <r>    5.8757    1.0000 </r>
       <r>    7.0530    0.0000 </r>
       <r>    7.0833    0.0000 </r>
       <r>    9.1354    0.0000 </r>
       <r>    9.8911    0.0000 </r>
       <r>   19.9959    0.0000 </r>
       <r>   20.6108    0.0000 </r>
       <r>   21.5236    0.0000 </r>
      </set>
      <set comment="kpoint 3">
       <r>    0.4469    1.0000 </r>
       <r>    5.3470    1.0000 </r>
       <r>    6.9055    0.0000 </r>
       <r>    7.1388    0.0000 </r>
       <r>    9.5079    0.0000 </r>
       <r>   10.7410    0.0000 </r>
       <r>   18.9383    0.0000 </r>
       <r>   19.9997    0.0000 </r>
       <r>   23.0842    0.0000 </r>
      </set>
      <set comment="kpoint 4">
       <r>    1.4252    1.0000 </r>
       <r>    6.0797    1.0099 </r>
       <r>    6.4795    0.0000 </r>
       <r>    6.6600    0.0000 </r>
       <r>   11.2190    0.0000 </r>
       <r>   12.2493    0.0000 </r>
       <r>   17.4318    0.0000 </r>
       <r>   19.9421    0.0000 </r>
       <r>   20.0847    0.0000 </r>
      </set>
      <set comment="kpoint 5">
       <r>    1.5471    1.0000 </r>
       <r>    6.0826    1.0118 </r>
       <r>    6.5397    0.0000 </r>
       <r>    6.9791    0.0000 </r>
       <r>   12.3630    0.0000 </r>
       <r>   12.4685    0.0000 </r>
       <r>   16.8107    0.0000 </r>
       <r>   18.8084    0.0000 </r>
       <r>   20.0031    0.0000 </r>
      </set>
      <set comment="kpoint 6">
       <r>    1.2285    1.0000 </r>
       <r>    5.6873    1.0000 </r>
       <r>    6.5164    0.0000 </r>
       <r>    6.8649    0.0000 </r>
       <r>   10.8539    0.0000 </r>
       <r>   11.5765    0.0000 </r>
       <r>   17.8558    0.0000 </r>
       <r>   19.9953    0.0000 </r>
       <r>   21.1500    0.0000 </r>
      </set>
      <set comment="kpoint 7">
       <r>   -0.0918    1.0000 </r>
       <r>    5.3859    1.0000 </r>
       <r>    7.0691    0.0000 </r>
       <r>    7.2377    0.0000 </r>
       <r>    9.2382    0.0000 </r>
       <r>   10.2565    0.0000 </r>
       <r>   19.5931    0.0000 </r>
       <r>   20.0034    0.0000 </r>
       <r>   22.8697    0.0000 </r>
      </set>
      <set comment="kpoint 8">
       <r>   -1.5227    1.0000 </r>
       <r>    6.0957    1.0225 </r>
       <r>    6.9573    0.0000 </r>
       <r>    6.9715    0.0000 </r>
       <r>    9.2175    0.0000 </r>
       <r>    9.9432    0.0000 </r>
       <r>   19.9965    0.0000 </r>
       <r>   20.0345    0.0000 </r>
       <r>   22.2917    0.0000 </r>
      </set>
      <set comment="kpoint 9">
       <r>   -0.7292    1.0000 </r>
       <r>    5.4077    1.0000 </r>
       <r>    7.3692    0.0000 </r>
       <r>    7.4545    0.0000 </r>
       <r>    8.4071    0.0000 </r>
       <r>   10.2900    0.0000 </r>
       <r>   19.9965    0.0000 </r>
       <r>   21.5199    0.0000 </r>
       <r>   22.0905    0.0000 </r>
      </set>
      <set comment="kpoint 10">
       <r>    0.6113    1.0000 </r>
       <r>    4.7426    1.0000 </r>
       <r>    6.6921    0.0000 </r>
       <r>    8.0518    0.0000 </r>
       <r>    8.8299    0.0000 </r>
       <r>   11.0668    0.0000 </r>
       <r>   19.9930    0.0000 </r>
       <r>   20.9457    0.0000 </r>
       <r>   23.8471    0.0000 </r>
      </set>
      <set comment="kpoint 11">
       <r>    1.9638    1.0000 </r>
       <r>    4.8545    1.0000 </r>
       <r>    5.8425    1.0000 </r>
       <r>    7.6751    0.0000 </r>
       <r>   10.8019    0.0000 </r>
       <r>   12.5899    0.0000 </r>
       <r>   18.4820    0.0000 </r>
       <r>   20.0036    0.0000 </r>
       <r>   21.6312    0.0000 </r>
      </set>
      <set comment="kpoint 12">
       <r>    2.3547    1.0000 </r>
       <r>    4.9810    1.0000 </r>
       <r>    6.4025    0.0000 </r>
       <r>    7.3049    0.0000 </r>
       <r>   12.0711    0.0000 </r>
       <r>   13.6876    0.0000 </r>
       <r>   16.1426    0.0000 </r>
       <r>   20.0018    0.0000 </r>
       <r>   20.6540    0.0000 </r>
      </set>
      <set comment="kpoint 13">
       <r>    2.2590    1.0000 </r>
       <r>    5.2037    1.0000 </r>
       <r>    5.8074    1.0000 </r>
       <r>    7.4034    0.0000 </r>
       <r>   10.7735    0.0000 </r>
       <r>   13.4534    0.0000 </r>
       <r>   17.6480    0.0000 </r>
       <r>   20.0027    0.0000 </r>
       <r>   21.1330    0.0000 </r>
      </set>
      <set comment="kpoint 14">
       <r>    1.1795    1.0000 </r>
       <r>    4.8817    1.0000 </r>
       <r>    6.2985   -0.0015 </r>
       <r>    7.9190    0.0000 </r>
       <r>    8.8447    0.0000 </r>
       <r>   11.8902    0.0000 </r>
       <r>   19.9588    0.0000 </r>
       <r>   20.1513    0.0000 </r>
       <r>   23.5124    0.0000 </r>
      </set>
      <set comment="kpoint 15">
       <r>   -0.3771    1.0000 </r>
       <r>    5.3730    1.0000 </r>
       <r>    7.1100    0.0000 </r>
       <r>    7.4757    0.0000 </r>
       <r>    8.6700    0.0000 </r>
       <r>   10.3521    0.0000 </r>
       <r>   19.9943    0.0000 </r>
       <r>   20.7801    0.0000 </r>
       <r>   22.2806    0.0000 </r>
      </set>
      <set comment="kpoint 16">
       <r>    1.2901    1.0000 </r>
       <r>    3.9299    1.0000 </r>
       <r>    6.5858    0.0000 </r>
       <r>    9.0892    0.0000 </r>
       <r>    9.4944    0.0000 </r>
       <r>   11.3292    0.0000 </r>
       <r>   19.9947    0.0000 </r>
       <r>   22.2760    0.0000 </r>
       <r>   23.4854    0.0000 </r>
      </set>
      <set comment="kpoint 17">
       <r>    2.1386    1.0000 </r>
       <r>    3.6067    1.0000 </r>
       <r>    6.2473   -0.0311 </r>
       <r>    9.6654    0.0000 </r>
       <r>   10.9170    0.0000 </r>
       <r>   12.6679    0.0000 </r>
       <r>   19.3582    0.0000 </r>
       <r>   20.0118    0.0000 </r>
       <r>   21.6114    0.0000 </r>
      </set>
      <set comment="kpoint 18">
       <r>    2.8459    1.0000 </r>
       <r>    3.9543    1.0000 </r>
       <r>    6.0370    1.0003 </r>
       <r>    9.0086    0.0000 </r>
       <r>   12.1793    0.0000 </r>
       <r>   14.6843    0.0000 </r>
       <r>   15.7896    0.0000 </r>
       <r>   19.9990    0.0000 </r>
       <r>   21.6116    0.0000 </r>
      </set>
      <set comment="kpoint 19">
       <r>    3.5819    1.0000 </r>
       <r>    4.1562    1.0000 </r>
       <r>    5.5158    1.0000 </r>
       <r>    8.5060    0.0000 </r>
       <r>   11.0178    0.0000 </r>
       <r>   13.8137    0.0000 </r>
       <r>   18.2324    0.0000 </r>
       <r>   19.9989    0.0000 </r>
       <r>   20.4536    0.0000 </r>
      </set>
      <set comment="kpoint 20">
       <r>    2.7292    1.0000 </r>
       <r>    4.8875    1.0000 </r>
       <r>    5.1819    1.0000 </r>
       <r>    8.0652    0.0000 </r>
       <r>    9.8244    0.0000 </r>
       <r>   13.6981    0.0000 </r>
       <r>   18.6416    0.0000 </r>
       <r>   20.0063    0.0000 </r>
       <r>   22.4695    0.0000 </r>
      </set>
      <set comment="kpoint 21">
       <r>    1.1719    1.0000 </r>
       <r>    5.1883    1.0000 </r>
       <r>    6.4265    0.0000 </r>
       <r>    7.2652    0.0000 </r>
       <r>    9.8947    0.0000 </r>
       <r>   11.6815    0.0000 </r>
       <r>   18.8427    0.0000 </r>
       <r>   20.0004    0.0000 </r>
       <r>   22.3427    0.0000 </r>
      </set>
      <set comment="kpoint 22">
       <r>    1.7801    1.0000 </r>
       <r>    2.9441    1.0000 </r>
       <r>    7.9347    0.0000 </r>
       <r>   11.2475    0.0000 </r>
       <r>   12.1381    0.0000 </r>
       <r>   12.4505    0.0000 </r>
       <r>   18.6975    0.0000 </r>
       <r>   19.6116    0.0000 </r>
       <r>   19.9919    0.0000 </r>
      </set>
      <set comment="kpoint 23">
       <r>    2.0086    1.0000 </r>
       <r>    3.0469    1.0000 </r>
       <r>    7.9510    0.0000 </r>
       <r>   10.9877    0.0000 </r>
       <r>   12.8293    0.0000 </r>
       <r>   14.3833    0.0000 </r>
       <r>   16.4381    0.0000 </r>
       <r>   18.6443    0.0000 </r>
       <r>   19.9922    0.0000 </r>
      </set>
      <set comment="kpoint 24">
       <r>    2.8028    1.0000 </r>
       <r>    3.8176    1.0000 </r>
       <r>    6.4993    0.0000 </r>
       <r>    9.4700    0.0000 </r>
       <r>   12.1078    0.0000 </r>
       <r>   14.4480    0.0000 </r>
       <r>   16.6385    0.0000 </r>
       <r>   19.9715    0.0000 </r>
       <r>   20.2558    0.0000 </r>
      </set>
      <set comment="kpoint 25">
       <r>    3.0202    1.0000 </r>
       <r>    4.4236    1.0000 </r>
       <r>    5.9925    1.0000 </r>
       <r>    7.9300    0.0000 </r>
       <r>   11.5994    0.0000 </r>
       <r>   14.1471    0.0000 </r>
       <r>   16.4389    0.0000 </r>
       <r>   20.0012    0.0000 </r>
       <r>   21.6985    0.0000 </r>
      </set>
      <set comment="kpoint 26">
       <r>    1.8020    1.0000 </r>
       <r>    5.6665    1.0000 </r>
       <r>    6.5402    0.0000 </r>
       <r>    6.8501    0.0000 </r>
       <r>   11.7743    0.0000 </r>
       <r>   12.9182    0.0000 </r>
       <r>   16.9509    0.0000 </r>
       <r>   19.7401    0.0000 </r>
       <r>   20.0063    0.0000 </r>
      </set>
      <set comment="kpoint 27">
       <r>    1.6583    1.0000 </r>
       <r>    2.7365    1.0000 </r>
       <r>    8.9104    0.0000 </r>
       <r>   11.9477    0.0000 </r>
       <r>   12.9237    0.0000 </r>
       <r>   13.3088    0.0000 </r>
       <r>   17.2480    0.0000 </r>
       <r>   18.2975    0.0000 </r>
       <r>   19.8398    0.0000 </r>
      </set>
      <set comment="kpoint 28">
       <r>    2.1370    1.0000 </r>
       <r>    3.2369    1.0000 </r>
       <r>    7.0965    0.0000 </r>
       <r>   10.5255    0.0000 </r>
       <r>   12.0941    0.0000 </r>
       <r>   13.4926    0.0000 </r>
       <r>   17.6307    0.0000 </r>
       <r>   19.8202    0.0000 </r>
       <r>   20.0039    0.0000 </r>
      </set>
      <set comment="kpoint 29">
       <r>    2.6058    1.0000 </r>
       <r>    4.3405    1.0000 </r>
       <r>    5.6899    1.0000 </r>
       <r>    8.3056    0.0000 </r>
       <r>   11.8406    0.0000 </r>
       <r>   13.4368    0.0000 </r>
       <r>   17.1397    0.0000 </r>
       <r>   20.0018    0.0000 </r>
       <r>   22.0900    0.0000 </r>
      </set>
      <set comment="kpoint 30">
       <r>    1.7922    1.0000 </r>
       <r>    3.3496    1.0000 </r>
       <r>    6.8871    0.0000 </r>
       <r>   10.1657    0.0000 </r>
       <r>   10.7490    0.0000 </r>
       <r>   11.9077    0.0000 </r>
       <r>   19.9875    0.0000 </r>
       <r>   20.7123    0.0000 </r>
       <r>   21.5209    0.0000 </r>
      </set>
      <set comment="kpoint 31">
       <r>    1.5941    1.0000 </r>
       <r>    4.1261    1.0000 </r>
       <r>    6.1412    0.9612 </r>
       <r>    8.7838    0.0000 </r>
       <r>    9.7211    0.0000 </r>
       <r>   11.8692    0.0000 </r>
       <r>   19.9884    0.0000 </r>
       <r>   20.8377    0.0000 </r>
       <r>   23.5687    0.0000 </r>
      </set>
      <set comment="kpoint 32">
       <r>    0.3041    1.0000 </r>
       <r>    4.6416    1.0000 </r>
       <r>    7.0916    0.0000 </r>
       <r>    8.1677    0.0000 </r>
       <r>    8.5131    0.0000 </r>
       <r>   10.7688    0.0000 </r>
       <r>   19.9958    0.0000 </r>
       <r>   22.1709    0.0000 </r>
       <r>   23.6807    0.0000 </r>
      </set>
      <set comment="kpoint 33">
       <r>   -0.7676    1.0000 </r>
       <r>    5.7291    1.0000 </r>
       <r>    7.1001    0.0000 </r>
       <r>    7.1001    0.0000 </r>
       <r>    9.5556    0.0000 </r>
       <r>    9.5556    0.0000 </r>
       <r>   19.9448    0.0000 </r>
       <r>   20.0292    0.0000 </r>
       <r>   21.9284    0.0000 </r>
      </set>
      <set comment="kpoint 34">
       <r>    0.2880    1.0000 </r>
       <r>    5.2064    1.0000 </r>
       <r>    6.8302    0.0000 </r>
       <r>    7.6437    0.0000 </r>
       <r>    8.5803    0.0000 </r>
       <r>   10.9487    0.0000 </r>
       <r>   19.9830    0.0000 </r>
       <r>   20.2465    0.0000 </r>
       <r>   23.1306    0.0000 </r>
      </set>
      <set comment="kpoint 35">
       <r>    1.9215    1.0000 </r>
       <r>    4.9608    1.0000 </r>
       <r>    5.8330    1.0000 </r>
       <r>    7.7899    0.0000 </r>
       <r>    9.1179    0.0000 </r>
       <r>   12.9082    0.0000 </r>
       <r>   19.4799    0.0000 </r>
       <r>   20.0158    0.0000 </r>
       <r>   22.4897    0.0000 </r>
      </set>
      <set comment="kpoint 36">
       <r>    2.6054    1.0000 </r>
       <r>    4.9411    1.0000 </r>
       <r>    6.0263    1.0001 </r>
       <r>    7.4778    0.0000 </r>
       <r>   11.1062    0.0000 </r>
       <r>   13.8375    0.0000 </r>
       <r>   17.0328    0.0000 </r>
       <r>   20.0022    0.0000 </r>
       <r>   21.3569    0.0000 </r>
      </set>
      <set comment="kpoint 37">
       <r>    2.4449    1.0000 </r>
       <r>    4.7108    1.0000 </r>
       <r>    6.0900    1.0174 </r>
       <r>    7.6562    0.0000 </r>
       <r>   12.4777    0.0000 </r>
       <r>   13.2139    0.0000 </r>
       <r>   16.3930    0.0000 </r>
       <r>   20.0017    0.0000 </r>
       <r>   21.1777    0.0000 </r>
      </set>
      <set comment="kpoint 38">
       <r>    1.7289    1.0000 </r>
       <r>    4.3910    1.0000 </r>
       <r>    6.0191    1.0000 </r>
       <r>    8.1159    0.0000 </r>
       <r>   10.6207    0.0000 </r>
       <r>   11.8929    0.0000 </r>
       <r>   19.5683    0.0000 </r>
       <r>   20.0160    0.0000 </r>
       <r>   22.6388    0.0000 </r>
      </set>
      <set comment="kpoint 39">
       <r>    0.8069    1.0000 </r>
       <r>    4.9086    1.0000 </r>
       <r>    6.5942    0.0000 </r>
       <r>    7.5697    0.0000 </r>
       <r>    9.5904    0.0000 </r>
       <r>   11.0870    0.0000 </r>
       <r>   19.7034    0.0000 </r>
       <r>   20.0103    0.0000 </r>
       <r>   23.3597    0.0000 </r>
      </set>
      <set comment="kpoint 40">
       <r>    2.1265    1.0000 </r>
       <r>    4.4811    1.0000 </r>
       <r>    5.6128    1.0000 </r>
       <r>    8.4265    0.0000 </r>
       <r>    9.6957    0.0000 </r>
       <r>   12.8534    0.0000 </r>
       <r>   19.5568    0.0000 </r>
       <r>   20.0206    0.0000 </r>
       <r>   22.7467    0.0000 </r>
      </set>
      <set comment="kpoint 41">
       <r>    3.4447    1.0000 </r>
       <r>    4.3972    1.0000 </r>
       <r>    4.9450    1.0000 </r>
       <r>    8.5940    0.0000 </r>
       <r>   10.8103    0.0000 </r>
       <r>   14.1062    0.0000 </r>
       <r>   17.9898    0.0000 </r>
       <r>   20.0028    0.0000 </r>
       <r>   21.0507    0.0000 </r>
      </set>
      <set comment="kpoint 42">
       <r>    3.4445    1.0000 </r>
       <r>    4.0553    1.0000 </r>
       <r>    5.6359    1.0000 </r>
       <r>    8.4699    0.0000 </r>
       <r>   11.7432    0.0000 </r>
       <r>   15.3443    0.0000 </r>
       <r>   15.6230    0.0000 </r>
       <r>   19.9997    0.0000 </r>
       <r>   21.6652    0.0000 </r>
      </set>
      <set comment="kpoint 43">
       <r>    2.7576    1.0000 </r>
       <r>    4.0830    1.0000 </r>
       <r>    5.3978    1.0000 </r>
       <r>    9.1251    0.0000 </r>
       <r>   10.8112    0.0000 </r>
       <r>   13.6800    0.0000 </r>
       <r>   18.2914    0.0000 </r>
       <r>   20.0042    0.0000 </r>
       <r>   21.4718    0.0000 </r>
      </set>
      <set comment="kpoint 44">
       <r>    2.3111    1.0000 </r>
       <r>    3.8952    1.0000 </r>
       <r>    6.0097    1.0000 </r>
       <r>    8.8530    0.0000 </r>
       <r>   12.0711    0.0000 </r>
       <r>   12.4842    0.0000 </r>
       <r>   18.1437    0.0000 </r>
       <r>   20.0028    0.0000 </r>
       <r>   22.3841    0.0000 </r>
      </set>
      <set comment="kpoint 45">
       <r>    2.7787    1.0000 </r>
       <r>    3.7853    1.0000 </r>
       <r>    5.9736    1.0000 </r>
       <r>    9.6389    0.0000 </r>
       <r>   11.9148    0.0000 </r>
       <r>   14.5070    0.0000 </r>
       <r>   17.1178    0.0000 </r>
       <r>   19.8095    0.0000 </r>
       <r>   20.0093    0.0000 </r>
      </set>
      <set comment="kpoint 46">
       <r>    3.2332    1.0000 </r>
       <r>    4.4382    1.0000 </r>
       <r>    5.4927    1.0000 </r>
       <r>    8.5658    0.0000 </r>
       <r>   12.7591    0.0000 </r>
       <r>   15.9058    0.0000 </r>
       <r>   16.6761    0.0000 </r>
       <r>   18.4076    0.0000 </r>
       <r>   20.0049    0.0000 </r>
      </set>
      <set comment="kpoint 47">
       <r>    3.4826    1.0000 </r>
       <r>    4.3635    1.0000 </r>
       <r>    5.0713    1.0000 </r>
       <r>    8.8051    0.0000 </r>
       <r>   11.8545    0.0000 </r>
       <r>   14.7765    0.0000 </r>
       <r>   17.3519    0.0000 </r>
       <r>   19.6989    0.0000 </r>
       <r>   20.0103    0.0000 </r>
      </set>
      <set comment="kpoint 48">
       <r>    2.2801    1.0000 </r>
       <r>    3.3425    1.0000 </r>
       <r>    7.4013    0.0000 </r>
       <r>   10.4157    0.0000 </r>
       <r>   12.4769    0.0000 </r>
       <r>   14.8473    0.0000 </r>
       <r>   15.5700    0.0000 </r>
       <r>   19.9847    0.0000 </r>
       <r>   20.5756    0.0000 </r>
      </set>
      <set comment="kpoint 49">
       <r>    2.6251    1.0000 </r>
       <r>    3.6381    1.0000 </r>
       <r>    6.6949    0.0000 </r>
       <r>    9.6263    0.0000 </r>
       <r>   12.7740    0.0000 </r>
       <r>   15.5332    0.0000 </r>
       <r>   16.2085    0.0000 </r>
       <r>   18.6048    0.0000 </r>
       <r>   20.0029    0.0000 </r>
      </set>
      <set comment="kpoint 50">
       <r>    2.3813    1.0000 </r>
       <r>    3.5245    1.0000 </r>
       <r>    6.6891    0.0000 </r>
       <r>    9.6994    0.0000 </r>
       <r>   12.6665    0.0000 </r>
       <r>   13.7370    0.0000 </r>
       <r>   16.3972    0.0000 </r>
       <r>   19.9982    0.0000 </r>
       <r>   21.1540    0.0000 </r>
      </set>
      <set comment="kpoint 51">
       <r>    0.7631    1.0000 </r>
       <r>    5.5645    1.0000 </r>
       <r>    6.8651    0.0000 </r>
       <r>    6.8651    0.0000 </r>
       <r>   10.5668    0.0000 </r>
       <r>   10.5668    0.0000 </r>
       <r>   18.0755    0.0000 </r>
       <r>   19.9972    0.0000 </r>
       <r>   22.3307    0.0000 </r>
      </set>
      <set comment="kpoint 52">
       <r>    1.6680    1.0000 </r>
       <r>    5.4308    1.0000 </r>
       <r>    6.1173    1.0352 </r>
       <r>    7.1338    0.0000 </r>
       <r>   10.1308    0.0000 </r>
       <r>   12.6474    0.0000 </r>
       <r>   18.3772    0.0000 </r>
       <r>   20.0008    0.0000 </r>
       <r>   21.2680    0.0000 </r>
      </set>
      <set comment="kpoint 53">
       <r>    3.2340    1.0000 </r>
       <r>    4.6446    1.0000 </r>
       <r>    5.3203    1.0000 </r>
       <r>    8.0991    0.0000 </r>
       <r>   10.2713    0.0000 </r>
       <r>   13.8818    0.0000 </r>
       <r>   18.3143    0.0000 </r>
       <r>   20.0037    0.0000 </r>
       <r>   21.5183    0.0000 </r>
      </set>
      <set comment="kpoint 54">
       <r>    3.1442    1.0000 </r>
       <r>    4.0732    1.0000 </r>
       <r>    6.0857    1.0139 </r>
       <r>    8.9953    0.0000 </r>
       <r>   11.4856    0.0000 </r>
       <r>   13.6394    0.0000 </r>
       <r>   17.8057    0.0000 </r>
       <r>   19.9853    0.0000 </r>
       <r>   20.3194    0.0000 </r>
      </set>
      <set comment="kpoint 55">
       <r>    1.8145    1.0000 </r>
       <r>    5.3671    1.0000 </r>
       <r>    6.1853    0.3507 </r>
       <r>    7.1373    0.0000 </r>
       <r>   11.7984    0.0000 </r>
       <r>   12.2997    0.0000 </r>
       <r>   17.5342    0.0000 </r>
       <r>   19.9984    0.0000 </r>
       <r>   20.4771    0.0000 </r>
      </set>
      <set comment="kpoint 56">
       <r>    2.9006    1.0000 </r>
       <r>    4.5324    1.0000 </r>
       <r>    5.7314    1.0000 </r>
       <r>    7.9468    0.0000 </r>
       <r>   11.5014    0.0000 </r>
       <r>   14.1434    0.0000 </r>
       <r>   16.6049    0.0000 </r>
       <r>   20.0016    0.0000 </r>
       <r>   21.8523    0.0000 </r>
      </set>
      <set comment="kpoint 57">
       <r>    3.4707    1.0000 </r>
       <r>    4.1691    1.0000 </r>
       <r>    5.5512    1.0000 </r>
       <r>    8.6881    0.0000 </r>
       <r>   11.9049    0.0000 </r>
       <r>   14.5742    0.0000 </r>
       <r>   17.4016    0.0000 </r>
       <r>   19.7707    0.0000 </r>
       <r>   20.0233    0.0000 </r>
      </set>
      <set comment="kpoint 58">
       <r>    2.9529    1.0000 </r>
       <r>    4.2193    1.0000 </r>
       <r>    6.0645    1.0035 </r>
       <r>    8.3499    0.0000 </r>
       <r>   12.0762    0.0000 </r>
       <r>   14.1001    0.0000 </r>
       <r>   16.0916    0.0000 </r>
       <r>   20.0002    0.0000 </r>
       <r>   21.7016    0.0000 </r>
      </set>
      <set comment="kpoint 59">
       <r>    1.3638    1.0000 </r>
       <r>    6.4571    0.0000 </r>
       <r>    6.4571    0.0000 </r>
       <r>    6.7527    0.0000 </r>
       <r>   12.0712    0.0000 </r>
       <r>   12.0712    0.0000 </r>
       <r>   17.0602    0.0000 </r>
       <r>   18.9898    0.0000 </r>
       <r>   20.0058    0.0000 </r>
      </set>
      <set comment="kpoint 60">
       <r>    1.9783    1.0000 </r>
       <r>    5.4743    1.0000 </r>
       <r>    6.7002    0.0000 </r>
       <r>    6.8963    0.0000 </r>
       <r>   11.9599    0.0000 </r>
       <r>   13.3039    0.0000 </r>
       <r>   16.4862    0.0000 </r>
       <r>   19.8247    0.0000 </r>
       <r>   20.0027    0.0000 </r>
      </set>
     </set>
     <set comment="spin 2">
      <set comment="kpoint 1">
       <r>   -1.9469    1.0000 </r>
       <r>    6.5013    0.0000 </r>
       <r>    6.7271    0.0000 </r>
       <r>    6.7271    0.0000 </r>
       <r>    9.7618    0.0000 </r>
       <r>    9.7618    0.0000 </r>
       <r>   19.1656    0.0000 </r>
       <r>   19.9965    0.0000 </r>
       <r>   23.0693    0.0000 </r>
      </set>
      <set comment="kpoint 2">
       <r>   -1.1271    1.0000 </r>
       <r>    5.8745    1.0000 </r>
       <r>    7.0521    0.0000 </r>
       <r>    7.0823    0.0000 </r>
       <r>    9.1353    0.0000 </r>
       <r>    9.8911    0.0000 </r>
       <r>   19.9954    0.0000 </r>
       <r>   20.6088    0.0000 </r>
       <r>   21.5226    0.0000 </r>
      </set>
      <set comment="kpoint 3">
       <r>    0.4454    1.0000 </r>
       <r>    5.3457    1.0000 </r>
       <r>    6.9048    0.0000 </r>
       <r>    7.1381    0.0000 </r>
       <r>    9.5075    0.0000 </r>
       <r>   10.7407    0.0000 </r>
       <r>   18.9373    0.0000 </r>
       <r>   19.9993    0.0000 </r>
       <r>   23.0826    0.0000 </r>
      </set>
      <set comment="kpoint 4">
       <r>    1.4237    1.0000 </r>
       <r>    6.0786    1.0092 </r>
       <r>    6.4786    0.0000 </r>
       <r>    6.6594    0.0000 </r>
       <r>   11.2186    0.0000 </r>
       <r>   12.2490    0.0000 </r>
       <r>   17.4310    0.0000 </r>
       <r>   19.9411    0.0000 </r>
       <r>   20.0838    0.0000 </r>
      </set>
      <set comment="kpoint 5">
       <r>    1.5456    1.0000 </r>
       <r>    6.0820    1.0113 </r>
       <r>    6.5392    0.0000 </r>
       <r>    6.9777    0.0000 </r>
       <r>   12.3627    0.0000 </r>
       <r>   12.4681    0.0000 </r>
       <r>   16.8099    0.0000 </r>
       <r>   18.8070    0.0000 </r>
       <r>   20.0027    0.0000 </r>
      </set>
      <set comment="kpoint 6">
       <r>    1.2270    1.0000 </r>
       <r>    5.6860    1.0000 </r>
       <r>    6.5157    0.0000 </r>
       <r>    6.8643    0.0000 </r>
       <r>   10.8534    0.0000 </r>
       <r>   11.5762    0.0000 </r>
       <r>   17.8549    0.0000 </r>
       <r>   19.9948    0.0000 </r>
       <r>   21.1486    0.0000 </r>
      </set>
      <set comment="kpoint 7">
       <r>   -0.0933    1.0000 </r>
       <r>    5.3847    1.0000 </r>
       <r>    7.0683    0.0000 </r>
       <r>    7.2369    0.0000 </r>
       <r>    9.2378    0.0000 </r>
       <r>   10.2563    0.0000 </r>
       <r>   19.5922    0.0000 </r>
       <r>   20.0029    0.0000 </r>
       <r>   22.8679    0.0000 </r>
      </set>
      <set comment="kpoint 8">
       <r>   -1.5241    1.0000 </r>
       <r>    6.0946    1.0215 </r>
       <r>    6.9563    0.0000 </r>
       <r>    6.9705    0.0000 </r>
       <r>    9.2174    0.0000 </r>
       <r>    9.9433    0.0000 </r>
       <r>   19.9960    0.0000 </r>
       <r>   20.0323    0.0000 </r>
       <r>   22.2908    0.0000 </r>
      </set>
      <set comment="kpoint 9">
       <r>   -0.7307    1.0000 </r>
       <r>    5.4065    1.0000 </r>
       <r>    7.3682    0.0000 </r>
       <r>    7.4535    0.0000 </r>
       <r>    8.4068    0.0000 </r>
       <r>   10.2900    0.0000 </r>
       <r>   19.9960    0.0000 </r>
       <r>   21.5180    0.0000 </r>
       <r>   22.0895    0.0000 </r>
      </set>
      <set comment="kpoint 10">
       <r>    0.6099    1.0000 </r>
       <r>    4.7413    1.0000 </r>
       <r>    6.6915    0.0000 </r>
       <r>    8.0509    0.0000 </r>
       <r>    8.8292    0.0000 </r>
       <r>   11.0666    0.0000 </r>
       <r>   19.9925    0.0000 </r>
       <r>   20.9450    0.0000 </r>
       <r>   23.8452    0.0000 </r>
      </set>
      <set comment="kpoint 11">
       <r>    1.9624    1.0000 </r>
       <r>    4.8533    1.0000 </r>
       <r>    5.8417    1.0000 </r>
       <r>    7.6745    0.0000 </r>
       <r>   10.8013    0.0000 </r>
       <r>   12.5896    0.0000 </r>
       <r>   18.4812    0.0000 </r>
       <r>   20.0032    0.0000 </r>
       <r>   21.6298    0.0000 </r>
      </set>
      <set comment="kpoint 12">
       <r>    2.3532    1.0000 </r>
       <r>    4.9804    1.0000 </r>
       <r>    6.4010    0.0000 </r>
       <r>    7.3043    0.0000 </r>
       <r>   12.0707    0.0000 </r>
       <r>   13.6871    0.0000 </r>
       <r>   16.1417    0.0000 </r>
       <r>   20.0014    0.0000 </r>
       <r>   20.6528    0.0000 </r>
      </set>
      <set comment="kpoint 13">
       <r>    2.2576    1.0000 </r>
       <r>    5.2029    1.0000 </r>
       <r>    5.8061    1.0000 </r>
       <r>    7.4029    0.0000 </r>
       <r>   10.7729    0.0000 </r>
       <r>   13.4530    0.0000 </r>
       <r>   17.6472    0.0000 </r>
       <r>   20.0023    0.0000 </r>
       <r>   21.1316    0.0000 </r>
      </set>
      <set comment="kpoint 14">
       <r>    1.1781    1.0000 </r>
       <r>    4.8804    1.0000 </r>
       <r>    6.2979   -0.0016 </r>
       <r>    7.9184    0.0000 </r>
       <r>    8.8440    0.0000 </r>
       <r>   11.8899    0.0000 </r>
       <r>   19.9582    0.0000 </r>
       <r>   20.1508    0.0000 </r>
       <r>   23.5109    0.0000 </r>
      </set>
      <set comment="kpoint 15">
       <r>   -0.3786    1.0000 </r>
       <r>    5.3718    1.0000 </r>
       <r>    7.1092    0.0000 </r>
       <r>    7.4747    0.0000 </r>
       <r>    8.6697    0.0000 </r>
       <r>   10.3520    0.0000 </r>
       <r>   19.9938    0.0000 </r>
       <r>   20.7792    0.0000 </r>
       <r>   22.2787    0.0000 </r>
      </set>
      <set comment="kpoint 16">
       <r>    1.2888    1.0000 </r>
       <r>    3.9285    1.0000 </r>
       <r>    6.5851    0.0000 </r>
       <r>    9.0883    0.0000 </r>
       <r>    9.4934    0.0000 </r>
       <r>   11.3293    0.0000 </r>
       <r>   19.9942    0.0000 </r>
       <r>   22.2752    0.0000 </r>
       <r>   23.4843    0.0000 </r>
      </set>
      <set comment="kpoint 17">
       <r>    2.1377    1.0000 </r>
       <r>    3.6053    1.0000 </r>
       <r>    6.2462   -0.0319 </r>
       <r>    9.6649    0.0000 </r>
       <r>   10.9162    0.0000 </r>
       <r>   12.6676    0.0000 </r>
       <r>   19.3571    0.0000 </r>
       <r>   20.0113    0.0000 </r>
       <r>   21.6101    0.0000 </r>
      </set>
      <set comment="kpoint 18">
       <r>    2.8450    1.0000 </r>
       <r>    3.9532    1.0000 </r>
       <r>    6.0356    1.0003 </r>
       <r>    9.0082    0.0000 </r>
       <r>   12.1787    0.0000 </r>
       <r>   14.6833    0.0000 </r>
       <r>   15.7887    0.0000 </r>
       <r>   19.9985    0.0000 </r>
       <r>   21.6105    0.0000 </r>
      </set>
      <set comment="kpoint 19">
       <r>    3.5806    1.0000 </r>
       <r>    4.1555    1.0000 </r>
       <r>    5.5143    1.0000 </r>
       <r>    8.5057    0.0000 </r>
       <r>   11.0170    0.0000 </r>
       <r>   13.8128    0.0000 </r>
       <r>   18.2317    0.0000 </r>
       <r>   19.9984    0.0000 </r>
       <r>   20.4526    0.0000 </r>
      </set>
      <set comment="kpoint 20">
       <r>    2.7278    1.0000 </r>
       <r>    4.8863    1.0000 </r>
       <r>    5.1811    1.0000 </r>
       <r>    8.0648    0.0000 </r>
       <r>    9.8236    0.0000 </r>
       <r>   13.6977    0.0000 </r>
       <r>   18.6407    0.0000 </r>
       <r>   20.0059    0.0000 </r>
       <r>   22.4906    0.0000 </r>
      </set>
      <set comment="kpoint 21">
       <r>    1.1705    1.0000 </r>
       <r>    5.1870    1.0000 </r>
       <r>    6.4258    0.0000 </r>
       <r>    7.2646    0.0000 </r>
       <r>    9.8941    0.0000 </r>
       <r>   11.6812    0.0000 </r>
       <r>   18.8420    0.0000 </r>
       <r>   20.0000    0.0000 </r>
       <r>   22.3412    0.0000 </r>
      </set>
      <set comment="kpoint 22">
       <r>    1.7794    1.0000 </r>
       <r>    2.9427    1.0000 </r>
       <r>    7.9331    0.0000 </r>
       <r>   11.2471    0.0000 </r>
       <r>   12.1371    0.0000 </r>
       <r>   12.4503    0.0000 </r>
       <r>   18.6963    0.0000 </r>
       <r>   19.6103    0.0000 </r>
       <r>   19.9914    0.0000 </r>
      </set>
      <set comment="kpoint 23">
       <r>    2.0080    1.0000 </r>
       <r>    3.0455    1.0000 </r>
       <r>    7.9493    0.0000 </r>
       <r>   10.9876    0.0000 </r>
       <r>   12.8286    0.0000 </r>
       <r>   14.3824    0.0000 </r>
       <r>   16.4370    0.0000 </r>
       <r>   18.6430    0.0000 </r>
       <r>   19.9917    0.0000 </r>
      </set>
      <set comment="kpoint 24">
       <r>    2.8021    1.0000 </r>
       <r>    3.8163    1.0000 </r>
       <r>    6.4978    0.0000 </r>
       <r>    9.4697    0.0000 </r>
       <r>   12.1071    0.0000 </r>
       <r>   14.4469    0.0000 </r>
       <r>   16.6375    0.0000 </r>
       <r>   19.9710    0.0000 </r>
       <r>   20.2552    0.0000 </r>
      </set>
      <set comment="kpoint 25">
       <r>    3.0188    1.0000 </r>
       <r>    4.4231    1.0000 </r>
       <r>    5.9910    1.0000 </r>
       <r>    7.9296    0.0000 </r>
       <r>   11.5988    0.0000 </r>
       <r>   14.1463    0.0000 </r>
       <r>   16.4382    0.0000 </r>
       <r>   20.0007    0.0000 </r>
       <r>   21.6976    0.0000 </r>
      </set>
      <set comment="kpoint 26">
       <r>    1.8005    1.0000 </r>
       <r>    5.6658    1.0000 </r>
       <r>    6.5388    0.0000 </r>
       <r>    6.8495    0.0000 </r>
       <r>   11.7738    0.0000 </r>
       <r>   12.9178    0.0000 </r>
       <r>   16.9501    0.0000 </r>
       <r>   19.7387    0.0000 </r>
       <r>   20.0058    0.0000 </r>
      </set>
      <set comment="kpoint 27">
       <r>    1.6578    1.0000 </r>
       <r>    2.7350    1.0000 </r>
       <r>    8.9085    0.0000 </r>
       <r>   11.9478    0.0000 </r>
       <r>   12.9231    0.0000 </r>
       <r>   13.3080    0.0000 </r>
       <r>   17.2467    0.0000 </r>
       <r>   18.2960    0.0000 </r>
       <r>   19.8390    0.0000 </r>
      </set>
      <set comment="kpoint 28">
       <r>    2.1363    1.0000 </r>
       <r>    3.2355    1.0000 </r>
       <r>    7.0950    0.0000 </r>
       <r>   10.5252    0.0000 </r>
       <r>   12.0934    0.0000 </r>
       <r>   13.4919    0.0000 </r>
       <r>   17.6296    0.0000 </r>
       <r>   19.8189    0.0000 </r>
       <r>   20.0034    0.0000 </r>
      </set>
      <set comment="kpoint 29">
       <r>    2.6046    1.0000 </r>
       <r>    4.3395    1.0000 </r>
       <r>    5.6887    1.0000 </r>
       <r>    8.3050    0.0000 </r>
       <r>   11.8400    0.0000 </r>
       <r>   13.4362    0.0000 </r>
       <r>   17.1388    0.0000 </r>
       <r>   20.0013    0.0000 </r>
       <r>   22.0891    0.0000 </r>
      </set>
      <set comment="kpoint 30">
       <r>    1.7913    1.0000 </r>
       <r>    3.3483    1.0000 </r>
       <r>    6.8859    0.0000 </r>
       <r>   10.1650    0.0000 </r>
       <r>   10.7481    0.0000 </r>
       <r>   11.9077    0.0000 </r>
       <r>   19.9870    0.0000 </r>
       <r>   20.7112    0.0000 </r>
       <r>   21.5197    0.0000 </r>
      </set>
      <set comment="kpoint 31">
       <r>    1.5929    1.0000 </r>
       <r>    4.1248    1.0000 </r>
       <r>    6.1404    0.9661 </r>
       <r>    8.7831    0.0000 </r>
       <r>    9.7202    0.0000 </r>
       <r>   11.8690    0.0000 </r>
       <r>   19.9879    0.0000 </r>
       <r>   20.8369    0.0000 </r>
       <r>   23.5373    0.0000 </r>
      </set>
      <set comment="kpoint 32">
       <r>    0.3027    1.0000 </r>
       <r>    4.6403    1.0000 </r>
       <r>    7.0911    0.0000 </r>
       <r>    8.1667    0.0000 </r>
       <r>    8.5122    0.0000 </r>
       <r>   10.7688    0.0000 </r>
       <r>   19.9953    0.0000 </r>
       <r>   22.1702    0.0000 </r>
       <r>   23.6788    0.0000 </r>
      </set>
      <set comment="kpoint 33">
       <r>   -0.7691    1.0000 </r>
       <r>    5.7279    1.0000 </r>
       <r>    7.0991    0.0000 </r>
       <r>    7.0991    0.0000 </r>
       <r>    9.5555    0.0000 </r>
       <r>    9.5555    0.0000 </r>
       <r>   19.9438    0.0000 </r>
       <r>   20.0285    0.0000 </r>
       <r>   21.9267    0.0000 </r>
      </set>
      <set comment="kpoint 34">
       <r>    0.2866    1.0000 </r>
       <r>    5.2051    1.0000 </r>
       <r>    6.8295    0.0000 </r>
       <r>    7.6429    0.0000 </r>
       <r>    8.5800    0.0000 </r>
       <r>   10.9485    0.0000 </r>
       <r>   19.9825    0.0000 </r>
       <r>   20.2458    0.0000 </r>
       <r>   23.1287    0.0000 </r>
      </set>
      <set comment="kpoint 35">
       <r>    1.9200    1.0000 </r>
       <r>    4.9594    1.0000 </r>
       <r>    5.8324    1.0000 </r>
       <r>    7.7896    0.0000 </r>
       <r>    9.1171    0.0000 </r>
       <r>   12.9079    0.0000 </r>
       <r>   19.4792    0.0000 </r>
       <r>   20.0153    0.0000 </r>
       <r>   22.4882    0.0000 </r>
      </set>
      <set comment="kpoint 36">
       <r>    2.6039    1.0000 </r>
       <r>    4.9405    1.0000 </r>
       <r>    6.0249    1.0001 </r>
       <r>    7.4774    0.0000 </r>
       <r>   11.1056    0.0000 </r>
       <r>   13.8369    0.0000 </r>
       <r>   17.0321    0.0000 </r>
       <r>   20.0017    0.0000 </r>
       <r>   21.3556    0.0000 </r>
      </set>
      <set comment="kpoint 37">
       <r>    2.4435    1.0000 </r>
       <r>    4.7101    1.0000 </r>
       <r>    6.0886    1.0163 </r>
       <r>    7.6557    0.0000 </r>
       <r>   12.4774    0.0000 </r>
       <r>   13.2132    0.0000 </r>
       <r>   16.3921    0.0000 </r>
       <r>   20.0012    0.0000 </r>
       <r>   21.1766    0.0000 </r>
      </set>
      <set comment="kpoint 38">
       <r>    1.7276    1.0000 </r>
       <r>    4.3897    1.0000 </r>
       <r>    6.0184    1.0000 </r>
       <r>    8.1152    0.0000 </r>
       <r>   10.6198    0.0000 </r>
       <r>   11.8928    0.0000 </r>
       <r>   19.5674    0.0000 </r>
       <r>   20.0156    0.0000 </r>
       <r>   22.6375    0.0000 </r>
      </set>
      <set comment="kpoint 39">
       <r>    0.8055    1.0000 </r>
       <r>    4.9073    1.0000 </r>
       <r>    6.5936    0.0000 </r>
       <r>    7.5689    0.0000 </r>
       <r>    9.5897    0.0000 </r>
       <r>   11.0869    0.0000 </r>
       <r>   19.7026    0.0000 </r>
       <r>   20.0099    0.0000 </r>
       <r>   23.3582    0.0000 </r>
      </set>
      <set comment="kpoint 40">
       <r>    2.1251    1.0000 </r>
       <r>    4.4798    1.0000 </r>
       <r>    5.6121    1.0000 </r>
       <r>    8.4260    0.0000 </r>
       <r>    9.6949    0.0000 </r>
       <r>   12.8530    0.0000 </r>
       <r>   19.5560    0.0000 </r>
       <r>   20.0202    0.0000 </r>
       <r>   22.7455    0.0000 </r>
      </set>
      <set comment="kpoint 41">
       <r>    3.4434    1.0000 </r>
       <r>    4.3964    1.0000 </r>
       <r>    4.9436    1.0000 </r>
       <r>    8.5936    0.0000 </r>
       <r>   10.8095    0.0000 </r>
       <r>   14.1055    0.0000 </r>
       <r>   17.9890    0.0000 </r>
       <r>   20.0023    0.0000 </r>
       <r>   21.0495    0.0000 </r>
      </set>
      <set comment="kpoint 42">
       <r>    3.4434    1.0000 </r>
       <r>    4.0545    1.0000 </r>
       <r>    5.6345    1.0000 </r>
       <r>    8.4695    0.0000 </r>
       <r>   11.7424    0.0000 </r>
       <r>   15.3434    0.0000 </r>
       <r>   15.6222    0.0000 </r>
       <r>   19.9993    0.0000 </r>
       <r>   21.6641    0.0000 </r>
      </set>
      <set comment="kpoint 43">
       <r>    2.7566    1.0000 </r>
       <r>    4.0817    1.0000 </r>
       <r>    5.3968    1.0000 </r>
       <r>    9.1247    0.0000 </r>
       <r>   10.8104    0.0000 </r>
       <r>   13.6796    0.0000 </r>
       <r>   18.2904    0.0000 </r>
       <r>   20.0037    0.0000 </r>
       <r>   21.4705    0.0000 </r>
      </set>
      <set comment="kpoint 44">
       <r>    2.3100    1.0000 </r>
       <r>    3.8940    1.0000 </r>
       <r>    6.0086    1.0000 </r>
       <r>    8.8524    0.0000 </r>
       <r>   12.0702    0.0000 </r>
       <r>   12.4840    0.0000 </r>
       <r>   18.1427    0.0000 </r>
       <r>   20.0024    0.0000 </r>
       <r>   22.3829    0.0000 </r>
      </set>
      <set comment="kpoint 45">
       <r>    2.7781    1.0000 </r>
       <r>    3.7839    1.0000 </r>
       <r>    5.9722    1.0000 </r>
       <r>    9.6385    0.0000 </r>
       <r>   11.9140    0.0000 </r>
       <r>   14.5062    0.0000 </r>
       <r>   17.1168    0.0000 </r>
       <r>   19.8083    0.0000 </r>
       <r>   20.0088    0.0000 </r>
      </set>
      <set comment="kpoint 46">
       <r>    3.2327    1.0000 </r>
       <r>    4.4368    1.0000 </r>
       <r>    5.4913    1.0000 </r>
       <r>    8.5654    0.0000 </r>
       <r>   12.7584    0.0000 </r>
       <r>   15.9049    0.0000 </r>
       <r>   16.6749    0.0000 </r>
       <r>   18.4065    0.0000 </r>
       <r>   20.0045    0.0000 </r>
      </set>
      <set comment="kpoint 47">
       <r>    3.4820    1.0000 </r>
       <r>    4.3621    1.0000 </r>
       <r>    5.0699    1.0000 </r>
       <r>    8.8048    0.0000 </r>
       <r>   11.8537    0.0000 </r>
       <r>   14.7756    0.0000 </r>
       <r>   17.3510    0.0000 </r>
       <r>   19.6978    0.0000 </r>
       <r>   20.0099    0.0000 </r>
      </set>
      <set comment="kpoint 48">
       <r>    2.2795    1.0000 </r>
       <r>    3.3412    1.0000 </r>
       <r>    7.3996    0.0000 </r>
       <r>   10.4156    0.0000 </r>
       <r>   12.4763    0.0000 </r>
       <r>   14.8460    0.0000 </r>
       <r>   15.5691    0.0000 </r>
       <r>   19.9842    0.0000 </r>
       <r>   20.6857    0.0000 </r>
      </set>
      <set comment="kpoint 49">
       <r>    2.6246    1.0000 </r>
       <r>    3.6366    1.0000 </r>
       <r>    6.6934    0.0000 </r>
       <r>    9.6260    0.0000 </r>
       <r>   12.7733    0.0000 </r>
       <r>   15.5321    0.0000 </r>
       <r>   16.2075    0.0000 </r>
       <r>   18.6036    0.0000 </r>
       <r>   20.0024    0.0000 </r>
      </set>
      <set comment="kpoint 50">
       <r>    2.3806    1.0000 </r>
       <r>    3.5232    1.0000 </r>
       <r>    6.6876    0.0000 </r>
       <r>    9.6991    0.0000 </r>
       <r>   12.6661    0.0000 </r>
       <r>   13.7359    0.0000 </r>
       <r>   16.3961    0.0000 </r>
       <r>   19.9977    0.0000 </r>
       <r>   21.1527    0.0000 </r>
      </set>
      <set comment="kpoint 51">
       <r>    0.7616    1.0000 </r>
       <r>    5.5632    1.0000 </r>
       <r>    6.8644    0.0000 </r>
       <r>    6.8644    0.0000 </r>
       <r>   10.5664    0.0000 </r>
       <r>   10.5664    0.0000 </r>
       <r>   18.0745    0.0000 </r>
       <r>   19.9968    0.0000 </r>
       <r>   22.3293    0.0000 </r>
      </set>
      <set comment="kpoint 52">
       <r>    1.6666    1.0000 </r>
       <r>    5.4295    1.0000 </r>
       <r>    6.1165    1.0353 </r>
       <r>    7.1333    0.0000 </r>
       <r>   10.1302    0.0000 </r>
       <r>   12.6470    0.0000 </r>
       <r>   18.3765    0.0000 </r>
       <r>   20.0003    0.0000 </r>
       <r>   21.2665    0.0000 </r>
      </set>
      <set comment="kpoint 53">
       <r>    3.2325    1.0000 </r>
       <r>    4.6441    1.0000 </r>
       <r>    5.3188    1.0000 </r>
       <r>    8.0989    0.0000 </r>
       <r>   10.2705    0.0000 </r>
       <r>   13.8811    0.0000 </r>
       <r>   18.3136    0.0000 </r>
       <r>   20.0032    0.0000 </r>
       <r>   21.5171    0.0000 </r>
      </set>
      <set comment="kpoint 54">
       <r>    3.1433    1.0000 </r>
       <r>    4.0721    1.0000 </r>
       <r>    6.0842    1.0128 </r>
       <r>    8.9951    0.0000 </r>
       <r>   11.4849    0.0000 </r>
       <r>   13.6383    0.0000 </r>
       <r>   17.8048    0.0000 </r>
       <r>   19.9848    0.0000 </r>
       <r>   20.3189    0.0000 </r>
      </set>
      <set comment="kpoint 55">
       <r>    1.8130    1.0000 </r>
       <r>    5.3662    1.0000 </r>
       <r>    6.1842    0.3685 </r>
       <r>    7.1367    0.0000 </r>
       <r>   11.7977    0.0000 </r>
       <r>   12.2994    0.0000 </r>
       <r>   17.5334    0.0000 </r>
       <r>   19.9980    0.0000 </r>
       <r>   20.4757    0.0000 </r>
      </set>
      <set comment="kpoint 56">
       <r>    2.8991    1.0000 </r>
       <r>    4.5318    1.0000 </r>
       <r>    5.7300    1.0000 </r>
       <r>    7.9463    0.0000 </r>
       <r>   11.5008    0.0000 </r>
       <r>   14.1428    0.0000 </r>
       <r>   16.6041    0.0000 </r>
       <r>   20.0011    0.0000 </r>
       <r>   21.8513    0.0000 </r>
      </set>
      <set comment="kpoint 57">
       <r>    3.4701    1.0000 </r>
       <r>    4.1677    1.0000 </r>
       <r>    5.5497    1.0000 </r>
       <r>    8.6878    0.0000 </r>
       <r>   11.9042    0.0000 </r>
       <r>   14.5733    0.0000 </r>
       <r>   17.4006    0.0000 </r>
       <r>   19.7699    0.0000 </r>
       <r>   20.0228    0.0000 </r>
      </set>
      <set comment="kpoint 58">
       <r>    2.9517    1.0000 </r>
       <r>    4.2185    1.0000 </r>
       <r>    6.0631    1.0031 </r>
       <r>    8.3495    0.0000 </r>
       <r>   12.0757    0.0000 </r>
       <r>   14.0990    0.0000 </r>
       <r>   16.0908    0.0000 </r>
       <r>   19.9998    0.0000 </r>
       <r>   21.7009    0.0000 </r>
      </set>
      <set comment="kpoint 59">
       <r>    1.3623    1.0000 </r>
       <r>    6.4565    0.0000 </r>
       <r>    6.4565    0.0000 </r>
       <r>    6.7513    0.0000 </r>
       <r>   12.0709    0.0000 </r>
       <r>   12.0709    0.0000 </r>
       <r>   17.0594    0.0000 </r>
       <r>   18.9884    0.0000 </r>
       <r>   20.0054    0.0000 </r>
      </set>
      <set comment="kpoint 60">
       <r>    1.9768    1.0000 </r>
       <r>    5.4737    1.0000 </r>
       <r>    6.6988    0.0000 </r>
       <r>    6.8957    0.0000 </r>
       <r>   11.9595    0.0000 </r>
       <r>   13.3034    0.0000 </r>
       <r>   16.4854    0.0000 </r>
       <r>   19.8233    0.0000 </r>
       <r>   20.0022    0.0000 </r>
      </set>
     </set>
    </set>
   </array>
  </eigenvalues>
  <separator name="orbital magnetization" >
   <v name="MAGDIPOLOUT">      0.00000000      0.00000000      0.00000000</v>
  </separator>
  <dos>
   <i name="efermi">      6.17634320 </i>
   <total>
    <array>
     <dimension dim="1">gridpoints</dimension>
     <dimension dim="2">spin</dimension>
     <field>energy</field>
     <field>total</field>
     <field>integrated</field>
     <set>
      <set comment="spin 1">
       <r>    -3.2366     0.0000     0.0000 </r>
       <r>    -3.1420     0.0000     0.0000 </r>
       <r>    -3.0474     0.0000     0.0000 </r>
       <r>    -2.9528     0.0000     0.0000 </r>
       <r>    -2.8583     0.0000     0.0000 </r>
       <r>    -2.7637     0.0000     0.0000 </r>
       <r>    -2.6691     0.0000     0.0000 </r>
       <r>    -2.5745     0.0000     0.0000 </r>
       <r>    -2.4800     0.0000     0.0000 </r>
       <r>    -2.3854     0.0000     0.0000 </r>
       <r>    -2.2908     0.0000     0.0000 </r>
       <r>    -2.1962     0.0000     0.0000 </r>
       <r>    -2.1016     0.0000     0.0000 </r>
       <r>    -2.0071    -0.0015    -0.0001 </r>
       <r>    -1.9125     0.0405     0.0037 </r>
       <r>    -1.8179     0.0023     0.0039 </r>
       <r>    -1.7233     0.0000     0.0039 </r>
       <r>    -1.6288    -0.0007     0.0038 </r>
       <r>    -1.5342     0.0393     0.0076 </r>
       <r>    -1.4396     0.0878     0.0159 </r>
       <r>    -1.3450    -0.0025     0.0156 </r>
       <r>    -1.2504    -0.0001     0.0156 </r>
       <r>    -1.1559     0.0098     0.0165 </r>
       <r>    -1.0613     0.1186     0.0278 </r>
       <r>    -0.9667    -0.0043     0.0273 </r>
       <r>    -0.8721    -0.0003     0.0273 </r>
       <r>    -0.7776     0.0115     0.0284 </r>
       <r>    -0.6830     0.1567     0.0432 </r>
       <r>    -0.5884    -0.0027     0.0430 </r>
       <r>    -0.4938    -0.0006     0.0429 </r>
       <r>    -0.3992     0.0410     0.0468 </r>
       <r>    -0.3047     0.2148     0.0671 </r>
       <r>    -0.2101    -0.0077     0.0664 </r>
       <r>    -0.1155     0.0182     0.0681 </r>
       <r>    -0.0209     0.1098     0.0785 </r>
       <r>     0.0736    -0.0039     0.0781 </r>
       <r>     0.1682    -0.0003     0.0781 </r>
       <r>     0.2628     0.0166     0.0797 </r>
       <r>     0.3574     0.2375     0.1021 </r>
       <r>     0.4520     0.0666     0.1084 </r>
       <r>     0.5465     0.0438     0.1126 </r>
       <r>     0.6411     0.2350     0.1348 </r>
       <r>     0.7357     0.0212     0.1368 </r>
       <r>     0.8303     0.1474     0.1507 </r>
       <r>     0.9249     0.0173     0.1524 </r>
       <r>     1.0194    -0.0003     0.1523 </r>
       <r>     1.1140    -0.0175     0.1507 </r>
       <r>     1.2086     0.5050     0.1984 </r>
       <r>     1.3032     0.2228     0.2195 </r>
       <r>     1.3977     0.0860     0.2277 </r>
       <r>     1.4923     0.1108     0.2381 </r>
       <r>     1.5869     0.2115     0.2581 </r>
       <r>     1.6815     0.3558     0.2918 </r>
       <r>     1.7761     0.2964     0.3198 </r>
       <r>     1.8706     0.5109     0.3681 </r>
       <r>     1.9652     0.2787     0.3945 </r>
       <r>     2.0598     0.4460     0.4367 </r>
       <r>     2.1544     0.6088     0.4943 </r>
       <r>     2.2489     0.2308     0.5161 </r>
       <r>     2.3435     0.4899     0.5624 </r>
       <r>     2.4381     0.3471     0.5953 </r>
       <r>     2.5327     0.0547     0.6004 </r>
       <r>     2.6273     0.4511     0.6431 </r>
       <r>     2.7218     0.3042     0.6719 </r>
       <r>     2.8164     0.9485     0.7616 </r>
       <r>     2.9110     0.4727     0.8063 </r>
       <r>     3.0056     0.3892     0.8431 </r>
       <r>     3.1001     0.4321     0.8840 </r>
       <r>     3.1947     0.1212     0.8954 </r>
       <r>     3.2893     0.6217     0.9542 </r>
       <r>     3.3839     0.2064     0.9737 </r>
       <r>     3.4785     0.7607     1.0457 </r>
       <r>     3.5730     0.4837     1.0914 </r>
       <r>     3.6676     0.6360     1.1516 </r>
       <r>     3.7622     0.0377     1.1551 </r>
       <r>     3.8568     0.4664     1.1993 </r>
       <r>     3.9513     0.3401     1.2314 </r>
       <r>     4.0459     0.2566     1.2557 </r>
       <r>     4.1405     0.7986     1.3312 </r>
       <r>     4.2351     0.5701     1.3851 </r>
       <r>     4.3297     0.0923     1.3939 </r>
       <r>     4.4242     0.9564     1.4843 </r>
       <r>     4.5188     0.6508     1.5459 </r>
       <r>     4.6134     0.2005     1.5648 </r>
       <r>     4.7080     0.2981     1.5930 </r>
       <r>     4.8025     0.2886     1.6203 </r>
       <r>     4.8971     0.6285     1.6798 </r>
       <r>     4.9917     0.9081     1.7657 </r>
       <r>     5.0863     0.2624     1.7905 </r>
       <r>     5.1809     0.3348     1.8222 </r>
       <r>     5.2754     0.6087     1.8797 </r>
       <r>     5.3700     0.4552     1.9228 </r>
       <r>     5.4646     0.8442     2.0026 </r>
       <r>     5.5592     0.7208     2.0708 </r>
       <r>     5.6537     0.6406     2.1314 </r>
       <r>     5.7483     0.8224     2.2092 </r>
       <r>     5.8429     0.5145     2.2578 </r>
       <r>     5.9375     0.2866     2.2849 </r>
       <r>     6.0321     0.8588     2.3661 </r>
       <r>     6.1266     1.1444     2.4744 </r>
       <r>     6.2212     0.3790     2.5102 </r>
       <r>     6.3158     0.4171     2.5497 </r>
       <r>     6.4104     0.2599     2.5743 </r>
       <r>     6.5049     0.7077     2.6412 </r>
       <r>     6.5995     0.7400     2.7112 </r>
       <r>     6.6941     0.5764     2.7657 </r>
       <r>     6.7887     0.4889     2.8119 </r>
       <r>     6.8833     0.6338     2.8719 </r>
       <r>     6.9778     0.5597     2.9248 </r>
       <r>     7.0724     0.4057     2.9632 </r>
       <r>     7.1670     1.1653     3.0734 </r>
       <r>     7.2616     0.2221     3.0944 </r>
       <r>     7.3561     0.4444     3.1364 </r>
       <r>     7.4507     0.5670     3.1901 </r>
       <r>     7.5453     0.4149     3.2293 </r>
       <r>     7.6399     0.1921     3.2475 </r>
       <r>     7.7345     0.4078     3.2860 </r>
       <r>     7.8290     0.1057     3.2960 </r>
       <r>     7.9236     0.3519     3.3293 </r>
       <r>     8.0182     0.8007     3.4050 </r>
       <r>     8.1128     0.6215     3.4638 </r>
       <r>     8.2074     0.2158     3.4842 </r>
       <r>     8.3019     0.1066     3.4943 </r>
       <r>     8.3965     0.3236     3.5249 </r>
       <r>     8.4911     0.6045     3.5821 </r>
       <r>     8.5857     0.6963     3.6480 </r>
       <r>     8.6802     0.5142     3.6966 </r>
       <r>     8.7748     0.3268     3.7275 </r>
       <r>     8.8694     0.9704     3.8193 </r>
       <r>     8.9640     0.1868     3.8370 </r>
       <r>     9.0586     0.3648     3.8715 </r>
       <r>     9.1531     0.5571     3.9241 </r>
       <r>     9.2477     0.2553     3.9483 </r>
       <r>     9.3423     0.0518     3.9532 </r>
       <r>     9.4369     0.0044     3.9536 </r>
       <r>     9.5314     0.4810     3.9991 </r>
       <r>     9.6260     0.3980     4.0367 </r>
       <r>     9.7206     1.0162     4.1328 </r>
       <r>     9.8152     0.3304     4.1641 </r>
       <r>     9.9098     0.4581     4.2074 </r>
       <r>    10.0043     0.2081     4.2271 </r>
       <r>    10.0989    -0.0019     4.2269 </r>
       <r>    10.1935     0.2272     4.2484 </r>
       <r>    10.2881     0.2768     4.2746 </r>
       <r>    10.3826     0.3498     4.3077 </r>
       <r>    10.4772     0.1319     4.3201 </r>
       <r>    10.5718     0.2989     4.3484 </r>
       <r>    10.6664     0.1514     4.3627 </r>
       <r>    10.7610     0.2987     4.3910 </r>
       <r>    10.8555     1.1462     4.4994 </r>
       <r>    10.9501     0.3454     4.5321 </r>
       <r>    11.0447     0.5886     4.5877 </r>
       <r>    11.1393     0.4780     4.6329 </r>
       <r>    11.2338     0.1236     4.6446 </r>
       <r>    11.3284     0.1864     4.6623 </r>
       <r>    11.4230     0.0514     4.6671 </r>
       <r>    11.5176     0.3034     4.6958 </r>
       <r>    11.6122     0.3653     4.7304 </r>
       <r>    11.7067     0.2987     4.7586 </r>
       <r>    11.8013     0.5580     4.8114 </r>
       <r>    11.8959     1.2019     4.9251 </r>
       <r>    11.9905     0.8688     5.0072 </r>
       <r>    12.0850     0.5346     5.0578 </r>
       <r>    12.1796     0.8050     5.1339 </r>
       <r>    12.2742     0.2360     5.1563 </r>
       <r>    12.3688     0.1970     5.1749 </r>
       <r>    12.4634     0.2806     5.2014 </r>
       <r>    12.5579     0.4134     5.2405 </r>
       <r>    12.6525     0.4003     5.2784 </r>
       <r>    12.7471     0.4247     5.3186 </r>
       <r>    12.8417     0.6406     5.3791 </r>
       <r>    12.9362     0.6451     5.4402 </r>
       <r>    13.0308     0.0974     5.4494 </r>
       <r>    13.1254    -0.0035     5.4490 </r>
       <r>    13.2200     0.0722     5.4559 </r>
       <r>    13.3146     0.2119     5.4759 </r>
       <r>    13.4091     0.1095     5.4863 </r>
       <r>    13.5037     0.6598     5.5487 </r>
       <r>    13.5983     0.0546     5.5538 </r>
       <r>    13.6929     0.5592     5.6067 </r>
       <r>    13.7874     0.4757     5.6517 </r>
       <r>    13.8820     0.4091     5.6904 </r>
       <r>    13.9766     0.0531     5.6954 </r>
       <r>    14.0712     0.0060     5.6960 </r>
       <r>    14.1658     0.7823     5.7700 </r>
       <r>    14.2603     0.0790     5.7774 </r>
       <r>    14.3549     0.0194     5.7793 </r>
       <r>    14.4495     0.3570     5.8130 </r>
       <r>    14.5441     0.3813     5.8491 </r>
       <r>    14.6386     0.2378     5.8716 </r>
       <r>    14.7332     0.2465     5.8949 </r>
       <r>    14.8278     0.2750     5.9209 </r>
       <r>    14.9224     0.0961     5.9300 </r>
       <r>    15.0170    -0.0034     5.9297 </r>
       <r>    15.1115     0.0000     5.9297 </r>
       <r>    15.2061    -0.0001     5.9297 </r>
       <r>    15.3007    -0.0015     5.9295 </r>
       <r>    15.3953     0.2560     5.9538 </r>
[...]
       </set>
       <set comment="band 6">
        <r>  0.1296  0.0088  0.1960  0.0101  0.0022  0.5204  0.0706  0.0150  0.0367 </r>
       </set>
       <set comment="band 7">
        <r>  0.2817  0.1187  0.0924  0.0872  0.0249  0.0005  0.0015  0.0481  0.1550 </r>
       </set>
       <set comment="band 8">
        <r>  1.4315  0.0353  0.0313  0.5062  0.0646  0.0017  0.0042  0.1204  0.0546 </r>
       </set>
       <set comment="band 9">
        <r> 42.6615  0.0041  0.0010  0.0185  0.0021  0.0000  0.0000  0.0039  0.0042 </r>
       </set>
      </set>
      <set comment="kpoint 46">
       <set comment="band 1">
        <r>  0.0133  0.1206  0.0030  0.0002  0.0090  0.0000  0.6589  0.0000  0.0937 </r>
       </set>
       <set comment="band 2">
        <r>  0.0132  0.0064  0.0027  0.1825  0.7759  0.0092  0.0016  0.0039  0.0055 </r>
       </set>
       <set comment="band 3">
        <r>  0.0185  0.0003  0.2876  0.0038  0.0145  0.6493  0.0002  0.0048  0.0089 </r>
       </set>
       <set comment="band 4">
        <r>  0.1566  0.0100  0.0155  0.0055  0.0040  0.0080  0.0924  0.0020  0.6184 </r>
       </set>
       <set comment="band 5">
        <r>  0.0075  0.0000  0.0097  0.0131  0.0150  0.0296  0.0000  0.9013  0.0000 </r>
       </set>
       <set comment="band 6">
        <r>  0.4006  0.0020  0.0982  0.0493  0.0312  0.0999  0.0463  0.0543  0.1173 </r>
       </set>
       <set comment="band 7">
        <r>  0.0213  0.0155  0.3546  0.2126  0.0818  0.1958  0.0090  0.0008  0.0402 </r>
       </set>
       <set comment="band 8">
        <r>  0.1048  0.0007  0.1146  0.3782  0.0991  0.0416  0.0447  0.0317  0.0926 </r>
       </set>
       <set comment="band 9">
        <r> 44.1895  0.0001  0.0001  0.0004  0.0001  0.0000  0.0001  0.0000  0.0008 </r>
       </set>
      </set>
      <set comment="kpoint 47">
       <set comment="band 1">
        <r>  0.0406  0.1211  0.0002  0.0402  0.0046  0.0239  0.3962  0.0012  0.2726 </r>
       </set>
       <set comment="band 2">
        <r>  0.0532  0.0082  0.1304  0.0366  0.1513  0.5233  0.0577  0.0304  0.0025 </r>
       </set>
       <set comment="band 3">
        <r>  0.0699  0.0028  0.0577  0.1640  0.4260  0.2283  0.0396  0.0012  0.0005 </r>
       </set>
       <set comment="band 4">
        <r>  0.0486  0.0111  0.0043  0.0820  0.0156  0.0000  0.2333  0.0198  0.5117 </r>
       </set>
       <set comment="band 5">
        <r>  0.0171  0.0004  0.0434  0.0000  0.0277  0.0820  0.0029  0.7748  0.0050 </r>
       </set>
       <set comment="band 6">
        <r>  0.3123  0.0037  0.0073  0.1527  0.3331  0.0009  0.0163  0.0275  0.0752 </r>
       </set>
       <set comment="band 7">
        <r>  0.1537  0.0608  0.1721  0.1505  0.0286  0.0737  0.1699  0.0642  0.0224 </r>
       </set>
       <set comment="band 8">
        <r>  0.8624  0.0282  0.4166  0.0950  0.0215  0.1087  0.0747  0.1084  0.0311 </r>
       </set>
       <set comment="band 9">
        <r> 43.3246  0.0017  0.0095  0.0026  0.0003  0.0023  0.0038  0.0021  0.0012 </r>
       </set>
      </set>
      <set comment="kpoint 48">
       <set comment="band 1">
        <r>  0.0990  0.0096  0.0043  0.0096  0.0992  0.0003  0.7069  0.0003  0.0000 </r>
       </set>
       <set comment="band 2">
        <r>  0.0003  0.0511  0.0000  0.0511  0.8413  0.0008  0.0646  0.0008  0.0000 </r>
       </set>
       <set comment="band 3">
        <r>  0.0186  0.0001  0.5402  0.0001  0.0038  0.2018  0.0094  0.2018  0.0000 </r>
       </set>
       <set comment="band 4">
        <r>  0.0000  0.0376  0.0000  0.0376  0.0000  0.0301  0.0000  0.0301  0.8036 </r>
       </set>
       <set comment="band 5">
        <r>  0.0000  0.0001  0.0000  0.0001  0.0000  0.4528  0.0000  0.4528  0.0662 </r>
       </set>
       <set comment="band 6">
        <r>  0.3005  0.1416  0.1166  0.1416  0.0522  0.0290  0.0000  0.0290  0.0000 </r>
       </set>
       <set comment="band 7">
        <r>  0.1428  0.0057  0.2440  0.0057  0.0030  0.2855  0.0221  0.2855  0.0000 </r>
       </set>
       <set comment="band 8">
        <r> 42.2827  0.0040  0.0010  0.0040  0.0006  0.0004  0.0082  0.0004  0.0000 </r>
       </set>
       <set comment="band 9">
        <r>  2.0935  0.1221  0.0369  0.1227  0.0154  0.0103  0.4326  0.0103  0.0000 </r>
       </set>
      </set>
      <set comment="kpoint 49">
       <set comment="band 1">
        <r>  0.0689  0.0648  0.0042  0.0000  0.0239  0.0003  0.7360  0.0001  0.0148 </r>
       </set>
       <set comment="band 2">
        <r>  0.0008  0.0101  0.0000  0.0994  0.8854  0.0004  0.0145  0.0015  0.0011 </r>
       </set>
       <set comment="band 3">
        <r>  0.0224  0.0008  0.4278  0.0001  0.0016  0.4972  0.0054  0.0118  0.0104 </r>
       </set>
       <set comment="band 4">
        <r>  0.0839  0.0544  0.0226  0.0030  0.0007  0.0022  0.0169  0.0042  0.7294 </r>
       </set>
       <set comment="band 5">
        <r>  0.0064  0.0004  0.0055  0.0149  0.0066  0.0583  0.0000  0.8827  0.0015 </r>
       </set>
       <set comment="band 6">
        <r>  0.0846  0.0001  0.3717  0.0007  0.0000  0.4389  0.0267  0.0643  0.0017 </r>
       </set>
       <set comment="band 7">
        <r>  0.3267  0.0601  0.0593  0.1715  0.0428  0.0182  0.0100  0.0086  0.1435 </r>
       </set>
       <set comment="band 8">
        <r>  0.0884  0.0132  0.0244  0.5078  0.0638  0.0059  0.0414  0.0248  0.0772 </r>
       </set>
       <set comment="band 9">
        <r> 44.0211  0.0013  0.0000  0.0007  0.0000  0.0000  0.0000  0.0000  0.0012 </r>
       </set>
      </set>
      <set comment="kpoint 50">
       <set comment="band 1">
        <r>  0.1479  0.0075  0.0423  0.0075  0.1273  0.0049  0.5917  0.0049  0.0000 </r>
       </set>
       <set comment="band 2">
        <r>  0.0000  0.0538  0.0005  0.0538  0.7810  0.0068  0.0962  0.0068  0.0000 </r>
       </set>
       <set comment="band 3">
        <r>  0.1054  0.0003  0.4004  0.0003  0.0330  0.1714  0.0912  0.1714  0.0000 </r>
       </set>
       <set comment="band 4">
        <r>  0.0000  0.0349  0.0000  0.0349  0.0000  0.1360  0.0000  0.1360  0.6002 </r>
       </set>
       <set comment="band 5">
        <r>  0.0000  0.0002  0.0000  0.0002  0.0000  0.3363  0.0000  0.3363  0.3133 </r>
       </set>
       <set comment="band 6">
        <r>  0.0019  0.0732  0.2729  0.0732  0.0281  0.2146  0.0694  0.2146  0.0000 </r>
       </set>
       <set comment="band 7">
        <r>  0.3736  0.0920  0.0124  0.0920  0.0296  0.1030  0.0106  0.1030  0.0000 </r>
       </set>
       <set comment="band 8">
        <r> 43.8622  0.0005  0.0003  0.0005  0.0001  0.0003  0.0002  0.0003  0.0000 </r>
       </set>
       <set comment="band 9">
        <r>  0.0000  0.3111  0.0000  0.3108  0.0000  0.0269  0.0000  0.0268  0.1237 </r>
       </set>
      </set>
      <set comment="kpoint 51">
       <set comment="band 1">
        <r>  0.5907  0.0369  0.0369  0.0369  0.0864  0.0864  0.0000  0.0864  0.0000 </r>
       </set>
       <set comment="band 2">
        <r>  0.0369  0.1106  0.1106  0.1106  0.1912  0.1912  0.0000  0.1912  0.0000 </r>
       </set>
       <set comment="band 3">
        <r>  0.0000  0.0017  0.0020  0.0002  0.2696  0.0255  0.3571  0.2296  0.1062 </r>
       </set>
       <set comment="band 4">
        <r>  0.0000  0.0009  0.0006  0.0024  0.0802  0.3243  0.1062  0.1202  0.3571 </r>
       </set>
       <set comment="band 5">
        <r>  0.0000  0.0021  0.0086  0.0022  0.2965  0.0750  0.4942  0.0733  0.0000 </r>
       </set>
       <set comment="band 6">
        <r>  0.0000  0.0065  0.0000  0.0064  0.0000  0.2215  0.0000  0.2233  0.4942 </r>
       </set>
       <set comment="band 7">
        <r>  0.0814  0.0161  0.0161  0.0161  0.0241  0.0241  0.0000  0.0241  0.0000 </r>
       </set>
       <set comment="band 8">
        <r> 43.8279  0.0001  0.0001  0.0001  0.0000  0.0000  0.0000  0.0000  0.0000 </r>
       </set>
       <set comment="band 9">
        <r>  0.3655  0.0774  0.0774  0.0774  0.1320  0.1320  0.0000  0.1320  0.0000 </r>
       </set>
      </set>
      <set comment="kpoint 52">
       <set comment="band 1">
        <r>  0.4770  0.0666  0.0666  0.0000  0.0992  0.1671  0.0009  0.0992  0.0027 </r>
       </set>
       <set comment="band 2">
        <r>  0.0329  0.1103  0.1103  0.1568  0.2137  0.0223  0.0183  0.2137  0.0550 </r>
       </set>
       <set comment="band 3">
        <r>  0.0058  0.0036  0.0036  0.0166  0.0874  0.2989  0.1155  0.0874  0.3466 </r>
       </set>
       <set comment="band 4">
        <r>  0.0000  0.0023  0.0023  0.0000  0.1722  0.0000  0.4688  0.1722  0.1563 </r>
       </set>
       <set comment="band 5">
        <r>  0.0000  0.0062  0.0062  0.0000  0.3101  0.0000  0.2338  0.3101  0.0779 </r>
       </set>
       <set comment="band 6">
        <r>  0.0283  0.0326  0.0326  0.0030  0.0149  0.4466  0.1031  0.0149  0.3092 </r>
       </set>
       <set comment="band 7">
        <r>  0.1681  0.0462  0.0462  0.0291  0.0384  0.1165  0.0118  0.0384  0.0355 </r>
       </set>
       <set comment="band 8">
        <r> 43.8601  0.0000  0.0000  0.0000  0.0000  0.0003  0.0001  0.0000  0.0002 </r>
       </set>
       <set comment="band 9">
        <r>  0.3560  0.0834  0.0834  0.0221  0.0634  0.0132  0.0023  0.0634  0.0069 </r>
       </set>
      </set>
      <set comment="kpoint 53">
       <set comment="band 1">
        <r>  0.3103  0.0922  0.0922  0.0087  0.0338  0.4250  0.0004  0.0338  0.0013 </r>
       </set>
       <set comment="band 2">
        <r>  0.0009  0.0831  0.0831  0.0020  0.0000  0.0779  0.1599  0.0000  0.4798 </r>
       </set>
       <set comment="band 3">
        <r>  0.0072  0.0150  0.0150  0.2348  0.3359  0.0410  0.0006  0.3359  0.0019 </r>
       </set>
       <set comment="band 4">
        <r>  0.0000  0.0189  0.0189  0.0000  0.0332  0.0000  0.6308  0.0332  0.2103 </r>
       </set>
       <set comment="band 5">
        <r>  0.0000  0.0016  0.0016  0.0000  0.4404  0.0000  0.0452  0.4404  0.0151 </r>
       </set>
       <set comment="band 6">
        <r>  0.2655  0.0210  0.0210  0.0040  0.0000  0.4682  0.0408  0.0000  0.1223 </r>
       </set>
       <set comment="band 7">
        <r>  0.1660  0.1379  0.1379  0.0364  0.0331  0.0000  0.0657  0.0331  0.1972 </r>
       </set>
       <set comment="band 8">
        <r> 44.1349  0.0002  0.0002  0.0003  0.0002  0.0001  0.0001  0.0002  0.0004 </r>
       </set>
       <set comment="band 9">
        <r>  0.0189  0.0135  0.0135  0.5118  0.2319  0.0002  0.0099  0.2319  0.0296 </r>
       </set>
      </set>
      <set comment="kpoint 54">
       <set comment="band 1">
        <r>  0.1070  0.0000  0.0000  0.0065  0.0045  0.4060  0.1083  0.0045  0.3250 </r>
       </set>
       <set comment="band 2">
        <r>  0.0236  0.1453  0.1453  0.0008  0.0078  0.3186  0.0741  0.0078  0.2224 </r>
       </set>
       <set comment="band 3">
        <r>  0.0044  0.0039  0.0039  0.3626  0.2872  0.0317  0.0006  0.2872  0.0018 </r>
       </set>
       <set comment="band 4">
        <r>  0.0000  0.0320  0.0320  0.0000  0.0260  0.0000  0.6157  0.0260  0.2052 </r>
       </set>
       <set comment="band 5">
        <r>  0.0000  0.0009  0.0009  0.0000  0.4497  0.0000  0.0375  0.4497  0.0125 </r>
       </set>
       <set comment="band 6">
        <r>  0.4853  0.0546  0.0546  0.0134  0.0007  0.2098  0.0036  0.0007  0.0108 </r>
       </set>
       <set comment="band 7">
        <r>  0.0584  0.0316  0.0316  0.3540  0.2174  0.0055  0.0266  0.2174  0.0798 </r>
       </set>
       <set comment="band 8">
        <r> 41.2673  0.0052  0.0052  0.0094  0.0040  0.0014  0.0037  0.0040  0.0110 </r>
       </set>
       <set comment="band 9">
        <r>  2.9555  0.1006  0.1006  0.1413  0.0548  0.0187  0.0883  0.0548  0.2648 </r>
       </set>
      </set>
      <set comment="kpoint 55">
       <set comment="band 1">
        <r>  0.3949  0.0016  0.0805  0.0016  0.2119  0.1431  0.0201  0.1431  0.0000 </r>
       </set>
       <set comment="band 2">
        <r>  0.0119  0.1276  0.0642  0.1276  0.0595  0.0585  0.3969  0.0585  0.0000 </r>
       </set>
       <set comment="band 3">
        <r>  0.0374  0.0379  0.0850  0.0379  0.4687  0.0422  0.2340  0.0422  0.0000 </r>
       </set>
       <set comment="band 4">
        <r>  0.0000  0.0108  0.0000  0.0108  0.0000  0.2108  0.0000  0.2108  0.5373 </r>
       </set>
       <set comment="band 5">
        <r>  0.0088  0.0312  0.1074  0.0312  0.1709  0.1552  0.2824  0.1552  0.0000 </r>
       </set>
       <set comment="band 6">
        <r>  0.0000  0.0020  0.0000  0.0020  0.0000  0.2747  0.0000  0.2747  0.4281 </r>
       </set>
       <set comment="band 7">
        <r>  0.2741  0.0355  0.0315  0.0355  0.0506  0.1351  0.0046  0.1351  0.0000 </r>
       </set>
       <set comment="band 8">
        <r> 43.4927  0.0000  0.0005  0.0000  0.0002  0.0001  0.0005  0.0001  0.0000 </r>
       </set>
       <set comment="band 9">
        <r>  0.7117  0.0234  0.0610  0.0234  0.0653  0.0093  0.0463  0.0093  0.0000 </r>
       </set>
      </set>
      <set comment="kpoint 56">
       <set comment="band 1">
        <r>  0.2669  0.0128  0.0944  0.0233  0.2609  0.2133  0.0411  0.0864  0.0002 </r>
       </set>
       <set comment="band 2">
        <r>  0.0003  0.1152  0.0135  0.0418  0.0069  0.0800  0.5009  0.0117  0.1273 </r>
       </set>
       <set comment="band 3">
        <r>  0.0284  0.0363  0.1143  0.1340  0.4176  0.2148  0.0107  0.0099  0.0190 </r>
       </set>
       <set comment="band 4">
        <r>  0.0001  0.0053  0.0482  0.0107  0.0241  0.0101  0.1587  0.2020  0.4964 </r>
       </set>
       <set comment="band 5">
        <r>  0.0141  0.0030  0.0237  0.0160  0.1378  0.0545  0.0692  0.4970  0.1314 </r>
       </set>
       <set comment="band 6">
        <r>  0.1093  0.0284  0.1141  0.0541  0.0244  0.4103  0.1302  0.0048  0.0914 </r>
       </set>
       <set comment="band 7">
        <r>  0.3390  0.0515  0.0531  0.0583  0.0852  0.0222  0.0041  0.1474  0.0914 </r>
       </set>
       <set comment="band 8">
        <r> 44.1019  0.0000  0.0000  0.0002  0.0001  0.0002  0.0000  0.0003  0.0000 </r>
       </set>
       <set comment="band 9">
        <r>  0.0037  0.0036  0.0423  0.0462  0.0503  0.0422  0.1293  0.0083  0.0269 </r>
       </set>
      </set>
      <set comment="kpoint 57">
       <set comment="band 1">
        <r>  0.0303  0.0789  0.0000  0.0049  0.0013  0.1256  0.3545  0.0009  0.3155 </r>
       </set>
       <set comment="band 2">
        <r>  0.0746  0.0637  0.1659  0.0085  0.0359  0.5469  0.0723  0.0096  0.0087 </r>
       </set>
       <set comment="band 3">
        <r>  0.0024  0.0044  0.0151  0.2819  0.5802  0.0535  0.0015  0.0486  0.0000 </r>
       </set>
       <set comment="band 4">
        <r>  0.0724  0.0055  0.0393  0.0086  0.0001  0.0154  0.3323  0.0179  0.4326 </r>
       </set>
       <set comment="band 5">
        <r>  0.0219  0.0002  0.0018  0.0230  0.1558  0.0169  0.0025  0.7288  0.0030 </r>
       </set>
       <set comment="band 6">
        <r>  0.4048  0.0142  0.1346  0.0101  0.0010  0.1863  0.0796  0.0293  0.0135 </r>
       </set>
       <set comment="band 7">
        <r>  0.0665  0.0209  0.0749  0.3547  0.2064  0.0163  0.0131  0.1318  0.0920 </r>
       </set>
       <set comment="band 8">
        <r>  2.9762  0.0289  0.2117  0.1782  0.0657  0.0440  0.0055  0.0545  0.2150 </r>
       </set>
       <set comment="band 9">
        <r> 41.2753  0.0030  0.0193  0.0144  0.0049  0.0035  0.0006  0.0040  0.0242 </r>
       </set>
      </set>
      <set comment="kpoint 58">
       <set comment="band 1">
        <r>  0.1828  0.0021  0.0503  0.0021  0.4445  0.0527  0.2031  0.0527  0.0000 </r>
       </set>
       <set comment="band 2">
        <r>  0.0063  0.1210  0.0000  0.1210  0.1051  0.0336  0.4953  0.0336  0.0000 </r>
       </set>
       <set comment="band 3">
        <r>  0.0273  0.0280  0.2753  0.0280  0.2234  0.1901  0.0210  0.1901  0.0000 </r>
       </set>
       <set comment="band 4">
        <r>  0.0000  0.0243  0.0000  0.0243  0.0000  0.1161  0.0000  0.1161  0.6685 </r>
       </set>
       <set comment="band 5">
        <r>  0.0000  0.0016  0.0000  0.0016  0.0000  0.3656  0.0000  0.3656  0.2308 </r>
       </set>
       <set comment="band 6">
        <r>  0.2324  0.0918  0.1487  0.0918  0.2016  0.0033  0.0766  0.0033  0.0000 </r>
       </set>
       <set comment="band 7">
        <r>  0.2928  0.0104  0.1053  0.0104  0.0008  0.2203  0.1137  0.2203  0.0000 </r>
       </set>
       <set comment="band 8">
        <r> 44.0191  0.0001  0.0003  0.0001  0.0001  0.0003  0.0000  0.0003  0.0000 </r>
       </set>
       <set comment="band 9">
        <r>  0.1118  0.0278  0.1829  0.0278  0.0000  0.0630  0.2955  0.0630  0.0000 </r>
       </set>
      </set>
      <set comment="kpoint 59">
       <set comment="band 1">
        <r>  0.3913  0.0047  0.0047  0.0047  0.2033  0.2033  0.0000  0.2033  0.0000 </r>
       </set>
       <set comment="band 2">
        <r>  0.0000  0.0003  0.0001  0.0001  0.0902  0.0471  0.1981  0.2658  0.3923 </r>
       </set>
       <set comment="band 3">
        <r>  0.0000  0.0000  0.0002  0.0002  0.1785  0.2216  0.3923  0.0029  0.1981 </r>
       </set>
       <set comment="band 4">
        <r>  0.0248  0.2586  0.2586  0.2586  0.0278  0.0278  0.0000  0.0278  0.0000 </r>
       </set>
       <set comment="band 5">
        <r>  0.0000  0.0015  0.0028  0.0002  0.3693  0.0299  0.3564  0.1899  0.0226 </r>
       </set>
       <set comment="band 6">
        <r>  0.0000  0.0016  0.0002  0.0028  0.0234  0.3628  0.0226  0.2028  0.3564 </r>
       </set>
       <set comment="band 7">
        <r>  0.3024  0.0057  0.0057  0.0057  0.1135  0.1135  0.0000  0.1135  0.0000 </r>
       </set>
       <set comment="band 8">
        <r>  0.0920  0.0336  0.0336  0.0336  0.0457  0.0457  0.0000  0.0457  0.0000 </r>
       </set>
       <set comment="band 9">
        <r> 44.1692  0.0002  0.0002  0.0002  0.0008  0.0008  0.0000  0.0008  0.0000 </r>
       </set>
      </set>
      <set comment="kpoint 60">
       <set comment="band 1">
        <r>  0.3282  0.0118  0.0118  0.0207  0.1893  0.2650  0.0003  0.1893  0.0008 </r>
       </set>
       <set comment="band 2">
        <r>  0.0003  0.0751  0.0751  0.0193  0.0212  0.0896  0.1520  0.0212  0.4559 </r>
       </set>
       <set comment="band 3">
        <r>  0.0017  0.1500  0.1500  0.2257  0.1037  0.2078  0.0041  0.1037  0.0122 </r>
       </set>
       <set comment="band 4">
        <r>  0.0000  0.0059  0.0059  0.0000  0.1712  0.0000  0.4689  0.1712  0.1563 </r>
       </set>
       <set comment="band 5">
        <r>  0.0000  0.0024  0.0024  0.0000  0.3206  0.0000  0.2400  0.3206  0.0800 </r>
       </set>
       <set comment="band 6">
        <r>  0.0222  0.0463  0.0463  0.0679  0.0429  0.3625  0.0814  0.0429  0.2443 </r>
       </set>
       <set comment="band 7">
        <r>  0.4409  0.0071  0.0071  0.0053  0.1577  0.0970  0.0052  0.1577  0.0157 </r>
       </set>
       <set comment="band 8">
        <r>  0.0548  0.0162  0.0162  0.0239  0.0178  0.0237  0.0063  0.0178  0.0188 </r>
       </set>
       <set comment="band 9">
        <r> 44.0979  0.0000  0.0000  0.0001  0.0004  0.0001  0.0000  0.0004  0.0000 </r>
       </set>
      </set>
     </set>
    </set>
   </array>
  </projected>
 </calculation>
 <structure name="finalpos" >
  <crystal>
   <varray name="basis" >
    <v>       0.00000000       2.07500000       2.07500000 </v>
    <v>       2.07500000       0.00000000       2.07500000 </v>
    <v>       2.07500000       2.07500000       0.00000000 </v>
   </varray>
   <i name="volume">     17.86834375 </i>
   <varray name="rec_basis" >
    <v>      -0.24096386       0.24096386       0.24096386 </v>
    <v>       0.24096386      -0.24096386       0.24096386 </v>
    <v>       0.24096386       0.24096386      -0.24096386 </v>
   </varray>
  </crystal>
  <varray name="positions" >
   <v>       0.00000000       0.00000000       0.00000000 </v>
  </varray>
 </structure>
</modeling>
