   4   4   1   0
  0.8797333E+01  0.2461200E-09  0.2461200E-09  0.6707900E-09  0.5000000E-15
  1.000000000000000E-004
  CAR 
 unknown system                          
     20.18641033    -16.65902377  301      4.24389375      1.00000000
    -16.659  0.0000E+00  0.0000E+00  0.0000E+00  0.0000E+00
    -16.536  0.0000E+00  0.0000E+00  0.0000E+00  0.0000E+00
    -16.413  0.0000E+00  0.0000E+00  0.0000E+00  0.0000E+00
    -16.291  0.0000E+00  0.0000E+00  0.0000E+00  0.0000E+00
    -16.168  0.0000E+00  0.0000E+00  0.0000E+00  0.0000E+00
    -16.045  0.0000E+00  0.0000E+00  0.0000E+00  0.0000E+00
    -15.922  0.0000E+00  0.0000E+00  0.0000E+00  0.0000E+00
    -15.799  0.0000E+00  0.0000E+00  0.0000E+00  0.0000E+00
    -15.676  0.0000E+00  0.0000E+00  0.0000E+00  0.0000E+00
    -15.554  0.0000E+00  0.0000E+00  0.0000E+00  0.0000E+00
    -15.431 -0.5433E-36 -0.4654E-36 -0.6673E-37 -0.5715E-37
    -15.308 -0.1236E-19 -0.1105E-19 -0.1518E-20 -0.1357E-20
    -15.185 -0.1436E-08 -0.1340E-08 -0.1763E-09 -0.1646E-09
    -15.062 -0.6061E-03 -0.5936E-03 -0.7445E-04 -0.7290E-04
    -14.940  0.4140E-01  0.4113E-01  0.5011E-02  0.4978E-02
    -14.817  0.4370E-01  0.4389E-01  0.1038E-01  0.1037E-01
    -14.694  0.3315E+00  0.3299E+00  0.5109E-01  0.5088E-01
    -14.571  0.3013E+00  0.3021E+00  0.8809E-01  0.8798E-01
    -14.448  0.3639E+00  0.3634E+00  0.1328E+00  0.1326E+00
    -14.325  0.5145E-01  0.5289E-01  0.1391E+00  0.1391E+00
    -14.203  0.3258E+00  0.3246E+00  0.1791E+00  0.1790E+00
    -14.080  0.2709E+00  0.2712E+00  0.2124E+00  0.2123E+00
    -13.957  0.7238E+00  0.7231E+00  0.3013E+00  0.3011E+00
    -13.834  0.2859E+00  0.2866E+00  0.3364E+00  0.3363E+00
    -13.711  0.3591E+00  0.3598E+00  0.3805E+00  0.3805E+00
    -13.589 -0.4069E-02 -0.3835E-02  0.3800E+00  0.3800E+00
    -13.466 -0.4722E-04 -0.4549E-04  0.3800E+00  0.3800E+00
    -13.343  0.3461E-01  0.3310E-01  0.3842E+00  0.3841E+00
    -13.220  0.8163E+00  0.8159E+00  0.4845E+00  0.4843E+00
    -13.097  0.6261E+00  0.6249E+00  0.5614E+00  0.5610E+00
    -12.974  0.4837E+00  0.4868E+00  0.6208E+00  0.6208E+00
    -12.852  0.7882E-01  0.7722E-01  0.6305E+00  0.6303E+00
    -12.729  0.4031E+00  0.4037E+00  0.6800E+00  0.6799E+00
    -12.606  0.3749E+00  0.3742E+00  0.7260E+00  0.7258E+00
    -12.483  0.1142E+00  0.1158E+00  0.7401E+00  0.7401E+00
    -12.360 -0.4277E-03 -0.4413E-03  0.7400E+00  0.7400E+00
    -12.238 -0.4385E-02 -0.4315E-02  0.7395E+00  0.7395E+00
    -12.115  0.2811E+00  0.2797E+00  0.7740E+00  0.7738E+00
    -11.992  0.3206E+00  0.3211E+00  0.8134E+00  0.8133E+00
    -11.869  0.1057E+01  0.1056E+01  0.9432E+00  0.9429E+00
    -11.746  0.6588E+00  0.6588E+00  0.1024E+01  0.1024E+01
    -11.623  0.6311E+00  0.6335E+00  0.1102E+01  0.1102E+01
    -11.501 -0.1317E-01 -0.1330E-01  0.1100E+01  0.1100E+01
    -11.378 -0.1314E-03 -0.1276E-03  0.1100E+01  0.1100E+01
    -11.255  0.6653E-01  0.6539E-01  0.1108E+01  0.1108E+01
    -11.132  0.4397E+00  0.4400E+00  0.1162E+01  0.1162E+01
    -11.009  0.4313E+00  0.4313E+00  0.1215E+01  0.1215E+01
    -10.887  0.3967E-01  0.4058E-01  0.1220E+01  0.1220E+01
    -10.764 -0.6106E-04 -0.6301E-04  0.1220E+01  0.1220E+01
    -10.641 -0.1755E-01 -0.1752E-01  0.1218E+01  0.1218E+01
    -10.518  0.7745E+00  0.7725E+00  0.1313E+01  0.1313E+01
    -10.395  0.8153E+00  0.8145E+00  0.1413E+01  0.1413E+01
    -10.272  0.3828E+00  0.3857E+00  0.1460E+01  0.1460E+01
    -10.150  0.3353E+00  0.3328E+00  0.1501E+01  0.1501E+01
    -10.027  0.9095E+00  0.9102E+00  0.1613E+01  0.1613E+01
     -9.904  0.7241E+00  0.7259E+00  0.1702E+01  0.1702E+01
     -9.781 -0.1571E-01 -0.1580E-01  0.1700E+01  0.1700E+01
     -9.658  0.1040E-03  0.4611E-04  0.1700E+01  0.1700E+01
     -9.536  0.3673E+00  0.3669E+00  0.1745E+01  0.1745E+01
     -9.413  0.1218E+00  0.1222E+00  0.1760E+01  0.1760E+01
     -9.290 -0.6045E-03 -0.6096E-03  0.1760E+01  0.1760E+01
     -9.167 -0.1165E-04 -0.1154E-04  0.1760E+01  0.1760E+01
     -9.044  0.2457E-02  0.2335E-02  0.1760E+01  0.1760E+01
     -8.921  0.8926E+00  0.8910E+00  0.1870E+01  0.1870E+01
     -8.799  0.7391E+00  0.7399E+00  0.1961E+01  0.1961E+01
     -8.676  0.3243E+00  0.3252E+00  0.2001E+01  0.2001E+01
     -8.553  0.1313E+00  0.1287E+00  0.2017E+01  0.2016E+01
     -8.430  0.3596E+00  0.3621E+00  0.2061E+01  0.2061E+01
     -8.307 -0.6637E-02 -0.6670E-02  0.2060E+01  0.2060E+01
     -8.185 -0.5702E-06 -0.5745E-06  0.2060E+01  0.2060E+01
     -8.062 -0.1727E-01 -0.1710E-01  0.2058E+01  0.2058E+01
     -7.939  0.8255E+00  0.8219E+00  0.2159E+01  0.2159E+01
     -7.816  0.1643E+00  0.1678E+00  0.2179E+01  0.2179E+01
     -7.693  0.5435E+00  0.5392E+00  0.2246E+01  0.2246E+01
     -7.570  0.1182E+01  0.1183E+01  0.2391E+01  0.2391E+01
     -7.448  0.2335E+00  0.2371E+00  0.2420E+01  0.2420E+01
     -7.325 -0.7549E-03 -0.7760E-03  0.2420E+01  0.2420E+01
     -7.202  0.4940E-01  0.4903E-01  0.2426E+01  0.2426E+01
     -7.079  0.9019E+00  0.9020E+00  0.2537E+01  0.2537E+01
     -6.956  0.2582E-01  0.2612E-01  0.2540E+01  0.2540E+01
     -6.834 -0.6731E-04 -0.6670E-04  0.2540E+01  0.2540E+01
     -6.711  0.2296E-01  0.2219E-01  0.2543E+01  0.2543E+01
     -6.588  0.5722E+00  0.5715E+00  0.2613E+01  0.2613E+01
     -6.465  0.3894E+00  0.3909E+00  0.2661E+01  0.2661E+01
     -6.342 -0.2566E-01 -0.2563E-01  0.2658E+01  0.2658E+01
     -6.219  0.9188E+00  0.9165E+00  0.2771E+01  0.2770E+01
     -6.097  0.1076E+01  0.1079E+01  0.2903E+01  0.2903E+01
     -5.974 -0.2287E-01 -0.2287E-01  0.2900E+01  0.2900E+01
     -5.851 -0.1323E-05 -0.1356E-05  0.2900E+01  0.2900E+01
     -5.728 -0.1217E-10 -0.1066E-10  0.2900E+01  0.2900E+01
     -5.605 -0.4835E-03 -0.4541E-03  0.2900E+01  0.2900E+01
     -5.483  0.2093E+00  0.2021E+00  0.2926E+01  0.2925E+01
     -5.360  0.7639E+00  0.7711E+00  0.3019E+01  0.3019E+01
     -5.237  0.1164E+01  0.1162E+01  0.3162E+01  0.3162E+01
     -5.114  0.8081E+00  0.8107E+00  0.3262E+01  0.3262E+01
     -4.991 -0.1391E-01 -0.1404E-01  0.3260E+01  0.3260E+01
     -4.868 -0.6582E-07 -0.6813E-07  0.3260E+01  0.3260E+01
     -4.746 -0.1947E-44 -0.1892E-44  0.3260E+01  0.3260E+01
     -4.623 -0.1316E-25 -0.1288E-25  0.3260E+01  0.3260E+01
     -4.500 -0.4764E-12 -0.4696E-12  0.3260E+01  0.3260E+01
     -4.377 -0.8593E-04 -0.8530E-04  0.3260E+01  0.3260E+01
     -4.254  0.5065E-01  0.5039E-01  0.3266E+01  0.3266E+01
     -4.132  0.1323E+01  0.1320E+01  0.3429E+01  0.3428E+01
     -4.009  0.1174E+01  0.1176E+01  0.3573E+01  0.3573E+01
     -3.886  0.3935E+00  0.3931E+00  0.3621E+01  0.3621E+01
     -3.763  0.1775E+01  0.1772E+01  0.3839E+01  0.3839E+01
     -3.640  0.2076E+00  0.2123E+00  0.3865E+01  0.3865E+01
     -3.517  0.4769E-01  0.4731E-01  0.3871E+01  0.3870E+01
     -3.395  0.1378E+00  0.1379E+00  0.3887E+01  0.3887E+01
     -3.272  0.7678E-01  0.7706E-01  0.3897E+01  0.3897E+01
     -3.149  0.1129E+00  0.1128E+00  0.3911E+01  0.3911E+01
     -3.026 -0.2091E-02 -0.1910E-02  0.3910E+01  0.3911E+01
     -2.903  0.2332E+00  0.2327E+00  0.3939E+01  0.3939E+01
     -2.781  0.2917E+00  0.2891E+00  0.3975E+01  0.3975E+01
     -2.658  0.2882E+01  0.2884E+01  0.4329E+01  0.4329E+01
     -2.535  0.2687E+00  0.2697E+00  0.4362E+01  0.4362E+01
     -2.412  0.1695E+00  0.1674E+00  0.4383E+01  0.4382E+01
     -2.289  0.2196E+01  0.2198E+01  0.4652E+01  0.4652E+01
     -2.166 -0.3549E-01 -0.3489E-01  0.4648E+01  0.4648E+01
     -2.044  0.3032E+00  0.3027E+00  0.4685E+01  0.4685E+01
     -1.921  0.2360E+00  0.2333E+00  0.4714E+01  0.4714E+01
     -1.798  0.2151E+01  0.2153E+01  0.4979E+01  0.4978E+01
     -1.675  0.5560E+00  0.5558E+00  0.5047E+01  0.5047E+01
     -1.552  0.4672E+00  0.4687E+00  0.5104E+01  0.5104E+01
     -1.430  0.1224E+01  0.1222E+01  0.5254E+01  0.5254E+01
     -1.307  0.1144E+01  0.1146E+01  0.5395E+01  0.5395E+01
     -1.184  0.5186E+00  0.5192E+00  0.5459E+01  0.5459E+01
     -1.061  0.1840E+00  0.1838E+00  0.5481E+01  0.5481E+01
     -0.938  0.1966E+01  0.1962E+01  0.5723E+01  0.5722E+01
     -0.815  0.5758E+00  0.5790E+00  0.5793E+01  0.5793E+01
     -0.693  0.1263E+01  0.1263E+01  0.5949E+01  0.5949E+01
     -0.570  0.3420E+00  0.3422E+00  0.5991E+01  0.5991E+01
     -0.447  0.8539E+00  0.8529E+00  0.6095E+01  0.6095E+01
     -0.324  0.2642E+00  0.2653E+00  0.6128E+01  0.6128E+01
     -0.201  0.2994E+00  0.2981E+00  0.6165E+01  0.6165E+01
     -0.079  0.5570E+00  0.5573E+00  0.6233E+01  0.6233E+01
      0.044  0.4100E+00  0.4107E+00  0.6283E+01  0.6283E+01
      0.167  0.3583E+00  0.3586E+00  0.6327E+01  0.6327E+01
      0.290  0.1573E+01  0.1570E+01  0.6521E+01  0.6520E+01
      0.413  0.7999E+00  0.8025E+00  0.6619E+01  0.6619E+01
      0.536  0.1953E+00  0.1950E+00  0.6643E+01  0.6643E+01
      0.658  0.4189E+00  0.4193E+00  0.6694E+01  0.6694E+01
      0.781  0.3297E+00  0.3293E+00  0.6735E+01  0.6735E+01
      0.904  0.1097E+01  0.1098E+01  0.6870E+01  0.6870E+01
      1.027  0.1218E+00  0.1209E+00  0.6884E+01  0.6884E+01
      1.150  0.2481E+00  0.2488E+00  0.6915E+01  0.6915E+01
      1.272  0.1273E+01  0.1272E+01  0.7071E+01  0.7071E+01
      1.395  0.5477E+00  0.5474E+00  0.7139E+01  0.7138E+01
      1.518  0.4922E+00  0.4932E+00  0.7199E+01  0.7199E+01
      1.641  0.2260E+00  0.2257E+00  0.7227E+01  0.7227E+01
      1.764  0.8146E+00  0.8147E+00  0.7327E+01  0.7327E+01
      1.887  0.4670E+00  0.4671E+00  0.7384E+01  0.7384E+01
      2.009  0.4367E+00  0.4363E+00  0.7438E+01  0.7438E+01
      2.132  0.3270E+00  0.3276E+00  0.7478E+01  0.7478E+01
      2.255  0.4337E+00  0.4334E+00  0.7531E+01  0.7531E+01
      2.378  0.1498E+00  0.1497E+00  0.7550E+01  0.7550E+01
      2.501  0.3876E+00  0.3877E+00  0.7597E+01  0.7597E+01
      2.623  0.4837E+00  0.4832E+00  0.7657E+01  0.7657E+01
      2.746  0.7398E+00  0.7398E+00  0.7747E+01  0.7747E+01
      2.869  0.2539E+00  0.2548E+00  0.7779E+01  0.7779E+01
      2.992  0.1417E+00  0.1417E+00  0.7796E+01  0.7796E+01
      3.115  0.1029E+00  0.1029E+00  0.7809E+01  0.7809E+01
      3.238  0.2605E+00  0.2605E+00  0.7841E+01  0.7841E+01
      3.360  0.2279E+00  0.2278E+00  0.7869E+01  0.7869E+01
      3.483  0.3694E+00  0.3691E+00  0.7914E+01  0.7914E+01
      3.606  0.1645E+00  0.1650E+00  0.7934E+01  0.7934E+01
      3.729  0.8362E-01  0.8358E-01  0.7945E+01  0.7945E+01
      3.852  0.3805E-01  0.3800E-01  0.7949E+01  0.7949E+01
      3.974  0.7531E-01  0.7534E-01  0.7958E+01  0.7958E+01
      4.097  0.1096E+00  0.1095E+00  0.7972E+01  0.7972E+01
      4.220  0.2084E+00  0.2084E+00  0.7998E+01  0.7998E+01
      4.343  0.2003E-01  0.2019E-01  0.8000E+01  0.8000E+01
      4.466 -0.3901E-04 -0.3947E-04  0.8000E+01  0.8000E+01
      4.589 -0.5489E-12 -0.5624E-12  0.8000E+01  0.8000E+01
      4.711  0.0000E+00  0.0000E+00  0.8000E+01  0.8000E+01
      4.834  0.0000E+00  0.0000E+00  0.8000E+01  0.8000E+01
      4.957 -0.1521E-42 -0.1499E-42  0.8000E+01  0.8000E+01
      5.080 -0.2702E-24 -0.2672E-24  0.8000E+01  0.8000E+01
      5.203 -0.2563E-11 -0.2544E-11  0.8000E+01  0.8000E+01
      5.325 -0.1177E-03 -0.1173E-03  0.8000E+01  0.8000E+01
      5.448  0.5216E-01  0.5208E-01  0.8006E+01  0.8006E+01
      5.571  0.2446E+00  0.2446E+00  0.8036E+01  0.8036E+01
      5.694  0.1394E+00  0.1394E+00  0.8054E+01  0.8054E+01
      5.817  0.1071E+00  0.1071E+00  0.8067E+01  0.8067E+01
      5.940  0.1131E+00  0.1131E+00  0.8081E+01  0.8081E+01
      6.062  0.5366E+00  0.5360E+00  0.8146E+01  0.8146E+01
      6.185  0.5832E+00  0.5834E+00  0.8218E+01  0.8218E+01
      6.308  0.3853E+00  0.3854E+00  0.8265E+01  0.8265E+01
      6.431  0.5417E-01  0.5437E-01  0.8272E+01  0.8272E+01
      6.554  0.4969E+00  0.4956E+00  0.8333E+01  0.8333E+01
      6.676  0.3972E+00  0.3977E+00  0.8382E+01  0.8382E+01
      6.799  0.2556E+00  0.2556E+00  0.8413E+01  0.8413E+01
      6.922  0.2144E+00  0.2144E+00  0.8440E+01  0.8440E+01
      7.045  0.1603E+00  0.1607E+00  0.8459E+01  0.8459E+01
      7.168  0.4672E+00  0.4672E+00  0.8517E+01  0.8517E+01
      7.291  0.7331E+00  0.7327E+00  0.8607E+01  0.8607E+01
      7.413  0.3470E+00  0.3479E+00  0.8649E+01  0.8649E+01
      7.536  0.4011E+00  0.4007E+00  0.8699E+01  0.8699E+01
      7.659  0.4034E+00  0.4036E+00  0.8748E+01  0.8748E+01
      7.782  0.4599E+00  0.4598E+00  0.8805E+01  0.8805E+01
      7.905  0.2863E+00  0.2863E+00  0.8840E+01  0.8840E+01
      8.027  0.5341E-01  0.5358E-01  0.8846E+01  0.8846E+01
      8.150  0.9401E-01  0.9414E-01  0.8858E+01  0.8858E+01
      8.273  0.9834E-01  0.9826E-01  0.8870E+01  0.8870E+01
      8.396  0.8759E-01  0.8750E-01  0.8881E+01  0.8881E+01
      8.519  0.1570E+00  0.1571E+00  0.8900E+01  0.8900E+01
      8.642 -0.7928E-02 -0.7834E-02  0.8899E+01  0.8899E+01
      8.764  0.3766E+00  0.3764E+00  0.8945E+01  0.8945E+01
      8.887  0.3068E+00  0.3070E+00  0.8983E+01  0.8983E+01
      9.010  0.2109E+00  0.2110E+00  0.9009E+01  0.9009E+01
      9.133  0.2111E+00  0.2112E+00  0.9035E+01  0.9035E+01
      9.256  0.1932E+00  0.1933E+00  0.9059E+01  0.9059E+01
      9.378  0.2524E+00  0.2527E+00  0.9090E+01  0.9090E+01
      9.501  0.6240E+00  0.6234E+00  0.9166E+01  0.9166E+01
      9.624  0.4103E+00  0.4105E+00  0.9217E+01  0.9217E+01
      9.747  0.1692E+00  0.1698E+00  0.9237E+01  0.9237E+01
      9.870  0.2642E+00  0.2639E+00  0.9270E+01  0.9270E+01
      9.993  0.3228E+00  0.3231E+00  0.9309E+01  0.9310E+01
     10.115  0.4829E-01  0.4785E-01  0.9315E+01  0.9315E+01
     10.238  0.6634E-01  0.6645E-01  0.9324E+01  0.9324E+01
     10.361  0.5423E+00  0.5424E+00  0.9390E+01  0.9390E+01
     10.484  0.1339E+00  0.1334E+00  0.9407E+01  0.9407E+01
     10.607  0.1413E+00  0.1419E+00  0.9424E+01  0.9424E+01
     10.729  0.1163E+00  0.1157E+00  0.9438E+01  0.9438E+01
     10.852  0.1288E+00  0.1291E+00  0.9454E+01  0.9454E+01
     10.975  0.1972E+00  0.1968E+00  0.9478E+01  0.9478E+01
     11.098  0.3994E+00  0.4000E+00  0.9527E+01  0.9527E+01
     11.221  0.2961E+00  0.2954E+00  0.9564E+01  0.9564E+01
     11.344 -0.1198E-01 -0.1185E-01  0.9562E+01  0.9562E+01
     11.466  0.2102E+00  0.2102E+00  0.9588E+01  0.9588E+01
     11.589  0.6283E+00  0.6295E+00  0.9665E+01  0.9665E+01
     11.712  0.5388E+00  0.5379E+00  0.9731E+01  0.9731E+01
     11.835  0.3765E+00  0.3766E+00  0.9778E+01  0.9778E+01
     11.958  0.4081E+00  0.4065E+00  0.9828E+01  0.9828E+01
     12.080  0.9349E+00  0.9337E+00  0.9943E+01  0.9942E+01
     12.203  0.4233E+00  0.4226E+00  0.9995E+01  0.9994E+01
     12.326  0.3213E+00  0.3206E+00  0.1003E+02  0.1003E+02
     12.449  0.6165E+00  0.6165E+00  0.1011E+02  0.1011E+02
     12.572  0.6697E+00  0.6700E+00  0.1019E+02  0.1019E+02
     12.695  0.5401E+00  0.5446E+00  0.1026E+02  0.1026E+02
     12.817  0.3067E+00  0.3052E+00  0.1030E+02  0.1030E+02
     12.940  0.6338E+00  0.6276E+00  0.1037E+02  0.1037E+02
     13.063  0.8161E+00  0.8155E+00  0.1047E+02  0.1047E+02
     13.186  0.1599E+01  0.1593E+01  0.1067E+02  0.1067E+02
     13.309  0.1958E+01  0.1958E+01  0.1091E+02  0.1091E+02
     13.431  0.1786E+01  0.1786E+01  0.1113E+02  0.1113E+02
     13.554  0.8021E+00  0.8151E+00  0.1123E+02  0.1123E+02
     13.677  0.8985E+00  0.8811E+00  0.1134E+02  0.1134E+02
     13.800  0.1934E+01  0.1953E+01  0.1158E+02  0.1158E+02
     13.923  0.6208E+00  0.6131E+00  0.1165E+02  0.1165E+02
     14.046  0.1276E+01  0.1283E+01  0.1181E+02  0.1181E+02
     14.168  0.9856E+00  0.9734E+00  0.1193E+02  0.1193E+02
     14.291  0.7548E+00  0.7665E+00  0.1202E+02  0.1202E+02
     14.414  0.4115E+00  0.4119E+00  0.1207E+02  0.1207E+02
     14.537  0.5678E+00  0.5675E+00  0.1214E+02  0.1214E+02
     14.660  0.3765E+00  0.3772E+00  0.1219E+02  0.1219E+02
     14.782  0.5402E-01  0.5300E-01  0.1220E+02  0.1220E+02
     14.905  0.2038E+00  0.2041E+00  0.1222E+02  0.1222E+02
     15.028  0.3517E+00  0.3511E+00  0.1226E+02  0.1226E+02
     15.151  0.1040E+01  0.1033E+01  0.1239E+02  0.1239E+02
     15.274  0.4852E+00  0.4664E+00  0.1245E+02  0.1245E+02
     15.397  0.1319E+01  0.1342E+01  0.1261E+02  0.1261E+02
     15.519  0.1306E+01  0.1302E+01  0.1277E+02  0.1277E+02
     15.642  0.1778E+00  0.1831E+00  0.1280E+02  0.1280E+02
     15.765  0.6695E+00  0.6619E+00  0.1288E+02  0.1288E+02
     15.888  0.8013E+00  0.8090E+00  0.1298E+02  0.1298E+02
     16.011  0.6262E+00  0.6206E+00  0.1305E+02  0.1305E+02
     16.133  0.1365E+01  0.1363E+01  0.1322E+02  0.1322E+02
     16.256  0.9188E+00  0.9269E+00  0.1333E+02  0.1333E+02
     16.379  0.5822E+00  0.5798E+00  0.1341E+02  0.1341E+02
     16.502  0.7055E+00  0.7111E+00  0.1349E+02  0.1349E+02
     16.625  0.5383E+00  0.5429E+00  0.1356E+02  0.1356E+02
     16.748  0.1812E+00  0.2718E+00  0.1358E+02  0.1359E+02
     16.870  0.4285E+00  0.4304E+00  0.1363E+02  0.1365E+02
     16.993  0.6476E+00  0.5458E+00  0.1371E+02  0.1371E+02
     17.116  0.1366E+00  0.1397E+00  0.1373E+02  0.1373E+02
     17.239  0.3885E+00  0.3687E+00  0.1378E+02  0.1378E+02
     17.362  0.3518E+00  0.3880E+00  0.1382E+02  0.1382E+02
     17.484  0.7086E+00  0.6906E+00  0.1391E+02  0.1391E+02
     17.607  0.1614E-01  0.1763E-01  0.1391E+02  0.1391E+02
     17.730  0.8480E-01  0.8241E-01  0.1392E+02  0.1392E+02
     17.853  0.2029E+00  0.2173E+00  0.1395E+02  0.1395E+02
     17.976  0.6301E-02 -0.5729E-02  0.1395E+02  0.1395E+02
     18.099  0.4279E-01  0.4263E-01  0.1395E+02  0.1395E+02
     18.221  0.2379E+00  0.2340E+00  0.1398E+02  0.1398E+02
     18.344  0.6259E-01  0.6667E-01  0.1399E+02  0.1399E+02
     18.467 -0.2245E-02  0.9763E-03  0.1399E+02  0.1399E+02
     18.590  0.1011E+00  0.9726E-01  0.1400E+02  0.1400E+02
     18.713 -0.2420E-02 -0.1798E-02  0.1400E+02  0.1400E+02
     18.835 -0.1002E-07 -0.3309E-08  0.1400E+02  0.1400E+02
     18.958  0.0000E+00  0.0000E+00  0.1400E+02  0.1400E+02
     19.081  0.0000E+00  0.0000E+00  0.1400E+02  0.1400E+02
     19.204  0.0000E+00  0.0000E+00  0.1400E+02  0.1400E+02
     19.327  0.0000E+00  0.0000E+00  0.1400E+02  0.1400E+02
     19.450  0.0000E+00  0.0000E+00  0.1400E+02  0.1400E+02
     19.572  0.0000E+00  0.0000E+00  0.1400E+02  0.1400E+02
     19.695  0.0000E+00  0.0000E+00  0.1400E+02  0.1400E+02
     19.818  0.0000E+00  0.0000E+00  0.1400E+02  0.1400E+02
     19.941  0.0000E+00  0.0000E+00  0.1400E+02  0.1400E+02
     20.064  0.0000E+00  0.0000E+00  0.1400E+02  0.1400E+02
     20.186  0.0000E+00  0.0000E+00  0.1400E+02  0.1400E+02
     20.18641033    -16.65902377  301      4.24389375      1.00000000
    -16.659  0.0000E+00  0.0000E+00  0.0000E+00  0.0000E+00  0.0000E+00  0.0000E+00  0.0000E+00  0.0000E+00  0.0000E+00  0.0000E+00  0.0000E+00  0.0000E+00  0.0000E+00  0.0000E+00  0.0000E+00  0.0000E+00  0.0000E+00  0.0000E+00
    -16.536  0.0000E+00  0.0000E+00  0.0000E+00  0.0000E+00  0.0000E+00  0.0000E+00  0.0000E+00  0.0000E+00  0.0000E+00  0.0000E+00  0.0000E+00  0.0000E+00  0.0000E+00  0.0000E+00  0.0000E+00  0.0000E+00  0.0000E+00  0.0000E+00
    -16.413  0.0000E+00  0.0000E+00  0.0000E+00  0.0000E+00  0.0000E+00  0.0000E+00  0.0000E+00  0.0000E+00  0.0000E+00  0.0000E+00  0.0000E+00  0.0000E+00  0.0000E+00  0.0000E+00  0.0000E+00  0.0000E+00  0.0000E+00  0.0000E+00
    -16.291  0.0000E+00  0.0000E+00  0.0000E+00  0.0000E+00  0.0000E+00  0.0000E+00  0.0000E+00  0.0000E+00  0.0000E+00  0.0000E+00  0.0000E+00  0.0000E+00  0.0000E+00  0.0000E+00  0.0000E+00  0.0000E+00  0.0000E+00  0.0000E+00
    -16.168  0.0000E+00  0.0000E+00  0.0000E+00  0.0000E+00  0.0000E+00  0.0000E+00  0.0000E+00  0.0000E+00  0.0000E+00  0.0000E+00  0.0000E+00  0.0000E+00  0.0000E+00  0.0000E+00  0.0000E+00  0.0000E+00  0.0000E+00  0.0000E+00
    -16.045  0.0000E+00  0.0000E+00  0.0000E+00  0.0000E+00  0.0000E+00  0.0000E+00  0.0000E+00  0.0000E+00  0.0000E+00  0.0000E+00  0.0000E+00  0.0000E+00  0.0000E+00  0.0000E+00  0.0000E+00  0.0000E+00  0.0000E+00  0.0000E+00
    -15.922  0.0000E+00  0.0000E+00  0.0000E+00  0.0000E+00  0.0000E+00  0.0000E+00  0.0000E+00  0.0000E+00  0.0000E+00  0.0000E+00  0.0000E+00  0.0000E+00  0.0000E+00  0.0000E+00  0.0000E+00  0.0000E+00  0.0000E+00  0.0000E+00
    -15.799  0.0000E+00  0.0000E+00  0.0000E+00  0.0000E+00  0.0000E+00  0.0000E+00  0.0000E+00  0.0000E+00  0.0000E+00  0.0000E+00  0.0000E+00  0.0000E+00  0.0000E+00  0.0000E+00  0.0000E+00  0.0000E+00  0.0000E+00  0.0000E+00
    -15.676  0.0000E+00  0.0000E+00  0.0000E+00  0.0000E+00  0.0000E+00  0.0000E+00  0.0000E+00  0.0000E+00  0.0000E+00  0.0000E+00  0.0000E+00  0.0000E+00  0.0000E+00  0.0000E+00  0.0000E+00  0.0000E+00  0.0000E+00  0.0000E+00
    -15.554  0.0000E+00  0.0000E+00  0.0000E+00  0.0000E+00  0.0000E+00  0.0000E+00  0.0000E+00  0.0000E+00  0.0000E+00  0.0000E+00  0.0000E+00  0.0000E+00  0.0000E+00  0.0000E+00  0.0000E+00  0.0000E+00  0.0000E+00  0.0000E+00
    -15.431 -0.8628E-37 -0.7390E-37 -0.3017E-50 -0.3017E-52 -0.1989E-42 -0.1699E-42 -0.9547E-50 -0.9016E-52  0.0000E+00  0.0000E+00  0.0000E+00  0.0000E+00  0.0000E+00  0.0000E+00  0.0000E+00  0.0000E+00  0.0000E+00  0.0000E+00
    -15.308 -0.1963E-20 -0.1755E-20 -0.6775E-34 -0.8134E-36 -0.7762E-26 -0.6923E-26 -0.2167E-33 -0.2197E-35  0.0000E+00  0.0000E+00  0.0000E+00  0.0000E+00  0.0000E+00  0.0000E+00  0.0000E+00  0.0000E+00  0.0000E+00  0.0000E+00
    -15.185 -0.2281E-09 -0.2130E-09 -0.7711E-23 -0.1149E-24 -0.1544E-14 -0.1437E-14 -0.2503E-22 -0.2762E-24  0.0000E+00  0.0000E+00  0.0000E+00  0.0000E+00  0.0000E+00  0.0000E+00  0.0000E+00  0.0000E+00  0.0000E+00  0.0000E+00
    -15.062 -0.9641E-04 -0.9441E-04 -0.3084E-17 -0.5829E-19 -0.1643E-08 -0.1598E-08 -0.1015E-16 -0.1282E-18  0.0000E+00  0.0000E+00  0.0000E+00  0.0000E+00  0.0000E+00  0.0000E+00  0.0000E+00  0.0000E+00  0.0000E+00  0.0000E+00
    -14.940  0.6592E-02  0.6548E-02 -0.1492E-10 -0.1398E-10  0.2105E-06  0.2075E-06 -0.4477E-10 -0.4193E-10  0.0000E+00  0.0000E+00  0.0000E+00  0.0000E+00  0.0000E+00  0.0000E+00  0.0000E+00  0.0000E+00  0.0000E+00  0.0000E+00
    -14.817  0.7043E-02  0.7073E-02 -0.3019E-05 -0.2968E-05  0.1064E-05  0.1063E-05 -0.9057E-05 -0.8904E-05  0.0000E+00  0.0000E+00  0.0000E+00  0.0000E+00  0.0000E+00  0.0000E+00  0.0000E+00  0.0000E+00  0.0000E+00  0.0000E+00
    -14.694  0.5252E-01  0.5226E-01  0.1700E-03  0.1691E-03  0.2418E-05  0.2404E-05  0.5100E-03  0.5072E-03  0.0000E+00  0.0000E+00  0.0000E+00  0.0000E+00  0.0000E+00  0.0000E+00  0.0000E+00  0.0000E+00  0.0000E+00  0.0000E+00
    -14.571  0.4796E-01  0.4809E-01  0.1795E-03  0.1798E-03  0.6493E-05  0.6490E-05  0.5385E-03  0.5395E-03  0.0000E+00  0.0000E+00  0.0000E+00  0.0000E+00  0.0000E+00  0.0000E+00  0.0000E+00  0.0000E+00  0.0000E+00  0.0000E+00
    -14.448  0.5879E-01  0.5871E-01  0.2334E-03  0.2331E-03  0.4929E-05  0.4957E-05  0.7002E-03  0.6992E-03  0.0000E+00  0.0000E+00  0.0000E+00  0.0000E+00  0.0000E+00  0.0000E+00  0.0000E+00  0.0000E+00  0.0000E+00  0.0000E+00
    -14.325  0.8428E-02  0.8660E-02 -0.3159E-05 -0.2004E-05  0.5631E-07  0.6168E-07  0.1003E-03  0.1031E-03  0.0000E+00  0.0000E+00  0.0000E+00  0.0000E+00  0.0000E+00  0.0000E+00  0.0000E+00  0.0000E+00  0.0000E+00  0.0000E+00
    -14.203  0.5003E-01  0.4983E-01  0.1810E-02  0.1803E-02  0.2088E-05  0.2071E-05  0.6039E-03  0.6016E-03  0.0000E+00  0.0000E+00  0.0000E+00  0.0000E+00  0.0000E+00  0.0000E+00  0.0000E+00  0.0000E+00  0.0000E+00  0.0000E+00
    -14.080  0.4215E-01  0.4218E-01  0.1550E-02  0.1551E-02  0.6293E-05  0.6298E-05  0.4669E-03  0.4671E-03  0.0000E+00  0.0000E+00  0.0000E+00  0.0000E+00  0.0000E+00  0.0000E+00  0.0000E+00  0.0000E+00  0.0000E+00  0.0000E+00
    -13.957  0.1121E+00  0.1120E+00  0.2999E-02  0.2998E-02  0.6129E-05  0.6138E-05  0.3305E-02  0.3298E-02  0.0000E+00  0.0000E+00  0.0000E+00  0.0000E+00  0.0000E+00  0.0000E+00  0.0000E+00  0.0000E+00  0.0000E+00  0.0000E+00
    -13.834  0.4398E-01  0.4409E-01  0.7380E-03  0.7416E-03  0.6176E-05  0.6184E-05  0.2099E-02  0.2101E-02  0.0000E+00  0.0000E+00  0.0000E+00  0.0000E+00  0.0000E+00  0.0000E+00  0.0000E+00  0.0000E+00  0.0000E+00  0.0000E+00
    -13.711  0.5598E-01  0.5610E-01  0.9109E-03  0.9128E-03  0.3014E-05  0.3040E-05  0.2733E-02  0.2739E-02  0.0000E+00  0.0000E+00  0.0000E+00  0.0000E+00  0.0000E+00  0.0000E+00  0.0000E+00  0.0000E+00  0.0000E+00  0.0000E+00
    -13.589 -0.6337E-03 -0.5972E-03 -0.1031E-04 -0.9712E-05 -0.4718E-07 -0.4747E-07 -0.3092E-04 -0.2914E-04  0.0000E+00  0.0000E+00  0.0000E+00  0.0000E+00  0.0000E+00  0.0000E+00  0.0000E+00  0.0000E+00  0.0000E+00  0.0000E+00
    -13.466 -0.6919E-05 -0.6668E-05 -0.4393E-06 -0.4216E-06 -0.5975E-10 -0.5748E-10 -0.3446E-06 -0.3321E-06  0.0000E+00  0.0000E+00  0.0000E+00  0.0000E+00  0.0000E+00  0.0000E+00  0.0000E+00  0.0000E+00  0.0000E+00  0.0000E+00
    -13.343  0.5043E-02  0.4823E-02  0.3350E-03  0.3204E-03 -0.5812E-07 -0.6040E-07  0.2515E-03  0.2405E-03  0.0000E+00  0.0000E+00  0.0000E+00  0.0000E+00  0.0000E+00  0.0000E+00  0.0000E+00  0.0000E+00  0.0000E+00  0.0000E+00
    -13.220  0.1197E+00  0.1196E+00  0.7946E-02  0.7943E-02  0.7272E-05  0.7248E-05  0.5966E-02  0.5964E-02  0.0000E+00  0.0000E+00  0.0000E+00  0.0000E+00  0.0000E+00  0.0000E+00  0.0000E+00  0.0000E+00  0.0000E+00  0.0000E+00
    -13.097  0.9337E-01  0.9319E-01  0.6200E-02  0.6189E-02  0.1118E-04  0.1121E-04  0.4655E-02  0.4647E-02  0.0000E+00  0.0000E+00  0.0000E+00  0.0000E+00  0.0000E+00  0.0000E+00  0.0000E+00  0.0000E+00  0.0000E+00  0.0000E+00
    -12.974  0.7292E-01  0.7339E-01  0.4844E-02  0.4875E-02  0.2165E-05  0.2197E-05  0.3635E-02  0.3658E-02  0.0000E+00  0.0000E+00  0.0000E+00  0.0000E+00  0.0000E+00  0.0000E+00  0.0000E+00  0.0000E+00  0.0000E+00  0.0000E+00
    -12.852  0.1119E-01  0.1096E-01  0.3938E-03  0.3846E-03  0.1108E-06  0.1061E-06  0.1332E-02  0.1307E-02  0.0000E+00  0.0000E+00  0.0000E+00  0.0000E+00  0.0000E+00  0.0000E+00  0.0000E+00  0.0000E+00  0.0000E+00  0.0000E+00
    -12.729  0.5791E-01  0.5799E-01  0.2185E-02  0.2188E-02  0.4391E-05  0.4387E-05  0.6554E-02  0.6563E-02  0.0000E+00  0.0000E+00  0.0000E+00  0.0000E+00  0.0000E+00  0.0000E+00  0.0000E+00  0.0000E+00  0.0000E+00  0.0000E+00
    -12.606  0.5487E-01  0.5477E-01  0.2069E-02  0.2065E-02  0.4663E-05  0.4685E-05  0.6206E-02  0.6195E-02  0.0000E+00  0.0000E+00  0.0000E+00  0.0000E+00  0.0000E+00  0.0000E+00  0.0000E+00  0.0000E+00  0.0000E+00  0.0000E+00
    -12.483  0.1682E-01  0.1706E-01  0.6346E-03  0.6434E-03  0.2482E-06  0.2553E-06  0.1904E-02  0.1930E-02  0.0000E+00  0.0000E+00  0.0000E+00  0.0000E+00  0.0000E+00  0.0000E+00  0.0000E+00  0.0000E+00  0.0000E+00  0.0000E+00
    -12.360 -0.6301E-04 -0.6502E-04 -0.2377E-05 -0.2453E-05 -0.6890E-09 -0.7151E-09 -0.7131E-05 -0.7359E-05  0.0000E+00  0.0000E+00  0.0000E+00  0.0000E+00  0.0000E+00  0.0000E+00  0.0000E+00  0.0000E+00  0.0000E+00  0.0000E+00
    -12.238 -0.6036E-03 -0.5939E-03 -0.9337E-04 -0.9187E-04 -0.9065E-08 -0.8893E-08 -0.3152E-04 -0.3101E-04  0.0000E+00  0.0000E+00  0.0000E+00  0.0000E+00  0.0000E+00  0.0000E+00  0.0000E+00  0.0000E+00  0.0000E+00  0.0000E+00
    -12.115  0.3873E-01  0.3853E-01  0.5991E-02  0.5960E-02  0.1089E-05  0.1079E-05  0.2022E-02  0.2012E-02  0.0000E+00  0.0000E+00  0.0000E+00  0.0000E+00  0.0000E+00  0.0000E+00  0.0000E+00  0.0000E+00  0.0000E+00  0.0000E+00
    -11.992  0.4478E-01  0.4485E-01  0.7005E-02  0.7015E-02  0.4889E-05  0.4898E-05  0.2201E-02  0.2205E-02  0.0000E+00  0.0000E+00  0.0000E+00  0.0000E+00  0.0000E+00  0.0000E+00  0.0000E+00  0.0000E+00  0.0000E+00  0.0000E+00
    -11.869  0.1464E+00  0.1462E+00  0.1818E-01  0.1816E-01  0.5440E-05  0.5441E-05  0.1358E-01  0.1355E-01  0.0000E+00  0.0000E+00  0.0000E+00  0.0000E+00  0.0000E+00  0.0000E+00  0.0000E+00  0.0000E+00  0.0000E+00  0.0000E+00
    -11.746  0.9133E-01  0.9132E-01  0.9731E-02  0.9733E-02  0.9606E-05  0.9629E-05  0.1059E-01  0.1059E-01  0.0000E+00  0.0000E+00  0.0000E+00  0.0000E+00  0.0000E+00  0.0000E+00  0.0000E+00  0.0000E+00  0.0000E+00  0.0000E+00
    -11.623  0.8871E-01  0.8905E-01  0.9479E-02  0.9516E-02  0.2930E-05  0.2962E-05  0.1020E-01  0.1024E-01  0.0000E+00  0.0000E+00  0.0000E+00  0.0000E+00  0.0000E+00  0.0000E+00  0.0000E+00  0.0000E+00  0.0000E+00  0.0000E+00
    -11.501 -0.1854E-02 -0.1872E-02 -0.1981E-03 -0.2000E-03 -0.3378E-07 -0.3442E-07 -0.2130E-03 -0.2151E-03  0.0000E+00  0.0000E+00  0.0000E+00  0.0000E+00  0.0000E+00  0.0000E+00  0.0000E+00  0.0000E+00  0.0000E+00  0.0000E+00
    -11.378 -0.1753E-04 -0.1702E-04 -0.1184E-05 -0.1149E-05 -0.1382E-09 -0.1342E-09 -0.3547E-05 -0.3443E-05  0.0000E+00  0.0000E+00  0.0000E+00  0.0000E+00  0.0000E+00  0.0000E+00  0.0000E+00  0.0000E+00  0.0000E+00  0.0000E+00
    -11.255  0.8872E-02  0.8718E-02  0.5987E-03  0.5884E-03  0.5347E-07  0.5132E-07  0.1796E-02  0.1765E-02  0.0000E+00  0.0000E+00  0.0000E+00  0.0000E+00  0.0000E+00  0.0000E+00  0.0000E+00  0.0000E+00  0.0000E+00  0.0000E+00
    -11.132  0.5895E-01  0.5899E-01  0.3969E-02  0.3972E-02  0.3365E-05  0.3365E-05  0.1191E-01  0.1192E-01  0.0000E+00  0.0000E+00  0.0000E+00  0.0000E+00  0.0000E+00  0.0000E+00  0.0000E+00  0.0000E+00  0.0000E+00  0.0000E+00
    -11.009  0.5895E-01  0.5893E-01  0.3929E-02  0.3929E-02  0.3158E-05  0.3176E-05  0.1179E-01  0.1179E-01  0.0000E+00  0.0000E+00  0.0000E+00  0.0000E+00  0.0000E+00  0.0000E+00  0.0000E+00  0.0000E+00  0.0000E+00  0.0000E+00
    -10.887  0.5458E-02  0.5582E-02  0.3625E-03  0.3708E-03  0.8386E-08  0.9959E-08  0.1088E-02  0.1113E-02  0.0000E+00  0.0000E+00  0.0000E+00  0.0000E+00  0.0000E+00  0.0000E+00  0.0000E+00  0.0000E+00  0.0000E+00  0.0000E+00
    -10.764 -0.8387E-05 -0.8655E-05 -0.5710E-06 -0.5884E-06 -0.6407E-10 -0.6649E-10 -0.1665E-05 -0.1719E-05  0.0000E+00  0.0000E+00  0.0000E+00  0.0000E+00  0.0000E+00  0.0000E+00  0.0000E+00  0.0000E+00  0.0000E+00  0.0000E+00
    -10.641 -0.2250E-02 -0.2245E-02 -0.4831E-03 -0.4821E-03 -0.4271E-07 -0.4240E-07 -0.2695E-03 -0.2690E-03  0.0000E+00  0.0000E+00  0.0000E+00  0.0000E+00  0.0000E+00  0.0000E+00  0.0000E+00  0.0000E+00  0.0000E+00  0.0000E+00
    -10.518  0.9946E-01  0.9920E-01  0.2133E-01  0.2128E-01  0.3039E-05  0.3030E-05  0.1190E-01  0.1187E-01  0.0000E+00  0.0000E+00  0.0000E+00  0.0000E+00  0.0000E+00  0.0000E+00  0.0000E+00  0.0000E+00  0.0000E+00  0.0000E+00