    4    4    1    2
  0.8797333E+01  0.2461200E-09  0.2461200E-09  0.6707900E-09  0.5000000E-15
  1.000000000000000E-004
  CAR 
 unknown system                          
   16   84   14
 
  0.0000000E+00  0.0000000E+00  0.0000000E+00  0.1000000E-02
   1      -14.984231    -14.983797
   2      -14.685180    -14.684730
   3       -3.821096     -3.820861
   4       -1.863991     -1.863644
   5        1.726624      1.726590
   6        1.726646      1.726611
   7        1.731355      1.731323
   8        1.731377      1.731344
   9        8.987574      8.987186
  10       13.146046     13.146914
  11       13.146057     13.146925
  12       13.209137     13.210013
  13       13.209148     13.210023
  14       15.326196     15.326790
 
  0.1000000E+00 -0.6938894E-17  0.0000000E+00  0.6000000E-02
   1      -14.745263    -14.744833
   2      -14.450167    -14.449723
   3       -3.530562     -3.530335
   4       -1.594688     -1.594353
   5        0.779521      0.779522
   6        0.815487      0.815488
   7        1.225510      1.225529
   8        1.259847      1.259866
   9        9.276749      9.276361
  10       13.186536     13.187490
  11       13.277537     13.278507
  12       14.141102     14.141940
  13       14.181765     14.182611
  14       15.345989     15.346370
 
  0.2000000E+00 -0.2775558E-16  0.0000000E+00  0.6000000E-02
   1      -14.031113    -14.030701
   2      -13.748764    -13.748340
   3       -2.667290     -2.667083
   4       -1.433907     -1.433810
   5       -1.356663     -1.356567
   6       -0.793395     -0.793089
   7        0.197052      0.197134
   8        0.244569      0.244652
   9       10.148018     10.147631
  10       12.953156     12.954232
  11       13.151974     13.151901
  12       13.178230     13.179348
  13       13.649135     13.649114
  14       16.202245     16.202037
 
  0.3000000E+00 -0.5551115E-16  0.0000000E+00  0.6000000E-02
   1      -12.855008    -12.854629
   2      -12.594189    -12.593802
   3       -4.082947     -4.082748
   4       -3.962802     -3.962602
   5       -1.273750     -1.273585
   6       -0.799098     -0.798973
   7       -0.744502     -0.744375
   8        0.477702      0.477954
   9       10.253735     10.253765
  10       11.084737     11.084801
  11       11.572103     11.571740
  12       12.498657     12.499778
  13       12.847045     12.848233
  14       17.153999     17.153939
 
  0.4000000E+00 -0.5551115E-16  0.0000000E+00  0.6000000E-02
   1      -11.252184    -11.251868
   2      -11.019858    -11.019537
   3       -6.691522     -6.691215
   4       -6.531974     -6.531668
   5       -1.474246     -1.474097
   6       -1.421316     -1.421168
   7        0.532326      0.532416
   8        1.991415      1.991575
   9        7.481423      7.481584
  10        8.487057      8.487243
  11       12.105750     12.106878
  12       12.464443     12.465545
  13       13.660863     13.660645
  14       18.266608     18.266965
 
  0.5000000E+00 -0.8326673E-16  0.0000000E+00  0.3000000E-02
   1       -9.627861     -9.627780
   2       -9.517820     -9.517707
   3       -8.565927     -8.565395
   4       -8.483220     -8.482666
   5       -1.709416     -1.709262
   6       -1.652143     -1.651986
   7        1.945636      1.945585
   8        2.635752      2.635872
   9        6.252188      6.252415
  10        6.916642      6.916977
  11       11.972289     11.973437
  12       12.370883     12.372057
  13       16.029267     16.028720
  14       16.152805     16.152860
 
  0.1000000E+00  0.1000000E+00  0.0000000E+00  0.6000000E-02
   1      -14.268483    -14.268065
   2      -13.981792    -13.981362
   3       -2.952772     -2.952557
   4       -1.057181     -1.056865
   5       -0.577093     -0.577069
   6       -0.542926     -0.542899
   7        0.278117      0.278238
   8        0.301770      0.301892
   9        9.860488      9.860100
  10       13.644292     13.645386
  11       13.759740     13.760866
  12       13.895373     13.895272
  13       14.265845     14.265830
  14       15.141615     15.147993
 
  0.2000000E+00  0.1000000E+00  0.0000000E+00  0.1200000E-01
   1      -13.323377    -13.322985
   2      -13.054207    -13.053804
   3       -2.772585     -2.772474
   4       -2.686044     -2.685934
   5       -1.822007     -1.821824
   6       -0.987120     -0.986922
   7       -0.934722     -0.934526
   8       -0.013627     -0.013351
   9       11.024287     11.023902
  10       11.497714     11.497667
  11       12.047562     12.047554
  12       13.685250     13.686366
  13       13.973969     13.975157
  14       16.924003     16.656403
 
  0.3000000E+00  0.1000000E+00  0.0000000E+00  0.1200000E-01
   1      -11.931419    -11.931073
   2      -11.687173    -11.686819
   3       -5.320290     -5.320063
   4       -5.186513     -5.186288
   5       -1.914136     -1.913913
   6       -1.849225     -1.849005
   7       -0.199839     -0.199710
   8        1.429627      1.429834
   9        8.706505      8.706559
  10        9.543972      9.544048
  11       12.716333     12.715985
  12       13.306347     13.307421
  13       13.703704     13.704882
  14       17.454762     17.455108
 
  0.4000000E+00  0.1000000E+00  0.0000000E+00  0.1200000E-01
   1      -10.168064    -10.167822
   2       -9.964919     -9.964677
   3       -7.725927     -7.725553
   4       -7.564267     -7.563902
   5       -2.395736     -2.395506
   6       -2.325666     -2.325437
   7        1.651815      1.651838
   8        2.740448      2.740555
   9        6.514718      6.514899
  10        7.308205      7.308414
  11       13.018722     13.019794
  12       13.435199     13.436295
  13       15.006846     15.006596
  14       17.460522     17.460396
 
  0.2000000E+00  0.2000000E+00  0.0000000E+00  0.6000000E-02
   1      -12.161673    -12.161318
   2      -11.912963    -11.912599
   3       -4.241922     -4.241852
   4       -4.177255     -4.177177
   5       -2.755671     -2.755278
   6       -2.708932     -2.708538
   7       -0.448030     -0.447887
   8        1.230239      1.230465
   9        9.406159      9.406117
  10        9.961929      9.961933
  11       12.469004     12.468628
  12       15.489343     15.490593
  13       15.782487     15.783837
  14       16.792731     16.791083
 
  0.3000000E+00  0.2000000E+00  0.0000000E+00  0.1200000E-01
   1      -10.587229    -10.586940
   2      -10.369572    -10.369279
   3       -6.277465     -6.277270
   4       -6.148338     -6.148151
   5       -3.856469     -3.856046
   6       -3.767315     -3.766902
   7        1.336543      1.336613
   8        2.741643      2.741787
   9        7.134932      7.134954
  10        7.809469      7.809507
  11       14.403610     14.403257
  12       15.486251     15.487212
  13       16.118427     16.119567
  14       16.873965     16.874810
 
  0.4000000E+00  0.2000000E+00  0.0000000E+00  0.6000000E-02
   1       -9.015941     -9.015863
   2       -8.910513     -8.910401
   3       -8.000650     -8.000233
   4       -7.931793     -7.931361
   5       -4.170194     -4.169787
   6       -4.066427     -4.066029
   7        2.811617      2.811550
   8        3.477680      3.477811
   9        6.103226      6.103280
  10        6.224948      6.225099
  11       15.323417     15.324290
  12       15.981754     15.982658
  13       16.538318     16.537956
  14       16.732255     16.733711
 
  0.3000000E+00  0.3000000E+00  0.0000000E+00  0.6000000E-02
   1       -8.927733     -8.927555
   2       -8.753079     -8.752899
   3       -7.189413     -7.189328
   4       -7.099138     -7.099047
   5       -5.483840     -5.483151
   6       -5.429488     -5.428804
   7        3.166846      3.166818
   8        4.213070      4.213193
   9        5.448445      5.448483
  10        6.122833      6.122811
  11       16.051620     16.053157
  12       16.145457     16.147107
  13       16.317301     16.317030
  14       17.230796     17.255658
 
  0.0000000E+00  0.0000000E+00  0.1000000E+00  0.2000000E-02
   1      -14.977545    -14.977109
   2      -14.693012    -14.692563
   3       -3.780800     -3.780565
   4       -1.925548     -1.925209
   5        1.715238      1.715204
   6        1.715260      1.715225
   7        1.726731      1.726699
   8        1.726754      1.726721
   9        9.111036      9.110651
  10       13.138303     13.139171
  11       13.138314     13.139182
  12       13.183758     13.184633
  13       13.183769     13.184644
  14       15.078659     15.071313
 
  0.1000000E+00 -0.6938894E-17  0.1000000E+00  0.1200000E-01
   1      -14.738480    -14.738050
   2      -14.457865    -14.457422
   3       -3.490237     -3.490007
   4       -1.653640     -1.653310
   5        0.780404      0.780405
   6        0.814155      0.814156
   7        1.230192      1.230210
   8        1.259252      1.259271
   9        9.399498      9.399113
  10       13.193654     13.194606
  11       13.275798     13.276767
  12       14.143273     14.144112
  13       14.180887     14.181732
  14       15.269228     15.284490
 
  0.2000000E+00 -0.2775558E-16  0.1000000E+00  0.1200000E-01
   1      -14.024600    -14.024188
   2      -13.756151    -13.755727
   3       -2.630607     -2.630400
   4       -1.430260     -1.430163
   5       -1.357737     -1.357641
   6       -0.849789     -0.849487
   7        0.205025      0.205107
   8        0.243998      0.244081
   9       10.265678     10.265295
  10       12.953587     12.954635
  11       13.165518     13.165950
  12       13.186028     13.186655
  13       13.635346     13.635337
  14       15.970792     15.971135
 
  0.3000000E+00 -0.5551115E-16  0.1000000E+00  0.1200000E-01
   1      -12.848858    -12.848480
   2      -12.600939    -12.600552
   3       -4.080059     -4.079859
   4       -3.963796     -3.963596
   5       -1.237163     -1.236997
   6       -0.797655     -0.797529
   7       -0.745582     -0.745456
   8        0.431019      0.431270
   9       10.272144     10.272174
  10       11.051788     11.051850
  11       11.687893     11.687539
  12       12.507406     12.508523
  13       12.849014     12.850197
  14       16.962662     16.962579
 
  0.4000000E+00 -0.5551115E-16  0.1000000E+00  0.1200000E-01
   1      -11.246758    -11.246443
   2      -11.025480    -11.025159
   3       -6.687724     -6.687417
   4       -6.536821     -6.536515
   5       -1.471748     -1.471599
   6       -1.419626     -1.419478
   7        0.566080      0.566173
   8        1.951712      1.951869
   9        7.496298      7.496460
  10        8.459544      8.459730
  11       12.115529     12.116659
  12       12.456566     12.457674
  13       13.764338     13.764117
  14       18.100568     18.100826
 
  0.5000000E+00 -0.8326673E-16  0.1000000E+00  0.6000000E-02
   1       -9.624479     -9.624398
   2       -9.519974     -9.519862
   3       -8.564786     -8.564253
   4       -8.486090     -8.485536
   5       -1.707979     -1.707824
   6       -1.653413     -1.653256
   7        1.967398      1.967351
   8        2.626931      2.627045
   9        6.248460      6.248689
  10        6.889423      6.889756
  11       11.981576     11.982724
  12       12.361877     12.363051
  13       16.125647     16.125103
  14       16.221819     16.221888
 
  0.1000000E+00  0.1000000E+00  0.1000000E+00  0.1200000E-01
   1      -14.261941    -14.261523
   2      -13.989480    -13.989050
   3       -2.914795     -2.914581
   4       -1.115092     -1.114781
   5       -0.576471     -0.576448
   6       -0.544174     -0.544148
   7        0.279535      0.279656
   8        0.301520      0.301642
   9        9.980102      9.979719
  10       13.633846     13.634907
  11       13.753933     13.755048
  12       13.913637     13.913562
  13       14.270119     14.270075
  14       15.145920     15.146300
 
  0.2000000E+00  0.1000000E+00  0.1000000E+00  0.2400000E-01
   1      -13.317130    -13.316738
   2      -13.061232    -13.060829
   3       -2.770426     -2.770314
   4       -2.689424     -2.689313
   5       -1.786459     -1.786276
   6       -0.986537     -0.986339
   7       -0.935071     -0.934874
   8       -0.066043     -0.065770
   9       11.130839     11.130465
  10       11.508416     11.508362
  11       12.022454     12.022447
  12       13.688814     13.689925
  13       13.972195     13.973381
  14       16.459222     16.446451
 
  0.3000000E+00  0.1000000E+00  0.1000000E+00  0.2400000E-01
   1      -11.925928    -11.925581
   2      -11.693446    -11.693092
   3       -5.317559     -5.317332
   4       -5.188663     -5.188438
   5       -1.912992     -1.912769
   6       -1.851433     -1.851212
   7       -0.163265     -0.163134
   8        1.385207      1.385412
   9        8.723429      8.723483
  10        9.522224      9.522298
  11       12.812432     12.812106
  12       13.315057     13.316119
  13       13.703740     13.704909
  14       17.308348     17.308638
 
  0.4000000E+00  0.1000000E+00  0.1000000E+00  0.2400000E-01
   1      -10.163269    -10.163027
   2       -9.970068     -9.969827
   3       -7.721958     -7.721585
   4       -7.568552     -7.568187
   5       -2.394613     -2.394383
   6       -2.328636     -2.328407
   7        1.679575      1.679599
   8        2.716686      2.716791
   9        6.516179      6.516360
  10        7.276093      7.276301
  11       13.027196     13.028268
  12       13.424200     13.425294
  13       15.089497     15.089263
  14       17.442382     17.442365
 
  0.2000000E+00  0.2000000E+00  0.1000000E+00  0.1200000E-01
   1      -12.155865    -12.155510
   2      -11.919757    -11.919394
   3       -4.238930     -4.238859
   4       -4.178116     -4.178038
   5       -2.756662     -2.756269
   6       -2.710607     -2.710214
   7       -0.417206     -0.417065
   8        1.180463      1.180685
   9        9.415489      9.415448
  10        9.933993      9.933995
  11       12.569382     12.569012
  12       15.485618     15.486846
  13       15.784891     15.786247
  14       16.783894     16.782600
 
  0.3000000E+00  0.2000000E+00  0.1000000E+00  0.2400000E-01
   1      -10.581968    -10.581680
   2      -10.375078    -10.374784
   3       -6.273920     -6.273725
   4       -6.150320     -6.150133
   5       -3.853930     -3.853507
   6       -3.767991     -3.767577
   7        1.370454      1.370528
   8        2.707650      2.707794
   9        7.150861      7.150883
  10        7.797150      7.797188
  11       14.466584     14.466258
  12       15.488329     15.489279
  13       16.109034     16.110168
  14       16.773576     16.774598
 
  0.4000000E+00  0.2000000E+00  0.1000000E+00  0.1200000E-01
   1       -9.012369     -9.012290
   2       -8.912402     -8.912291
   3       -7.999649     -7.999232
   4       -7.934106     -7.933674
   5       -4.167579     -4.167172
   6       -4.068151     -4.067752
   7        2.834919      2.834855
   8        3.475731      3.475856
   9        6.088835      6.088891
  10        6.222316      6.222465
  11       15.327045     15.327926
  12       15.929173     15.929988
  13       16.405681     16.406620
  14       16.461054     16.461156
 
  0.3000000E+00  0.3000000E+00  0.1000000E+00  0.1200000E-01
   1       -8.924209     -8.924031
   2       -8.757135     -8.756954
   3       -7.185994     -7.185908
   4       -7.101342     -7.101251
   5       -5.483306     -5.482617
   6       -5.431842     -5.431157
   7        3.196902      3.196877
   8        4.182014      4.182130
   9        5.459128      5.459163
  10        6.102655      6.102631
  11       15.810288     15.811318
  12       15.911555     15.912965
  13       16.648867     16.649034
  14       17.401499     17.382025
 
  0.0000000E+00  0.0000000E+00  0.2000000E+00  0.2000000E-02
   1      -14.957506    -14.957069
   2      -14.715562    -14.715114
   3       -3.661490     -3.661250
   4       -2.093614     -2.093288
   5        1.715083      1.715049
   6        1.715106      1.715071
   7        1.725175      1.725143
   8        1.725197      1.725165
   9        9.471807      9.471432
  10       13.141652     13.142521
  11       13.141663     13.142532
  12       13.178828     13.179702
  13       13.178839     13.179713
  14       14.412271     14.411873
 
  0.1000000E+00 -0.6938894E-17  0.2000000E+00  0.1200000E-01
   1      -14.718688    -14.718257
   2      -14.480073    -14.479632
   3       -3.374649     -3.374417
   4       -1.819942     -1.819626
   5        0.780729      0.780730
   6        0.811629      0.811630
   7        1.230945      1.230963
   8        1.255454      1.255473
   9        9.756381      9.756007
  10       13.192662     13.193605
  11       13.269650     13.270619
  12       14.141639     14.142478
  13       14.176072     14.176917
  14       14.648342     14.648016
 
  0.2000000E+00 -0.2775558E-16  0.2000000E+00  0.1200000E-01
   1      -14.005608    -14.005195
   2      -13.777332    -13.776909
   3       -2.516619     -2.516408
   4       -1.424826     -1.424728
   5       -1.363231     -1.363134
   6       -1.010091     -1.009801
   7        0.206799      0.206881
   8        0.241231      0.241314
   9       10.606792     10.606421
  10       12.950094     12.951089
  11       13.142753     13.143758
  12       13.221720     13.221776
  13       13.602620     13.602648
  14       15.377725     15.377457
 
  0.3000000E+00 -0.5551115E-16  0.2000000E+00  0.1200000E-01
   1      -12.831220    -12.830841
   2      -12.620603    -12.620217
   3       -4.071618     -4.071419
   4       -3.972658     -3.972458
   5       -1.127506     -1.127334
   6       -0.789586     -0.789461
   7       -0.752295     -0.752168
   8        0.286353      0.286593
   9       10.305556     10.305589
  10       10.974544     10.974605
  11       12.002098     12.001818
  12       12.530561     12.531657
  13       12.858896     12.860033
  14       16.452052     16.451919
 
  0.4000000E+00 -0.5551115E-16  0.2000000E+00  0.1200000E-01
   1      -11.230865    -11.230549
   2      -11.043390    -11.043070
   3       -6.677213     -6.676906
   4       -6.548539     -6.548234
   5       -1.463379     -1.463231
   6       -1.423827     -1.423679
   7        0.659673      0.659769
   8        1.836532      1.836680
   9        7.540377      7.540540
  10        8.363887      8.364069
  11       12.140634     12.141767
  12       12.431173     12.432293
  13       14.066543     14.066324
  14       17.702406     17.702554
 
  0.5000000E+00 -0.8326673E-16  0.2000000E+00  0.6000000E-02
   1       -9.616607     -9.616525
   2       -9.526418     -9.526310
   3       -8.561252     -8.560716
   4       -8.494209     -8.493656
   5       -1.698821     -1.698667
   6       -1.657914     -1.657758
   7        2.030788      2.030748
   8        2.601666      2.601764
   9        6.241176      6.241414
  10        6.795012      6.795335
  11       12.008118     12.009266
  12       12.330900     12.332071
  13       16.397637     16.397112
  14       16.419119     16.419230
 
  0.1000000E+00  0.1000000E+00  0.2000000E+00  0.1200000E-01
   1      -14.242683    -14.242264
   2      -14.011026    -14.010597
   3       -2.801844     -2.801627
   4       -1.277232     -1.276933
   5       -0.572955     -0.572931
   6       -0.543450     -0.543423
   7        0.284132      0.284253
   8        0.300713      0.300835
   9       10.328452     10.328079
  10       13.620529     13.621534
  11       13.742106     13.743194
  12       13.951988     13.951943
  13       14.250010     14.249983
  14       15.114428     15.114317
 
  0.2000000E+00  0.1000000E+00  0.2000000E+00  0.2400000E-01
   1      -13.298933    -13.298539
   2      -13.081228    -13.080827
   3       -2.765102     -2.764990
   4       -2.695841     -2.695731
   5       -1.673664     -1.673475
   6       -0.981925     -0.981727
   7       -0.939393     -0.939197
   8       -0.216138     -0.215876
   9       11.399063     11.398823
  10       11.603708     11.603542
  11       11.979329     11.979319
  12       13.704176     13.705271
  13       13.962471     13.963652
  14       15.927169     15.927030
 
  0.3000000E+00  0.1000000E+00  0.2000000E+00  0.2400000E-01
   1      -11.909414    -11.909067
   2      -11.712012    -11.711659
   3       -5.307712     -5.307485
   4       -5.199741     -5.199516
   5       -1.908410     -1.908188
   6       -1.855166     -1.854945
   7       -0.061606     -0.061471
   8        1.251845      1.252040
   9        8.770500      8.770556
  10        9.452385      9.452458
  11       13.071047     13.070892
  12       13.347573     13.348559
  13       13.717027     13.718118
  14       16.913021     16.913200
 
  0.4000000E+00  0.1000000E+00  0.2000000E+00  0.2400000E-01
   1      -10.149326    -10.149084
   2       -9.985150     -9.984908
   3       -7.710850     -7.710477
   4       -7.580450     -7.580085
   5       -2.389536     -2.389306
   6       -2.332519     -2.332290
   7        1.758678      1.758707
   8        2.646458      2.646553
   9        6.539311      6.539493
  10        7.194544      7.194749
  11       13.055372     13.056447
  12       13.393131     13.394223
  13       15.327570     15.327388
  14       17.370866     17.371051
 
  0.2000000E+00  0.2000000E+00  0.2000000E+00  0.1200000E-01
   1      -12.139030    -12.138674
   2      -11.938308    -11.937945
   3       -4.234253     -4.234182
   4       -4.182301     -4.182224
   5       -2.753778     -2.753385
   6       -2.714465     -2.714072
   7       -0.313309     -0.313165
   8        1.041768      1.041980
   9        9.454352      9.454314
  10        9.893958      9.893956
  11       12.860100     12.859756
  12       15.473164     15.474296
  13       15.790958     15.792330
  14       16.499382     16.501808
 
  0.3000000E+00  0.2000000E+00  0.2000000E+00  0.2400000E-01
   1      -10.567042    -10.566753
   2      -10.391144    -10.390852
   3       -6.265044     -6.264850
   4       -6.161379     -6.161192
   5       -3.848899     -3.848476
   6       -3.776703     -3.776289
   7        1.458403      1.458478
   8        2.602304      2.602440
   9        7.187561      7.187583
  10        7.738956      7.738992
  11       14.636695     14.636467
  12       15.484735     15.485660
  13       16.073136     16.074257
  14       16.557205     16.558120
 
  0.4000000E+00  0.2000000E+00  0.2000000E+00  0.1200000E-01
   1       -9.004037     -9.003956
   2       -8.918598     -8.918490
   3       -7.996935     -7.996516
   4       -7.940531     -7.940099
   5       -4.160282     -4.159876
   6       -4.078925     -4.078526
   7        2.898556      2.898501
   8        3.453099      3.453209
   9        6.059393      6.059457
  10        6.178721      6.178865
  11       15.333279     15.334175
  12       15.746760     15.747470
  13       16.222757     16.223886
  14       16.342173     16.342682
 
  0.3000000E+00  0.3000000E+00  0.2000000E+00  0.1200000E-01
   1       -8.911855     -8.911677
   2       -8.769451     -8.769270
   3       -7.179986     -7.179900
   4       -7.107549     -7.107458
   5       -5.480459     -5.479770
   6       -5.437306     -5.436621
   7        3.271703      3.271685
   8        4.119178      4.119279
   9        5.505625      5.505657
  10        6.043986      6.043967
  11       15.466344     15.467350
  12       15.629401     15.630656
  13       17.024693     17.024644
  14       17.823793     17.795090
 
  0.0000000E+00  0.0000000E+00  0.3000000E+00  0.2000000E-02
   1      -14.925919    -14.925481
   2      -14.750232    -14.749785
   3       -3.472703     -3.472453
   4       -2.340939     -2.340632
   5        1.714623      1.714590
   6        1.714646      1.714612
   7        1.722721      1.722689
   8        1.722744      1.722711
   9       10.041036     10.040678
  10       13.146918     13.147787
  11       13.146929     13.147798
  12       13.171895     13.172769
  13       13.171907     13.172780
  14       13.530491     13.530122
 
  0.1000000E+00 -0.6938894E-17  0.3000000E+00  0.1200000E-01
   1      -14.687420    -14.686988
   2      -14.514197    -14.513757
   3       -3.186499     -3.186258
   4       -2.063062     -2.062763
   5        0.785565      0.785566
   6        0.808911      0.808912
   7        1.236459      1.236477
   8        1.252823      1.252841
   9       10.319082     10.318727
  10       13.180719     13.181583
  11       13.264000     13.264967
  12       13.812018     13.811760
  13       14.148080     14.148920
  14       14.180550     14.181395
 
  0.2000000E+00 -0.2775558E-16  0.3000000E+00  0.1200000E-01
   1      -13.975679    -13.975265
   2      -13.809797    -13.809376
   3       -2.333299     -2.333079
   4       -1.416994     -1.416897
   5       -1.368574     -1.368477
   6       -1.240498     -1.240223
   7        0.209317      0.209400
   8        0.235995      0.236078
   9       11.144855     11.144505
  10       12.949154     12.950108
  11       13.112459     13.113466
  12       13.281993     13.281979
  13       13.559118     13.559213
  14       14.595724     14.595489
 
  0.3000000E+00 -0.5551115E-16  0.3000000E+00  0.1200000E-01
   1      -12.803651    -12.803272
   2      -12.650699    -12.650313
   3       -4.058515     -4.058315
   4       -3.988204     -3.988005
   5       -0.954970     -0.954791
   6       -0.785262     -0.785137
   7       -0.758034     -0.757908
   8        0.064941      0.065167
   9       10.375613     10.375651
  10       10.864615     10.864674
  11       12.390810     12.390997
  12       12.573861     12.574857
  13       12.955764     12.956535
  14       15.736959     15.736788
 
  0.4000000E+00 -0.5551115E-16  0.3000000E+00  0.1200000E-01
   1      -11.206142    -11.205825
   2      -11.069837    -11.069517
   3       -6.658335     -6.658028
   4       -6.566998     -6.566693
   5       -1.457833     -1.457685
   6       -1.428970     -1.428822
   7        0.812955      0.813059
   8        1.662382      1.662520
   9        7.623644      7.623808
  10        8.227730      8.227908
  11       12.179139     12.180276
  12       12.393343     12.394473
  13       14.536958     14.536749
  14       17.158574     17.158604
 
  0.5000000E+00 -0.8326673E-16  0.3000000E+00  0.6000000E-02
   1       -9.602439     -9.602355
   2       -9.536720     -9.536617
   3       -8.554526     -8.553987
   4       -8.505824     -8.505273
   5       -1.690755     -1.690601
   6       -1.658129     -1.657974
   7        2.127120      2.127096
   8        2.548335      2.548411
   9        6.253751      6.254002
  10        6.669372      6.669688
  11       12.050835     12.051985
  12       12.286290     12.287456
  13       16.717844     16.718006
  14       16.810871     16.810382
 
  0.1000000E+00  0.1000000E+00  0.3000000E+00  0.1200000E-01
   1      -14.212358    -14.211938
   2      -14.044154    -14.043726
   3       -2.617668     -2.617443
   4       -1.513642     -1.513359
   5       -0.568482     -0.568457
   6       -0.547216     -0.547189
   7        0.286027      0.286149
   8        0.297817      0.297939
   9       10.878558     10.878203
  10       13.579938     13.580819
  11       13.722432     13.723478
  12       13.987966     13.987832
  13       14.216471     14.216488
  14       14.341305     14.341278
 
  0.2000000E+00  0.1000000E+00  0.3000000E+00  0.2400000E-01
   1      -13.270483    -13.270089
   2      -13.112323    -13.111923
   3       -2.755699     -2.755587
   4       -2.704762     -2.704652
   5       -1.498456     -1.498261
   6       -0.978876     -0.978678
   7       -0.945394     -0.945198
   8       -0.442757     -0.442508
   9       11.547020     11.546973
  10       11.903633     11.903632
  11       12.027172     12.026826
  12       13.717325     13.718374
  13       13.948770     13.949944
  14       15.204588     15.204466
 
  0.3000000E+00  0.1000000E+00  0.3000000E+00  0.2400000E-01
   1      -11.883332    -11.882984
   2      -11.739998    -11.739645
   3       -5.293136     -5.292909
   4       -5.214194     -5.213968
   5       -1.905000     -1.904778
   6       -1.863751     -1.863530
   7        0.100133      0.100273
   8        1.049983      1.050166
   9        8.847468      8.847525
  10        9.346255      9.346326
  11       13.309592     13.310326
  12       13.430945     13.431620
  13       13.866604     13.867132
  14       16.346032     16.346095
 
  0.4000000E+00  0.1000000E+00  0.3000000E+00  0.2400000E-01
   1      -10.127440    -10.127198
   2      -10.008622    -10.008380
   3       -7.693280     -7.692908
   4       -7.599899     -7.599533
   5       -2.385732     -2.385502
   6       -2.341199     -2.340970
   7        1.880718      1.880752
   8        2.529881      2.529964
   9        6.583592      6.583776
  10        7.068230      7.068430
  11       13.095780     13.096857
  12       13.342909     13.343996
  13       15.681711     15.681614
  14       17.198284     17.198605
 
  0.2000000E+00  0.2000000E+00  0.3000000E+00  0.1200000E-01
   1      -12.112538    -12.112181
   2      -11.966818    -11.966456
   3       -4.226906     -4.226834
   4       -4.189475     -4.189398
   5       -2.749304     -2.748911
   6       -2.721263     -2.720870
   7       -0.145936     -0.145784
   8        0.835572      0.835773
   9        9.510196      9.510161
  10        9.832030      9.832023
  11       13.309996     13.309684
  12       15.391050     15.391826
  13       15.788567     15.789961
  14       16.094049     16.094747
 
  0.3000000E+00  0.2000000E+00  0.3000000E+00  0.2400000E-01
   1      -10.543571    -10.543281
   2      -10.416053    -10.415761
   3       -6.250023     -6.249829
   4       -6.175394     -6.175205
   5       -3.839083     -3.838662
   6       -3.786520     -3.786105
   7        1.603096      1.603178
   8        2.433849      2.433974
   9        7.256546      7.256570
  10        7.661166      7.661199
  11       14.869408     14.869348
  12       15.474154     15.475012