       N       E                     dE             d eps       ncg     rms          rms(c)
DAV:   1     0.228453393580E+02    0.22845E+02   -0.64949E+03  4718   0.751E+02
DAV:   2    -0.353012403722E+02   -0.58147E+02   -0.53419E+02  6378   0.174E+02
DAV:   3    -0.375709993038E+02   -0.22698E+01   -0.22583E+01  6138   0.333E+01
DAV:   4    -0.375927942653E+02   -0.21795E-01   -0.21771E-01  5862   0.367E+00
DAV:   5    -0.375932462197E+02   -0.45195E-03   -0.45169E-03  6122   0.505E-01    0.122E+01
DAV:   6    -0.369214929018E+02    0.67175E+00   -0.20784E+00  5202   0.922E+00    0.476E+00
DAV:   7    -0.369595731344E+02   -0.38080E-01   -0.12919E+00  5256   0.736E+00    0.186E+00
DAV:   8    -0.369068179416E+02    0.52755E-01   -0.24323E-01  5646   0.354E+00    0.666E-01
DAV:   9    -0.369187047902E+02   -0.11887E-01   -0.18324E-02  5292   0.118E+00    0.324E-01
DAV:  10    -0.369195196754E+02   -0.81489E-03   -0.16204E-03  5832   0.411E-01    0.122E-01
DAV:  11    -0.369197700015E+02   -0.25033E-03   -0.47167E-04  5370   0.195E-01    0.499E-02
DAV:  12    -0.369198063554E+02   -0.36354E-04   -0.96691E-05  4358   0.852E-02
   1 F= -.36919806E+02 E0= -.36919828E+02  d E =0.652842E-04  mag=    -0.0004
