PROCAR lm decomposed
# of k-points:   84         # of bands:  14         # of ions:   4

 k-point    1 :    0.00000000 0.00000000 0.00000000     weight = 0.00100000

band   1 # energy  -14.98423131 # occ.  1.00000000
 
ion      s     py     pz     px    dxy    dyz    dz2    dxz    dx2    tot
  1  0.159  0.000  0.000  0.000  0.000  0.000  0.000  0.000  0.000  0.159
  2  0.159  0.000  0.000  0.000  0.000  0.000  0.000  0.000  0.000  0.159
  3  0.159  0.000  0.000  0.000  0.000  0.000  0.000  0.000  0.000  0.159
  4  0.159  0.000  0.000  0.000  0.000  0.000  0.000  0.000  0.000  0.159
tot  0.635  0.000  0.000  0.000  0.000  0.000  0.000  0.000  0.000  0.635
 
band   2 # energy  -14.68518010 # occ.  1.00000000
 
ion      s     py     pz     px    dxy    dyz    dz2    dxz    dx2    tot
  1  0.165  0.000  0.000  0.000  0.000  0.000  0.000  0.000  0.000  0.165
  2  0.165  0.000  0.000  0.000  0.000  0.000  0.000  0.000  0.000  0.165
  3  0.165  0.000  0.000  0.000  0.000  0.000  0.000  0.000  0.000  0.165
  4  0.165  0.000  0.000  0.000  0.000  0.000  0.000  0.000  0.000  0.165
tot  0.659  0.000  0.000  0.000  0.000  0.000  0.000  0.000  0.000  0.659
 
band   3 # energy   -3.82109559 # occ.  1.00000000
 
ion      s     py     pz     px    dxy    dyz    dz2    dxz    dx2    tot
  1  0.000  0.000  0.096  0.000  0.000  0.000  0.000  0.000  0.000  0.096
  2  0.000  0.000  0.097  0.000  0.000  0.000  0.000  0.000  0.000  0.097
  3  0.000  0.000  0.097  0.000  0.000  0.000  0.000  0.000  0.000  0.097
  4  0.000  0.000  0.096  0.000  0.000  0.000  0.000  0.000  0.000  0.096
tot  0.000  0.000  0.387  0.000  0.000  0.000  0.000  0.000  0.000  0.387
 
band   4 # energy   -1.86399143 # occ.  1.00000000
 
ion      s     py     pz     px    dxy    dyz    dz2    dxz    dx2    tot
  1  0.000  0.000  0.127  0.000  0.000  0.000  0.000  0.000  0.000  0.127
  2  0.000  0.000  0.126  0.000  0.000  0.000  0.000  0.000  0.000  0.126
  3  0.000  0.000  0.126  0.000  0.000  0.000  0.000  0.000  0.000  0.126
  4  0.000  0.000  0.127  0.000  0.000  0.000  0.000  0.000  0.000  0.127
tot  0.000  0.000  0.506  0.000  0.000  0.000  0.000  0.000  0.000  0.506
 
band   5 # energy    1.72662419 # occ.  1.00000000
 
ion      s     py     pz     px    dxy    dyz    dz2    dxz    dx2    tot
  1  0.000  0.052  0.000  0.156  0.000  0.000  0.000  0.000  0.000  0.207
  2  0.000  0.052  0.000  0.156  0.000  0.000  0.000  0.000  0.000  0.208
  3  0.000  0.052  0.000  0.156  0.000  0.000  0.000  0.000  0.000  0.208
  4  0.000  0.052  0.000  0.155  0.000  0.000  0.000  0.000  0.000  0.207
tot  0.000  0.208  0.000  0.623  0.000  0.000  0.000  0.000  0.000  0.831
 
band   6 # energy    1.72664585 # occ.  1.00000000
 
ion      s     py     pz     px    dxy    dyz    dz2    dxz    dx2    tot
  1  0.000  0.156  0.000  0.052  0.000  0.000  0.000  0.000  0.000  0.207
  2  0.000  0.156  0.000  0.052  0.000  0.000  0.000  0.000  0.000  0.208
  3  0.000  0.156  0.000  0.052  0.000  0.000  0.000  0.000  0.000  0.208
  4  0.000  0.155  0.000  0.052  0.000  0.000  0.000  0.000  0.000  0.207
tot  0.000  0.623  0.000  0.208  0.000  0.000  0.000  0.000  0.000  0.831
 
band   7 # energy    1.73135516 # occ.  1.00000000
 
ion      s     py     pz     px    dxy    dyz    dz2    dxz    dx2    tot
  1  0.000  0.052  0.000  0.156  0.000  0.000  0.000  0.000  0.000  0.208
  2  0.000  0.052  0.000  0.156  0.000  0.000  0.000  0.000  0.000  0.208
  3  0.000  0.052  0.000  0.156  0.000  0.000  0.000  0.000  0.000  0.208
  4  0.000  0.052  0.000  0.156  0.000  0.000  0.000  0.000  0.000  0.208
tot  0.000  0.208  0.000  0.623  0.000  0.000  0.000  0.000  0.000  0.831
 
band   8 # energy    1.73137746 # occ.  1.00000000
 
ion      s     py     pz     px    dxy    dyz    dz2    dxz    dx2    tot
  1  0.000  0.156  0.000  0.052  0.000  0.000  0.000  0.000  0.000  0.208
  2  0.000  0.156  0.000  0.052  0.000  0.000  0.000  0.000  0.000  0.208
  3  0.000  0.156  0.000  0.052  0.000  0.000  0.000  0.000  0.000  0.208
  4  0.000  0.156  0.000  0.052  0.000  0.000  0.000  0.000  0.000  0.208
tot  0.000  0.623  0.000  0.208  0.000  0.000  0.000  0.000  0.000  0.831
 
band   9 # energy    8.98757352 # occ.  0.00000000
 
ion      s     py     pz     px    dxy    dyz    dz2    dxz    dx2    tot
  1  0.021  0.000  0.000  0.000  0.000  0.000  0.000  0.000  0.000  0.021
  2  0.020  0.000  0.000  0.000  0.000  0.000  0.000  0.000  0.000  0.020
  3  0.020  0.000  0.000  0.000  0.000  0.000  0.000  0.000  0.000  0.020
  4  0.021  0.000  0.000  0.000  0.000  0.000  0.000  0.000  0.000  0.021
tot  0.082  0.000  0.000  0.000  0.000  0.000  0.000  0.000  0.000  0.082
 
band  10 # energy   13.14604644 # occ.  0.00000000
 
ion      s     py     pz     px    dxy    dyz    dz2    dxz    dx2    tot
  1  0.000  0.033  0.000  0.098  0.000  0.000  0.000  0.000  0.000  0.131
  2  0.000  0.033  0.000  0.099  0.000  0.000  0.000  0.000  0.000  0.132
  3  0.000  0.033  0.000  0.099  0.000  0.000  0.000  0.000  0.000  0.132
  4  0.000  0.033  0.000  0.098  0.000  0.000  0.000  0.000  0.000  0.131
tot  0.000  0.132  0.000  0.395  0.000  0.000  0.000  0.000  0.000  0.526
 
band  11 # energy   13.14605748 # occ.  0.00000000
 
ion      s     py     pz     px    dxy    dyz    dz2    dxz    dx2    tot
  1  0.000  0.098  0.000  0.033  0.000  0.000  0.000  0.000  0.000  0.131
  2  0.000  0.099  0.000  0.033  0.000  0.000  0.000  0.000  0.000  0.132
  3  0.000  0.099  0.000  0.033  0.000  0.000  0.000  0.000  0.000  0.132
  4  0.000  0.098  0.000  0.033  0.000  0.000  0.000  0.000  0.000  0.131
tot  0.000  0.395  0.000  0.132  0.000  0.000  0.000  0.000  0.000  0.526
 
band  12 # energy   13.20913740 # occ.  0.00000000
 
ion      s     py     pz     px    dxy    dyz    dz2    dxz    dx2    tot
  1  0.000  0.033  0.000  0.100  0.000  0.000  0.000  0.000  0.000  0.134
  2  0.000  0.033  0.000  0.098  0.000  0.000  0.000  0.000  0.000  0.131
  3  0.000  0.033  0.000  0.098  0.000  0.000  0.000  0.000  0.000  0.131
  4  0.000  0.033  0.000  0.100  0.000  0.000  0.000  0.000  0.000  0.134
tot  0.000  0.132  0.000  0.397  0.000  0.000  0.000  0.000  0.000  0.530
 
band  13 # energy   13.20914771 # occ.  0.00000000
 
ion      s     py     pz     px    dxy    dyz    dz2    dxz    dx2    tot
  1  0.000  0.100  0.000  0.033  0.000  0.000  0.000  0.000  0.000  0.134
  2  0.000  0.098  0.000  0.033  0.000  0.000  0.000  0.000  0.000  0.131
  3  0.000  0.098  0.000  0.033  0.000  0.000  0.000  0.000  0.000  0.131
  4  0.000  0.100  0.000  0.033  0.000  0.000  0.000  0.000  0.000  0.134
tot  0.000  0.397  0.000  0.132  0.000  0.000  0.000  0.000  0.000  0.530
 
band  14 # energy   15.32619644 # occ.  0.00000000
 
ion      s     py     pz     px    dxy    dyz    dz2    dxz    dx2    tot
  1  0.000  0.000  0.063  0.000  0.000  0.000  0.000  0.000  0.000  0.063
  2  0.000  0.000  0.089  0.000  0.000  0.000  0.000  0.000  0.000  0.089
  3  0.000  0.000  0.092  0.000  0.000  0.000  0.000  0.000  0.000  0.092
  4  0.000  0.000  0.061  0.000  0.000  0.000  0.000  0.000  0.000  0.061
tot  0.000  0.000  0.306  0.000  0.000  0.000  0.000  0.000  0.000  0.306
 

 k-point    2 :    0.10000000 0.00000000 0.00000000     weight = 0.00600000

band   1 # energy  -14.74526334 # occ.  1.00000000
 
ion      s     py     pz     px    dxy    dyz    dz2    dxz    dx2    tot
  1  0.157  0.001  0.000  0.002  0.000  0.000  0.000  0.000  0.000  0.160
  2  0.157  0.001  0.000  0.002  0.000  0.000  0.000  0.000  0.000  0.160
  3  0.157  0.001  0.000  0.002  0.000  0.000  0.000  0.000  0.000  0.160
  4  0.157  0.001  0.000  0.002  0.000  0.000  0.000  0.000  0.000  0.160
tot  0.629  0.002  0.000  0.007  0.000  0.000  0.000  0.000  0.000  0.639
 
band   2 # energy  -14.45016693 # occ.  1.00000000
 
ion      s     py     pz     px    dxy    dyz    dz2    dxz    dx2    tot
  1  0.163  0.001  0.000  0.002  0.000  0.000  0.000  0.000  0.000  0.165
  2  0.163  0.001  0.000  0.002  0.000  0.000  0.000  0.000  0.000  0.165
  3  0.163  0.001  0.000  0.002  0.000  0.000  0.000  0.000  0.000  0.165
  4  0.163  0.001  0.000  0.002  0.000  0.000  0.000  0.000  0.000  0.165
tot  0.650  0.003  0.000  0.008  0.000  0.000  0.000  0.000  0.000  0.661
 
band   3 # energy   -3.53056240 # occ.  1.00000000
 
ion      s     py     pz     px    dxy    dyz    dz2    dxz    dx2    tot
  1  0.000  0.000  0.097  0.000  0.000  0.000  0.000  0.000  0.000  0.097
  2  0.000  0.000  0.098  0.000  0.000  0.000  0.000  0.000  0.000  0.098
  3  0.000  0.000  0.097  0.000  0.000  0.000  0.000  0.000  0.000  0.097
  4  0.000  0.000  0.097  0.000  0.000  0.000  0.000  0.000  0.000  0.097
tot  0.000  0.000  0.389  0.000  0.000  0.000  0.000  0.000  0.000  0.389
 
band   4 # energy   -1.59468782 # occ.  1.00000000
 
ion      s     py     pz     px    dxy    dyz    dz2    dxz    dx2    tot
  1  0.000  0.000  0.127  0.000  0.000  0.000  0.000  0.000  0.000  0.127
  2  0.000  0.000  0.127  0.000  0.000  0.000  0.000  0.000  0.000  0.127
  3  0.000  0.000  0.127  0.000  0.000  0.000  0.000  0.000  0.000  0.127
  4  0.000  0.000  0.127  0.000  0.000  0.000  0.000  0.000  0.000  0.127
tot  0.000  0.000  0.507  0.000  0.000  0.000  0.000  0.000  0.000  0.507
 
band   5 # energy    0.77952148 # occ.  1.00000000
 
ion      s     py     pz     px    dxy    dyz    dz2    dxz    dx2    tot
  1  0.012  0.047  0.000  0.142  0.000  0.000  0.000  0.000  0.000  0.202
  2  0.012  0.048  0.000  0.143  0.000  0.000  0.000  0.000  0.000  0.203
  3  0.012  0.048  0.000  0.143  0.000  0.000  0.000  0.000  0.000  0.203
  4  0.012  0.047  0.000  0.142  0.000  0.000  0.000  0.000  0.000  0.202
tot  0.049  0.190  0.000  0.571  0.000  0.000  0.000  0.000  0.000  0.810
 
band   6 # energy    0.81548714 # occ.  1.00000000
 
ion      s     py     pz     px    dxy    dyz    dz2    dxz    dx2    tot
  1  0.012  0.048  0.000  0.143  0.000  0.000  0.000  0.000  0.000  0.203
  2  0.013  0.048  0.000  0.143  0.000  0.000  0.000  0.000  0.000  0.204
  3  0.013  0.048  0.000  0.143  0.000  0.000  0.000  0.000  0.000  0.204
  4  0.012  0.048  0.000  0.143  0.000  0.000  0.000  0.000  0.000  0.203
tot  0.051  0.191  0.000  0.573  0.000  0.000  0.000  0.000  0.000  0.815
 
band   7 # energy    1.22551037 # occ.  1.00000000
 
ion      s     py     pz     px    dxy    dyz    dz2    dxz    dx2    tot
  1  0.000  0.153  0.000  0.051  0.000  0.000  0.000  0.000  0.000  0.204
  2  0.000  0.153  0.000  0.051  0.000  0.000  0.000  0.000  0.000  0.205
  3  0.000  0.153  0.000  0.051  0.000  0.000  0.000  0.000  0.000  0.205
  4  0.000  0.153  0.000  0.051  0.000  0.000  0.000  0.000  0.000  0.204
tot  0.000  0.613  0.000  0.204  0.000  0.000  0.000  0.000  0.000  0.818
 
band   8 # energy    1.25984701 # occ.  1.00000000
 
ion      s     py     pz     px    dxy    dyz    dz2    dxz    dx2    tot
  1  0.000  0.154  0.000  0.051  0.000  0.000  0.000  0.000  0.000  0.205
  2  0.000  0.154  0.000  0.051  0.000  0.000  0.000  0.000  0.000  0.205
  3  0.000  0.154  0.000  0.051  0.000  0.000  0.000  0.000  0.000  0.205
  4  0.000  0.154  0.000  0.051  0.000  0.000  0.000  0.000  0.000  0.205
tot  0.000  0.616  0.000  0.205  0.000  0.000  0.000  0.000  0.000  0.821
 
band   9 # energy    9.27674911 # occ.  0.00000000
 
ion      s     py     pz     px    dxy    dyz    dz2    dxz    dx2    tot
  1  0.019  0.000  0.000  0.001  0.000  0.000  0.000  0.000  0.000  0.021
  2  0.019  0.000  0.000  0.001  0.000  0.000  0.000  0.000  0.000  0.021
  3  0.019  0.000  0.000  0.001  0.000  0.000  0.000  0.000  0.000  0.021
  4  0.019  0.000  0.000  0.001  0.000  0.000  0.000  0.000  0.000  0.021
tot  0.077  0.002  0.000  0.005  0.000  0.000  0.000  0.000  0.000  0.083
 
band  10 # energy   13.18653602 # occ.  0.00000000
 
ion      s     py     pz     px    dxy    dyz    dz2    dxz    dx2    tot
  1  0.010  0.029  0.000  0.086  0.000  0.000  0.000  0.000  0.000  0.125
  2  0.010  0.030  0.000  0.089  0.000  0.000  0.000  0.000  0.000  0.129
  3  0.010  0.030  0.000  0.089  0.000  0.000  0.000  0.000  0.000  0.129
  4  0.010  0.029  0.000  0.086  0.000  0.000  0.000  0.000  0.000  0.125
tot  0.040  0.117  0.000  0.350  0.000  0.000  0.000  0.000  0.000  0.507
 
band  11 # energy   13.27753737 # occ.  0.00000000
 
ion      s     py     pz     px    dxy    dyz    dz2    dxz    dx2    tot
  1  0.011  0.030  0.000  0.090  0.000  0.000  0.000  0.000  0.000  0.131
  2  0.011  0.029  0.000  0.086  0.000  0.000  0.000  0.000  0.000  0.126
  3  0.011  0.029  0.000  0.086  0.000  0.000  0.000  0.000  0.000  0.126
  4  0.011  0.030  0.000  0.090  0.000  0.000  0.000  0.000  0.000  0.131
tot  0.044  0.118  0.000  0.353  0.000  0.000  0.000  0.000  0.000  0.514
 
band  12 # energy   14.14110218 # occ.  0.00000000
 
ion      s     py     pz     px    dxy    dyz    dz2    dxz    dx2    tot
  1  0.000  0.101  0.000  0.034  0.000  0.000  0.000  0.000  0.000  0.135
  2  0.000  0.103  0.000  0.034  0.000  0.000  0.000  0.000  0.000  0.137
  3  0.000  0.103  0.000  0.034  0.000  0.000  0.000  0.000  0.000  0.137
  4  0.000  0.101  0.000  0.034  0.000  0.000  0.000  0.000  0.000  0.135
tot  0.000  0.407  0.000  0.136  0.000  0.000  0.000  0.000  0.000  0.542
 
band  13 # energy   14.18176533 # occ.  0.00000000
 
ion      s     py     pz     px    dxy    dyz    dz2    dxz    dx2    tot
  1  0.000  0.103  0.000  0.034  0.000  0.000  0.000  0.000  0.000  0.138
  2  0.000  0.101  0.000  0.034  0.000  0.000  0.000  0.000  0.000  0.135
  3  0.000  0.101  0.000  0.034  0.000  0.000  0.000  0.000  0.000  0.135
  4  0.000  0.103  0.000  0.034  0.000  0.000  0.000  0.000  0.000  0.138
tot  0.000  0.409  0.000  0.136  0.000  0.000  0.000  0.000  0.000  0.546
 
band  14 # energy   15.34598930 # occ.  0.00000000
 
ion      s     py     pz     px    dxy    dyz    dz2    dxz    dx2    tot
  1  0.000  0.000  0.101  0.000  0.000  0.000  0.000  0.000  0.000  0.101
  2  0.000  0.000  0.238  0.000  0.000  0.000  0.000  0.000  0.000  0.238
  3  0.000  0.000  0.245  0.000  0.000  0.000  0.000  0.000  0.000  0.245
  4  0.000  0.000  0.105  0.000  0.000  0.000  0.000  0.000  0.000  0.105
tot  0.000  0.000  0.690  0.000  0.000  0.000  0.000  0.000  0.000  0.690
 

 k-point    3 :    0.20000000 0.00000000 0.00000000     weight = 0.00600000

band   1 # energy  -14.03111317 # occ.  1.00000000
 
ion      s     py     pz     px    dxy    dyz    dz2    dxz    dx2    tot
  1  0.151  0.002  0.000  0.007  0.000  0.000  0.000  0.000  0.000  0.161
  2  0.152  0.002  0.000  0.007  0.000  0.000  0.000  0.000  0.000  0.162
  3  0.152  0.002  0.000  0.007  0.000  0.000  0.000  0.000  0.000  0.162
  4  0.151  0.002  0.000  0.007  0.000  0.000  0.000  0.000  0.000  0.161
tot  0.606  0.010  0.000  0.029  0.000  0.000  0.000  0.000  0.000  0.645
 
band   2 # energy  -13.74876406 # occ.  1.00000000
 
ion      s     py     pz     px    dxy    dyz    dz2    dxz    dx2    tot
  1  0.156  0.003  0.000  0.008  0.000  0.000  0.000  0.000  0.000  0.167
  2  0.156  0.003  0.000  0.008  0.000  0.000  0.000  0.000  0.000  0.167
  3  0.156  0.003  0.000  0.008  0.000  0.000  0.000  0.000  0.000  0.167
  4  0.156  0.003  0.000  0.008  0.000  0.000  0.000  0.000  0.000  0.167
tot  0.626  0.010  0.000  0.031  0.000  0.000  0.000  0.000  0.000  0.667
 
band   3 # energy   -2.66728983 # occ.  1.00000000
 
ion      s     py     pz     px    dxy    dyz    dz2    dxz    dx2    tot
  1  0.000  0.000  0.098  0.000  0.000  0.000  0.000  0.000  0.000  0.098
  2  0.000  0.000  0.099  0.000  0.000  0.000  0.000  0.000  0.000  0.099
  3  0.000  0.000  0.099  0.000  0.000  0.000  0.000  0.000  0.000  0.099
  4  0.000  0.000  0.098  0.000  0.000  0.000  0.000  0.000  0.000  0.098
tot  0.000  0.000  0.395  0.000  0.000  0.000  0.000  0.000  0.000  0.395
 
band   4 # energy   -1.43390685 # occ.  1.00000000
 
ion      s     py     pz     px    dxy    dyz    dz2    dxz    dx2    tot
  1  0.037  0.039  0.000  0.117  0.000  0.000  0.000  0.000  0.000  0.194
  2  0.037  0.039  0.000  0.118  0.000  0.000  0.000  0.000  0.000  0.194
  3  0.037  0.039  0.000  0.118  0.000  0.000  0.000  0.000  0.000  0.194
  4  0.037  0.039  0.000  0.117  0.000  0.000  0.000  0.000  0.000  0.194
tot  0.148  0.157  0.000  0.470  0.000  0.000  0.000  0.000  0.000  0.775
 
band   5 # energy   -1.35666265 # occ.  1.00000000
 
ion      s     py     pz     px    dxy    dyz    dz2    dxz    dx2    tot
  1  0.038  0.040  0.000  0.119  0.000  0.000  0.000  0.000  0.000  0.196
  2  0.038  0.040  0.000  0.119  0.000  0.000  0.000  0.000  0.000  0.197
  3  0.038  0.040  0.000  0.119  0.000  0.000  0.000  0.000  0.000  0.197
  4  0.038  0.040  0.000  0.119  0.000  0.000  0.000  0.000  0.000  0.196
tot  0.152  0.158  0.000  0.475  0.000  0.000  0.000  0.000  0.000  0.785
 
band   6 # energy   -0.79339468 # occ.  1.00000000
 
ion      s     py     pz     px    dxy    dyz    dz2    dxz    dx2    tot
  1  0.000  0.000  0.129  0.000  0.000  0.000  0.000  0.000  0.000  0.129
  2  0.000  0.000  0.128  0.000  0.000  0.000  0.000  0.000  0.000  0.128
  3  0.000  0.000  0.128  0.000  0.000  0.000  0.000  0.000  0.000  0.128
  4  0.000  0.000  0.129  0.000  0.000  0.000  0.000  0.000  0.000  0.129
tot  0.000  0.000  0.513  0.000  0.000  0.000  0.000  0.000  0.000  0.513
 
band   7 # energy    0.19705168 # occ.  1.00000000
 
ion      s     py     pz     px    dxy    dyz    dz2    dxz    dx2    tot
  1  0.000  0.150  0.000  0.050  0.000  0.000  0.000  0.000  0.000  0.200
  2  0.000  0.150  0.000  0.050  0.000  0.000  0.000  0.000  0.000  0.201
  3  0.000  0.150  0.000  0.050  0.000  0.000  0.000  0.000  0.000  0.201
  4  0.000  0.150  0.000  0.050  0.000  0.000  0.000  0.000  0.000  0.200
tot  0.000  0.601  0.000  0.200  0.000  0.000  0.000  0.000  0.000  0.801
 
band   8 # energy    0.24456894 # occ.  1.00000000
 
ion      s     py     pz     px    dxy    dyz    dz2    dxz    dx2    tot
  1  0.000  0.151  0.000  0.050  0.000  0.000  0.000  0.000  0.000  0.201
  2  0.000  0.151  0.000  0.050  0.000  0.000  0.000  0.000  0.000  0.202
  3  0.000  0.151  0.000  0.050  0.000  0.000  0.000  0.000  0.000  0.202
  4  0.000  0.151  0.000  0.050  0.000  0.000  0.000  0.000  0.000  0.201
tot  0.000  0.604  0.000  0.201  0.000  0.000  0.000  0.000  0.000  0.806
 
band   9 # energy   10.14801759 # occ.  0.00000000
 
ion      s     py     pz     px    dxy    dyz    dz2    dxz    dx2    tot
  1  0.016  0.001  0.000  0.004  0.000  0.000  0.000  0.000  0.000  0.022
  2  0.015  0.001  0.000  0.004  0.000  0.000  0.000  0.000  0.000  0.021
  3  0.015  0.001  0.000  0.004  0.000  0.000  0.000  0.000  0.000  0.021
  4  0.016  0.001  0.000  0.004  0.000  0.000  0.000  0.000  0.000  0.022
tot  0.062  0.006  0.000  0.018  0.000  0.000  0.000  0.000  0.000  0.086
 
band  10 # energy   12.95315606 # occ.  0.00000000
 
ion      s     py     pz     px    dxy    dyz    dz2    dxz    dx2    tot
  1  0.041  0.018  0.000  0.055  0.000  0.000  0.000  0.000  0.000  0.115
  2  0.045  0.019  0.000  0.058  0.000  0.000  0.000  0.000  0.000  0.122
  3  0.045  0.019  0.000  0.058  0.000  0.000  0.000  0.000  0.000  0.122
  4  0.041  0.018  0.000  0.055  0.000  0.000  0.000  0.000  0.000  0.115
tot  0.171  0.076  0.000  0.227  0.000  0.000  0.000  0.000  0.000  0.473
 
band  11 # energy   13.15197395 # occ.  0.00000000
 
ion      s     py     pz     px    dxy    dyz    dz2    dxz    dx2    tot
  1  0.000  0.000  0.147  0.000  0.000  0.000  0.000  0.000  0.000  0.147
  2  0.000  0.000  0.170  0.000  0.000  0.000  0.000  0.000  0.000  0.170
  3  0.000  0.000  0.170  0.000  0.000  0.000  0.000  0.000  0.000  0.170
  4  0.000  0.000  0.147  0.000  0.000  0.000  0.000  0.000  0.000  0.147
tot  0.000  0.000  0.635  0.000  0.000  0.000  0.000  0.000  0.000  0.635
 
band  12 # energy   13.17823001 # occ.  0.00000000
 
ion      s     py     pz     px    dxy    dyz    dz2    dxz    dx2    tot
  1  0.048  0.019  0.000  0.058  0.000  0.000  0.000  0.000  0.000  0.126
  2  0.045  0.019  0.000  0.056  0.000  0.000  0.000  0.000  0.000  0.119
  3  0.045  0.019  0.000  0.056  0.000  0.000  0.000  0.000  0.000  0.119
  4  0.048  0.019  0.000  0.058  0.000  0.000  0.000  0.000  0.000  0.126
tot  0.185  0.076  0.000  0.228  0.000  0.000  0.000  0.000  0.000  0.488
 
band  13 # energy   13.64913523 # occ.  0.00000000
 
ion      s     py     pz     px    dxy    dyz    dz2    dxz    dx2    tot
  1  0.000  0.000  0.178  0.000  0.000  0.000  0.000  0.000  0.000  0.178
  2  0.000  0.000  0.164  0.000  0.000  0.000  0.000  0.000  0.000  0.164
  3  0.000  0.000  0.164  0.000  0.000  0.000  0.000  0.000  0.000  0.164
  4  0.000  0.000  0.178  0.000  0.000  0.000  0.000  0.000  0.000  0.178
tot  0.000  0.000  0.685  0.000  0.000  0.000  0.000  0.000  0.000  0.685
 
band  14 # energy   16.20224514 # occ.  0.00000000
 
ion      s     py     pz     px    dxy    dyz    dz2    dxz    dx2    tot
  1  0.000  0.000  0.087  0.000  0.000  0.000  0.000  0.000  0.000  0.087
  2  0.000  0.000  0.070  0.000  0.000  0.000  0.000  0.000  0.000  0.070
  3  0.000  0.000  0.070  0.000  0.000  0.000  0.000  0.000  0.000  0.070
  4  0.000  0.000  0.087  0.000  0.000  0.000  0.000  0.000  0.000  0.087
tot  0.000  0.000  0.314  0.000  0.000  0.000  0.000  0.000  0.000  0.314
 

 k-point    4 :    0.30000000 0.00000000 0.00000000     weight = 0.00600000

band   1 # energy  -12.85500772 # occ.  1.00000000
 
ion      s     py     pz     px    dxy    dyz    dz2    dxz    dx2    tot
  1  0.143  0.005  0.000  0.016  0.000  0.000  0.000  0.000  0.000  0.164
  2  0.143  0.005  0.000  0.016  0.000  0.000  0.000  0.000  0.000  0.164
  3  0.143  0.005  0.000  0.016  0.000  0.000  0.000  0.000  0.000  0.164
  4  0.143  0.005  0.000  0.016  0.000  0.000  0.000  0.000  0.000  0.164
tot  0.571  0.021  0.000  0.064  0.000  0.000  0.000  0.000  0.000  0.657
 
band   2 # energy  -12.59418921 # occ.  1.00000000
 
ion      s     py     pz     px    dxy    dyz    dz2    dxz    dx2    tot
  1  0.147  0.006  0.000  0.017  0.000  0.000  0.000  0.000  0.000  0.170
  2  0.147  0.006  0.000  0.017  0.000  0.000  0.000  0.000  0.000  0.170
  3  0.147  0.006  0.000  0.017  0.000  0.000  0.000  0.000  0.000  0.170
  4  0.147  0.006  0.000  0.017  0.000  0.000  0.000  0.000  0.000  0.170
tot  0.590  0.022  0.000  0.067  0.000  0.000  0.000  0.000  0.000  0.679
 
band   3 # energy   -4.08294716 # occ.  1.00000000
 
ion      s     py     pz     px    dxy    dyz    dz2    dxz    dx2    tot
  1  0.061  0.031  0.000  0.093  0.000  0.000  0.000  0.000  0.000  0.185
  2  0.061  0.031  0.000  0.093  0.000  0.000  0.000  0.000  0.000  0.186
  3  0.061  0.031  0.000  0.093  0.000  0.000  0.000  0.000  0.000  0.186
  4  0.061  0.031  0.000  0.093  0.000  0.000  0.000  0.000  0.000  0.185
tot  0.245  0.124  0.000  0.372  0.000  0.000  0.000  0.000  0.000  0.741
 
band   4 # energy   -3.96280153 # occ.  1.00000000
 
ion      s     py     pz     px    dxy    dyz    dz2    dxz    dx2    tot
  1  0.062  0.032  0.000  0.095  0.000  0.000  0.000  0.000  0.000  0.188
  2  0.062  0.032  0.000  0.095  0.000  0.000  0.000  0.000  0.000  0.188
  3  0.062  0.032  0.000  0.095  0.000  0.000  0.000  0.000  0.000  0.188
  4  0.062  0.032  0.000  0.095  0.000  0.000  0.000  0.000  0.000  0.188
tot  0.247  0.126  0.000  0.378  0.000  0.000  0.000  0.000  0.000  0.752
 
band   5 # energy   -1.27374965 # occ.  1.00000000
 
ion      s     py     pz     px    dxy    dyz    dz2    dxz    dx2    tot
  1  0.000  0.000  0.101  0.000  0.000  0.000  0.000  0.000  0.000  0.101
  2  0.000  0.000  0.103  0.000  0.000  0.000  0.000  0.000  0.000  0.103
  3  0.000  0.000  0.103  0.000  0.000  0.000  0.000  0.000  0.000  0.103
  4  0.000  0.000  0.101  0.000  0.000  0.000  0.000  0.000  0.000  0.101
tot  0.000  0.000  0.408  0.000  0.000  0.000  0.000  0.000  0.000  0.408
 
band   6 # energy   -0.79909835 # occ.  1.00000000
 
ion      s     py     pz     px    dxy    dyz    dz2    dxz    dx2    tot
  1  0.000  0.148  0.000  0.049  0.000  0.000  0.000  0.000  0.000  0.198
  2  0.000  0.149  0.000  0.050  0.000  0.000  0.000  0.000  0.000  0.198
  3  0.000  0.149  0.000  0.050  0.000  0.000  0.000  0.000  0.000  0.198
  4  0.000  0.148  0.000  0.049  0.000  0.000  0.000  0.000  0.000  0.198
tot  0.000  0.594  0.000  0.198  0.000  0.000  0.000  0.000  0.000  0.793
 
band   7 # energy   -0.74450179 # occ.  1.00000000
 
ion      s     py     pz     px    dxy    dyz    dz2    dxz    dx2    tot
  1  0.000  0.149  0.000  0.050  0.000  0.000  0.000  0.000  0.000  0.199
  2  0.000  0.150  0.000  0.050  0.000  0.000  0.000  0.000  0.000  0.199
  3  0.000  0.150  0.000  0.050  0.000  0.000  0.000  0.000  0.000  0.200
  4  0.000  0.149  0.000  0.050  0.000  0.000  0.000  0.000  0.000  0.199
tot  0.000  0.598  0.000  0.199  0.000  0.000  0.000  0.000  0.000  0.798
 
band   8 # energy    0.47770203 # occ.  1.00000000
 
ion      s     py     pz     px    dxy    dyz    dz2    dxz    dx2    tot
  1  0.000  0.000  0.132  0.000  0.000  0.000  0.000  0.000  0.000  0.132
  2  0.000  0.000  0.130  0.000  0.000  0.000  0.000  0.000  0.000  0.130
  3  0.000  0.000  0.130  0.000  0.000  0.000  0.000  0.000  0.000  0.130
  4  0.000  0.000  0.132  0.000  0.000  0.000  0.000  0.000  0.000  0.132
tot  0.000  0.000  0.523  0.000  0.000  0.000  0.000  0.000  0.000  0.523
 
band   9 # energy   10.25373450 # occ.  0.00000000
 
ion      s     py     pz     px    dxy    dyz    dz2    dxz    dx2    tot
  1  0.000  0.000  0.123  0.000  0.000  0.000  0.000  0.000  0.000  0.123
  2  0.000  0.000  0.144  0.000  0.000  0.000  0.000  0.000  0.000  0.144
  3  0.000  0.000  0.144  0.000  0.000  0.000  0.000  0.000  0.000  0.144
  4  0.000  0.000  0.123  0.000  0.000  0.000  0.000  0.000  0.000  0.123
tot  0.000  0.000  0.533  0.000  0.000  0.000  0.000  0.000  0.000  0.533
 
band  10 # energy   11.08473709 # occ.  0.00000000
 
ion      s     py     pz     px    dxy    dyz    dz2    dxz    dx2    tot
  1  0.000  0.000  0.164  0.000  0.000  0.000  0.000  0.000  0.000  0.164
  2  0.000  0.000  0.145  0.000  0.000  0.000  0.000  0.000  0.000  0.145
  3  0.000  0.000  0.145  0.000  0.000  0.000  0.000  0.000  0.000  0.145
  4  0.000  0.000  0.164  0.000  0.000  0.000  0.000  0.000  0.000  0.164
tot  0.000  0.000  0.618  0.000  0.000  0.000  0.000  0.000  0.000  0.618
 
band  11 # energy   11.57210320 # occ.  0.00000000
 
ion      s     py     pz     px    dxy    dyz    dz2    dxz    dx2    tot
  1  0.012  0.004  0.000  0.012  0.000  0.000  0.000  0.000  0.000  0.028
  2  0.008  0.004  0.000  0.012  0.000  0.000  0.000  0.000  0.000  0.024
  3  0.008  0.004  0.000  0.012  0.000  0.000  0.000  0.000  0.000  0.024
  4  0.012  0.004  0.000  0.012  0.000  0.000  0.000  0.000  0.000  0.028
tot  0.041  0.016  0.000  0.048  0.000  0.000  0.000  0.000  0.000  0.105
 
band  12 # energy   12.49865671 # occ.  0.00000000
 
ion      s     py     pz     px    dxy    dyz    dz2    dxz    dx2    tot
  1  0.063  0.010  0.000  0.030  0.000  0.000  0.000  0.000  0.000  0.103
  2  0.077  0.010  0.000  0.031  0.000  0.000  0.000  0.000  0.000  0.119
  3  0.077  0.010  0.000  0.031  0.000  0.000  0.000  0.000  0.000  0.119
  4  0.063  0.010  0.000  0.030  0.000  0.000  0.000  0.000  0.000  0.103
tot  0.282  0.041  0.000  0.123  0.000  0.000  0.000  0.000  0.000  0.445
 
band  13 # energy   12.84704472 # occ.  0.00000000
 
ion      s     py     pz     px    dxy    dyz    dz2    dxz    dx2    tot
  1  0.083  0.009  0.000  0.028  0.000  0.000  0.000  0.000  0.000  0.120
  2  0.072  0.009  0.000  0.027  0.000  0.000  0.000  0.000  0.000  0.108
  3  0.072  0.009  0.000  0.027  0.000  0.000  0.000  0.000  0.000  0.108
  4  0.083  0.009  0.000  0.028  0.000  0.000  0.000  0.000  0.000  0.120
tot  0.310  0.037  0.000  0.111  0.000  0.000  0.000  0.000  0.000  0.457
 
band  14 # energy   17.15399884 # occ.  0.00000000
 
ion      s     py     pz     px    dxy    dyz    dz2    dxz    dx2    tot
  1  0.000  0.000  0.088  0.000  0.000  0.000  0.000  0.000  0.000  0.088
  2  0.000  0.000  0.071  0.000  0.000  0.000  0.000  0.000  0.000  0.071
  3  0.000  0.000  0.071  0.000  0.000  0.000  0.000  0.000  0.000  0.071
  4  0.000  0.000  0.088  0.000  0.000  0.000  0.000  0.000  0.000  0.088
tot  0.000  0.000  0.317  0.000  0.000  0.000  0.000  0.000  0.000  0.317
 

 k-point    5 :    0.40000000 0.00000000 0.00000000     weight = 0.00600000

band   1 # energy  -11.25218361 # occ.  1.00000000
 
ion      s     py     pz     px    dxy    dyz    dz2    dxz    dx2    tot
  1  0.133  0.009  0.000  0.027  0.000  0.000  0.000  0.000  0.000  0.169
  2  0.135  0.009  0.000  0.027  0.000  0.000  0.000  0.000  0.000  0.170
  3  0.135  0.009  0.000  0.027  0.000  0.000  0.000  0.000  0.000  0.170
  4  0.133  0.009  0.000  0.027  0.000  0.000  0.000  0.000  0.000  0.169
tot  0.536  0.036  0.000  0.107  0.000  0.000  0.000  0.000  0.000  0.679
 
band   2 # energy  -11.01985810 # occ.  1.00000000
 
ion      s     py     pz     px    dxy    dyz    dz2    dxz    dx2    tot
  1  0.138  0.009  0.000  0.027  0.000  0.000  0.000  0.000  0.000  0.174
  2  0.137  0.009  0.000  0.028  0.000  0.000  0.000  0.000  0.000  0.174
  3  0.137  0.009  0.000  0.028  0.000  0.000  0.000  0.000  0.000  0.174
  4  0.138  0.009  0.000  0.027  0.000  0.000  0.000  0.000  0.000  0.174
tot  0.549  0.037  0.000  0.110  0.000  0.000  0.000  0.000  0.000  0.696
 
band   3 # energy   -6.69152225 # occ.  1.00000000
 
ion      s     py     pz     px    dxy    dyz    dz2    dxz    dx2    tot
  1  0.080  0.024  0.000  0.073  0.000  0.000  0.000  0.000  0.000  0.177
  2  0.080  0.024  0.000  0.073  0.000  0.000  0.000  0.000  0.000  0.177
  3  0.080  0.024  0.000  0.073  0.000  0.000  0.000  0.000  0.000  0.177
  4  0.080  0.024  0.000  0.073  0.000  0.000  0.000  0.000  0.000  0.177
tot  0.319  0.098  0.000  0.293  0.000  0.000  0.000  0.000  0.000  0.709
 
band   4 # energy   -6.53197382 # occ.  1.00000000
 