<?xml version="1.0" encoding="ISO-8859-1"?>
<modeling>
 <generator>
  <i name="program" type="string">vasp </i>
  <i name="version" type="string">5.2.12  </i>
  <i name="subversion" type="string">11Nov11 complex                                                      parallel </i>
  <i name="platform" type="string">LinuxIFC </i>
  <i name="date" type="string">2012 10 17 </i>
  <i name="time" type="string">09:39:31 </i>
 </generator>
 <incar>
  <i type="string" name="PREC">accurate</i>
  <i type="int" name="ISPIN">     2</i>
  <i name="ENCUT">    350.00000000</i>
  <i type="logical" name="LREAL"> F  </i>
  <i type="int" name="ISMEAR">     1</i>
  <i name="SIGMA">      0.05000000</i>
  <i type="logical" name="LORBIT"> F  </i>
 </incar>
 <kpoints>
  <generation param="Gamma">
   <v type="int" name="divisions">      10       10       10 </v>
   <v name="usershift">      0.00000000       0.00000000       0.00000000 </v>
   <v name="genvec1">      0.10000000       0.00000000       0.00000000 </v>
   <v name="genvec2">      0.00000000       0.10000000       0.00000000 </v>
   <v name="genvec3">      0.00000000       0.00000000       0.10000000 </v>
   <v name="shift">      0.00000000       0.00000000       0.00000000 </v>
  </generation>
  <varray name="kpointlist" >
   <v>       0.00000000       0.00000000       0.00000000 </v>
   <v>       0.10000000       0.00000000       0.00000000 </v>
   <v>       0.20000000       0.00000000       0.00000000 </v>
   <v>       0.30000000       0.00000000       0.00000000 </v>
   <v>       0.40000000       0.00000000       0.00000000 </v>
   <v>       0.50000000       0.00000000       0.00000000 </v>
   <v>       0.10000000       0.10000000       0.00000000 </v>
   <v>       0.20000000       0.10000000       0.00000000 </v>
   <v>       0.30000000       0.10000000       0.00000000 </v>
   <v>       0.40000000       0.10000000       0.00000000 </v>
   <v>       0.20000000       0.20000000       0.00000000 </v>
   <v>       0.30000000       0.20000000       0.00000000 </v>
   <v>       0.40000000       0.20000000       0.00000000 </v>
   <v>       0.30000000       0.30000000       0.00000000 </v>
   <v>       0.00000000       0.00000000       0.10000000 </v>
   <v>       0.10000000       0.00000000       0.10000000 </v>
   <v>       0.20000000       0.00000000       0.10000000 </v>
   <v>       0.30000000       0.00000000       0.10000000 </v>
   <v>       0.40000000       0.00000000       0.10000000 </v>
   <v>       0.50000000       0.00000000       0.10000000 </v>
   <v>       0.10000000       0.10000000       0.10000000 </v>
   <v>       0.20000000       0.10000000       0.10000000 </v>
   <v>       0.30000000       0.10000000       0.10000000 </v>
   <v>       0.40000000       0.10000000       0.10000000 </v>
   <v>       0.20000000       0.20000000       0.10000000 </v>
   <v>       0.30000000       0.20000000       0.10000000 </v>
   <v>       0.40000000       0.20000000       0.10000000 </v>
   <v>       0.30000000       0.30000000       0.10000000 </v>
   <v>       0.00000000       0.00000000       0.20000000 </v>
   <v>       0.10000000       0.00000000       0.20000000 </v>
   <v>       0.20000000       0.00000000       0.20000000 </v>
   <v>       0.30000000       0.00000000       0.20000000 </v>
   <v>       0.40000000       0.00000000       0.20000000 </v>
   <v>       0.50000000       0.00000000       0.20000000 </v>
   <v>       0.10000000       0.10000000       0.20000000 </v>
   <v>       0.20000000       0.10000000       0.20000000 </v>
   <v>       0.30000000       0.10000000       0.20000000 </v>
   <v>       0.40000000       0.10000000       0.20000000 </v>
   <v>       0.20000000       0.20000000       0.20000000 </v>
   <v>       0.30000000       0.20000000       0.20000000 </v>
   <v>       0.40000000       0.20000000       0.20000000 </v>
   <v>       0.30000000       0.30000000       0.20000000 </v>
   <v>       0.00000000       0.00000000       0.30000000 </v>
   <v>       0.10000000       0.00000000       0.30000000 </v>
   <v>       0.20000000       0.00000000       0.30000000 </v>
   <v>       0.30000000       0.00000000       0.30000000 </v>
   <v>       0.40000000       0.00000000       0.30000000 </v>
   <v>       0.50000000       0.00000000       0.30000000 </v>
   <v>       0.10000000       0.10000000       0.30000000 </v>
   <v>       0.20000000       0.10000000       0.30000000 </v>
   <v>       0.30000000       0.10000000       0.30000000 </v>
   <v>       0.40000000       0.10000000       0.30000000 </v>
   <v>       0.20000000       0.20000000       0.30000000 </v>
   <v>       0.30000000       0.20000000       0.30000000 </v>
   <v>       0.40000000       0.20000000       0.30000000 </v>
   <v>       0.30000000       0.30000000       0.30000000 </v>
   <v>       0.00000000       0.00000000       0.40000000 </v>
   <v>       0.10000000       0.00000000       0.40000000 </v>
   <v>       0.20000000       0.00000000       0.40000000 </v>
   <v>       0.30000000       0.00000000       0.40000000 </v>
   <v>       0.40000000       0.00000000       0.40000000 </v>
   <v>       0.50000000       0.00000000       0.40000000 </v>
   <v>       0.10000000       0.10000000       0.40000000 </v>
   <v>       0.20000000       0.10000000       0.40000000 </v>
   <v>       0.30000000       0.10000000       0.40000000 </v>
   <v>       0.40000000       0.10000000       0.40000000 </v>
   <v>       0.20000000       0.20000000       0.40000000 </v>
   <v>       0.30000000       0.20000000       0.40000000 </v>
   <v>       0.40000000       0.20000000       0.40000000 </v>
   <v>       0.30000000       0.30000000       0.40000000 </v>
   <v>       0.00000000       0.00000000       0.50000000 </v>
   <v>       0.10000000       0.00000000       0.50000000 </v>
   <v>       0.20000000       0.00000000       0.50000000 </v>
   <v>       0.30000000       0.00000000       0.50000000 </v>
   <v>       0.40000000       0.00000000       0.50000000 </v>
   <v>       0.50000000       0.00000000       0.50000000 </v>
   <v>       0.10000000       0.10000000       0.50000000 </v>
   <v>       0.20000000       0.10000000       0.50000000 </v>
   <v>       0.30000000       0.10000000       0.50000000 </v>
   <v>       0.40000000       0.10000000       0.50000000 </v>
   <v>       0.20000000       0.20000000       0.50000000 </v>
   <v>       0.30000000       0.20000000       0.50000000 </v>
   <v>       0.40000000       0.20000000       0.50000000 </v>
   <v>       0.30000000       0.30000000       0.50000000 </v>
  </varray>
  <varray name="weights" >
   <v>       0.00100000 </v>
   <v>       0.00600000 </v>
   <v>       0.00600000 </v>
   <v>       0.00600000 </v>
   <v>       0.00600000 </v>
   <v>       0.00300000 </v>
   <v>       0.00600000 </v>
   <v>       0.01200000 </v>
   <v>       0.01200000 </v>
   <v>       0.01200000 </v>
   <v>       0.00600000 </v>
   <v>       0.01200000 </v>
   <v>       0.00600000 </v>
   <v>       0.00600000 </v>
   <v>       0.00200000 </v>
   <v>       0.01200000 </v>
   <v>       0.01200000 </v>
   <v>       0.01200000 </v>
   <v>       0.01200000 </v>
   <v>       0.00600000 </v>
   <v>       0.01200000 </v>
   <v>       0.02400000 </v>
   <v>       0.02400000 </v>
   <v>       0.02400000 </v>
   <v>       0.01200000 </v>
   <v>       0.02400000 </v>
   <v>       0.01200000 </v>
   <v>       0.01200000 </v>
   <v>       0.00200000 </v>
   <v>       0.01200000 </v>
   <v>       0.01200000 </v>
   <v>       0.01200000 </v>
   <v>       0.01200000 </v>
   <v>       0.00600000 </v>
   <v>       0.01200000 </v>
   <v>       0.02400000 </v>
   <v>       0.02400000 </v>
   <v>       0.02400000 </v>
   <v>       0.01200000 </v>
   <v>       0.02400000 </v>
   <v>       0.01200000 </v>
   <v>       0.01200000 </v>
   <v>       0.00200000 </v>
   <v>       0.01200000 </v>
   <v>       0.01200000 </v>
   <v>       0.01200000 </v>
   <v>       0.01200000 </v>
   <v>       0.00600000 </v>
   <v>       0.01200000 </v>
   <v>       0.02400000 </v>
   <v>       0.02400000 </v>
   <v>       0.02400000 </v>
   <v>       0.01200000 </v>
   <v>       0.02400000 </v>
   <v>       0.01200000 </v>
   <v>       0.01200000 </v>
   <v>       0.00200000 </v>
   <v>       0.01200000 </v>
   <v>       0.01200000 </v>
   <v>       0.01200000 </v>
   <v>       0.01200000 </v>
   <v>       0.00600000 </v>
   <v>       0.01200000 </v>
   <v>       0.02400000 </v>
   <v>       0.02400000 </v>
   <v>       0.02400000 </v>
   <v>       0.01200000 </v>
   <v>       0.02400000 </v>
   <v>       0.01200000 </v>
   <v>       0.01200000 </v>
   <v>       0.00100000 </v>
   <v>       0.00600000 </v>
   <v>       0.00600000 </v>
   <v>       0.00600000 </v>
   <v>       0.00600000 </v>
   <v>       0.00300000 </v>
   <v>       0.00600000 </v>
   <v>       0.01200000 </v>
   <v>       0.01200000 </v>
   <v>       0.01200000 </v>
   <v>       0.00600000 </v>
   <v>       0.01200000 </v>
   <v>       0.00600000 </v>
   <v>       0.00600000 </v>
  </varray>
 </kpoints>
 <parameters>
  <separator name="general" >
   <i type="string" name="SYSTEM">unknown system</i>
   <i type="logical" name="LCOMPAT"> F  </i>
  </separator>
  <separator name="electronic" >
   <i type="string" name="PREC">accura</i>
   <i name="ENMAX">    350.00000000</i>
   <i name="ENAUG">    644.87300000</i>
   <i name="EDIFF">      0.00010000</i>
   <i type="int" name="IALGO">    38</i>
   <i type="int" name="IWAVPR">    10</i>
   <i type="int" name="NBANDS">    14</i>
   <i name="NELECT">     16.00000000</i>
   <i type="int" name="TURBO">     0</i>
   <i type="int" name="IRESTART">     0</i>
   <i type="int" name="NREBOOT">     0</i>
   <i type="int" name="NMIN">     0</i>
   <i name="EREF">      0.00000000</i>
   <separator name="electronic smearing" >
    <i type="int" name="ISMEAR">     1</i>
    <i name="SIGMA">      0.05000000</i>
    <i name="KSPACING">      0.50000000</i>
    <i type="logical" name="KGAMMA"> T  </i>
   </separator>
   <separator name="electronic projectors" >
    <i type="logical" name="LREAL"> F  </i>
    <v name="ROPT">      0.00000000</v>
    <i type="int" name="LMAXPAW">  -100</i>
    <i type="int" name="LMAXMIX">     2</i>
    <i type="logical" name="NLSPLINE"> F  </i>
   </separator>
   <separator name="electronic startup" >
    <i type="int" name="ISTART">     0</i>
    <i type="int" name="ICHARG">     2</i>
    <i type="int" name="INIWAV">     1</i>
   </separator>
   <separator name="electronic spin" >
    <i type="int" name="ISPIN">     2</i>
    <i type="logical" name="LNONCOLLINEAR"> F  </i>
    <v name="MAGMOM">      1.00000000      1.00000000      1.00000000      1.00000000</v>
    <i name="NUPDOWN">     -1.00000000</i>
    <i type="logical" name="LSORBIT"> F  </i>
    <v name="SAXIS">      0.00000000      0.00000000      1.00000000</v>
    <i type="logical" name="LSPIRAL"> F  </i>
    <v name="QSPIRAL">      0.00000000      0.00000000      0.00000000</v>
    <i type="logical" name="LZEROZ"> F  </i>
   </separator>
   <separator name="electronic exchange-correlation" >
    <i type="logical" name="LASPH"> F  </i>
    <i type="logical" name="LMETAGGA"> F  </i>
   </separator>
   <separator name="electronic convergence" >
    <i type="int" name="NELM">    60</i>
    <i type="int" name="NELMDL">    -5</i>
    <i type="int" name="NELMIN">     2</i>
    <i name="ENINI">    350.00000000</i>
    <separator name="electronic convergence detail" >
     <i type="logical" name="LDIAG"> T  </i>
     <i type="logical" name="LSUBROT"> T  </i>
     <i name="WEIMIN">      0.00000000</i>
     <i name="EBREAK">      0.00000179</i>
     <i name="DEPER">      0.30000000</i>
     <i type="int" name="NRMM">     4</i>
     <i name="TIME">      0.40000000</i>
    </separator>
   </separator>
   <separator name="electronic mixer" >
    <i name="AMIX">      0.40000000</i>
    <i name="BMIX">      1.00000000</i>
    <i name="AMIN">      0.10000000</i>
    <i name="AMIX_MAG">      1.60000000</i>
    <i name="BMIX_MAG">      1.00000000</i>
    <separator name="electronic mixer details" >
     <i type="int" name="IMIX">     4</i>
     <i type="int" name="MAXMIX">   -45</i>
     <i name="WC">    100.00000000</i>
     <i type="int" name="INIMIX">     1</i>
     <i type="int" name="MIXPRE">     1</i>
     <i type="int" name="MREMOVE">     5</i>
    </separator>
   </separator>
   <separator name="electronic dipolcorrection" >
    <i type="logical" name="LDIPOL"> F  </i>
    <i type="logical" name="LMONO"> F  </i>
    <i type="int" name="IDIPOL">     0</i>
    <i name="EPSILON">      1.00000000</i>
    <v name="DIPOL">   -100.00000000   -100.00000000   -100.00000000</v>
    <i name="EFIELD">      0.00000000</i>
   </separator>
  </separator>
  <separator name="grids" >
   <i type="int" name="NGX">    16</i>
   <i type="int" name="NGY">    16</i>
   <i type="int" name="NGZ">    42</i>
   <i type="int" name="NGXF">    32</i>
   <i type="int" name="NGYF">    32</i>
   <i type="int" name="NGZF">    84</i>
   <i type="logical" name="ADDGRID"> F  </i>
  </separator>
  <separator name="ionic" >
   <i type="int" name="NSW">     0</i>
   <i type="int" name="IBRION">    -1</i>
   <i type="int" name="ISIF">     2</i>
   <i name="PSTRESS">      0.00000000</i>
   <i name="EDIFFG">      0.00100000</i>
   <i type="int" name="NFREE">     0</i>
   <i name="POTIM">      0.50000000</i>
   <i name="SMASS">     -3.00000000</i>
   <i name="SCALEE">      1.00000000</i>
  </separator>
  <separator name="ionic md" >
   <i name="TEBEG">      0.00010000</i>
   <i name="TEEND">      0.00010000</i>
   <i type="int" name="NBLOCK">     1</i>
   <i type="int" name="KBLOCK">     1</i>
   <i type="int" name="NPACO">   256</i>
   <i name="APACO">     16.00000000</i>
  </separator>
  <separator name="symmetry" >
   <i type="int" name="ISYM">     2</i>
   <i name="SYMPREC">      0.00001000</i>
  </separator>
  <separator name="dos" >
   <i type="logical" name="LORBIT"> F  </i>
   <v name="RWIGS">     -1.00000000</v>
   <i type="int" name="NEDOS">   301</i>
   <i name="EMIN">     10.00000000</i>
   <i name="EMAX">    -10.00000000</i>
   <i name="EFERMI">      0.00000000</i>
  </separator>
  <separator name="writing" >
   <i type="int" name="NWRITE">     2</i>
   <i type="logical" name="LWAVE"> T  </i>
   <i type="logical" name="LCHARG"> T  </i>
   <i type="logical" name="LPARD"> F  </i>
   <i type="logical" name="LVTOT"> F  </i>
   <i type="logical" name="LVHAR"> F  </i>
   <i type="logical" name="LELF"> F  </i>
   <i type="logical" name="LOPTICS"> F  </i>
   <v name="STM">      0.00000000      0.00000000      0.00000000      0.00000000      0.00000000      0.00000000      0.00000000</v>
  </separator>
  <separator name="performance" >
   <i type="int" name="NPAR">     1</i>
   <i type="int" name="NSIM">     4</i>
   <i type="int" name="NBLK">    -1</i>
   <i type="logical" name="LPLANE"> T  </i>
   <i type="logical" name="LSCALAPACK"> F  </i>
   <i type="logical" name="LSCAAWARE"> F  </i>
   <i type="logical" name="LSCALU"> F  </i>
   <i type="logical" name="LASYNC"> F  </i>
   <i type="logical" name="LORBITALREAL"> F  </i>
  </separator>
  <separator name="miscellaneous" >
   <i type="int" name="IDIOT">     3</i>
   <i type="logical" name="LMUSIC"> F  </i>
   <v name="POMASS">     12.01100000</v>
   <v name="DARWINR">      0.00000000</v>
   <v name="DARWINV">      1.00000000</v>
   <i type="logical" name="LCORR"> T  </i>
  </separator>
  <i type="logical" name="GGA_COMPAT"> T  </i>
  <i type="logical" name="LBERRY"> F  </i>
  <i type="int" name="ICORELEVEL">     0</i>
  <i type="logical" name="LDAU"> F  </i>
  <i type="int" name="I_CONSTRAINED_M">     0</i>
  <separator name="electronic exchange-correlation" >
   <i type="string" name="GGA">--</i>
   <i type="int" name="VOSKOWN">     0</i>
   <i type="logical" name="LHFCALC"> F  </i>
   <i type="string" name="PRECFOCK"></i>
   <i type="logical" name="LHFONE"> F  </i>
   <i type="logical" name="LRHFCALC"> F  </i>
   <i type="logical" name="LTHOMAS"> F  </i>
   <i type="logical" name="LMODELHF"> F  </i>
   <i name="ENCUT4O">     -1.00000000</i>
   <i type="int" name="EXXOEP">     0</i>
   <i type="int" name="FOURORBIT">     0</i>
   <i name="AEXX">      0.00000000</i>
   <i name="HFALPHA">      0.00000000</i>
   <i name="ALDAX">      1.00000000</i>
   <i name="AGGAX">      1.00000000</i>
   <i name="ALDAC">      1.00000000</i>
   <i name="AGGAC">      1.00000000</i>
   <i type="int" name="NKREDX">     1</i>
   <i type="int" name="NKREDY">     1</i>
   <i type="int" name="NKREDZ">     1</i>
   <i type="logical" name="SHIFTRED"> F  </i>
   <i type="logical" name="ODDONLY"> F  </i>
   <i type="logical" name="EVENONLY"> F  </i>
   <i type="int" name="LMAXFOCK">     0</i>
   <i type="int" name="NMAXFOCKAE">     0</i>
   <i type="logical" name="LFOCKAEDFT"> F  </i>
   <i name="HFSCREEN">      0.00000000</i>
   <i name="HFSCREENC">      0.00000000</i>
  </separator>
  <separator name="vdW DFT" >
   <i type="logical" name="LUSE_VDW"> F  </i>
   <i name="Zab_VDW">     -0.84910000</i>
   <i name="PARAM1">      0.12340000</i>
   <i name="PARAM2">      1.00000000</i>
   <i name="PARAM3">      0.00000000</i>
  </separator>
  <separator name="model GW" >
   <i type="int" name="MODEL_GW">     0</i>
   <i name="MODEL_EPS0">      5.27839982</i>
   <i name="MODEL_ALPHA">      1.00000000</i>
  </separator>
  <separator name="linear response parameters" >
   <i type="logical" name="LEPSILON"> F  </i>
   <i type="logical" name="LRPA"> F  </i>
   <i type="logical" name="LNABLA"> F  </i>
   <i type="logical" name="LVEL"> F  </i>
   <i type="int" name="KINTER">     0</i>
   <i name="CSHIFT">      0.10000000</i>
   <i name="OMEGAMAX">     -1.00000000</i>
  </separator>
  <separator name="orbital magnetization" >
   <i type="logical" name="NUCIND"> F  </i>
   <v name="MAGPOS">      0.00000000      0.00000000      0.00000000</v>
   <i type="logical" name="LNICSALL"> T  </i>
   <i type="logical" name="ORBITALMAG"> F  </i>
   <i type="logical" name="LMAGBLOCH"> F  </i>
   <i type="logical" name="LCHIMAG"> F  </i>
   <i type="logical" name="LGAUGE"> T  </i>
   <i type="int" name="MAGATOM">     0</i>
   <v name="MAGDIPOL">      0.00000000      0.00000000      0.00000000</v>
   <v name="AVECCONST">      0.00000000      0.00000000      0.00000000</v>
  </separator>
  <separator name="response functions" >
   <i type="logical" name="LADDER"> F  </i>
   <i type="logical" name="LHARTREE"> T  </i>
   <i type="int" name="IBSE">     0</i>
   <i type="logical" name="LTCTE"> F  </i>
   <i type="logical" name="LTETE"> F  </i>
   <i type="logical" name="LFXCEPS"> F  </i>
   <i type="logical" name="L2ORDER"> F  </i>
   <i type="logical" name="LUSEW"> F  </i>
   <i name="ENCUTGW">     -2.00000000</i>
   <i name="ENCUTGWSOFT">     -2.00000000</i>
   <i name="ENCUTLF">     -1.00000000</i>
   <i type="int" name="LMAXMP2">    -1</i>
   <i name="SCISSOR">      0.00000000</i>
   <i type="int" name="NOMEGA">     0</i>
   <i type="int" name="NOMEGAR">     0</i>
   <i type="int" name="NBANDSGW">    -1</i>
   <i type="int" name="NBANDSO">    -1</i>
   <i type="int" name="NBANDSV">    -1</i>
   <i name="OPTEMAX">      0.00000000</i>
   <i type="int" name="NELM">     1</i>
   <i type="int" name="DIM">     3</i>
   <i type="int" name="ANTIRES">     0</i>
   <i name="OMEGAMAX">    -30.00000000</i>
   <i name="OMEGATL">   -200.00000000</i>
   <i type="int" name="OMEGAGRID">     0</i>
   <i name="CSHIFT">     -0.10000000</i>
   <i type="logical" name="SELFENERGY"> F  </i>
   <i type="logical" name="LSPECTRAL"> F  </i>
   <i type="logical" name="ODDONLYGW"> F  </i>
   <i type="logical" name="EVENONLYGW"> F  </i>
   <i type="int" name="NKREDLFX">     1</i>
   <i type="int" name="NKREDLFY">     1</i>
   <i type="int" name="NKREDLFZ">     1</i>
   <i type="int" name="MAXMEM">  1800</i>
   <i type="int" name="TELESCOPE">     0</i>
  </separator>
 </parameters>
 <atominfo>
  <atoms>       4 </atoms>
  <types>       1 </types>
  <array name="atoms" >
   <dimension dim="1">ion</dimension>
   <field type="string">element</field>
   <field type="int">atomtype</field>
   <set>
    <rc><c>C </c><c>   1</c></rc>
    <rc><c>C </c><c>   1</c></rc>
    <rc><c>C </c><c>   1</c></rc>
    <rc><c>C </c><c>   1</c></rc>
   </set>
  </array>
  <array name="atomtypes" >
   <dimension dim="1">type</dimension>
   <field type="int">atomspertype</field>
   <field type="string">element</field>
   <field>mass</field>
   <field>valence</field>
   <field type="string">pseudopotential</field>
   <set>
    <rc><c>   4</c><c>C </c><c>     12.01100000</c><c>      4.00000000</c><c> PAW_PBE C 08Apr2002                    </c></rc>
   </set>
  </array>
 </atominfo>
 <structure name="initialpos" >
  <crystal>
   <varray name="basis" >
    <v>       2.46120000       0.00000000       0.00000000 </v>
    <v>      -1.23060000       2.13146172       0.00000000 </v>
    <v>       0.00000000       0.00000000       6.70790000 </v>
   </varray>
   <i name="volume">     35.18933212 </i>
   <varray name="rec_basis" >
    <v>       0.40630587       0.23458080       0.00000000 </v>
    <v>       0.00000000       0.46916160       0.00000000 </v>
    <v>       0.00000000       0.00000000       0.14907795 </v>
   </varray>
  </crystal>
  <varray name="positions" >
   <v>       0.00000000       0.00000000       0.00000000 </v>
   <v>       0.33333333       0.66666667       0.00000000 </v>
   <v>       0.33333333       0.66666667       0.50000000 </v>
   <v>       0.66666667       0.33333333       0.50000000 </v>
  </varray>
 </structure>
 <calculation>
  <scstep>
   <time name="dav">    8.99    8.99</time>
   <time name="total">    9.35    9.48</time>
   <energy>
    <i name="alphaZ">     37.04766603 </i>
    <i name="ewald">   -460.60042082 </i>
    <i name="hartreedc">   -148.78490797 </i>
    <i name="XCdc">     56.10990993 </i>
    <i name="pawpsdc">    150.95130483 </i>
    <i name="pawaedc">   -155.51722924 </i>
    <i name="eentropy">      0.00003366 </i>
    <i name="bandstr">    -44.64348094 </i>
    <i name="atom">    588.28246388 </i>
    <i name="e_fr_energy">     22.84533936 </i>
    <i name="e_wo_entrp">     22.84530570 </i>
    <i name="e_0_energy">     22.84532814 </i>
   </energy>
  </scstep>
  <scstep>
   <time name="dav">   11.06   11.06</time>
   <time name="total">   11.08   11.08</time>
   <energy>
    <i name="e_fr_energy">    -35.30124037 </i>
    <i name="e_wo_entrp">    -35.30129381 </i>
    <i name="e_0_energy">    -35.30125819 </i>
   </energy>
  </scstep>
  <scstep>
   <time name="dav">   10.92   10.93</time>
   <time name="total">   10.94   10.96</time>
   <energy>
    <i name="e_fr_energy">    -37.57099930 </i>
    <i name="e_wo_entrp">    -37.57098294 </i>
    <i name="e_0_energy">    -37.57099385 </i>
   </energy>
  </scstep>
  <scstep>
   <time name="dav">   10.56   10.56</time>
   <time name="total">   10.58   10.61</time>
   <energy>
    <i name="e_fr_energy">    -37.59279427 </i>
    <i name="e_wo_entrp">    -37.59278044 </i>
    <i name="e_0_energy">    -37.59278966 </i>
   </energy>
  </scstep>
  <scstep>
   <time name="dav">   10.92   10.92</time>
   <time name="total">   11.68   11.70</time>
   <energy>
    <i name="e_fr_energy">    -37.59324622 </i>
    <i name="e_wo_entrp">    -37.59323247 </i>
    <i name="e_0_energy">    -37.59324164 </i>
   </energy>
  </scstep>
  <scstep>
   <time name="dav">    9.59    9.59</time>
   <time name="total">   10.68   10.70</time>
   <energy>
    <i name="e_fr_energy">    -36.92149290 </i>
    <i name="e_wo_entrp">    -36.92152871 </i>
    <i name="e_0_energy">    -36.92150484 </i>
   </energy>
  </scstep>
  <scstep>
   <time name="dav">    9.63    9.63</time>
   <time name="total">   10.71   10.72</time>
   <energy>
    <i name="e_fr_energy">    -36.95957313 </i>
    <i name="e_wo_entrp">    -36.95963164 </i>
    <i name="e_0_energy">    -36.95959264 </i>
   </energy>
  </scstep>
  <scstep>
   <time name="dav">   10.13   10.13</time>
   <time name="total">   11.21   11.23</time>
   <energy>
    <i name="e_fr_energy">    -36.90681794 </i>
    <i name="e_wo_entrp">    -36.90688318 </i>
    <i name="e_0_energy">    -36.90683969 </i>
   </energy>
  </scstep>
  <scstep>
   <time name="dav">    9.63    9.63</time>
   <time name="total">   10.71   10.72</time>
   <energy>
    <i name="e_fr_energy">    -36.91870479 </i>
    <i name="e_wo_entrp">    -36.91876350 </i>
    <i name="e_0_energy">    -36.91872436 </i>
   </energy>
  </scstep>
  <scstep>
   <time name="dav">   10.36   10.36</time>
   <time name="total">   11.44   11.45</time>
   <energy>
    <i name="e_fr_energy">    -36.91951968 </i>
    <i name="e_wo_entrp">    -36.91958493 </i>
    <i name="e_0_energy">    -36.91954143 </i>
   </energy>
  </scstep>
  <scstep>
   <time name="dav">    9.74    9.74</time>
   <time name="total">   10.81   10.83</time>
   <energy>
    <i name="e_fr_energy">    -36.91977000 </i>
    <i name="e_wo_entrp">    -36.91983527 </i>
    <i name="e_0_energy">    -36.91979176 </i>
   </energy>
  </scstep>
  <scstep>
   <time name="dav">    8.49    8.49</time>
   <time name="total">    8.84    8.86</time>
   <energy>
    <i name="alphaZ">     37.04766603 </i>
    <i name="ewald">   -460.60042082 </i>
    <i name="hartreedc">   -183.50344647 </i>
    <i name="XCdc">     57.69224583 </i>
    <i name="pawpsdc">    281.14307743 </i>
    <i name="pawaedc">   -286.22684405 </i>
    <i name="eentropy">      0.00006528 </i>
    <i name="bandstr">    -70.75461346 </i>
    <i name="atom">    588.28246388 </i>
    <i name="e_fr_energy">    -36.91980636 </i>
    <i name="e_wo_entrp">    -36.91987164 </i>
    <i name="e_0_energy">    -36.91982812 </i>
   </energy>
  </scstep>
  <parameters_embedded>
   <separator name="dft+d2" >
    <i type="logical" name="LVDW"> F  </i>
   </separator>
  </parameters_embedded>
  <structure>
   <crystal>
    <varray name="basis" >
     <v>       2.46120000       0.00000000       0.00000000 </v>
     <v>      -1.23060000       2.13146172       0.00000000 </v>
     <v>       0.00000000       0.00000000       6.70790000 </v>
    </varray>
    <i name="volume">     35.18933212 </i>
    <varray name="rec_basis" >
     <v>       0.40630587       0.23458080       0.00000000 </v>
     <v>       0.00000000       0.46916160       0.00000000 </v>
     <v>       0.00000000       0.00000000       0.14907795 </v>
    </varray>
   </crystal>
   <varray name="positions" >
    <v>       0.00000000       0.00000000       0.00000000 </v>
    <v>       0.33333333       0.66666667       0.00000000 </v>
    <v>       0.33333333       0.66666667       0.50000000 </v>
    <v>       0.66666667       0.33333333       0.50000000 </v>
   </varray>
  </structure>
  <varray name="forces" >
   <v>       0.00000000       0.00000000       0.00000000 </v>
   <v>       0.00000000       0.00000000       0.00000000 </v>
   <v>       0.00000000       0.00000000       0.00000000 </v>
   <v>       0.00000000       0.00000000       0.00000000 </v>
  </varray>
  <varray name="stress" >
   <v>     -27.18108525       0.00000000       0.00000000 </v>
   <v>       0.00000000     -27.18108525       0.00000000 </v>
   <v>       0.00000000       0.00000000     -41.78622704 </v>
  </varray>
  <energy>
   <i name="e_fr_energy">    -36.91980636 </i>
   <i name="e_wo_entrp">    -36.91982812 </i>
   <i name="e_0_energy">      0.00006528 </i>
  </energy>
  <time name="totalsc">  131.69  132.17</time>
  <eigenvalues>
   <array>
    <dimension dim="1">band</dimension>
    <dimension dim="2">kpoint</dimension>
    <dimension dim="3">spin</dimension>
    <field>eigene</field>
    <field>occ</field>
    <set>
     <set comment="spin 1">
      <set comment="kpoint 1">
       <r>  -14.9842    1.0000 </r>
       <r>  -14.6852    1.0000 </r>
       <r>   -3.8211    1.0000 </r>
       <r>   -1.8640    1.0000 </r>
       <r>    1.7266    1.0000 </r>
       <r>    1.7266    1.0000 </r>
       <r>    1.7314    1.0000 </r>
       <r>    1.7314    1.0000 </r>
       <r>    8.9876    0.0000 </r>
       <r>   13.1460    0.0000 </r>
       <r>   13.1461    0.0000 </r>
       <r>   13.2091    0.0000 </r>
       <r>   13.2091    0.0000 </r>
       <r>   15.3262    0.0000 </r>
      </set>
      <set comment="kpoint 2">
       <r>  -14.7453    1.0000 </r>
       <r>  -14.4502    1.0000 </r>
       <r>   -3.5306    1.0000 </r>
       <r>   -1.5947    1.0000 </r>
       <r>    0.7795    1.0000 </r>
       <r>    0.8155    1.0000 </r>
       <r>    1.2255    1.0000 </r>
       <r>    1.2598    1.0000 </r>
       <r>    9.2767    0.0000 </r>
       <r>   13.1865    0.0000 </r>
       <r>   13.2775    0.0000 </r>
       <r>   14.1411    0.0000 </r>
       <r>   14.1818    0.0000 </r>
       <r>   15.3460    0.0000 </r>
      </set>
      <set comment="kpoint 3">
       <r>  -14.0311    1.0000 </r>
       <r>  -13.7488    1.0000 </r>
       <r>   -2.6673    1.0000 </r>
       <r>   -1.4339    1.0000 </r>
       <r>   -1.3567    1.0000 </r>
       <r>   -0.7934    1.0000 </r>
       <r>    0.1971    1.0000 </r>
       <r>    0.2446    1.0000 </r>
       <r>   10.1480    0.0000 </r>
       <r>   12.9532    0.0000 </r>
       <r>   13.1520    0.0000 </r>
       <r>   13.1782    0.0000 </r>
       <r>   13.6491    0.0000 </r>
       <r>   16.2022    0.0000 </r>
      </set>
      <set comment="kpoint 4">
       <r>  -12.8550    1.0000 </r>
       <r>  -12.5942    1.0000 </r>
       <r>   -4.0829    1.0000 </r>
       <r>   -3.9628    1.0000 </r>
       <r>   -1.2737    1.0000 </r>
       <r>   -0.7991    1.0000 </r>
       <r>   -0.7445    1.0000 </r>
       <r>    0.4777    1.0000 </r>
       <r>   10.2537    0.0000 </r>
       <r>   11.0847    0.0000 </r>
       <r>   11.5721    0.0000 </r>
       <r>   12.4987    0.0000 </r>
       <r>   12.8470    0.0000 </r>
       <r>   17.1540    0.0000 </r>
      </set>
      <set comment="kpoint 5">
       <r>  -11.2522    1.0000 </r>
       <r>  -11.0199    1.0000 </r>
       <r>   -6.6915    1.0000 </r>
       <r>   -6.5320    1.0000 </r>
       <r>   -1.4742    1.0000 </r>
       <r>   -1.4213    1.0000 </r>
       <r>    0.5323    1.0000 </r>
       <r>    1.9914    1.0000 </r>
       <r>    7.4814    0.0000 </r>
       <r>    8.4871    0.0000 </r>
       <r>   12.1057    0.0000 </r>
       <r>   12.4644    0.0000 </r>
       <r>   13.6609    0.0000 </r>
       <r>   18.2666    0.0000 </r>
      </set>
      <set comment="kpoint 6">
       <r>   -9.6279    1.0000 </r>
       <r>   -9.5178    1.0000 </r>
       <r>   -8.5659    1.0000 </r>
       <r>   -8.4832    1.0000 </r>
       <r>   -1.7094    1.0000 </r>
       <r>   -1.6521    1.0000 </r>
       <r>    1.9456    1.0000 </r>
       <r>    2.6358    1.0000 </r>
       <r>    6.2522    0.0000 </r>
       <r>    6.9166    0.0000 </r>
       <r>   11.9723    0.0000 </r>
       <r>   12.3709    0.0000 </r>
       <r>   16.0293    0.0000 </r>
       <r>   16.1528    0.0000 </r>
      </set>
      <set comment="kpoint 7">
       <r>  -14.2685    1.0000 </r>
       <r>  -13.9818    1.0000 </r>
       <r>   -2.9528    1.0000 </r>
       <r>   -1.0572    1.0000 </r>
       <r>   -0.5771    1.0000 </r>
       <r>   -0.5429    1.0000 </r>
       <r>    0.2781    1.0000 </r>
       <r>    0.3018    1.0000 </r>
       <r>    9.8605    0.0000 </r>
       <r>   13.6443    0.0000 </r>
       <r>   13.7597    0.0000 </r>
       <r>   13.8954    0.0000 </r>
       <r>   14.2658    0.0000 </r>
       <r>   15.1416    0.0000 </r>
      </set>
      <set comment="kpoint 8">
       <r>  -13.3234    1.0000 </r>
       <r>  -13.0542    1.0000 </r>
       <r>   -2.7726    1.0000 </r>
       <r>   -2.6860    1.0000 </r>
       <r>   -1.8220    1.0000 </r>
       <r>   -0.9871    1.0000 </r>
       <r>   -0.9347    1.0000 </r>
       <r>   -0.0136    1.0000 </r>
       <r>   11.0243    0.0000 </r>
       <r>   11.4977    0.0000 </r>
       <r>   12.0476    0.0000 </r>
       <r>   13.6853    0.0000 </r>
       <r>   13.9740    0.0000 </r>
       <r>   16.9240    0.0000 </r>
      </set>
      <set comment="kpoint 9">
       <r>  -11.9314    1.0000 </r>
       <r>  -11.6872    1.0000 </r>
       <r>   -5.3203    1.0000 </r>
       <r>   -5.1865    1.0000 </r>
       <r>   -1.9141    1.0000 </r>
       <r>   -1.8492    1.0000 </r>
       <r>   -0.1998    1.0000 </r>
       <r>    1.4296    1.0000 </r>
       <r>    8.7065    0.0000 </r>
       <r>    9.5440    0.0000 </r>
       <r>   12.7163    0.0000 </r>
       <r>   13.3063    0.0000 </r>
       <r>   13.7037    0.0000 </r>
       <r>   17.4548    0.0000 </r>
      </set>
      <set comment="kpoint 10">
       <r>  -10.1681    1.0000 </r>
       <r>   -9.9649    1.0000 </r>
       <r>   -7.7259    1.0000 </r>
       <r>   -7.5643    1.0000 </r>
       <r>   -2.3957    1.0000 </r>
       <r>   -2.3257    1.0000 </r>
       <r>    1.6518    1.0000 </r>
       <r>    2.7404    1.0000 </r>
       <r>    6.5147    0.0000 </r>
       <r>    7.3082    0.0000 </r>
       <r>   13.0187    0.0000 </r>
       <r>   13.4352    0.0000 </r>
       <r>   15.0068    0.0000 </r>
       <r>   17.4605    0.0000 </r>
      </set>
      <set comment="kpoint 11">
       <r>  -12.1617    1.0000 </r>
       <r>  -11.9130    1.0000 </r>
       <r>   -4.2419    1.0000 </r>
       <r>   -4.1773    1.0000 </r>
       <r>   -2.7557    1.0000 </r>
       <r>   -2.7089    1.0000 </r>
       <r>   -0.4480    1.0000 </r>
       <r>    1.2302    1.0000 </r>
       <r>    9.4062    0.0000 </r>
       <r>    9.9619    0.0000 </r>
       <r>   12.4690    0.0000 </r>
       <r>   15.4893    0.0000 </r>
       <r>   15.7825    0.0000 </r>
       <r>   16.7927    0.0000 </r>
      </set>
      <set comment="kpoint 12">
       <r>  -10.5872    1.0000 </r>
       <r>  -10.3696    1.0000 </r>
       <r>   -6.2775    1.0000 </r>
       <r>   -6.1483    1.0000 </r>
       <r>   -3.8565    1.0000 </r>
       <r>   -3.7673    1.0000 </r>
       <r>    1.3365    1.0000 </r>
       <r>    2.7416    1.0000 </r>
       <r>    7.1349    0.0000 </r>
       <r>    7.8095    0.0000 </r>
       <r>   14.4036    0.0000 </r>
       <r>   15.4863    0.0000 </r>
       <r>   16.1184    0.0000 </r>
       <r>   16.8740    0.0000 </r>
      </set>
      <set comment="kpoint 13">
       <r>   -9.0159    1.0000 </r>
       <r>   -8.9105    1.0000 </r>
       <r>   -8.0006    1.0000 </r>
       <r>   -7.9318    1.0000 </r>
       <r>   -4.1702    1.0000 </r>
       <r>   -4.0664    1.0000 </r>
       <r>    2.8116    1.0000 </r>
       <r>    3.4777    1.0000 </r>
       <r>    6.1032    0.0000 </r>
       <r>    6.2249    0.0000 </r>
       <r>   15.3234    0.0000 </r>
       <r>   15.9818    0.0000 </r>
       <r>   16.5383    0.0000 </r>
       <r>   16.7323    0.0000 </r>
      </set>
      <set comment="kpoint 14">
       <r>   -8.9277    1.0000 </r>
       <r>   -8.7531    1.0000 </r>
       <r>   -7.1894    1.0000 </r>
       <r>   -7.0991    1.0000 </r>
       <r>   -5.4838    1.0000 </r>
       <r>   -5.4295    1.0000 </r>
       <r>    3.1668    1.0000 </r>
       <r>    4.2131    0.9273 </r>
       <r>    5.4484    0.0000 </r>
       <r>    6.1228    0.0000 </r>
       <r>   16.0516    0.0000 </r>
       <r>   16.1455    0.0000 </r>
       <r>   16.3173    0.0000 </r>
       <r>   17.2308    0.0000 </r>
      </set>
      <set comment="kpoint 15">
       <r>  -14.9775    1.0000 </r>
       <r>  -14.6930    1.0000 </r>
       <r>   -3.7808    1.0000 </r>
       <r>   -1.9255    1.0000 </r>
       <r>    1.7152    1.0000 </r>
       <r>    1.7153    1.0000 </r>
       <r>    1.7267    1.0000 </r>
       <r>    1.7268    1.0000 </r>
       <r>    9.1110    0.0000 </r>
       <r>   13.1383    0.0000 </r>
       <r>   13.1383    0.0000 </r>
       <r>   13.1838    0.0000 </r>
       <r>   13.1838    0.0000 </r>
       <r>   15.0787    0.0000 </r>
      </set>
      <set comment="kpoint 16">
       <r>  -14.7385    1.0000 </r>
       <r>  -14.4579    1.0000 </r>
       <r>   -3.4902    1.0000 </r>
       <r>   -1.6536    1.0000 </r>
       <r>    0.7804    1.0000 </r>
       <r>    0.8142    1.0000 </r>
       <r>    1.2302    1.0000 </r>
       <r>    1.2593    1.0000 </r>
       <r>    9.3995    0.0000 </r>
       <r>   13.1937    0.0000 </r>
       <r>   13.2758    0.0000 </r>
       <r>   14.1433    0.0000 </r>
       <r>   14.1809    0.0000 </r>
       <r>   15.2692    0.0000 </r>
      </set>
      <set comment="kpoint 17">
       <r>  -14.0246    1.0000 </r>
       <r>  -13.7562    1.0000 </r>
       <r>   -2.6306    1.0000 </r>
       <r>   -1.4303    1.0000 </r>
       <r>   -1.3577    1.0000 </r>
       <r>   -0.8498    1.0000 </r>
       <r>    0.2050    1.0000 </r>
       <r>    0.2440    1.0000 </r>
       <r>   10.2657    0.0000 </r>
       <r>   12.9536    0.0000 </r>
       <r>   13.1655    0.0000 </r>
       <r>   13.1860    0.0000 </r>
       <r>   13.6353    0.0000 </r>
       <r>   15.9708    0.0000 </r>
      </set>
      <set comment="kpoint 18">
       <r>  -12.8489    1.0000 </r>
       <r>  -12.6009    1.0000 </r>
       <r>   -4.0801    1.0000 </r>
       <r>   -3.9638    1.0000 </r>
       <r>   -1.2372    1.0000 </r>
       <r>   -0.7977    1.0000 </r>
       <r>   -0.7456    1.0000 </r>
       <r>    0.4310    1.0000 </r>
       <r>   10.2721    0.0000 </r>
       <r>   11.0518    0.0000 </r>
       <r>   11.6879    0.0000 </r>
       <r>   12.5074    0.0000 </r>
       <r>   12.8490    0.0000 </r>
       <r>   16.9627    0.0000 </r>
      </set>
      <set comment="kpoint 19">
       <r>  -11.2468    1.0000 </r>
       <r>  -11.0255    1.0000 </r>
       <r>   -6.6877    1.0000 </r>
       <r>   -6.5368    1.0000 </r>
       <r>   -1.4717    1.0000 </r>
       <r>   -1.4196    1.0000 </r>
       <r>    0.5661    1.0000 </r>
       <r>    1.9517    1.0000 </r>
       <r>    7.4963    0.0000 </r>
       <r>    8.4595    0.0000 </r>
       <r>   12.1155    0.0000 </r>
       <r>   12.4566    0.0000 </r>
       <r>   13.7643    0.0000 </r>
       <r>   18.1006    0.0000 </r>
      </set>
      <set comment="kpoint 20">
       <r>   -9.6245    1.0000 </r>
       <r>   -9.5200    1.0000 </r>
       <r>   -8.5648    1.0000 </r>
       <r>   -8.4861    1.0000 </r>
       <r>   -1.7080    1.0000 </r>
       <r>   -1.6534    1.0000 </r>
       <r>    1.9674    1.0000 </r>
       <r>    2.6269    1.0000 </r>
       <r>    6.2485    0.0000 </r>
       <r>    6.8894    0.0000 </r>
       <r>   11.9816    0.0000 </r>
       <r>   12.3619    0.0000 </r>
       <r>   16.1256    0.0000 </r>
       <r>   16.2218    0.0000 </r>
      </set>
      <set comment="kpoint 21">
       <r>  -14.2619    1.0000 </r>
       <r>  -13.9895    1.0000 </r>
       <r>   -2.9148    1.0000 </r>
       <r>   -1.1151    1.0000 </r>
       <r>   -0.5765    1.0000 </r>
       <r>   -0.5442    1.0000 </r>
       <r>    0.2795    1.0000 </r>
       <r>    0.3015    1.0000 </r>
       <r>    9.9801    0.0000 </r>
       <r>   13.6338    0.0000 </r>
       <r>   13.7539    0.0000 </r>
       <r>   13.9136    0.0000 </r>
       <r>   14.2701    0.0000 </r>
       <r>   15.1459    0.0000 </r>
      </set>
      <set comment="kpoint 22">
       <r>  -13.3171    1.0000 </r>
       <r>  -13.0612    1.0000 </r>
       <r>   -2.7704    1.0000 </r>
       <r>   -2.6894    1.0000 </r>
       <r>   -1.7865    1.0000 </r>
       <r>   -0.9865    1.0000 </r>
       <r>   -0.9351    1.0000 </r>
       <r>   -0.0660    1.0000 </r>
       <r>   11.1308    0.0000 </r>
       <r>   11.5084    0.0000 </r>
       <r>   12.0225    0.0000 </r>
       <r>   13.6888    0.0000 </r>
       <r>   13.9722    0.0000 </r>
       <r>   16.4592    0.0000 </r>
      </set>
      <set comment="kpoint 23">
       <r>  -11.9259    1.0000 </r>
       <r>  -11.6934    1.0000 </r>
       <r>   -5.3176    1.0000 </r>
       <r>   -5.1887    1.0000 </r>
       <r>   -1.9130    1.0000 </r>
       <r>   -1.8514    1.0000 </r>
       <r>   -0.1633    1.0000 </r>
       <r>    1.3852    1.0000 </r>
       <r>    8.7234    0.0000 </r>
       <r>    9.5222    0.0000 </r>
       <r>   12.8124    0.0000 </r>
       <r>   13.3151    0.0000 </r>
       <r>   13.7037    0.0000 </r>
       <r>   17.3083    0.0000 </r>
      </set>
      <set comment="kpoint 24">
       <r>  -10.1633    1.0000 </r>
       <r>   -9.9701    1.0000 </r>
       <r>   -7.7220    1.0000 </r>
       <r>   -7.5686    1.0000 </r>
       <r>   -2.3946    1.0000 </r>
       <r>   -2.3286    1.0000 </r>
       <r>    1.6796    1.0000 </r>
       <r>    2.7167    1.0000 </r>
       <r>    6.5162    0.0000 </r>
       <r>    7.2761    0.0000 </r>
       <r>   13.0272    0.0000 </r>
       <r>   13.4242    0.0000 </r>
       <r>   15.0895    0.0000 </r>
       <r>   17.4424    0.0000 </r>
      </set>
      <set comment="kpoint 25">
       <r>  -12.1559    1.0000 </r>
       <r>  -11.9198    1.0000 </r>
       <r>   -4.2389    1.0000 </r>
       <r>   -4.1781    1.0000 </r>
       <r>   -2.7567    1.0000 </r>
       <r>   -2.7106    1.0000 </r>
       <r>   -0.4172    1.0000 </r>
       <r>    1.1805    1.0000 </r>
       <r>    9.4155    0.0000 </r>
       <r>    9.9340    0.0000 </r>
       <r>   12.5694    0.0000 </r>
       <r>   15.4856    0.0000 </r>
       <r>   15.7849    0.0000 </r>
       <r>   16.7839    0.0000 </r>
      </set>
      <set comment="kpoint 26">
       <r>  -10.5820    1.0000 </r>
       <r>  -10.3751    1.0000 </r>
       <r>   -6.2739    1.0000 </r>
       <r>   -6.1503    1.0000 </r>
       <r>   -3.8539    1.0000 </r>
       <r>   -3.7680    1.0000 </r>
       <r>    1.3705    1.0000 </r>
       <r>    2.7076    1.0000 </r>
       <r>    7.1509    0.0000 </r>
       <r>    7.7971    0.0000 </r>
       <r>   14.4666    0.0000 </r>
       <r>   15.4883    0.0000 </r>
       <r>   16.1090    0.0000 </r>
       <r>   16.7736    0.0000 </r>
      </set>
      <set comment="kpoint 27">
       <r>   -9.0124    1.0000 </r>
       <r>   -8.9124    1.0000 </r>
       <r>   -7.9996    1.0000 </r>
       <r>   -7.9341    1.0000 </r>
       <r>   -4.1676    1.0000 </r>
       <r>   -4.0682    1.0000 </r>
       <r>    2.8349    1.0000 </r>
       <r>    3.4757    1.0000 </r>
       <r>    6.0888    0.0000 </r>
       <r>    6.2223    0.0000 </r>
       <r>   15.3270    0.0000 </r>
       <r>   15.9292    0.0000 </r>
       <r>   16.4057    0.0000 </r>
       <r>   16.4611    0.0000 </r>
      </set>
      <set comment="kpoint 28">
       <r>   -8.9242    1.0000 </r>
       <r>   -8.7571    1.0000 </r>
       <r>   -7.1860    1.0000 </r>
       <r>   -7.1013    1.0000 </r>
       <r>   -5.4833    1.0000 </r>
       <r>   -5.4318    1.0000 </r>
       <r>    3.1969    1.0000 </r>
       <r>    4.1820    1.0354 </r>
       <r>    5.4591    0.0000 </r>
       <r>    6.1027    0.0000 </r>
       <r>   15.8103    0.0000 </r>
       <r>   15.9116    0.0000 </r>
       <r>   16.6489    0.0000 </r>
       <r>   17.4015    0.0000 </r>
      </set>
      <set comment="kpoint 29">
       <r>  -14.9575    1.0000 </r>
       <r>  -14.7156    1.0000 </r>
       <r>   -3.6615    1.0000 </r>
       <r>   -2.0936    1.0000 </r>
       <r>    1.7151    1.0000 </r>
       <r>    1.7151    1.0000 </r>
       <r>    1.7252    1.0000 </r>
       <r>    1.7252    1.0000 </r>
       <r>    9.4718    0.0000 </r>
       <r>   13.1417    0.0000 </r>
       <r>   13.1417    0.0000 </r>
       <r>   13.1788    0.0000 </r>
       <r>   13.1788    0.0000 </r>
       <r>   14.4123    0.0000 </r>
      </set>
      <set comment="kpoint 30">
       <r>  -14.7187    1.0000 </r>
       <r>  -14.4801    1.0000 </r>
       <r>   -3.3746    1.0000 </r>
       <r>   -1.8199    1.0000 </r>
       <r>    0.7807    1.0000 </r>
       <r>    0.8116    1.0000 </r>
       <r>    1.2309    1.0000 </r>
       <r>    1.2555    1.0000 </r>
       <r>    9.7564    0.0000 </r>
       <r>   13.1927    0.0000 </r>
       <r>   13.2697    0.0000 </r>
       <r>   14.1416    0.0000 </r>
       <r>   14.1761    0.0000 </r>
       <r>   14.6483    0.0000 </r>
      </set>
      <set comment="kpoint 31">
       <r>  -14.0056    1.0000 </r>
       <r>  -13.7773    1.0000 </r>
       <r>   -2.5166    1.0000 </r>
       <r>   -1.4248    1.0000 </r>
       <r>   -1.3632    1.0000 </r>
       <r>   -1.0101    1.0000 </r>
       <r>    0.2068    1.0000 </r>
       <r>    0.2412    1.0000 </r>
       <r>   10.6068    0.0000 </r>
       <r>   12.9501    0.0000 </r>
       <r>   13.1428    0.0000 </r>
       <r>   13.2217    0.0000 </r>
       <r>   13.6026    0.0000 </r>
       <r>   15.3777    0.0000 </r>
      </set>
      <set comment="kpoint 32">
       <r>  -12.8312    1.0000 </r>
       <r>  -12.6206    1.0000 </r>
       <r>   -4.0716    1.0000 </r>
       <r>   -3.9727    1.0000 </r>
       <r>   -1.1275    1.0000 </r>
       <r>   -0.7896    1.0000 </r>
       <r>   -0.7523    1.0000 </r>
       <r>    0.2864    1.0000 </r>
       <r>   10.3056    0.0000 </r>
       <r>   10.9745    0.0000 </r>
       <r>   12.0021    0.0000 </r>
       <r>   12.5306    0.0000 </r>
       <r>   12.8589    0.0000 </r>
       <r>   16.4521    0.0000 </r>
      </set>
      <set comment="kpoint 33">
       <r>  -11.2309    1.0000 </r>
       <r>  -11.0434    1.0000 </r>
       <r>   -6.6772    1.0000 </r>
       <r>   -6.5485    1.0000 </r>
       <r>   -1.4634    1.0000 </r>
       <r>   -1.4238    1.0000 </r>
       <r>    0.6597    1.0000 </r>
       <r>    1.8365    1.0000 </r>
       <r>    7.5404    0.0000 </r>
       <r>    8.3639    0.0000 </r>
       <r>   12.1406    0.0000 </r>
       <r>   12.4312    0.0000 </r>
       <r>   14.0665    0.0000 </r>
       <r>   17.7024    0.0000 </r>
      </set>
      <set comment="kpoint 34">
       <r>   -9.6166    1.0000 </r>
       <r>   -9.5264    1.0000 </r>
       <r>   -8.5613    1.0000 </r>
       <r>   -8.4942    1.0000 </r>
       <r>   -1.6988    1.0000 </r>
       <r>   -1.6579    1.0000 </r>
       <r>    2.0308    1.0000 </r>
       <r>    2.6017    1.0000 </r>
       <r>    6.2412    0.0000 </r>
       <r>    6.7950    0.0000 </r>
       <r>   12.0081    0.0000 </r>
       <r>   12.3309    0.0000 </r>
       <r>   16.3976    0.0000 </r>
       <r>   16.4191    0.0000 </r>
      </set>
      <set comment="kpoint 35">
       <r>  -14.2427    1.0000 </r>
       <r>  -14.0110    1.0000 </r>
       <r>   -2.8018    1.0000 </r>
       <r>   -1.2772    1.0000 </r>
       <r>   -0.5730    1.0000 </r>
       <r>   -0.5435    1.0000 </r>
       <r>    0.2841    1.0000 </r>
       <r>    0.3007    1.0000 </r>
       <r>   10.3285    0.0000 </r>
       <r>   13.6205    0.0000 </r>
       <r>   13.7421    0.0000 </r>
       <r>   13.9520    0.0000 </r>
       <r>   14.2500    0.0000 </r>
       <r>   15.1144    0.0000 </r>
      </set>
      <set comment="kpoint 36">
       <r>  -13.2989    1.0000 </r>
       <r>  -13.0812    1.0000 </r>
       <r>   -2.7651    1.0000 </r>
       <r>   -2.6958    1.0000 </r>
       <r>   -1.6737    1.0000 </r>
       <r>   -0.9819    1.0000 </r>
       <r>   -0.9394    1.0000 </r>
       <r>   -0.2161    1.0000 </r>
       <r>   11.3991    0.0000 </r>
       <r>   11.6037    0.0000 </r>
       <r>   11.9793    0.0000 </r>
       <r>   13.7042    0.0000 </r>
       <r>   13.9625    0.0000 </r>
       <r>   15.9272    0.0000 </r>
      </set>
      <set comment="kpoint 37">
       <r>  -11.9094    1.0000 </r>
       <r>  -11.7120    1.0000 </r>
       <r>   -5.3077    1.0000 </r>
       <r>   -5.1997    1.0000 </r>
       <r>   -1.9084    1.0000 </r>
       <r>   -1.8552    1.0000 </r>
       <r>   -0.0616    1.0000 </r>
       <r>    1.2518    1.0000 </r>
       <r>    8.7705    0.0000 </r>
       <r>    9.4524    0.0000 </r>
       <r>   13.0710    0.0000 </r>
       <r>   13.3476    0.0000 </r>
       <r>   13.7170    0.0000 </r>
       <r>   16.9130    0.0000 </r>
      </set>
      <set comment="kpoint 38">
       <r>  -10.1493    1.0000 </r>
       <r>   -9.9851    1.0000 </r>
       <r>   -7.7109    1.0000 </r>
       <r>   -7.5804    1.0000 </r>
       <r>   -2.3895    1.0000 </r>
       <r>   -2.3325    1.0000 </r>
       <r>    1.7587    1.0000 </r>
       <r>    2.6465    1.0000 </r>
       <r>    6.5393    0.0000 </r>
       <r>    7.1945    0.0000 </r>
       <r>   13.0554    0.0000 </r>
       <r>   13.3931    0.0000 </r>
       <r>   15.3276    0.0000 </r>
       <r>   17.3709    0.0000 </r>
      </set>
      <set comment="kpoint 39">
       <r>  -12.1390    1.0000 </r>
       <r>  -11.9383    1.0000 </r>
       <r>   -4.2343    1.0000 </r>
       <r>   -4.1823    1.0000 </r>
       <r>   -2.7538    1.0000 </r>
       <r>   -2.7145    1.0000 </r>
       <r>   -0.3133    1.0000 </r>
       <r>    1.0418    1.0000 </r>
       <r>    9.4544    0.0000 </r>
       <r>    9.8940    0.0000 </r>
       <r>   12.8601    0.0000 </r>
       <r>   15.4732    0.0000 </r>
       <r>   15.7910    0.0000 </r>
       <r>   16.4994    0.0000 </r>
      </set>
      <set comment="kpoint 40">
       <r>  -10.5670    1.0000 </r>
       <r>  -10.3911    1.0000 </r>
       <r>   -6.2650    1.0000 </r>
       <r>   -6.1614    1.0000 </r>
       <r>   -3.8489    1.0000 </r>
       <r>   -3.7767    1.0000 </r>
       <r>    1.4584    1.0000 </r>
       <r>    2.6023    1.0000 </r>
       <r>    7.1876    0.0000 </r>
       <r>    7.7390    0.0000 </r>
       <r>   14.6367    0.0000 </r>
       <r>   15.4847    0.0000 </r>
       <r>   16.0731    0.0000 </r>
       <r>   16.5572    0.0000 </r>
      </set>
      <set comment="kpoint 41">
       <r>   -9.0040    1.0000 </r>
       <r>   -8.9186    1.0000 </r>
       <r>   -7.9969    1.0000 </r>
       <r>   -7.9405    1.0000 </r>
       <r>   -4.1603    1.0000 </r>
       <r>   -4.0789    1.0000 </r>
       <r>    2.8986    1.0000 </r>
       <r>    3.4531    1.0000 </r>
       <r>    6.0594    0.0000 </r>
       <r>    6.1787    0.0000 </r>
       <r>   15.3333    0.0000 </r>
       <r>   15.7468    0.0000 </r>
       <r>   16.2228    0.0000 </r>
       <r>   16.3422    0.0000 </r>
      </set>
      <set comment="kpoint 42">
       <r>   -8.9119    1.0000 </r>
       <r>   -8.7695    1.0000 </r>
       <r>   -7.1800    1.0000 </r>
       <r>   -7.1075    1.0000 </r>
       <r>   -5.4805    1.0000 </r>
       <r>   -5.4373    1.0000 </r>
       <r>    3.2717    1.0000 </r>
       <r>    4.1192    1.0012 </r>
       <r>    5.5056    0.0000 </r>
       <r>    6.0440    0.0000 </r>
       <r>   15.4663    0.0000 </r>
       <r>   15.6294    0.0000 </r>
       <r>   17.0247    0.0000 </r>
       <r>   17.8238    0.0000 </r>
      </set>
      <set comment="kpoint 43">
       <r>  -14.9259    1.0000 </r>
       <r>  -14.7502    1.0000 </r>
       <r>   -3.4727    1.0000 </r>
       <r>   -2.3409    1.0000 </r>
       <r>    1.7146    1.0000 </r>
       <r>    1.7146    1.0000 </r>
       <r>    1.7227    1.0000 </r>
       <r>    1.7227    1.0000 </r>
       <r>   10.0410    0.0000 </r>
       <r>   13.1469    0.0000 </r>
       <r>   13.1469    0.0000 </r>
       <r>   13.1719    0.0000 </r>
       <r>   13.1719    0.0000 </r>
       <r>   13.5305    0.0000 </r>
      </set>
      <set comment="kpoint 44">
       <r>  -14.6874    1.0000 </r>
       <r>  -14.5142    1.0000 </r>
       <r>   -3.1865    1.0000 </r>
       <r>   -2.0631    1.0000 </r>
       <r>    0.7856    1.0000 </r>
       <r>    0.8089    1.0000 </r>
       <r>    1.2365    1.0000 </r>
       <r>    1.2528    1.0000 </r>
       <r>   10.3191    0.0000 </r>
       <r>   13.1807    0.0000 </r>
       <r>   13.2640    0.0000 </r>
       <r>   13.8120    0.0000 </r>
       <r>   14.1481    0.0000 </r>
       <r>   14.1806    0.0000 </r>
      </set>
      <set comment="kpoint 45">
       <r>  -13.9757    1.0000 </r>
       <r>  -13.8098    1.0000 </r>
       <r>   -2.3333    1.0000 </r>
       <r>   -1.4170    1.0000 </r>
       <r>   -1.3686    1.0000 </r>
       <r>   -1.2405    1.0000 </r>
       <r>    0.2093    1.0000 </r>
       <r>    0.2360    1.0000 </r>
       <r>   11.1449    0.0000 </r>
       <r>   12.9492    0.0000 </r>
       <r>   13.1125    0.0000 </r>
       <r>   13.2820    0.0000 </r>
       <r>   13.5591    0.0000 </r>
       <r>   14.5957    0.0000 </r>
      </set>
      <set comment="kpoint 46">
       <r>  -12.8037    1.0000 </r>
       <r>  -12.6507    1.0000 </r>
       <r>   -4.0585    1.0000 </r>
       <r>   -3.9882    1.0000 </r>
       <r>   -0.9550    1.0000 </r>
       <r>   -0.7853    1.0000 </r>
       <r>   -0.7580    1.0000 </r>
       <r>    0.0649    1.0000 </r>
       <r>   10.3756    0.0000 </r>
       <r>   10.8646    0.0000 </r>
       <r>   12.3908    0.0000 </r>
       <r>   12.5739    0.0000 </r>
       <r>   12.9558    0.0000 </r>
       <r>   15.7370    0.0000 </r>
      </set>
      <set comment="kpoint 47">
       <r>  -11.2061    1.0000 </r>
       <r>  -11.0698    1.0000 </r>
       <r>   -6.6583    1.0000 </r>
       <r>   -6.5670    1.0000 </r>
       <r>   -1.4578    1.0000 </r>
       <r>   -1.4290    1.0000 </r>
       <r>    0.8130    1.0000 </r>
       <r>    1.6624    1.0000 </r>
       <r>    7.6236    0.0000 </r>
       <r>    8.2277    0.0000 </r>
       <r>   12.1791    0.0000 </r>
       <r>   12.3933    0.0000 </r>
       <r>   14.5370    0.0000 </r>
       <r>   17.1586    0.0000 </r>
      </set>
      <set comment="kpoint 48">
       <r>   -9.6024    1.0000 </r>
       <r>   -9.5367    1.0000 </r>
       <r>   -8.5545    1.0000 </r>
       <r>   -8.5058    1.0000 </r>
       <r>   -1.6908    1.0000 </r>
       <r>   -1.6581    1.0000 </r>
       <r>    2.1271    1.0000 </r>
       <r>    2.5483    1.0000 </r>
       <r>    6.2538    0.0000 </r>
       <r>    6.6694    0.0000 </r>
       <r>   12.0508    0.0000 </r>
       <r>   12.2863    0.0000 </r>
       <r>   16.7178    0.0000 </r>
       <r>   16.8109    0.0000 </r>
      </set>
      <set comment="kpoint 49">
       <r>  -14.2124    1.0000 </r>
       <r>  -14.0442    1.0000 </r>
       <r>   -2.6177    1.0000 </r>
       <r>   -1.5136    1.0000 </r>
       <r>   -0.5685    1.0000 </r>
       <r>   -0.5472    1.0000 </r>
       <r>    0.2860    1.0000 </r>
       <r>    0.2978    1.0000 </r>
       <r>   10.8786    0.0000 </r>
       <r>   13.5799    0.0000 </r>
       <r>   13.7224    0.0000 </r>
       <r>   13.9880    0.0000 </r>
       <r>   14.2165    0.0000 </r>
       <r>   14.3413    0.0000 </r>
      </set>
      <set comment="kpoint 50">
       <r>  -13.2705    1.0000 </r>
       <r>  -13.1123    1.0000 </r>
       <r>   -2.7557    1.0000 </r>
       <r>   -2.7048    1.0000 </r>
       <r>   -1.4985    1.0000 </r>
       <r>   -0.9789    1.0000 </r>
       <r>   -0.9454    1.0000 </r>
       <r>   -0.4428    1.0000 </r>
       <r>   11.5470    0.0000 </r>
       <r>   11.9036    0.0000 </r>
       <r>   12.0272    0.0000 </r>
       <r>   13.7173    0.0000 </r>
       <r>   13.9488    0.0000 </r>
       <r>   15.2046    0.0000 </r>
      </set>
      <set comment="kpoint 51">
       <r>  -11.8833    1.0000 </r>
       <r>  -11.7400    1.0000 </r>
       <r>   -5.2931    1.0000 </r>
       <r>   -5.2142    1.0000 </r>
       <r>   -1.9050    1.0000 </r>
       <r>   -1.8638    1.0000 </r>
       <r>    0.1001    1.0000 </r>
       <r>    1.0500    1.0000 </r>
       <r>    8.8475    0.0000 </r>
       <r>    9.3463    0.0000 </r>
       <r>   13.3096    0.0000 </r>
       <r>   13.4309    0.0000 </r>
       <r>   13.8666    0.0000 </r>
       <r>   16.3460    0.0000 </r>
      </set>
      <set comment="kpoint 52">
       <r>  -10.1274    1.0000 </r>
       <r>  -10.0086    1.0000 </r>
       <r>   -7.6933    1.0000 </r>
       <r>   -7.5999    1.0000 </r>
       <r>   -2.3857    1.0000 </r>
       <r>   -2.3412    1.0000 </r>
       <r>    1.8807    1.0000 </r>
       <r>    2.5299    1.0000 </r>
       <r>    6.5836    0.0000 </r>
       <r>    7.0682    0.0000 </r>
       <r>   13.0958    0.0000 </r>
       <r>   13.3429    0.0000 </r>
       <r>   15.6817    0.0000 </r>
       <r>   17.1983    0.0000 </r>
      </set>
      <set comment="kpoint 53">
       <r>  -12.1125    1.0000 </r>
       <r>  -11.9668    1.0000 </r>
       <r>   -4.2269    1.0000 </r>
       <r>   -4.1895    1.0000 </r>
       <r>   -2.7493    1.0000 </r>
       <r>   -2.7213    1.0000 </r>
       <r>   -0.1459    1.0000 </r>
       <r>    0.8356    1.0000 </r>
       <r>    9.5102    0.0000 </r>
       <r>    9.8320    0.0000 </r>
       <r>   13.3100    0.0000 </r>
       <r>   15.3910    0.0000 </r>
       <r>   15.7886    0.0000 </r>
       <r>   16.0940    0.0000 </r>
      </set>
      <set comment="kpoint 54">
       <r>  -10.5436    1.0000 </r>
       <r>  -10.4161    1.0000 </r>
       <r>   -6.2500    1.0000 </r>
       <r>   -6.1754    1.0000 </r>
       <r>   -3.8391    1.0000 </r>
       <r>   -3.7865    1.0000 </r>
       <r>    1.6031    1.0000 </r>
       <r>    2.4338    1.0000 </r>
       <r>    7.2565    0.0000 </r>
       <r>    7.6612    0.0000 </r>
       <r>   14.8694    0.0000 </r>
       <r>   15.4742    0.0000 </r>
       <r>   16.0324    0.0000 </r>
       <r>   16.3375    0.0000 </r>
      </set>
      <set comment="kpoint 55">
       <r>   -8.9904    1.0000 </r>
       <r>   -8.9279    1.0000 </r>
       <r>   -7.9924    1.0000 </r>
       <r>   -7.9504    1.0000 </r>
       <r>   -4.1483    1.0000 </r>
       <r>   -4.0909    1.0000 </r>
       <r>    2.9921    1.0000 </r>
       <r>    3.4013    1.0000 </r>
       <r>    6.0294    0.0000 </r>
       <r>    6.1237    0.0000 </r>
       <r>   15.3322    0.0000 </r>
       <r>   15.5417    0.0000 </r>
       <r>   16.1697    0.0000 </r>
       <r>   16.2496    0.0000 </r>
      </set>
      <set comment="kpoint 56">
       <r>   -8.8921    1.0000 </r>
       <r>   -8.7893    1.0000 </r>
       <r>   -7.1702    1.0000 </r>
       <r>   -7.1168    1.0000 </r>
       <r>   -5.4763    1.0000 </r>
       <r>   -5.4441    1.0000 </r>
       <r>    3.3873    1.0000 </r>
       <r>    4.0100    1.0000 </r>
       <r>    5.5700    0.0000 </r>
       <r>    5.9538    0.0000 </r>
       <r>   15.2145    0.0000 </r>
       <r>   15.3559    0.0000 </r>
       <r>   17.4051    0.0000 </r>
       <r>   18.1916    0.0000 </r>
      </set>
      <set comment="kpoint 57">
       <r>  -14.8855    1.0000 </r>
       <r>  -14.7932    1.0000 </r>
       <r>   -3.2319    1.0000 </r>
       <r>   -2.6362    1.0000 </r>
       <r>    1.7160    1.0000 </r>
       <r>    1.7160    1.0000 </r>
       <r>    1.7204    1.0000 </r>
       <r>    1.7204    1.0000 </r>
       <r>   10.7760    0.0000 </r>
       <r>   12.5669    0.0000 </r>
       <r>   13.1476    0.0000 </r>
       <r>   13.1476    0.0000 </r>
       <r>   13.1639    0.0000 </r>
       <r>   13.1640    0.0000 </r>
      </set>
      <set comment="kpoint 58">
       <r>  -14.6475    1.0000 </r>
       <r>  -14.5565    1.0000 </r>
       <r>   -2.9436    1.0000 </r>
       <r>   -2.3557    1.0000 </r>
       <r>    0.7953    1.0000 </r>
       <r>    0.8043    1.0000 </r>
       <r>    1.2396    1.0000 </r>
       <r>    1.2487    1.0000 </r>
       <r>   11.0442    0.0000 </r>
       <r>   12.7792    0.0000 </r>
       <r>   13.2558    0.0000 </r>
       <r>   13.2788    0.0000 </r>
       <r>   14.1505    0.0000 </r>
       <r>   14.1735    0.0000 </r>
      </set>
      <set comment="kpoint 59">
       <r>  -13.9375    1.0000 </r>
       <r>  -13.8502    1.0000 </r>
       <r>   -2.0976    1.0000 </r>
       <r>   -1.5263    1.0000 </r>
       <r>   -1.4048    1.0000 </r>
       <r>   -1.3831    1.0000 </r>
       <r>    0.2143    1.0000 </r>
       <r>    0.2299    1.0000 </r>
       <r>   11.8223    0.0000 </r>
       <r>   12.9150    0.0000 </r>
       <r>   13.0821    0.0000 </r>
       <r>   13.2940    0.0000 </r>
       <r>   13.4821    0.0000 </r>
       <r>   13.8306    0.0000 </r>
      </set>
      <set comment="kpoint 60">
       <r>  -12.7686    1.0000 </r>
       <r>  -12.6880    1.0000 </r>
       <r>   -4.0424    1.0000 </r>
       <r>   -4.0059    1.0000 </r>
       <r>   -0.7816    1.0000 </r>
       <r>   -0.7661    1.0000 </r>
       <r>   -0.7330    1.0000 </r>
       <r>   -0.1973    1.0000 </r>
       <r>   10.4759    0.0000 </r>
       <r>   10.7436    0.0000 </r>
       <r>   12.5575    0.0000 </r>
       <r>   12.6219    0.0000 </r>
       <r>   13.4075    0.0000 </r>
       <r>   14.9281    0.0000 </r>
      </set>
      <set comment="kpoint 61">
       <r>  -11.1746    1.0000 </r>
       <r>  -11.1028    1.0000 </r>
       <r>   -6.6367    1.0000 </r>
       <r>   -6.5884    1.0000 </r>
       <r>   -1.4505    1.0000 </r>
       <r>   -1.4362    1.0000 </r>
       <r>    1.0064    1.0000 </r>
       <r>    1.4504    1.0000 </r>
       <r>    7.7498    0.0000 </r>
       <r>    8.0642    0.0000 </r>
       <r>   12.2312    0.0000 </r>
       <r>   12.3435    0.0000 </r>
       <r>   15.1330    0.0000 </r>
       <r>   16.5056    0.0000 </r>
      </set>
      <set comment="kpoint 62">
       <r>   -9.5859    1.0000 </r>
       <r>   -9.5510    1.0000 </r>
       <r>   -8.5466    1.0000 </r>
       <r>   -8.5201    1.0000 </r>
       <r>   -1.6835    1.0000 </r>
       <r>   -1.6672    1.0000 </r>
       <r>    2.2470    1.0000 </r>
       <r>    2.4687    1.0000 </r>
       <r>    6.3028    0.0000 </r>
       <r>    6.5238    0.0000 </r>
       <r>   12.1046    0.0000 </r>
       <r>   12.2290    0.0000 </r>
       <r>   17.0608    0.0000 </r>
       <r>   17.2441    0.0000 </r>
      </set>
      <set comment="kpoint 63">
       <r>  -14.1736    1.0000 </r>
       <r>  -14.0852    1.0000 </r>
       <r>   -2.3764    1.0000 </r>
       <r>   -1.8003    1.0000 </r>
       <r>   -0.5660    1.0000 </r>
       <r>   -0.5537    1.0000 </r>
       <r>    0.2846    1.0000 </r>
       <r>    0.2931    1.0000 </r>
       <r>   11.5841    0.0000 </r>
       <r>   13.2268    0.0000 </r>
       <r>   13.7059    0.0000 </r>
       <r>   13.7551    0.0000 </r>
       <r>   14.0799    0.0000 </r>
       <r>   14.1700    0.0000 </r>
      </set>
      <set comment="kpoint 64">
       <r>  -13.2339    1.0000 </r>
       <r>  -13.1509    1.0000 </r>
       <r>   -2.7440    1.0000 </r>
       <r>   -2.7171    1.0000 </r>
       <r>   -1.2673    1.0000 </r>
       <r>   -0.9719    1.0000 </r>
       <r>   -0.9529    1.0000 </r>
       <r>   -0.7152    1.0000 </r>
       <r>   11.6356    0.0000 </r>
       <r>   11.8156    0.0000 </r>
       <r>   12.6601    0.0000 </r>
       <r>   13.6893    0.0000 </r>
       <r>   13.9402    0.0000 </r>
       <r>   14.4445    0.0000 </r>
      </set>
      <set comment="kpoint 65">
       <r>  -11.8501    1.0000 </r>
       <r>  -11.7747    1.0000 </r>
       <r>   -5.2746    1.0000 </r>
       <r>   -5.2333    1.0000 </r>
       <r>   -1.8951    1.0000 </r>
       <r>   -1.8720    1.0000 </r>
       <r>    0.3117    1.0000 </r>
       <r>    0.8083    1.0000 </r>
       <r>    8.9562    0.0000 </r>
       <r>    9.2217    0.0000 </r>
       <r>   13.3868    0.0000 </r>
       <r>   13.4694    0.0000 </r>
       <r>   14.3478    0.0000 </r>
       <r>   15.6871    0.0000 </r>
      </set>
      <set comment="kpoint 66">
       <r>  -10.0997    1.0000 </r>
       <r>  -10.0373    1.0000 </r>
       <r>   -7.6712    1.0000 </r>
       <r>   -7.6224    1.0000 </r>
       <r>   -2.3754    1.0000 </r>
       <r>   -2.3504    1.0000 </r>
       <r>    2.0394    1.0000 </r>
       <r>    2.3816    1.0000 </r>
       <r>    6.6689    0.0000 </r>
       <r>    6.9290    0.0000 </r>
       <r>   13.1522    0.0000 </r>
       <r>   13.2819    0.0000 </r>
       <r>   16.1018    0.0000 </r>
       <r>   16.9111    0.0000 </r>
      </set>
      <set comment="kpoint 67">
       <r>  -12.0791    1.0000 </r>
       <r>  -12.0023    1.0000 </r>
       <r>   -4.2175    1.0000 </r>
       <r>   -4.1976    1.0000 </r>
       <r>   -2.7410    1.0000 </r>
       <r>   -2.7262    1.0000 </r>
       <r>    0.0701    1.0000 </r>
       <r>    0.5843    1.0000 </r>
       <r>    9.5905    0.0000 </r>
       <r>    9.7561    0.0000 </r>
       <r>   13.8691    0.0000 </r>
       <r>   15.0595    0.0000 </r>
       <r>   15.7903    0.0000 </r>
       <r>   15.8422    0.0000 </r>
      </set>
      <set comment="kpoint 68">
       <r>  -10.5144    1.0000 </r>
       <r>  -10.4469    1.0000 </r>
       <r>   -6.2320    1.0000 </r>
       <r>   -6.1935    1.0000 </r>
       <r>   -3.8272    1.0000 </r>
       <r>   -3.7981    1.0000 </r>
       <r>    1.7909    1.0000 </r>
       <r>    2.2239    1.0000 </r>
       <r>    7.3449    0.0000 </r>
       <r>    7.5607    0.0000 </r>
       <r>   15.1052    0.0000 </r>
       <r>   15.4256    0.0000 </r>
       <r>   16.0145    0.0000 </r>
       <r>   16.1601    0.0000 </r>
      </set>
      <set comment="kpoint 69">
       <r>   -8.9742    1.0000 </r>
       <r>   -8.9414    1.0000 </r>
       <r>   -7.9841    1.0000 </r>
       <r>   -7.9624    1.0000 </r>
       <r>   -4.1349    1.0000 </r>
       <r>   -4.1024    1.0000 </r>
       <r>    3.1089    1.0000 </r>
       <r>    3.3273    1.0000 </r>
       <r>    6.0106    0.0000 </r>
       <r>    6.0701    0.0000 </r>
       <r>   15.3203    0.0000 </r>
       <r>   15.4040    0.0000 </r>
       <r>   16.1580    0.0000 </r>
       <r>   16.1884    0.0000 </r>
      </set>
      <set comment="kpoint 70">
       <r>   -8.8674    1.0000 </r>
       <r>   -8.8137    1.0000 </r>
       <r>   -7.1579    1.0000 </r>
       <r>   -7.1295    1.0000 </r>
       <r>   -5.4698    1.0000 </r>
       <r>   -5.4526    1.0000 </r>
       <r>    3.5375    1.0000 </r>
       <r>    3.8658    1.0000 </r>
       <r>    5.6529    0.0000 </r>
       <r>    5.8539    0.0000 </r>
       <r>   15.0766    0.0000 </r>
       <r>   15.1562    0.0000 </r>
       <r>   17.8039    0.0000 </r>
       <r>   18.5116    0.0000 </r>
      </set>
      <set comment="kpoint 71">
       <r>  -14.8398    1.0000 </r>
       <r>  -14.8398    1.0000 </r>
       <r>   -2.9429    1.0000 </r>
       <r>   -2.9429    1.0000 </r>
       <r>    1.7181    1.0000 </r>
       <r>    1.7181    1.0000 </r>
       <r>    1.7181    1.0000 </r>
       <r>    1.7181    1.0000 </r>
       <r>   11.6340    0.0000 </r>
       <r>   11.6340    0.0000 </r>
       <r>   13.1556    0.0000 </r>
       <r>   13.1556    0.0000 </r>
       <r>   13.1556    0.0000 </r>
       <r>   13.1556    0.0000 </r>
      </set>
      <set comment="kpoint 72">
       <r>  -14.6025    1.0000 </r>
       <r>  -14.6025    1.0000 </r>
       <r>   -2.6571    1.0000 </r>
       <r>   -2.6571    1.0000 </r>
       <r>    0.7956    1.0000 </r>
       <r>    0.7956    1.0000 </r>
       <r>    1.2427    1.0000 </r>
       <r>    1.2427    1.0000 </r>
       <r>   11.8900    0.0000 </r>
       <r>   11.8900    0.0000 </r>
       <r>   13.2494    0.0000 </r>
       <r>   13.2494    0.0000 </r>
       <r>   14.1540    0.0000 </r>
       <r>   14.1540    0.0000 </r>
      </set>
      <set comment="kpoint 73">
       <r>  -13.8944    1.0000 </r>
       <r>  -13.8944    1.0000 </r>
       <r>   -1.8210    1.0000 </r>
       <r>   -1.8210    1.0000 </r>
       <r>   -1.3957    1.0000 </r>
       <r>   -1.3957    1.0000 </r>
       <r>    0.2197    1.0000 </r>
       <r>    0.2197    1.0000 </r>
       <r>   12.5434    0.0000 </r>
       <r>   12.5434    0.0000 </r>
       <r>   13.1132    0.0000 </r>
       <r>   13.1132    0.0000 </r>
       <r>   13.5095    0.0000 </r>
       <r>   13.5095    0.0000 </r>
      </set>
      <set comment="kpoint 74">
       <r>  -12.7287    1.0000 </r>
       <r>  -12.7287    1.0000 </r>
       <r>   -4.0238    1.0000 </r>
       <r>   -4.0238    1.0000 </r>
       <r>   -0.7739    1.0000 </r>
       <r>   -0.7739    1.0000 </r>
       <r>   -0.4729    1.0000 </r>
       <r>   -0.4729    1.0000 </r>
       <r>   10.6018    0.0000 </r>
       <r>   10.6018    0.0000 </r>
       <r>   12.6103    0.0000 </r>
       <r>   12.6103    0.0000 </r>
       <r>   14.1256    0.0000 </r>
       <r>   14.1256    0.0000 </r>
      </set>
      <set comment="kpoint 75">
       <r>  -11.1388    1.0000 </r>
       <r>  -11.1387    1.0000 </r>
       <r>   -6.6117    1.0000 </r>
       <r>   -6.6117    1.0000 </r>
       <r>   -1.4404    1.0000 </r>
       <r>   -1.4404    1.0000 </r>
       <r>    1.2250    1.0000 </r>
       <r>    1.2250    1.0000 </r>
       <r>    7.9068    0.0000 </r>
       <r>    7.9068    0.0000 </r>
       <r>   12.2884    0.0000 </r>
       <r>   12.2884    0.0000 </r>
       <r>   15.8080    0.0000 </r>
       <r>   15.8080    0.0000 </r>
      </set>
      <set comment="kpoint 76">
       <r>   -9.5681    1.0000 </r>
       <r>   -9.5681    1.0000 </r>
       <r>   -8.5354    1.0000 </r>
       <r>   -8.5354    1.0000 </r>
       <r>   -1.6761    1.0000 </r>
       <r>   -1.6761    1.0000 </r>
       <r>    2.3555    1.0000 </r>
       <r>    2.3555    1.0000 </r>
       <r>    6.3905    0.0000 </r>
       <r>    6.3905    0.0000 </r>
       <r>   12.1644    0.0000 </r>
       <r>   12.1644    0.0000 </r>
       <r>   17.3456    0.0000 </r>
       <r>   17.3456    0.0000 </r>
      </set>
      <set comment="kpoint 77">
       <r>  -14.1298    1.0000 </r>
       <r>  -14.1298    1.0000 </r>
       <r>   -2.0952    1.0000 </r>
       <r>   -2.0952    1.0000 </r>
       <r>   -0.5588    1.0000 </r>
       <r>   -0.5588    1.0000 </r>
       <r>    0.2906    1.0000 </r>
       <r>    0.2906    1.0000 </r>
       <r>   12.4013    0.0000 </r>
       <r>   12.4013    0.0000 </r>
       <r>   13.6983    0.0000 </r>
       <r>   13.6983    0.0000 </r>
       <r>   14.1291    0.0000 </r>
       <r>   14.1291    0.0000 </r>
      </set>
      <set comment="kpoint 78">
       <r>  -13.1927    1.0000 </r>
       <r>  -13.1927    1.0000 </r>
       <r>   -2.7306    1.0000 </r>
       <r>   -2.7306    1.0000 </r>
       <r>   -0.9976    1.0000 </r>
       <r>   -0.9976    1.0000 </r>
       <r>   -0.9605    1.0000 </r>
       <r>   -0.9605    1.0000 </r>
       <r>   11.7292    0.0000 </r>
       <r>   11.7292    0.0000 </r>
       <r>   13.3477    0.0000 </r>
       <r>   13.3477    0.0000 </r>
       <r>   13.9953    0.0000 </r>
       <r>   13.9953    0.0000 </r>
      </set>
      <set comment="kpoint 79">
       <r>  -11.8128    1.0000 </r>
       <r>  -11.8128    1.0000 </r>
       <r>   -5.2543    1.0000 </r>
       <r>   -5.2543    1.0000 </r>
       <r>   -1.8821    1.0000 </r>
       <r>   -1.8821    1.0000 </r>
       <r>    0.5552    1.0000 </r>
       <r>    0.5552    1.0000 </r>
       <r>    9.0841    0.0000 </r>
       <r>    9.0841    0.0000 </r>
       <r>   13.4373    0.0000 </r>
       <r>   13.4373    0.0000 </r>
       <r>   14.9973    0.0000 </r>
       <r>   14.9973    0.0000 </r>
      </set>
      <set comment="kpoint 80">
       <r>  -10.0690    1.0000 </r>
       <r>  -10.0690    1.0000 </r>
       <r>   -7.6477    1.0000 </r>
       <r>   -7.6477    1.0000 </r>
       <r>   -2.3625    1.0000 </r>
       <r>   -2.3625    1.0000 </r>
       <r>    2.2109    1.0000 </r>
       <r>    2.2109    1.0000 </r>
       <r>    6.7866    0.0000 </r>
       <r>    6.7866    0.0000 </r>
       <r>   13.2142    0.0000 </r>
       <r>   13.2142    0.0000 </r>
       <r>   16.5276    0.0000 </r>
       <r>   16.5276    0.0000 </r>
      </set>
      <set comment="kpoint 81">
       <r>  -12.0410    1.0000 </r>
       <r>  -12.0410    1.0000 </r>
       <r>   -4.2075    1.0000 </r>
       <r>   -4.2075    1.0000 </r>
       <r>   -2.7339    1.0000 </r>
       <r>   -2.7339    1.0000 </r>
       <r>    0.3205    1.0000 </r>
       <r>    0.3205    1.0000 </r>
       <r>    9.6730    0.0000 </r>
       <r>    9.6730    0.0000 </r>
       <r>   14.4847    0.0000 </r>
       <r>   14.4847    0.0000 </r>
       <r>   15.7906    0.0000 </r>
       <r>   15.7906    0.0000 </r>
      </set>
      <set comment="kpoint 82">
       <r>  -10.4809    1.0000 </r>
       <r>  -10.4809    1.0000 </r>
       <r>   -6.2128    1.0000 </r>
       <r>   -6.2128    1.0000 </r>
       <r>   -3.8134    1.0000 </r>
       <r>   -3.8134    1.0000 </r>
       <r>    2.0028    1.0000 </r>
       <r>    2.0028    1.0000 </r>
       <r>    7.4484    0.0000 </r>
       <r>    7.4484    0.0000 </r>
       <r>   15.3019    0.0000 </r>
       <r>   15.3019    0.0000 </r>
       <r>   16.0493    0.0000 </r>
       <r>   16.0493    0.0000 </r>
      </set>
      <set comment="kpoint 83">
       <r>   -8.9574    1.0000 </r>
       <r>   -8.9574    1.0000 </r>
       <r>   -7.9745    1.0000 </r>
       <r>   -7.9745    1.0000 </r>
       <r>   -4.1187    1.0000 </r>
       <r>   -4.1187    1.0000 </r>
       <r>    3.2262    1.0000 </r>
       <r>    3.2262    1.0000 </r>
       <r>    6.0282    0.0000 </r>
       <r>    6.0282    0.0000 </r>
       <r>   15.3368    0.0000 </r>
       <r>   15.3368    0.0000 </r>
       <r>   16.1621    0.0000 </r>
       <r>   16.1621    0.0000 </r>
      </set>
      <set comment="kpoint 84">
       <r>   -8.8404    1.0000 </r>
       <r>   -8.8404    1.0000 </r>
       <r>   -7.1433    1.0000 </r>
       <r>   -7.1433    1.0000 </r>
       <r>   -5.4611    1.0000 </r>
       <r>   -5.4611    1.0000 </r>
       <r>    3.7028    1.0000 </r>
       <r>    3.7028    1.0000 </r>
       <r>    5.7495    0.0000 </r>
       <r>    5.7495    0.0000 </r>
       <r>   15.0587    0.0000 </r>
       <r>   15.0587    0.0000 </r>
       <r>   18.1864    0.0000 </r>
       <r>   18.1864    0.0000 </r>
      </set>
     </set>
     <set comment="spin 2">
      <set comment="kpoint 1">
       <r>  -14.9838    1.0000 </r>
       <r>  -14.6847    1.0000 </r>
       <r>   -3.8209    1.0000 </r>
       <r>   -1.8636    1.0000 </r>
       <r>    1.7266    1.0000 </r>
       <r>    1.7266    1.0000 </r>
       <r>    1.7313    1.0000 </r>
       <r>    1.7313    1.0000 </r>
       <r>    8.9872    0.0000 </r>
       <r>   13.1469    0.0000 </r>
       <r>   13.1469    0.0000 </r>
       <r>   13.2100    0.0000 </r>
       <r>   13.2100    0.0000 </r>
       <r>   15.3268    0.0000 </r>
      </set>
      <set comment="kpoint 2">
       <r>  -14.7448    1.0000 </r>
       <r>  -14.4497    1.0000 </r>
       <r>   -3.5303    1.0000 </r>
       <r>   -1.5944    1.0000 </r>
       <r>    0.7795    1.0000 </r>
       <r>    0.8155    1.0000 </r>
       <r>    1.2255    1.0000 </r>
       <r>    1.2599    1.0000 </r>
       <r>    9.2764    0.0000 </r>
       <r>   13.1875    0.0000 </r>
       <r>   13.2785    0.0000 </r>
       <r>   14.1419    0.0000 </r>
       <r>   14.1826    0.0000 </r>
       <r>   15.3464    0.0000 </r>
      </set>
      <set comment="kpoint 3">
       <r>  -14.0307    1.0000 </r>
       <r>  -13.7483    1.0000 </r>
       <r>   -2.6671    1.0000 </r>
       <r>   -1.4338    1.0000 </r>
       <r>   -1.3566    1.0000 </r>
       <r>   -0.7931    1.0000 </r>
       <r>    0.1971    1.0000 </r>
       <r>    0.2447    1.0000 </r>
       <r>   10.1476    0.0000 </r>
       <r>   12.9542    0.0000 </r>
       <r>   13.1519    0.0000 </r>
       <r>   13.1793    0.0000 </r>
       <r>   13.6491    0.0000 </r>
       <r>   16.2020    0.0000 </r>
      </set>
      <set comment="kpoint 4">
       <r>  -12.8546    1.0000 </r>
       <r>  -12.5938    1.0000 </r>
       <r>   -4.0827    1.0000 </r>
       <r>   -3.9626    1.0000 </r>
       <r>   -1.2736    1.0000 </r>
       <r>   -0.7990    1.0000 </r>
       <r>   -0.7444    1.0000 </r>
       <r>    0.4780    1.0000 </r>
       <r>   10.2538    0.0000 </r>
       <r>   11.0848    0.0000 </r>
       <r>   11.5717    0.0000 </r>
       <r>   12.4998    0.0000 </r>
       <r>   12.8482    0.0000 </r>
       <r>   17.1539    0.0000 </r>
      </set>
      <set comment="kpoint 5">
       <r>  -11.2519    1.0000 </r>
       <r>  -11.0195    1.0000 </r>
       <r>   -6.6912    1.0000 </r>
       <r>   -6.5317    1.0000 </r>
       <r>   -1.4741    1.0000 </r>
       <r>   -1.4212    1.0000 </r>
       <r>    0.5324    1.0000 </r>
       <r>    1.9916    1.0000 </r>
       <r>    7.4816    0.0000 </r>
       <r>    8.4872    0.0000 </r>
       <r>   12.1069    0.0000 </r>
       <r>   12.4655    0.0000 </r>
       <r>   13.6606    0.0000 </r>
       <r>   18.2670    0.0000 </r>
      </set>
      <set comment="kpoint 6">
       <r>   -9.6278    1.0000 </r>
       <r>   -9.5177    1.0000 </r>
       <r>   -8.5654    1.0000 </r>
       <r>   -8.4827    1.0000 </r>
       <r>   -1.7093    1.0000 </r>
       <r>   -1.6520    1.0000 </r>
       <r>    1.9456    1.0000 </r>
       <r>    2.6359    1.0000 </r>
       <r>    6.2524    0.0000 </r>
       <r>    6.9170    0.0000 </r>
       <r>   11.9734    0.0000 </r>
       <r>   12.3721    0.0000 </r>
       <r>   16.0287    0.0000 </r>
       <r>   16.1529    0.0000 </r>
      </set>
      <set comment="kpoint 7">
       <r>  -14.2681    1.0000 </r>
       <r>  -13.9814    1.0000 </r>
       <r>   -2.9526    1.0000 </r>
       <r>   -1.0569    1.0000 </r>
       <r>   -0.5771    1.0000 </r>
       <r>   -0.5429    1.0000 </r>
       <r>    0.2782    1.0000 </r>
       <r>    0.3019    1.0000 </r>
       <r>    9.8601    0.0000 </r>
       <r>   13.6454    0.0000 </r>
       <r>   13.7609    0.0000 </r>
       <r>   13.8953    0.0000 </r>
       <r>   14.2658    0.0000 </r>
       <r>   15.1480    0.0000 </r>
      </set>
      <set comment="kpoint 8">
       <r>  -13.3230    1.0000 </r>
       <r>  -13.0538    1.0000 </r>
       <r>   -2.7725    1.0000 </r>
       <r>   -2.6859    1.0000 </r>
       <r>   -1.8218    1.0000 </r>
       <r>   -0.9869    1.0000 </r>
       <r>   -0.9345    1.0000 </r>
       <r>   -0.0134    1.0000 </r>
       <r>   11.0239    0.0000 </r>
       <r>   11.4977    0.0000 </r>
       <r>   12.0476    0.0000 </r>
       <r>   13.6864    0.0000 </r>
       <r>   13.9752    0.0000 </r>
       <r>   16.6564    0.0000 </r>
      </set>
      <set comment="kpoint 9">
       <r>  -11.9311    1.0000 </r>
       <r>  -11.6868    1.0000 </r>
       <r>   -5.3201    1.0000 </r>
       <r>   -5.1863    1.0000 </r>
       <r>   -1.9139    1.0000 </r>
       <r>   -1.8490    1.0000 </r>
       <r>   -0.1997    1.0000 </r>
       <r>    1.4298    1.0000 </r>
       <r>    8.7066    0.0000 </r>
       <r>    9.5440    0.0000 </r>
       <r>   12.7160    0.0000 </r>
       <r>   13.3074    0.0000 </r>
       <r>   13.7049    0.0000 </r>
       <r>   17.4551    0.0000 </r>
      </set>
      <set comment="kpoint 10">
       <r>  -10.1678    1.0000 </r>
       <r>   -9.9647    1.0000 </r>
       <r>   -7.7256    1.0000 </r>
       <r>   -7.5639    1.0000 </r>
       <r>   -2.3955    1.0000 </r>
       <r>   -2.3254    1.0000 </r>
       <r>    1.6518    1.0000 </r>
       <r>    2.7406    1.0000 </r>
       <r>    6.5149    0.0000 </r>
       <r>    7.3084    0.0000 </r>
       <r>   13.0198    0.0000 </r>
       <r>   13.4363    0.0000 </r>
       <r>   15.0066    0.0000 </r>
       <r>   17.4604    0.0000 </r>
      </set>
      <set comment="kpoint 11">
       <r>  -12.1613    1.0000 </r>
       <r>  -11.9126    1.0000 </r>
       <r>   -4.2419    1.0000 </r>
       <r>   -4.1772    1.0000 </r>
       <r>   -2.7553    1.0000 </r>
       <r>   -2.7085    1.0000 </r>
       <r>   -0.4479    1.0000 </r>
       <r>    1.2305    1.0000 </r>
       <r>    9.4061    0.0000 </r>
       <r>    9.9619    0.0000 </r>
       <r>   12.4686    0.0000 </r>
       <r>   15.4906    0.0000 </r>
       <r>   15.7838    0.0000 </r>
       <r>   16.7911    0.0000 </r>
      </set>
      <set comment="kpoint 12">
[...]
       </set>
       <set comment="band 10">
        <r>  0.0000  0.0003  0.0000  0.0008  0.0000  0.0000  0.0000  0.0000  0.0000 </r>
        <r>  0.0000  0.0002  0.0000  0.0002  0.0000  0.0000  0.0000  0.0000  0.0000 </r>
        <r>  0.0000  0.0000  0.2885  0.0000  0.0000  0.0000  0.0000  0.0000  0.0000 </r>
        <r>  0.0000  0.0000  0.2911  0.0000  0.0000  0.0000  0.0000  0.0000  0.0000 </r>
       </set>
       <set comment="band 11">
        <r>  0.0031  0.0182  0.0000  0.0117  0.0000  0.0000  0.0000  0.0000  0.0000 </r>
        <r>  0.0062  0.0277  0.0000  0.0193  0.0000  0.0000  0.0000  0.0000  0.0000 </r>
        <r>  0.0000  0.0000  0.0605  0.0000  0.0000  0.0000  0.0000  0.0000  0.0000 </r>
        <r>  0.0000  0.0000  0.0485  0.0000  0.0000  0.0000  0.0000  0.0000  0.0000 </r>
       </set>
       <set comment="band 12">
        <r>  0.0000  0.0000  0.0485  0.0000  0.0000  0.0000  0.0000  0.0000  0.0000 </r>
        <r>  0.0000  0.0000  0.0605  0.0000  0.0000  0.0000  0.0000  0.0000  0.0000 </r>
        <r>  0.0062  0.0277  0.0000  0.0193  0.0000  0.0000  0.0000  0.0000  0.0000 </r>
        <r>  0.0032  0.0182  0.0000  0.0117  0.0000  0.0000  0.0000  0.0000  0.0000 </r>
       </set>
       <set comment="band 13">
        <r>  0.0311  0.0340  0.0056  0.0583  0.0000  0.0000  0.0000  0.0000  0.0000 </r>
        <r>  0.0333  0.0319  0.0004  0.0553  0.0000  0.0000  0.0000  0.0000  0.0000 </r>
        <r>  0.0238  0.0230  0.0006  0.0397  0.0000  0.0000  0.0000  0.0000  0.0000 </r>
        <r>  0.0224  0.0244  0.0077  0.0418  0.0000  0.0000  0.0000  0.0000  0.0000 </r>
       </set>
       <set comment="band 14">
        <r>  0.0222  0.0245  0.0077  0.0420  0.0000  0.0000  0.0000  0.0000  0.0000 </r>
        <r>  0.0240  0.0228  0.0006  0.0395  0.0000  0.0000  0.0000  0.0000  0.0000 </r>
        <r>  0.0333  0.0319  0.0004  0.0552  0.0000  0.0000  0.0000  0.0000  0.0000 </r>
        <r>  0.0311  0.0341  0.0056  0.0584  0.0000  0.0000  0.0000  0.0000  0.0000 </r>
       </set>
      </set>
      <set comment="kpoint 82">
       <set comment="band 1">
        <r>  0.2606  0.0554  0.0000  0.0308  0.0000  0.0000  0.0000  0.0000  0.0000 </r>
        <r>  0.2613  0.0553  0.0000  0.0308  0.0000  0.0000  0.0000  0.0000  0.0000 </r>
        <r>  0.0000  0.0000  0.0000  0.0000  0.0000  0.0000  0.0000  0.0000  0.0000 </r>
        <r>  0.0000  0.0000  0.0000  0.0000  0.0000  0.0000  0.0000  0.0000  0.0000 </r>
       </set>
       <set comment="band 2">
        <r>  0.0000  0.0000  0.0000  0.0000  0.0000  0.0000  0.0000  0.0000  0.0000 </r>
        <r>  0.0000  0.0000  0.0000  0.0000  0.0000  0.0000  0.0000  0.0000  0.0000 </r>
        <r>  0.2613  0.0553  0.0000  0.0308  0.0000  0.0000  0.0000  0.0000  0.0000 </r>
        <r>  0.2606  0.0554  0.0000  0.0308  0.0000  0.0000  0.0000  0.0000  0.0000 </r>
       </set>
       <set comment="band 3">
        <r>  0.1761  0.0395  0.0000  0.1534  0.0000  0.0000  0.0000  0.0000  0.0000 </r>
        <r>  0.1757  0.0398  0.0000  0.1537  0.0000  0.0000  0.0000  0.0000  0.0000 </r>
        <r>  0.0000  0.0000  0.0000  0.0000  0.0000  0.0000  0.0000  0.0000  0.0000 </r>
        <r>  0.0000  0.0000  0.0000  0.0000  0.0000  0.0000  0.0000  0.0000  0.0000 </r>
       </set>
       <set comment="band 4">
        <r>  0.0000  0.0000  0.0000  0.0000  0.0000  0.0000  0.0000  0.0000  0.0000 </r>
        <r>  0.0000  0.0000  0.0000  0.0000  0.0000  0.0000  0.0000  0.0000  0.0000 </r>
        <r>  0.1757  0.0398  0.0000  0.1537  0.0000  0.0000  0.0000  0.0000  0.0000 </r>
        <r>  0.1761  0.0395  0.0000  0.1534  0.0000  0.0000  0.0000  0.0000  0.0000 </r>
       </set>
       <set comment="band 5">
        <r>  0.0377  0.2126  0.0000  0.1086  0.0000  0.0000  0.0000  0.0000  0.0000 </r>
        <r>  0.0375  0.2128  0.0000  0.1089  0.0000  0.0000  0.0000  0.0000  0.0000 </r>
        <r>  0.0000  0.0000  0.0000  0.0000  0.0000  0.0000  0.0000  0.0000  0.0000 </r>
        <r>  0.0000  0.0000  0.0000  0.0000  0.0000  0.0000  0.0000  0.0000  0.0000 </r>
       </set>
       <set comment="band 6">
        <r>  0.0000  0.0000  0.0000  0.0000  0.0000  0.0000  0.0000  0.0000  0.0000 </r>
        <r>  0.0000  0.0000  0.0000  0.0000  0.0000  0.0000  0.0000  0.0000  0.0000 </r>
        <r>  0.0375  0.2128  0.0000  0.1089  0.0000  0.0000  0.0000  0.0000  0.0000 </r>
        <r>  0.0377  0.2126  0.0000  0.1086  0.0000  0.0000  0.0000  0.0000  0.0000 </r>
       </set>
       <set comment="band 7">
        <r>  0.0000  0.0000  0.2418  0.0000  0.0000  0.0000  0.0000  0.0000  0.0000 </r>
        <r>  0.0000  0.0000  0.2436  0.0000  0.0000  0.0000  0.0000  0.0000  0.0000 </r>
        <r>  0.0008  0.0002  0.0000  0.0001  0.0000  0.0000  0.0000  0.0000  0.0000 </r>
        <r>  0.0003  0.0005  0.0000  0.0003  0.0000  0.0000  0.0000  0.0000  0.0000 </r>
       </set>
       <set comment="band 8">
        <r>  0.0003  0.0005  0.0000  0.0003  0.0000  0.0000  0.0000  0.0000  0.0000 </r>
        <r>  0.0008  0.0002  0.0000  0.0001  0.0000  0.0000  0.0000  0.0000  0.0000 </r>
        <r>  0.0000  0.0000  0.2436  0.0000  0.0000  0.0000  0.0000  0.0000  0.0000 </r>
        <r>  0.0000  0.0000  0.2418  0.0000  0.0000  0.0000  0.0000  0.0000  0.0000 </r>
       </set>
       <set comment="band 9">
        <r>  0.0000  0.0000  0.2701  0.0000  0.0000  0.0000  0.0000  0.0000  0.0000 </r>
        <r>  0.0000  0.0000  0.2678  0.0000  0.0000  0.0000  0.0000  0.0000  0.0000 </r>
        <r>  0.0001  0.0001  0.0000  0.0004  0.0000  0.0000  0.0000  0.0000  0.0000 </r>
        <r>  0.0001  0.0002  0.0000  0.0006  0.0000  0.0000  0.0000  0.0000  0.0000 </r>
       </set>
       <set comment="band 10">
        <r>  0.0001  0.0002  0.0000  0.0006  0.0000  0.0000  0.0000  0.0000  0.0000 </r>
        <r>  0.0001  0.0001  0.0000  0.0004  0.0000  0.0000  0.0000  0.0000  0.0000 </r>
        <r>  0.0000  0.0000  0.2678  0.0000  0.0000  0.0000  0.0000  0.0000  0.0000 </r>
        <r>  0.0000  0.0000  0.2701  0.0000  0.0000  0.0000  0.0000  0.0000  0.0000 </r>
       </set>
       <set comment="band 11">
        <r>  0.0135  0.0126  0.0000  0.0286  0.0000  0.0000  0.0000  0.0000  0.0000 </r>
        <r>  0.0288  0.0527  0.0000  0.0574  0.0000  0.0000  0.0000  0.0000  0.0000 </r>
        <r>  0.0000  0.0000  0.0316  0.0000  0.0000  0.0000  0.0000  0.0000  0.0000 </r>
        <r>  0.0000  0.0000  0.0256  0.0000  0.0000  0.0000  0.0000  0.0000  0.0000 </r>
       </set>
       <set comment="band 12">
        <r>  0.0000  0.0000  0.0256  0.0000  0.0000  0.0000  0.0000  0.0000  0.0000 </r>
        <r>  0.0000  0.0000  0.0316  0.0000  0.0000  0.0000  0.0000  0.0000  0.0000 </r>
        <r>  0.0288  0.0527  0.0000  0.0574  0.0000  0.0000  0.0000  0.0000  0.0000 </r>
        <r>  0.0135  0.0126  0.0000  0.0286  0.0000  0.0000  0.0000  0.0000  0.0000 </r>
       </set>
       <set comment="band 13">
        <r>  0.0933  0.0742  0.0000  0.0531  0.0000  0.0000  0.0000  0.0000  0.0000 </r>
        <r>  0.0759  0.0289  0.0000  0.0312  0.0000  0.0000  0.0000  0.0000  0.0000 </r>
        <r>  0.0000  0.0000  0.0191  0.0000  0.0000  0.0000  0.0000  0.0000  0.0000 </r>
        <r>  0.0000  0.0000  0.0226  0.0000  0.0000  0.0000  0.0000  0.0000  0.0000 </r>
       </set>
       <set comment="band 14">
        <r>  0.0000  0.0000  0.0226  0.0000  0.0000  0.0000  0.0000  0.0000  0.0000 </r>
        <r>  0.0000  0.0000  0.0191  0.0000  0.0000  0.0000  0.0000  0.0000  0.0000 </r>
        <r>  0.0759  0.0289  0.0000  0.0312  0.0000  0.0000  0.0000  0.0000  0.0000 </r>
        <r>  0.0933  0.0742  0.0000  0.0531  0.0000  0.0000  0.0000  0.0000  0.0000 </r>
       </set>
      </set>
      <set comment="kpoint 83">
       <set comment="band 1">
        <r>  0.2795  0.0329  0.0000  0.0534  0.0000  0.0000  0.0000  0.0000  0.0000 </r>
        <r>  0.2822  0.0326  0.0000  0.0525  0.0000  0.0000  0.0000  0.0000  0.0000 </r>
        <r>  0.0000  0.0000  0.0000  0.0000  0.0000  0.0000  0.0000  0.0000  0.0000 </r>
        <r>  0.0000  0.0000  0.0000  0.0000  0.0000  0.0000  0.0000  0.0000  0.0000 </r>
       </set>
       <set comment="band 2">
        <r>  0.0000  0.0000  0.0000  0.0000  0.0000  0.0000  0.0000  0.0000  0.0000 </r>
        <r>  0.0000  0.0000  0.0000  0.0000  0.0000  0.0000  0.0000  0.0000  0.0000 </r>
        <r>  0.2822  0.0326  0.0000  0.0525  0.0000  0.0000  0.0000  0.0000  0.0000 </r>
        <r>  0.2795  0.0329  0.0000  0.0534  0.0000  0.0000  0.0000  0.0000  0.0000 </r>
       </set>
       <set comment="band 3">
        <r>  0.1567  0.0473  0.0000  0.1419  0.0000  0.0000  0.0000  0.0000  0.0000 </r>
        <r>  0.1543  0.0477  0.0000  0.1430  0.0000  0.0000  0.0000  0.0000  0.0000 </r>
        <r>  0.0000  0.0000  0.0000  0.0000  0.0000  0.0000  0.0000  0.0000  0.0000 </r>
        <r>  0.0000  0.0000  0.0000  0.0000  0.0000  0.0000  0.0000  0.0000  0.0000 </r>
       </set>
       <set comment="band 4">
        <r>  0.0000  0.0000  0.0000  0.0000  0.0000  0.0000  0.0000  0.0000  0.0000 </r>
        <r>  0.0000  0.0000  0.0000  0.0000  0.0000  0.0000  0.0000  0.0000  0.0000 </r>
        <r>  0.1543  0.0477  0.0000  0.1430  0.0000  0.0000  0.0000  0.0000  0.0000 </r>
        <r>  0.1567  0.0473  0.0000  0.1419  0.0000  0.0000  0.0000  0.0000  0.0000 </r>
       </set>
       <set comment="band 5">
        <r>  0.0467  0.2257  0.0000  0.0875  0.0000  0.0000  0.0000  0.0000  0.0000 </r>
        <r>  0.0466  0.2260  0.0000  0.0876  0.0000  0.0000  0.0000  0.0000  0.0000 </r>
        <r>  0.0000  0.0000  0.0000  0.0000  0.0000  0.0000  0.0000  0.0000  0.0000 </r>
        <r>  0.0000  0.0000  0.0000  0.0000  0.0000  0.0000  0.0000  0.0000  0.0000 </r>
       </set>
       <set comment="band 6">
        <r>  0.0000  0.0000  0.0000  0.0000  0.0000  0.0000  0.0000  0.0000  0.0000 </r>
        <r>  0.0000  0.0000  0.0000  0.0000  0.0000  0.0000  0.0000  0.0000  0.0000 </r>
        <r>  0.0466  0.2260  0.0000  0.0876  0.0000  0.0000  0.0000  0.0000  0.0000 </r>
        <r>  0.0467  0.2257  0.0000  0.0875  0.0000  0.0000  0.0000  0.0000  0.0000 </r>
       </set>
       <set comment="band 7">
        <r>  0.0000  0.0000  0.2560  0.0000  0.0000  0.0000  0.0000  0.0000  0.0000 </r>
        <r>  0.0000  0.0000  0.2595  0.0000  0.0000  0.0000  0.0000  0.0000  0.0000 </r>
        <r>  0.0006  0.0001  0.0000  0.0002  0.0000  0.0000  0.0000  0.0000  0.0000 </r>
        <r>  0.0000  0.0002  0.0000  0.0007  0.0000  0.0000  0.0000  0.0000  0.0000 </r>
       </set>
       <set comment="band 8">
        <r>  0.0000  0.0002  0.0000  0.0007  0.0000  0.0000  0.0000  0.0000  0.0000 </r>
        <r>  0.0006  0.0001  0.0000  0.0002  0.0000  0.0000  0.0000  0.0000  0.0000 </r>
        <r>  0.0000  0.0000  0.2595  0.0000  0.0000  0.0000  0.0000  0.0000  0.0000 </r>
        <r>  0.0000  0.0000  0.2560  0.0000  0.0000  0.0000  0.0000  0.0000  0.0000 </r>
       </set>
       <set comment="band 9">
        <r>  0.0000  0.0000  0.2519  0.0000  0.0000  0.0000  0.0000  0.0000  0.0000 </r>
        <r>  0.0000  0.0000  0.2480  0.0000  0.0000  0.0000  0.0000  0.0000  0.0000 </r>
        <r>  0.0002  0.0002  0.0000  0.0005  0.0000  0.0000  0.0000  0.0000  0.0000 </r>
        <r>  0.0005  0.0005  0.0000  0.0002  0.0000  0.0000  0.0000  0.0000  0.0000 </r>
       </set>
       <set comment="band 10">
        <r>  0.0005  0.0005  0.0000  0.0002  0.0000  0.0000  0.0000  0.0000  0.0000 </r>
        <r>  0.0002  0.0002  0.0000  0.0005  0.0000  0.0000  0.0000  0.0000  0.0000 </r>
        <r>  0.0000  0.0000  0.2480  0.0000  0.0000  0.0000  0.0000  0.0000  0.0000 </r>
        <r>  0.0000  0.0000  0.2519  0.0000  0.0000  0.0000  0.0000  0.0000  0.0000 </r>
       </set>
       <set comment="band 11">
        <r>  0.0448  0.0380  0.0000  0.0238  0.0000  0.0000  0.0000  0.0000  0.0000 </r>
        <r>  0.0622  0.0761  0.0000  0.0622  0.0000  0.0000  0.0000  0.0000  0.0000 </r>
        <r>  0.0000  0.0000  0.0086  0.0000  0.0000  0.0000  0.0000  0.0000  0.0000 </r>
        <r>  0.0000  0.0000  0.0092  0.0000  0.0000  0.0000  0.0000  0.0000  0.0000 </r>
       </set>
       <set comment="band 12">
        <r>  0.0000  0.0000  0.0092  0.0000  0.0000  0.0000  0.0000  0.0000  0.0000 </r>
        <r>  0.0000  0.0000  0.0086  0.0000  0.0000  0.0000  0.0000  0.0000  0.0000 </r>
        <r>  0.0622  0.0761  0.0000  0.0622  0.0000  0.0000  0.0000  0.0000  0.0000 </r>
        <r>  0.0448  0.0380  0.0000  0.0238  0.0000  0.0000  0.0000  0.0000  0.0000 </r>
       </set>
       <set comment="band 13">
        <r>  0.0686  0.0614  0.0000  0.0404  0.0000  0.0000  0.0000  0.0000  0.0000 </r>
        <r>  0.0469  0.0158  0.0000  0.0053  0.0000  0.0000  0.0000  0.0000  0.0000 </r>
        <r>  0.0000  0.0000  0.0290  0.0000  0.0000  0.0000  0.0000  0.0000  0.0000 </r>
        <r>  0.0000  0.0000  0.0249  0.0000  0.0000  0.0000  0.0000  0.0000  0.0000 </r>
       </set>
       <set comment="band 14">
        <r>  0.0000  0.0000  0.0249  0.0000  0.0000  0.0000  0.0000  0.0000  0.0000 </r>
        <r>  0.0000  0.0000  0.0290  0.0000  0.0000  0.0000  0.0000  0.0000  0.0000 </r>
        <r>  0.0469  0.0158  0.0000  0.0053  0.0000  0.0000  0.0000  0.0000  0.0000 </r>
        <r>  0.0686  0.0614  0.0000  0.0404  0.0000  0.0000  0.0000  0.0000  0.0000 </r>
       </set>
      </set>
      <set comment="kpoint 84">
       <set comment="band 1">
        <r>  0.2485  0.0775  0.0000  0.0337  0.0000  0.0000  0.0000  0.0000  0.0000 </r>
        <r>  0.2504  0.0771  0.0000  0.0334  0.0000  0.0000  0.0000  0.0000  0.0000 </r>
        <r>  0.0000  0.0000  0.0000  0.0000  0.0000  0.0000  0.0000  0.0000  0.0000 </r>
        <r>  0.0000  0.0000  0.0000  0.0000  0.0000  0.0000  0.0000  0.0000  0.0000 </r>
       </set>
       <set comment="band 2">
        <r>  0.0000  0.0000  0.0000  0.0000  0.0000  0.0000  0.0000  0.0000  0.0000 </r>
        <r>  0.0000  0.0000  0.0000  0.0000  0.0000  0.0000  0.0000  0.0000  0.0000 </r>
        <r>  0.2504  0.0771  0.0000  0.0334  0.0000  0.0000  0.0000  0.0000  0.0000 </r>
        <r>  0.2485  0.0775  0.0000  0.0337  0.0000  0.0000  0.0000  0.0000  0.0000 </r>
       </set>
       <set comment="band 3">
        <r>  0.2291  0.0794  0.0000  0.0662  0.0000  0.0000  0.0000  0.0000  0.0000 </r>
        <r>  0.2274  0.0803  0.0000  0.0665  0.0000  0.0000  0.0000  0.0000  0.0000 </r>
        <r>  0.0000  0.0000  0.0000  0.0000  0.0000  0.0000  0.0000  0.0000  0.0000 </r>
        <r>  0.0000  0.0000  0.0000  0.0000  0.0000  0.0000  0.0000  0.0000  0.0000 </r>
       </set>
       <set comment="band 4">
        <r>  0.0000  0.0000  0.0000  0.0000  0.0000  0.0000  0.0000  0.0000  0.0000 </r>
        <r>  0.0000  0.0000  0.0000  0.0000  0.0000  0.0000  0.0000  0.0000  0.0000 </r>
        <r>  0.2274  0.0803  0.0000  0.0665  0.0000  0.0000  0.0000  0.0000  0.0000 </r>
        <r>  0.2291  0.0794  0.0000  0.0662  0.0000  0.0000  0.0000  0.0000  0.0000 </r>
       </set>
       <set comment="band 5">
        <r>  0.0164  0.1263  0.0000  0.1889  0.0000  0.0000  0.0000  0.0000  0.0000 </r>
        <r>  0.0163  0.1264  0.0000  0.1893  0.0000  0.0000  0.0000  0.0000  0.0000 </r>
        <r>  0.0000  0.0000  0.0000  0.0000  0.0000  0.0000  0.0000  0.0000  0.0000 </r>
        <r>  0.0000  0.0000  0.0001  0.0000  0.0000  0.0000  0.0000  0.0000  0.0000 </r>
       </set>
       <set comment="band 6">
        <r>  0.0000  0.0000  0.0001  0.0000  0.0000  0.0000  0.0000  0.0000  0.0000 </r>
        <r>  0.0000  0.0000  0.0000  0.0000  0.0000  0.0000  0.0000  0.0000  0.0000 </r>
        <r>  0.0163  0.1264  0.0000  0.1893  0.0000  0.0000  0.0000  0.0000  0.0000 </r>
        <r>  0.0164  0.1263  0.0000  0.1889  0.0000  0.0000  0.0000  0.0000  0.0000 </r>
       </set>
       <set comment="band 7">
        <r>  0.0000  0.0000  0.2533  0.0000  0.0000  0.0000  0.0000  0.0000  0.0000 </r>
        <r>  0.0000  0.0000  0.2583  0.0000  0.0000  0.0000  0.0000  0.0000  0.0000 </r>
        <r>  0.0005  0.0002  0.0000  0.0001  0.0000  0.0000  0.0000  0.0000  0.0000 </r>
        <r>  0.0001  0.0007  0.0000  0.0002  0.0000  0.0000  0.0000  0.0000  0.0000 </r>
       </set>
       <set comment="band 8">
        <r>  0.0001  0.0007  0.0000  0.0002  0.0000  0.0000  0.0000  0.0000  0.0000 </r>
        <r>  0.0005  0.0002  0.0000  0.0001  0.0000  0.0000  0.0000  0.0000  0.0000 </r>
        <r>  0.0000  0.0000  0.2583  0.0000  0.0000  0.0000  0.0000  0.0000  0.0000 </r>
        <r>  0.0000  0.0000  0.2533  0.0000  0.0000  0.0000  0.0000  0.0000  0.0000 </r>
       </set>
       <set comment="band 9">
        <r>  0.0000  0.0000  0.2689  0.0000  0.0000  0.0000  0.0000  0.0000  0.0000 </r>
        <r>  0.0000  0.0000  0.2635  0.0000  0.0000  0.0000  0.0000  0.0000  0.0000 </r>
        <r>  0.0002  0.0002  0.0000  0.0002  0.0000  0.0000  0.0000  0.0000  0.0000 </r>
        <r>  0.0000  0.0002  0.0000  0.0007  0.0000  0.0000  0.0000  0.0000  0.0000 </r>
       </set>
       <set comment="band 10">
        <r>  0.0000  0.0002  0.0000  0.0007  0.0000  0.0000  0.0000  0.0000  0.0000 </r>
        <r>  0.0002  0.0002  0.0000  0.0002  0.0000  0.0000  0.0000  0.0000  0.0000 </r>
        <r>  0.0000  0.0000  0.2635  0.0000  0.0000  0.0000  0.0000  0.0000  0.0000 </r>
        <r>  0.0000  0.0000  0.2689  0.0000  0.0000  0.0000  0.0000  0.0000  0.0000 </r>
       </set>
       <set comment="band 11">
        <r>  0.0000  0.0000  0.0068  0.0000  0.0000  0.0000  0.0000  0.0000  0.0000 </r>
        <r>  0.0000  0.0000  0.0072  0.0000  0.0000  0.0000  0.0000  0.0000  0.0000 </r>
        <r>  0.0009  0.0249  0.0000  0.0230  0.0000  0.0000  0.0000  0.0000  0.0000 </r>
        <r>  0.0000  0.0001  0.0000  0.0000  0.0000  0.0000  0.0000  0.0000  0.0000 </r>
       </set>
       <set comment="band 12">
        <r>  0.0000  0.0001  0.0000  0.0000  0.0000  0.0000  0.0000  0.0000  0.0000 </r>
        <r>  0.0009  0.0249  0.0000  0.0231  0.0000  0.0000  0.0000  0.0000  0.0000 </r>
        <r>  0.0000  0.0000  0.0072  0.0000  0.0000  0.0000  0.0000  0.0000  0.0000 </r>
        <r>  0.0000  0.0000  0.0068  0.0000  0.0000  0.0000  0.0000  0.0000  0.0000 </r>
       </set>
       <set comment="band 13">
        <r>  0.0168  0.1502  0.0000  0.1699  0.0000  0.0000  0.0000  0.0000  0.0000 </r>
        <r>  0.0624  0.0104  0.0033  0.0080  0.0000  0.0000  0.0000  0.0000  0.0000 </r>
        <r>  0.0095  0.0016  0.0216  0.0012  0.0000  0.0000  0.0000  0.0000  0.0000 </r>
        <r>  0.0025  0.0228  0.0001  0.0258  0.0000  0.0000  0.0000  0.0000  0.0000 </r>
       </set>
       <set comment="band 14">
        <r>  0.0025  0.0228  0.0001  0.0258  0.0000  0.0000  0.0000  0.0000  0.0000 </r>
        <r>  0.0095  0.0016  0.0216  0.0012  0.0000  0.0000  0.0000  0.0000  0.0000 </r>
        <r>  0.0624  0.0104  0.0033  0.0080  0.0000  0.0000  0.0000  0.0000  0.0000 </r>
        <r>  0.0168  0.1502  0.0000  0.1700  0.0000  0.0000  0.0000  0.0000  0.0000 </r>
       </set>
      </set>
     </set>
    </set>
   </array>
  </projected>
 </calculation>
 <structure name="finalpos" >
  <crystal>
   <varray name="basis" >
    <v>       2.46120000       0.00000000       0.00000000 </v>
    <v>      -1.23060000       2.13146172       0.00000000 </v>
    <v>       0.00000000       0.00000000       6.70790000 </v>
   </varray>
   <i name="volume">     35.18933212 </i>
   <varray name="rec_basis" >
    <v>       0.40630587       0.23458080       0.00000000 </v>
    <v>       0.00000000       0.46916160       0.00000000 </v>
    <v>       0.00000000       0.00000000       0.14907795 </v>
   </varray>
  </crystal>
  <varray name="positions" >
   <v>       0.00000000       0.00000000       0.00000000 </v>
   <v>       0.33333333       0.66666667       0.00000000 </v>
   <v>       0.33333333       0.66666667       0.50000000 </v>
   <v>       0.66666667       0.33333333       0.50000000 </v>
  </varray>
 </structure>
</modeling>
