   1   1   0   0
  0.1813235E+02  0.2866544E-09  0.2866544E-09  0.2866544E-09  0.5000000E-15
  1.000000000000000E-004
  CAR 
 unknown system                          
     16.45564210     -2.84009058  301      5.67543236      1.00000000
     -2.840  0.0000E+00  0.0000E+00
     -2.776  0.0000E+00  0.0000E+00
     -2.711  0.0000E+00  0.0000E+00
     -2.647  0.0000E+00  0.0000E+00
     -2.583  0.0000E+00  0.0000E+00
     -2.518  0.0000E+00  0.0000E+00
     -2.454  0.0000E+00  0.0000E+00
     -2.390 -0.1004E-31 -0.6458E-33
     -2.326 -0.5633E-23 -0.3623E-24
     -2.261 -0.1118E-15 -0.7192E-17
     -2.197 -0.7387E-10 -0.4751E-11
     -2.133 -0.1655E-05 -0.1064E-06
     -2.068 -0.1045E-02 -0.6735E-04
     -2.004  0.2044E-02  0.6413E-04
     -1.940  0.1579E+00  0.1022E-01
     -1.875  0.3067E-01  0.1220E-01
     -1.811 -0.3019E-02  0.1200E-01
     -1.747 -0.1390E-04  0.1200E-01
     -1.682 -0.1109E-03  0.1199E-01
     -1.618 -0.7637E-02  0.1150E-01
     -1.554  0.1050E+00  0.1825E-01
     -1.489  0.1602E+00  0.2855E-01
     -1.425 -0.8252E-02  0.2802E-01
     -1.361 -0.3708E-03  0.2800E-01
     -1.296 -0.7121E-04  0.2800E-01
     -1.232 -0.1344E-01  0.2713E-01
     -1.168  0.1437E+00  0.3638E-01
     -1.103  0.6193E+00  0.7621E-01
     -1.039  0.3413E-03  0.7623E-01
     -0.975 -0.3578E-02  0.7600E-01
     -0.911 -0.4981E-05  0.7600E-01
     -0.846 -0.1977E-09  0.7600E-01
     -0.782 -0.3314E-15  0.7600E-01
     -0.718 -0.1429E-14  0.7600E-01
     -0.653 -0.7419E-09  0.7600E-01
     -0.589 -0.1263E-04  0.7600E-01
     -0.525 -0.5908E-02  0.7562E-01
     -0.460  0.2910E-01  0.7749E-01
     -0.396  0.6740E+00  0.1208E+00
     -0.332  0.2407E+00  0.1363E+00
     -0.267 -0.3670E-02  0.1361E+00
     -0.203 -0.1565E-02  0.1360E+00
     -0.139 -0.2078E-01  0.1346E+00
     -0.074  0.2692E+00  0.1520E+00
     -0.010  0.5218E+00  0.1855E+00
      0.054 -0.2346E-01  0.1840E+00
      0.119 -0.2552E-01  0.1824E+00
      0.183  0.4965E+00  0.2143E+00
      0.247  0.2975E+00  0.2334E+00
      0.312 -0.2215E-01  0.2320E+00
      0.376 -0.2906E-03  0.2320E+00
      0.440 -0.7828E-07  0.2320E+00
      0.505 -0.6597E-12  0.2320E+00
      0.569 -0.5131E-13  0.2320E+00
      0.633 -0.1149E-07  0.2320E+00
      0.697 -0.8253E-04  0.2320E+00
      0.762 -0.1497E-01  0.2310E+00
      0.826  0.1125E+00  0.2383E+00
      0.890  0.1228E+01  0.3173E+00
      0.955  0.9657E+00  0.3794E+00
      1.019 -0.5002E-01  0.3762E+00
      1.083 -0.3081E-02  0.3760E+00
      1.148 -0.4466E-01  0.3731E+00
      1.212  0.5583E+00  0.4090E+00
      1.276  0.1711E+01  0.5190E+00
      1.341  0.2483E-01  0.5206E+00
      1.405 -0.3199E-01  0.5186E+00
      1.469  0.5199E+00  0.5520E+00
      1.534  0.6565E+00  0.5942E+00
      1.598  0.6048E+00  0.6331E+00
      1.662  0.1181E+00  0.6407E+00
      1.727 -0.1133E-01  0.6400E+00
      1.791 -0.8393E-02  0.6395E+00
      1.855 -0.8842E-02  0.6389E+00
      1.920  0.1451E+01  0.7322E+00
      1.984  0.1776E+01  0.8465E+00
      2.048  0.1646E+01  0.9523E+00
      2.112  0.8618E+00  0.1008E+01
      2.177  0.6127E+00  0.1047E+01
      2.241  0.3357E+00  0.1069E+01
      2.305  0.1157E+01  0.1143E+01
      2.370  0.1235E+01  0.1223E+01
      2.434  0.4824E+00  0.1254E+01
      2.498  0.1191E+00  0.1261E+01
      2.563  0.6079E+00  0.1300E+01
      2.627 -0.2654E-01  0.1299E+01
      2.691  0.4655E+00  0.1329E+01
      2.756  0.8003E+00  0.1380E+01
      2.820  0.3087E+01  0.1579E+01
      2.884  0.1835E+01  0.1697E+01
      2.949  0.1285E+01  0.1779E+01
      3.013  0.3492E+00  0.1802E+01
      3.077  0.1299E-01  0.1803E+01
      3.142  0.1822E+01  0.1920E+01
      3.206  0.1564E+01  0.2020E+01
      3.270  0.7186E+00  0.2067E+01
      3.335  0.2718E-01  0.2068E+01
      3.399 -0.9369E-02  0.2068E+01
      3.463  0.2206E-01  0.2069E+01
      3.528  0.2167E+00  0.2083E+01
      3.592 -0.1236E-01  0.2082E+01
      3.656  0.4409E+00  0.2111E+01
      3.720  0.9464E+00  0.2172E+01
      3.785  0.1415E+01  0.2263E+01
      3.849  0.5022E+00  0.2295E+01
      3.913  0.4775E+00  0.2326E+01
      3.978 -0.2918E-01  0.2324E+01
      4.042  0.3859E-01  0.2326E+01
      4.106  0.2868E+00  0.2345E+01
      4.171  0.1819E+01  0.2462E+01
      4.235  0.2365E+01  0.2614E+01
      4.299  0.6982E+00  0.2659E+01
      4.364  0.2851E+01  0.2842E+01
      4.428  0.4179E+01  0.3111E+01
      4.492  0.8123E+00  0.3163E+01
      4.557  0.1259E+01  0.3244E+01
      4.621  0.1912E+01  0.3367E+01
      4.685  0.1194E+01  0.3444E+01
      4.750  0.4728E+00  0.3474E+01
      4.814  0.1450E+01  0.3567E+01
      4.878  0.1386E+01  0.3657E+01
      4.943  0.2591E+01  0.3823E+01
      5.007  0.2916E+01  0.4011E+01
      5.071  0.5650E+00  0.4047E+01
      5.135 -0.1029E+00  0.4041E+01
      5.200  0.5619E+00  0.4077E+01
      5.264  0.3095E+01  0.4276E+01
      5.328  0.2631E+01  0.4445E+01
      5.393  0.2062E+01  0.4578E+01
      5.457  0.6351E+00  0.4618E+01
      5.521  0.1026E+01  0.4684E+01
      5.586  0.1337E+01  0.4770E+01
      5.650  0.3137E+01  0.4972E+01
      5.714  0.1426E+01  0.5064E+01
      5.779  0.1654E+01  0.5170E+01
      5.843  0.2328E-01  0.5172E+01
      5.907  0.7107E-01  0.5176E+01
      5.972  0.1926E+01  0.5300E+01
      6.036  0.8838E+00  0.5357E+01
      6.100  0.1191E+01  0.5434E+01
      6.165  0.1755E+01  0.5547E+01
      6.229  0.6705E+00  0.5590E+01
      6.293 -0.3496E-01  0.5587E+01
      6.358  0.1361E+00  0.5596E+01
      6.422  0.5294E+00  0.5630E+01
      6.486  0.8415E-01  0.5636E+01
      6.550  0.1860E+00  0.5648E+01
      6.615  0.7168E+00  0.5694E+01
      6.679  0.2081E+00  0.5707E+01
      6.743  0.5791E+00  0.5744E+01
      6.808  0.4304E-03  0.5744E+01
      6.872  0.1212E+01  0.5822E+01
      6.936  0.3510E+00  0.5845E+01
      7.001  0.7843E+00  0.5895E+01
      7.065  0.6597E+00  0.5938E+01
      7.129 -0.3474E-01  0.5936E+01
      7.194  0.2490E+00  0.5952E+01
      7.258  0.8222E+00  0.6004E+01
      7.322  0.1588E+00  0.6015E+01
      7.387  0.7889E+00  0.6065E+01
      7.451  0.1049E+00  0.6072E+01
      7.515  0.9880E+00  0.6136E+01
      7.580  0.6249E+00  0.6176E+01
      7.644  0.6086E+00  0.6215E+01
      7.708  0.2039E-01  0.6216E+01
      7.773 -0.5147E-02  0.6216E+01
      7.837 -0.1215E-04  0.6216E+01
      7.901 -0.2589E-02  0.6216E+01
      7.966 -0.4014E-01  0.6213E+01
      8.030  0.8618E+00  0.6269E+01
      8.094  0.1290E+01  0.6352E+01
      8.158  0.1579E+01  0.6453E+01
      8.223  0.8560E+00  0.6508E+01
      8.287 -0.9384E-01  0.6502E+01
      8.351  0.3148E+00  0.6522E+01
      8.416  0.1194E+01  0.6599E+01
      8.480  0.4120E+00  0.6626E+01
      8.544  0.6101E+00  0.6665E+01
      8.609  0.8072E+00  0.6717E+01
      8.673  0.1731E+01  0.6828E+01
      8.737  0.1126E+01  0.6901E+01
      8.802  0.2112E+00  0.6914E+01
      8.866  0.1101E+01  0.6985E+01
      8.930  0.1793E+01  0.7100E+01
      8.995  0.9566E+00  0.7162E+01
      9.059  0.5228E+00  0.7195E+01
      9.123  0.1743E+01  0.7308E+01
      9.188  0.2365E+01  0.7460E+01
      9.252  0.8933E+00  0.7517E+01
      9.316  0.2747E+00  0.7535E+01
      9.381  0.2052E+01  0.7667E+01
      9.445  0.9895E+00  0.7730E+01
      9.509  0.1217E+01  0.7809E+01
      9.573  0.6421E+00  0.7850E+01
      9.638  0.1028E+00  0.7857E+01
      9.702  0.1143E+01  0.7930E+01
      9.766  0.1589E+01  0.8032E+01
      9.831  0.1215E+01  0.8110E+01
      9.895  0.2110E+00  0.8124E+01
      9.959  0.1657E+00  0.8135E+01
     10.024  0.1515E+01  0.8232E+01
     10.088  0.2222E+01  0.8375E+01
     10.152  0.8900E+00  0.8432E+01
     10.217  0.9408E+00  0.8493E+01
     10.281  0.9261E+00  0.8552E+01
     10.345  0.1330E+01  0.8638E+01
     10.410  0.1961E+01  0.8764E+01
     10.474  0.3219E+01  0.8971E+01
     10.538  0.2422E+01  0.9127E+01
     10.603  0.3334E+01  0.9341E+01
     10.667  0.3462E+01  0.9564E+01
     10.731  0.4468E+01  0.9851E+01
     10.796  0.2556E+01  0.1002E+02
     10.860  0.2228E+01  0.1016E+02
     10.924  0.1121E+01  0.1023E+02
     10.989  0.8078E+00  0.1028E+02
     11.053 -0.2259E-02  0.1028E+02
     11.117  0.5289E+00  0.1032E+02
     11.181  0.2327E+00  0.1033E+02
     11.246  0.5272E+00  0.1037E+02
     11.310  0.2690E+00  0.1038E+02
     11.374  0.2903E+00  0.1040E+02
     11.439  0.3031E+00  0.1042E+02
     11.503  0.2449E+00  0.1044E+02
     11.567 -0.2633E-01  0.1044E+02
     11.632  0.8601E-01  0.1044E+02
     11.696  0.6224E+00  0.1048E+02
     11.760  0.4729E+00  0.1051E+02
     11.825  0.3455E+00  0.1053E+02
     11.889 -0.3026E-01  0.1053E+02
     11.953  0.3232E-01  0.1053E+02
     12.018  0.6508E+00  0.1058E+02
     12.082  0.7779E-01  0.1058E+02
     12.146 -0.1289E-01  0.1058E+02
     12.211 -0.6956E-02  0.1058E+02
     12.275  0.7426E+00  0.1063E+02
     12.339  0.2204E+00  0.1064E+02
     12.404 -0.1956E-01  0.1064E+02
     12.468 -0.2228E-01  0.1064E+02
     12.532  0.2964E+00  0.1066E+02
     12.596  0.4197E+00  0.1068E+02
     12.661  0.9344E+00  0.1074E+02
     12.725  0.2826E+01  0.1093E+02
     12.789  0.9143E+00  0.1099E+02
     12.854  0.1224E+01  0.1106E+02
     12.918  0.1713E+01  0.1117E+02
     12.982  0.9948E+00  0.1124E+02
     13.047  0.3743E+00  0.1126E+02
     13.111  0.1106E+01  0.1133E+02
     13.175 -0.1560E-01  0.1133E+02
     13.240 -0.5339E-02  0.1133E+02
     13.304 -0.7506E-05  0.1133E+02
     13.368 -0.2564E-06  0.1133E+02
     13.433 -0.3595E-03  0.1133E+02
     13.497 -0.5711E-02  0.1133E+02
     13.561  0.1213E+00  0.1134E+02
     13.626  0.1239E+00  0.1135E+02
     13.690  0.6481E+00  0.1139E+02
     13.754  0.4277E-01  0.1139E+02
     13.819  0.2693E+00  0.1141E+02
     13.883  0.8969E-01  0.1141E+02
     13.947  0.4182E+00  0.1144E+02
     14.012  0.3704E+00  0.1147E+02
     14.076 -0.2484E-01  0.1146E+02
     14.140 -0.5039E-03  0.1146E+02
     14.204 -0.1218E-04  0.1146E+02
     14.269 -0.6204E-02  0.1146E+02
     14.333  0.1350E-01  0.1146E+02
     14.397  0.9162E+00  0.1152E+02
     14.462  0.1597E+00  0.1153E+02
     14.526  0.7576E+00  0.1158E+02
     14.590  0.1479E+01  0.1168E+02
     14.655  0.1075E+00  0.1168E+02
     14.719  0.1842E+00  0.1170E+02
     14.783 -0.3865E-02  0.1170E+02
     14.848 -0.4832E-02  0.1170E+02
     14.912 -0.3386E-01  0.1169E+02
     14.976  0.1046E+01  0.1176E+02
     15.041  0.9200E+00  0.1182E+02
     15.105  0.1095E+01  0.1189E+02
     15.169 -0.3871E-01  0.1189E+02
     15.234  0.2364E-01  0.1189E+02
     15.298  0.6254E+00  0.1193E+02
     15.362  0.4132E+00  0.1196E+02
     15.427  0.4579E+00  0.1199E+02
     15.491 -0.2924E-01  0.1198E+02
     15.555  0.3988E-01  0.1199E+02
     15.619  0.2106E+00  0.1200E+02
     15.684  0.2725E-02  0.1200E+02
     15.748 -0.1394E-02  0.1200E+02
     15.812 -0.2206E-05  0.1200E+02
     15.877 -0.9849E-10  0.1200E+02
     15.941 -0.1657E-15  0.1200E+02
     16.005  0.0000E+00  0.1200E+02
     16.070  0.0000E+00  0.1200E+02
     16.134  0.0000E+00  0.1200E+02
     16.198  0.0000E+00  0.1200E+02
     16.263  0.0000E+00  0.1200E+02
     16.327  0.0000E+00  0.1200E+02
     16.391  0.0000E+00  0.1200E+02
     16.456  0.0000E+00  0.1200E+02
