   1   1   1   0
  0.1813235E+02  0.2866544E-09  0.2866544E-09  0.2866544E-09  0.5000000E-15
  1.000000000000000E-004
  CAR 
 unknown system                          
     16.46199518     -2.84835832  301      5.67498465      1.00000000
     -2.848  0.0000E+00  0.0000E+00  0.0000E+00  0.0000E+00
     -2.784  0.0000E+00  0.0000E+00  0.0000E+00  0.0000E+00
     -2.720  0.0000E+00  0.0000E+00  0.0000E+00  0.0000E+00
     -2.655  0.0000E+00  0.0000E+00  0.0000E+00  0.0000E+00
     -2.591  0.0000E+00  0.0000E+00  0.0000E+00  0.0000E+00
     -2.527  0.0000E+00  0.0000E+00  0.0000E+00  0.0000E+00
     -2.462  0.0000E+00  0.0000E+00  0.0000E+00  0.0000E+00
     -2.398 -0.7467E-34 -0.4495E-32 -0.4806E-35 -0.2893E-33
     -2.333 -0.8014E-25 -0.2601E-23 -0.5158E-26 -0.1674E-24
     -2.269 -0.3034E-17 -0.5298E-16 -0.1953E-18 -0.3410E-17
     -2.205 -0.3834E-11 -0.3573E-10 -0.2468E-12 -0.2300E-11
     -2.140 -0.1652E-06 -0.8131E-06 -0.1063E-07 -0.5234E-07
     -2.076 -0.2098E-03 -0.5194E-03 -0.1352E-04 -0.3348E-04
     -2.012 -0.2596E-02  0.1005E-02 -0.1806E-03  0.3117E-04
     -1.947  0.6704E-01  0.7894E-01  0.4134E-02  0.5113E-02
     -1.883  0.3149E-01  0.1530E-01  0.6161E-02  0.6097E-02
     -1.818 -0.2480E-02 -0.1503E-02  0.6002E-02  0.6000E-02
     -1.754 -0.2487E-04 -0.6853E-05  0.6000E-02  0.6000E-02
     -1.690 -0.1653E-04 -0.5679E-04  0.5999E-02  0.5996E-02
     -1.625 -0.2573E-02 -0.3843E-02  0.5833E-02  0.5749E-02
     -1.561  0.2934E-01  0.5318E-01  0.7722E-02  0.9172E-02
     -1.497  0.9948E-01  0.7933E-01  0.1413E-01  0.1428E-01
     -1.432 -0.1475E-02 -0.4152E-02  0.1403E-01  0.1401E-01
     -1.368 -0.4693E-03 -0.1782E-03  0.1400E-01  0.1400E-01
     -1.304 -0.1003E-04 -0.3790E-04  0.1400E-01  0.1400E-01
     -1.239 -0.3642E-02 -0.6911E-02  0.1376E-01  0.1355E-01
     -1.175  0.2586E-01  0.7514E-01  0.1543E-01  0.1839E-01
     -1.110  0.3271E+00  0.3073E+00  0.3648E-01  0.3817E-01
     -1.046  0.2730E-01 -0.9785E-03  0.3824E-01  0.3811E-01
     -0.982 -0.3741E-02 -0.1691E-02  0.3800E-01  0.3800E-01
     -0.917 -0.1002E-04 -0.2237E-05  0.3800E-01  0.3800E-01
     -0.853 -0.7149E-09 -0.8423E-10  0.3800E-01  0.3800E-01
     -0.789 -0.1656E-14 -0.8279E-16  0.3800E-01  0.3800E-01
     -0.724 -0.5672E-16 -0.9161E-15  0.3800E-01  0.3800E-01
     -0.660 -0.5127E-10 -0.4509E-09  0.3800E-01  0.3800E-01
     -0.595 -0.1571E-05 -0.7276E-05  0.3800E-01  0.3800E-01
     -0.531 -0.1388E-02 -0.3187E-02  0.3791E-01  0.3779E-01
     -0.467 -0.5358E-02  0.1791E-01  0.3757E-01  0.3895E-01
     -0.402  0.3008E+00  0.3394E+00  0.5693E-01  0.6079E-01
     -0.338  0.1700E+00  0.1148E+00  0.6787E-01  0.6818E-01
     -0.274  0.3311E-02 -0.2245E-02  0.6808E-01  0.6804E-01
     -0.209 -0.1314E-02 -0.7409E-03  0.6800E-01  0.6799E-01
     -0.145 -0.6947E-02 -0.1084E-01  0.6755E-01  0.6729E-01
     -0.081  0.7564E-01  0.1440E+00  0.7242E-01  0.7656E-01
     -0.016  0.3070E+00  0.2523E+00  0.9218E-01  0.9280E-01
      0.048 -0.1377E-02 -0.1248E-01  0.9209E-01  0.9200E-01
      0.113 -0.1406E-01 -0.1205E-01  0.9119E-01  0.9122E-01
      0.177  0.1841E+00  0.2576E+00  0.1030E+00  0.1078E+00
      0.241  0.2146E+00  0.1381E+00  0.1169E+00  0.1167E+00
      0.306 -0.1283E-01 -0.1055E-01  0.1160E+00  0.1160E+00
      0.370 -0.3819E-03 -0.1215E-03  0.1160E+00  0.1160E+00
      0.434 -0.1796E-06 -0.2947E-07  0.1160E+00  0.1160E+00
      0.499 -0.2563E-11 -0.2233E-12  0.1160E+00  0.1160E+00
      0.563 -0.2794E-14 -0.4005E-13  0.1160E+00  0.1160E+00
      0.628 -0.1068E-08 -0.8109E-08  0.1160E+00  0.1160E+00
      0.692 -0.1323E-04 -0.5221E-04  0.1160E+00  0.1160E+00
      0.756 -0.4413E-02 -0.8281E-02  0.1157E+00  0.1155E+00
      0.821  0.1892E-01  0.6717E-01  0.1169E+00  0.1198E+00
      0.885  0.5189E+00  0.6317E+00  0.1503E+00  0.1605E+00
      0.949  0.6009E+00  0.4547E+00  0.1890E+00  0.1897E+00
      1.014 -0.1295E-01 -0.2572E-01  0.1882E+00  0.1881E+00
      1.078 -0.2790E-02 -0.1389E-02  0.1880E+00  0.1880E+00
      1.142 -0.1536E-01 -0.2375E-01  0.1870E+00  0.1864E+00
      1.207  0.1515E+00  0.3100E+00  0.1968E+00  0.2064E+00
      1.271  0.9150E+00  0.8351E+00  0.2557E+00  0.2602E+00
      1.336  0.7786E-01  0.1607E-02  0.2607E+00  0.2603E+00
      1.400 -0.2359E-01 -0.1418E-01  0.2591E+00  0.2593E+00
      1.464  0.2002E+00  0.2668E+00  0.2720E+00  0.2765E+00
      1.529  0.3278E+00  0.3311E+00  0.2931E+00  0.2978E+00
      1.593  0.3312E+00  0.2952E+00  0.3144E+00  0.3168E+00
      1.657  0.9347E-01  0.5469E-01  0.3205E+00  0.3203E+00
      1.722 -0.7048E-02 -0.5380E-02  0.3200E+00  0.3200E+00
      1.786 -0.2108E-02 -0.4767E-02  0.3199E+00  0.3197E+00
      1.850 -0.2522E-01  0.2256E-02  0.3183E+00  0.3198E+00
      1.915  0.5850E+00  0.7505E+00  0.3559E+00  0.3682E+00
      1.979  0.9340E+00  0.8845E+00  0.4160E+00  0.4251E+00
      2.044  0.8249E+00  0.8183E+00  0.4691E+00  0.4778E+00
      2.108  0.5143E+00  0.4063E+00  0.5022E+00  0.5039E+00
      2.172  0.2781E+00  0.3136E+00  0.5201E+00  0.5241E+00
      2.237  0.1999E+00  0.1693E+00  0.5330E+00  0.5350E+00
      2.301  0.4802E+00  0.5930E+00  0.5639E+00  0.5732E+00
      2.365  0.6499E+00  0.6047E+00  0.6057E+00  0.6121E+00
      2.430  0.3326E+00  0.2278E+00  0.6271E+00  0.6268E+00
      2.494  0.2066E-01  0.5717E-01  0.6285E+00  0.6304E+00
      2.559  0.3232E+00  0.3059E+00  0.6493E+00  0.6501E+00
      2.623  0.8694E-03 -0.1258E-01  0.6493E+00  0.6493E+00
      2.687  0.1948E+00  0.2295E+00  0.6619E+00  0.6641E+00
      2.752  0.3183E+00  0.4349E+00  0.6823E+00  0.6921E+00
      2.816  0.1445E+01  0.1556E+01  0.7753E+00  0.7922E+00
      2.880  0.1072E+01  0.8786E+00  0.8443E+00  0.8488E+00
      2.945  0.6233E+00  0.6513E+00  0.8845E+00  0.8907E+00
      3.009  0.2522E+00  0.1558E+00  0.9007E+00  0.9007E+00
      3.073 -0.1007E-01  0.1809E-01  0.9000E+00  0.9019E+00
      3.138  0.7517E+00  0.9476E+00  0.9484E+00  0.9629E+00
      3.202  0.9058E+00  0.7347E+00  0.1007E+01  0.1010E+01
      3.267  0.3931E+00  0.3606E+00  0.1032E+01  0.1033E+01
      3.331  0.3569E-01  0.1254E-01  0.1034E+01  0.1034E+01
      3.395 -0.5736E-02 -0.4884E-02  0.1034E+01  0.1034E+01
      3.460  0.1161E-02  0.1547E-01  0.1034E+01  0.1035E+01
      3.524  0.1048E+00  0.1069E+00  0.1041E+01  0.1042E+01
      3.588  0.7849E-02 -0.8787E-02  0.1041E+01  0.1041E+01
      3.653  0.1719E+00  0.2322E+00  0.1052E+01  0.1056E+01
      3.717  0.4359E+00  0.4843E+00  0.1080E+01  0.1087E+01
      3.782  0.7329E+00  0.6939E+00  0.1128E+01  0.1132E+01
      3.846  0.2727E+00  0.2418E+00  0.1145E+01  0.1148E+01
      3.910  0.2709E+00  0.2372E+00  0.1163E+01  0.1163E+01
      3.975 -0.9156E-02 -0.1525E-01  0.1162E+01  0.1162E+01
      4.039  0.3609E-02  0.2648E-01  0.1162E+01  0.1164E+01
      4.103  0.1297E+00  0.1501E+00  0.1171E+01  0.1173E+01
      4.168  0.6924E+00  0.9741E+00  0.1215E+01  0.1236E+01
      4.232  0.1393E+01  0.1106E+01  0.1305E+01  0.1307E+01
      4.296  0.2473E+00  0.3976E+00  0.1321E+01  0.1333E+01
      4.361  0.1278E+01  0.1482E+01  0.1403E+01  0.1428E+01
      4.425  0.2191E+01  0.2027E+01  0.1544E+01  0.1559E+01
      4.490  0.5253E+00  0.3824E+00  0.1578E+01  0.1583E+01
      4.554  0.5937E+00  0.6287E+00  0.1616E+01  0.1624E+01
      4.618  0.9094E+00  0.9796E+00  0.1675E+01  0.1687E+01
      4.683  0.6765E+00  0.5630E+00  0.1718E+01  0.1723E+01
      4.747  0.2249E+00  0.2535E+00  0.1733E+01  0.1739E+01
      4.811  0.7145E+00  0.7297E+00  0.1779E+01  0.1786E+01
      4.876  0.6550E+00  0.6992E+00  0.1821E+01  0.1831E+01
      4.940  0.1203E+01  0.1340E+01  0.1898E+01  0.1918E+01
      5.005  0.1530E+01  0.1426E+01  0.1997E+01  0.2009E+01
      5.069  0.4235E+00  0.2181E+00  0.2024E+01  0.2023E+01
      5.133 -0.4803E-01 -0.5221E-01  0.2021E+01  0.2020E+01
      5.198  0.1591E+00  0.3517E+00  0.2031E+01  0.2043E+01
      5.262  0.1461E+01  0.1584E+01  0.2125E+01  0.2145E+01
      5.326  0.1358E+01  0.1288E+01  0.2213E+01  0.2228E+01
      5.391  0.1087E+01  0.9923E+00  0.2282E+01  0.2291E+01
      5.455  0.3843E+00  0.2914E+00  0.2307E+01  0.2310E+01
      5.519  0.4597E+00  0.5262E+00  0.2337E+01  0.2344E+01
      5.584  0.5960E+00  0.7494E+00  0.2375E+01  0.2392E+01
      5.648  0.1621E+01  0.1501E+01  0.2480E+01  0.2489E+01
      5.713  0.6810E+00  0.7456E+00  0.2523E+01  0.2537E+01
      5.777  0.9065E+00  0.7680E+00  0.2582E+01  0.2586E+01
      5.841  0.7160E-01 -0.1125E-01  0.2586E+01  0.2586E+01
      5.906 -0.5525E-02  0.8329E-01  0.2586E+01  0.2591E+01
      5.970  0.8814E+00  0.9867E+00  0.2643E+01  0.2654E+01
      6.034  0.5206E+00  0.3894E+00  0.2676E+01  0.2679E+01
      6.099  0.5260E+00  0.6683E+00  0.2710E+01  0.2722E+01
      6.163  0.8942E+00  0.8336E+00  0.2768E+01  0.2776E+01
      6.228  0.4096E+00  0.2928E+00  0.2794E+01  0.2795E+01
      6.292 -0.1333E-02 -0.2141E-01  0.2794E+01  0.2794E+01
      6.356  0.3578E-01  0.8810E-01  0.2796E+01  0.2799E+01
      6.421  0.2605E+00  0.2597E+00  0.2813E+01  0.2816E+01
      6.485  0.7893E-01  0.2593E-01  0.2818E+01  0.2818E+01
      6.549  0.4857E-01  0.1257E+00  0.2821E+01  0.2826E+01
      6.614  0.3740E+00  0.3371E+00  0.2845E+01  0.2847E+01
      6.678  0.1116E+00  0.1267E+00  0.2852E+01  0.2856E+01
      6.742  0.3031E+00  0.2602E+00  0.2872E+01  0.2872E+01
      6.807 -0.1583E-01  0.1841E-01  0.2871E+01  0.2874E+01
      6.871  0.5402E+00  0.6302E+00  0.2906E+01  0.2914E+01
      6.936  0.2480E+00  0.1442E+00  0.2922E+01  0.2923E+01
      7.000  0.3428E+00  0.4305E+00  0.2944E+01  0.2951E+01
      7.064  0.3814E+00  0.2778E+00  0.2968E+01  0.2969E+01
      7.129 -0.7061E-02 -0.1966E-01  0.2968E+01  0.2968E+01
      7.193  0.9268E-01  0.1471E+00  0.2974E+01  0.2977E+01
      7.257  0.4050E+00  0.4064E+00  0.3000E+01  0.3003E+01
      7.322  0.9802E-01  0.8014E-01  0.3006E+01  0.3009E+01
      7.386  0.3625E+00  0.3981E+00  0.3030E+01  0.3034E+01
      7.450  0.9543E-01  0.4211E-01  0.3036E+01  0.3037E+01
      7.515  0.4248E+00  0.5325E+00  0.3063E+01  0.3071E+01
      7.579  0.3632E+00  0.2843E+00  0.3086E+01  0.3089E+01
      7.644  0.3082E+00  0.2915E+00  0.3106E+01  0.3108E+01
      7.708  0.3169E-01 -0.1095E-02  0.3108E+01  0.3108E+01
      7.772 -0.4097E-02 -0.1701E-02  0.3108E+01  0.3108E+01
      7.837 -0.1256E-04 -0.4433E-05  0.3108E+01  0.3108E+01
      7.901 -0.7931E-03 -0.1842E-02  0.3108E+01  0.3108E+01
      7.965 -0.2132E-01 -0.1649E-01  0.3107E+01  0.3107E+01
      8.030  0.3557E+00  0.4879E+00  0.3129E+01  0.3138E+01
      8.094  0.6933E+00  0.6047E+00  0.3174E+01  0.3177E+01
      8.159  0.6958E+00  0.8613E+00  0.3219E+01  0.3233E+01
      8.223  0.5524E+00  0.3290E+00  0.3254E+01  0.3254E+01
      8.287 -0.4792E-01 -0.4444E-01  0.3251E+01  0.3251E+01
      8.352  0.1030E+00  0.2034E+00  0.3258E+01  0.3264E+01
      8.416  0.6289E+00  0.5640E+00  0.3298E+01  0.3300E+01
      8.480  0.1769E+00  0.2318E+00  0.3310E+01  0.3315E+01
      8.545  0.3096E+00  0.3045E+00  0.3330E+01  0.3335E+01
      8.609  0.3980E+00  0.4085E+00  0.3355E+01  0.3361E+01
      8.673  0.8447E+00  0.8779E+00  0.3410E+01  0.3418E+01
      8.738  0.5846E+00  0.5380E+00  0.3447E+01  0.3452E+01
      8.802  0.1380E+00  0.9699E-01  0.3456E+01  0.3458E+01
      8.867  0.4889E+00  0.5969E+00  0.3488E+01  0.3497E+01
      8.931  0.9056E+00  0.8836E+00  0.3546E+01  0.3554E+01
      8.995  0.5016E+00  0.4527E+00  0.3578E+01  0.3583E+01
      9.060  0.2520E+00  0.3010E+00  0.3595E+01  0.3602E+01
      9.124  0.8318E+00  0.8840E+00  0.3648E+01  0.3659E+01
      9.188  0.1196E+01  0.1161E+01  0.3725E+01  0.3734E+01
      9.253  0.5214E+00  0.3794E+00  0.3759E+01  0.3758E+01
      9.317  0.8930E-01  0.2022E+00  0.3764E+01  0.3771E+01
      9.382  0.1011E+01  0.1023E+01  0.3829E+01  0.3837E+01
      9.446  0.5262E+00  0.4636E+00  0.3863E+01  0.3867E+01
      9.510  0.5839E+00  0.6299E+00  0.3901E+01  0.3908E+01
      9.575  0.3779E+00  0.2662E+00  0.3925E+01  0.3925E+01
      9.639  0.2561E-01  0.8305E-01  0.3927E+01  0.3930E+01
      9.703  0.5590E+00  0.5802E+00  0.3963E+01  0.3967E+01
      9.768  0.7739E+00  0.8142E+00  0.4013E+01  0.4020E+01
      9.832  0.6357E+00  0.5743E+00  0.4054E+01  0.4057E+01
      9.896  0.1348E+00  0.7622E-01  0.4062E+01  0.4062E+01
      9.961  0.4751E-01  0.1286E+00  0.4065E+01  0.4070E+01
     10.025  0.7394E+00  0.7722E+00  0.4113E+01  0.4120E+01
     10.090  0.1103E+01  0.1117E+01  0.4184E+01  0.4192E+01
     10.154  0.4898E+00  0.3941E+00  0.4215E+01  0.4217E+01
     10.218  0.4540E+00  0.4884E+00  0.4245E+01  0.4248E+01
     10.283  0.4342E+00  0.5060E+00  0.4273E+01  0.4281E+01
     10.347  0.6952E+00  0.6090E+00  0.4317E+01  0.4320E+01
     10.411  0.9043E+00  0.1108E+01  0.4376E+01  0.4391E+01
     10.476  0.1666E+01  0.1510E+01  0.4483E+01  0.4489E+01
     10.540  0.1110E+01  0.1343E+01  0.4554E+01  0.4575E+01
     10.605  0.1738E+01  0.1583E+01  0.4666E+01  0.4677E+01
     10.669  0.1683E+01  0.1810E+01  0.4775E+01  0.4793E+01
     10.733  0.2238E+01  0.2217E+01  0.4919E+01  0.4936E+01
     10.798  0.1328E+01  0.1227E+01  0.5004E+01  0.5015E+01
     10.862  0.1108E+01  0.1091E+01  0.5075E+01  0.5085E+01
     10.926  0.6035E+00  0.5174E+00  0.5114E+01  0.5119E+01
     10.991  0.4154E+00  0.3674E+00  0.5141E+01  0.5142E+01
     11.055  0.6413E-02 -0.8080E-02  0.5141E+01  0.5142E+01
     11.119  0.2301E+00  0.2990E+00  0.5156E+01  0.5161E+01
     11.184  0.1519E+00  0.7949E-01  0.5166E+01  0.5166E+01
     11.248  0.2475E+00  0.2925E+00  0.5182E+01  0.5185E+01
     11.313  0.1437E+00  0.1163E+00  0.5191E+01  0.5193E+01
     11.377  0.1445E+00  0.1404E+00  0.5200E+01  0.5202E+01
     11.441  0.1389E+00  0.1754E+00  0.5209E+01  0.5213E+01
     11.506  0.1421E+00  0.8710E-01  0.5219E+01  0.5218E+01
     11.570 -0.1231E-01 -0.1420E-01  0.5218E+01  0.5218E+01
     11.634  0.2686E-01  0.8143E-01  0.5220E+01  0.5223E+01
     11.699  0.3144E+00  0.2923E+00  0.5240E+01  0.5242E+01
     11.763  0.2254E+00  0.2669E+00  0.5254E+01  0.5259E+01
     11.828  0.1956E+00  0.1223E+00  0.5267E+01  0.5267E+01
     11.892 -0.1537E-01 -0.1475E-01  0.5266E+01  0.5266E+01
     11.956  0.1151E-01  0.4481E-01  0.5267E+01  0.5269E+01
     12.021  0.3231E+00  0.3234E+00  0.5287E+01  0.5289E+01
     12.085  0.4560E-01  0.1223E-01  0.5290E+01  0.5290E+01
     12.149 -0.6294E-02 -0.5863E-02  0.5290E+01  0.5290E+01
     12.214 -0.9957E-02  0.1324E-01  0.5289E+01  0.5291E+01
     12.278  0.3453E+00  0.3978E+00  0.5312E+01  0.5316E+01
     12.342  0.1437E+00  0.6493E-01  0.5321E+01  0.5320E+01
     12.407 -0.1166E-01 -0.7039E-02  0.5320E+01  0.5320E+01
     12.471 -0.9705E-02 -0.1271E-01  0.5319E+01  0.5319E+01
     12.536  0.1196E+00  0.1969E+00  0.5327E+01  0.5332E+01
     12.600  0.2394E+00  0.1541E+00  0.5342E+01  0.5342E+01
     12.664  0.3801E+00  0.6888E+00  0.5367E+01  0.5386E+01
     12.729  0.1459E+01  0.1271E+01  0.5461E+01  0.5468E+01
     12.793  0.4725E+00  0.4681E+00  0.5491E+01  0.5498E+01
     12.857  0.6012E+00  0.6099E+00  0.5530E+01  0.5537E+01
     12.922  0.8364E+00  0.9287E+00  0.5584E+01  0.5597E+01
     12.986  0.5504E+00  0.3296E+00  0.5619E+01  0.5618E+01
     13.050  0.1535E+00  0.3117E+00  0.5629E+01  0.5638E+01
     13.115  0.5800E+00  0.4533E+00  0.5666E+01  0.5668E+01
     13.179 -0.3682E-02 -0.2310E-01  0.5666E+01  0.5666E+01
     13.244 -0.3086E-02 -0.1070E-02  0.5666E+01  0.5666E+01
     13.308 -0.4569E-05 -0.7188E-06  0.5666E+01  0.5666E+01
     13.372 -0.1124E-06 -0.8569E-06  0.5666E+01  0.5666E+01
     13.437 -0.1668E-03 -0.5344E-03  0.5666E+01  0.5666E+01
     13.501 -0.2936E-02  0.1154E-02  0.5666E+01  0.5666E+01
     13.565  0.5996E-01  0.7148E-01  0.5670E+01  0.5671E+01
     13.630  0.5674E-01  0.1028E+00  0.5673E+01  0.5677E+01
     13.694  0.3235E+00  0.2961E+00  0.5694E+01  0.5696E+01
     13.759  0.2713E-01 -0.4137E-02  0.5696E+01  0.5696E+01
     13.823  0.1262E+00  0.1530E+00  0.5704E+01  0.5706E+01
     13.887  0.5426E-01  0.2433E-01  0.5708E+01  0.5707E+01
     13.952  0.1924E+00  0.2609E+00  0.5720E+01  0.5724E+01
     14.016  0.2012E+00  0.1305E+00  0.5733E+01  0.5733E+01
     14.080 -0.1273E-01 -0.1016E-01  0.5732E+01  0.5732E+01
     14.145 -0.3153E-03 -0.1074E-03  0.5732E+01  0.5732E+01
     14.209 -0.5016E-05 -0.3038E-04  0.5732E+01  0.5732E+01
     14.273 -0.2785E-02 -0.7072E-02  0.5732E+01  0.5732E+01
     14.338  0.2815E-02  0.6341E-01  0.5732E+01  0.5736E+01
     14.402  0.4516E+00  0.4767E+00  0.5761E+01  0.5766E+01
     14.467  0.9100E-01  0.8413E-03  0.5767E+01  0.5766E+01
     14.531  0.3572E+00  0.5331E+00  0.5790E+01  0.5801E+01
     14.595  0.7556E+00  0.6189E+00  0.5839E+01  0.5841E+01
     14.660  0.5573E-01  0.4937E-01  0.5842E+01  0.5844E+01
     14.724  0.9309E-01  0.7131E-01  0.5848E+01  0.5848E+01
     14.788 -0.1559E-02 -0.4273E-02  0.5848E+01  0.5848E+01
     14.853 -0.2338E-02 -0.4284E-02  0.5848E+01  0.5848E+01
     14.917 -0.1782E-01  0.8363E-02  0.5847E+01  0.5848E+01
     14.982  0.5164E+00  0.5949E+00  0.5880E+01  0.5887E+01
     15.046  0.4597E+00  0.4747E+00  0.5910E+01  0.5917E+01
     15.110  0.5528E+00  0.4440E+00  0.5945E+01  0.5946E+01
     15.175 -0.1822E-01 -0.3144E-01  0.5944E+01  0.5944E+01
     15.239  0.1136E-01  0.5897E-01  0.5945E+01  0.5947E+01
     15.303  0.3126E+00  0.3037E+00  0.5965E+01  0.5967E+01
     15.368  0.2035E+00  0.2404E+00  0.5978E+01  0.5982E+01
     15.432  0.2319E+00  0.1595E+00  0.5993E+01  0.5993E+01
     15.496 -0.1452E-01 -0.1517E-01  0.5992E+01  0.5992E+01
     15.561  0.1987E-01  0.4664E-01  0.5993E+01  0.5995E+01
     15.625  0.1053E+00  0.8514E-01  0.6000E+01  0.6000E+01
     15.690  0.1339E-02 -0.3850E-02  0.6000E+01  0.6000E+01
     15.754 -0.6925E-03 -0.2304E-03  0.6000E+01  0.6000E+01
     15.818 -0.1084E-05 -0.1588E-06  0.6000E+01  0.6000E+01
     15.883 -0.4764E-10 -0.3253E-11  0.6000E+01  0.6000E+01
     15.947 -0.8279E-16  0.0000E+00  0.6000E+01  0.6000E+01
     16.011  0.0000E+00  0.0000E+00  0.6000E+01  0.6000E+01
     16.076  0.0000E+00  0.0000E+00  0.6000E+01  0.6000E+01
     16.140  0.0000E+00  0.0000E+00  0.6000E+01  0.6000E+01
     16.205  0.0000E+00  0.0000E+00  0.6000E+01  0.6000E+01
     16.269  0.0000E+00  0.0000E+00  0.6000E+01  0.6000E+01
     16.333  0.0000E+00  0.0000E+00  0.6000E+01  0.6000E+01
     16.398  0.0000E+00  0.0000E+00  0.6000E+01  0.6000E+01
     16.462  0.0000E+00  0.0000E+00  0.6000E+01  0.6000E+01
     16.46199518     -2.84835832  301      5.67498465      1.00000000
     -2.848  0.0000E+00  0.0000E+00  0.0000E+00  0.0000E+00  0.0000E+00  0.0000E+00  0.0000E+00  0.0000E+00  0.0000E+00  0.0000E+00  0.0000E+00  0.0000E+00  0.0000E+00  0.0000E+00  0.0000E+00  0.0000E+00  0.0000E+00  0.0000E+00
     -2.784  0.0000E+00  0.0000E+00  0.0000E+00  0.0000E+00  0.0000E+00  0.0000E+00  0.0000E+00  0.0000E+00  0.0000E+00  0.0000E+00  0.0000E+00  0.0000E+00  0.0000E+00  0.0000E+00  0.0000E+00  0.0000E+00  0.0000E+00  0.0000E+00
     -2.720  0.0000E+00  0.0000E+00  0.0000E+00  0.0000E+00  0.0000E+00  0.0000E+00  0.0000E+00  0.0000E+00  0.0000E+00  0.0000E+00  0.0000E+00  0.0000E+00  0.0000E+00  0.0000E+00  0.0000E+00  0.0000E+00  0.0000E+00  0.0000E+00
     -2.655  0.0000E+00  0.0000E+00  0.0000E+00  0.0000E+00  0.0000E+00  0.0000E+00  0.0000E+00  0.0000E+00  0.0000E+00  0.0000E+00  0.0000E+00  0.0000E+00  0.0000E+00  0.0000E+00  0.0000E+00  0.0000E+00  0.0000E+00  0.0000E+00
     -2.591  0.0000E+00  0.0000E+00  0.0000E+00  0.0000E+00  0.0000E+00  0.0000E+00  0.0000E+00  0.0000E+00  0.0000E+00  0.0000E+00  0.0000E+00  0.0000E+00  0.0000E+00  0.0000E+00  0.0000E+00  0.0000E+00  0.0000E+00  0.0000E+00
     -2.527  0.0000E+00  0.0000E+00  0.0000E+00  0.0000E+00  0.0000E+00  0.0000E+00  0.0000E+00  0.0000E+00  0.0000E+00  0.0000E+00  0.0000E+00  0.0000E+00  0.0000E+00  0.0000E+00  0.0000E+00  0.0000E+00  0.0000E+00  0.0000E+00
     -2.462  0.0000E+00  0.0000E+00  0.0000E+00  0.0000E+00  0.0000E+00  0.0000E+00  0.0000E+00  0.0000E+00  0.0000E+00  0.0000E+00  0.0000E+00  0.0000E+00  0.0000E+00  0.0000E+00  0.0000E+00  0.0000E+00  0.0000E+00  0.0000E+00
     -2.398 -0.6282E-34 -0.3785E-32 -0.2092E-36 -0.1260E-34 -0.6276E-36 -0.3779E-34 -0.4184E-36 -0.2519E-34 -0.2932E-38 -0.1764E-36 -0.4397E-38 -0.2643E-36 -0.1099E-38 -0.6605E-37 -0.8796E-38 -0.5291E-36 -0.3664E-39 -0.2205E-37
     -2.333 -0.6742E-25 -0.2190E-23 -0.2245E-27 -0.7288E-26 -0.6736E-27 -0.2186E-25 -0.4491E-27 -0.1458E-25 -0.3147E-29 -0.1020E-27 -0.4720E-29 -0.1529E-27 -0.1180E-29 -0.3821E-28 -0.9440E-29 -0.3061E-27 -0.3933E-30 -0.1276E-28
     -2.269 -0.2553E-17 -0.4461E-16 -0.8501E-20 -0.1485E-18 -0.2550E-19 -0.4454E-18 -0.1700E-19 -0.2969E-18 -0.1191E-21 -0.2079E-20 -0.1787E-21 -0.3115E-20 -0.4467E-22 -0.7784E-21 -0.3574E-21 -0.6236E-20 -0.1489E-22 -0.2598E-21
     -2.205 -0.3226E-11 -0.3009E-10 -0.1074E-13 -0.1001E-12 -0.3223E-13 -0.3004E-12 -0.2149E-13 -0.2002E-12 -0.1506E-15 -0.1402E-14 -0.2258E-15 -0.2101E-14 -0.5645E-16 -0.5250E-15 -0.4517E-15 -0.4206E-14 -0.1882E-16 -0.1753E-15
     -2.140 -0.1390E-06 -0.6847E-06 -0.4627E-09 -0.2279E-08 -0.1388E-08 -0.6836E-08 -0.9255E-09 -0.4557E-08 -0.6485E-11 -0.3191E-10 -0.9726E-11 -0.4781E-10 -0.2432E-11 -0.1195E-10 -0.1946E-10 -0.9572E-10 -0.8105E-12 -0.3988E-11
     -2.076 -0.1765E-03 -0.4373E-03 -0.5879E-06 -0.1455E-05 -0.1764E-05 -0.4366E-05 -0.1176E-05 -0.2911E-05 -0.8240E-08 -0.2038E-07 -0.1236E-07 -0.3054E-07 -0.3089E-08 -0.7632E-08 -0.2472E-07 -0.6114E-07 -0.1030E-08 -0.2548E-08
     -2.012 -0.2184E-02  0.8458E-03 -0.7273E-05  0.2815E-05 -0.2182E-04  0.8445E-05 -0.1455E-04  0.5630E-05 -0.1019E-06  0.3942E-07 -0.1529E-06  0.5906E-07 -0.3822E-07  0.1476E-07 -0.3058E-06  0.1182E-06 -0.1274E-07  0.4927E-08
     -1.947  0.5640E-01  0.6647E-01  0.1878E-03  0.2212E-03  0.5635E-03  0.6637E-03  0.3757E-03  0.4424E-03  0.2632E-05  0.3098E-05  0.3948E-05  0.4641E-05  0.9870E-06  0.1160E-05  0.7897E-05  0.9293E-05  0.3290E-06  0.3872E-06
     -1.883  0.2649E-01  0.1288E-01  0.8823E-04  0.4287E-04  0.2647E-03  0.1286E-03  0.1765E-03  0.8573E-04  0.1236E-05  0.6002E-06  0.1854E-05  0.8994E-06  0.4636E-06  0.2248E-06  0.3709E-05  0.1801E-05  0.1545E-06  0.7503E-07
     -1.818 -0.2086E-02 -0.1266E-02 -0.6948E-05 -0.4212E-05 -0.2084E-04 -0.1264E-04 -0.1390E-04 -0.8424E-05 -0.9738E-07 -0.5898E-07 -0.1460E-06 -0.8838E-07 -0.3651E-07 -0.2209E-07 -0.2921E-06 -0.1769E-06 -0.1217E-07 -0.7373E-08
     -1.754 -0.2092E-04 -0.5770E-05 -0.6970E-07 -0.1933E-07 -0.2091E-06 -0.5800E-07 -0.1394E-06 -0.3840E-07 -0.9773E-09 -0.2732E-09 -0.1469E-08 -0.4318E-09 -0.3687E-09 -0.1172E-09 -0.2932E-08 -0.8197E-09 -0.1221E-09 -0.3416E-10
     -1.690 -0.1347E-04 -0.4632E-04 -0.1735E-06 -0.5963E-06 -0.5205E-06 -0.1789E-05 -0.8676E-07 -0.2982E-06 -0.4946E-08 -0.1701E-07 -0.2967E-07 -0.1021E-06 -0.1669E-07 -0.5742E-07 -0.1484E-07 -0.5104E-07 -0.6182E-09 -0.2127E-08
     -1.625 -0.2097E-02 -0.3135E-02 -0.2701E-04 -0.4035E-04 -0.8104E-04 -0.1211E-03 -0.1351E-04 -0.2018E-04 -0.7701E-06 -0.1151E-05 -0.4621E-05 -0.6909E-05 -0.2599E-05 -0.3886E-05 -0.2310E-05 -0.3454E-05 -0.9626E-07 -0.1439E-06
     -1.561  0.2391E-01  0.4338E-01  0.3081E-03  0.5585E-03  0.9242E-03  0.1675E-02  0.1540E-03  0.2792E-03  0.8782E-05  0.1594E-04  0.5269E-04  0.9561E-04  0.2964E-04  0.5378E-04  0.2635E-04  0.4781E-04  0.1098E-05  0.1992E-05
     -1.497  0.8108E-01  0.6471E-01  0.1045E-02  0.8331E-03  0.3134E-02  0.2499E-02  0.5223E-03  0.4165E-03  0.2978E-04  0.2377E-04  0.1787E-03  0.1426E-03  0.1005E-03  0.8022E-04  0.8934E-04  0.7131E-04  0.3722E-05  0.2971E-05
     -1.432 -0.1202E-02 -0.3387E-02 -0.1549E-04 -0.4360E-04 -0.4647E-04 -0.1308E-03 -0.7745E-05 -0.2180E-04 -0.4416E-06 -0.1244E-05 -0.2650E-05 -0.7465E-05 -0.1490E-05 -0.4199E-05 -0.1325E-05 -0.3732E-05 -0.5520E-07 -0.1555E-06
     -1.368 -0.3825E-03 -0.1454E-03 -0.4928E-05 -0.1871E-05 -0.1478E-04 -0.5614E-05 -0.2464E-05 -0.9359E-06 -0.1405E-06 -0.5342E-07 -0.8429E-06 -0.3204E-06 -0.4741E-06 -0.1802E-06 -0.4215E-06 -0.1602E-06 -0.1756E-07 -0.6677E-08
     -1.304 -0.7908E-05 -0.2985E-04 -0.2213E-06 -0.8599E-06 -0.9680E-07 -0.3213E-06 -0.4341E-06 -0.1718E-05 -0.5183E-07 -0.2058E-06 -0.5989E-08 -0.2016E-07 -0.2370E-07 -0.9252E-07 -0.1053E-07 -0.4006E-07 -0.6478E-08 -0.2572E-07
     -1.239 -0.2866E-02 -0.5444E-02 -0.8275E-04 -0.1570E-03 -0.3064E-04 -0.5816E-04 -0.1655E-03 -0.3141E-03 -0.1983E-04 -0.3763E-04 -0.1927E-05 -0.3653E-05 -0.8887E-05 -0.1690E-04 -0.3855E-05 -0.7308E-05 -0.2478E-05 -0.4704E-05
     -1.175  0.2035E-01  0.5918E-01  0.5876E-03  0.1707E-02  0.2176E-03  0.6323E-03  0.1175E-02  0.3415E-02  0.1408E-03  0.4091E-03  0.1369E-04  0.3971E-04  0.6310E-04  0.1837E-03  0.2737E-04  0.7946E-04  0.1760E-04  0.5114E-04
     -1.110  0.2575E+00  0.2421E+00  0.7432E-02  0.6984E-02  0.2752E-02  0.2586E-02  0.1486E-01  0.1397E-01  0.1781E-02  0.1673E-02  0.1731E-03  0.1624E-03  0.7982E-03  0.7515E-03  0.3462E-03  0.3250E-03  0.2226E-03  0.2092E-03
     -1.046  0.2149E-01 -0.7708E-03  0.6203E-03 -0.2224E-04  0.2297E-03 -0.8235E-05  0.1241E-02 -0.4447E-04  0.1486E-03 -0.5328E-05  0.1445E-04 -0.5172E-06  0.6661E-04 -0.2393E-05  0.2890E-04 -0.1035E-05  0.1858E-04 -0.6660E-06
     -0.982 -0.2945E-02 -0.1332E-02 -0.8501E-04 -0.3842E-04 -0.3148E-04 -0.1423E-04 -0.1700E-03 -0.7684E-04 -0.2037E-04 -0.9205E-05 -0.1980E-05 -0.8936E-06 -0.9129E-05 -0.4134E-05 -0.3960E-05 -0.1788E-05 -0.2546E-05 -0.1151E-05
     -0.917 -0.7883E-05 -0.1762E-05 -0.2276E-06 -0.5084E-07 -0.8426E-07 -0.1883E-07 -0.4551E-06 -0.1017E-06 -0.5452E-07 -0.1218E-07 -0.5300E-08 -0.1182E-08 -0.2444E-07 -0.5471E-08 -0.1060E-07 -0.2366E-08 -0.6815E-08 -0.1523E-08
     -0.853 -0.5626E-09 -0.6635E-10 -0.1624E-10 -0.1914E-11 -0.6014E-11 -0.7088E-12 -0.3249E-10 -0.3828E-11 -0.3892E-11 -0.4586E-12 -0.3783E-12 -0.4452E-13 -0.1744E-11 -0.2060E-12 -0.7567E-12 -0.8907E-13 -0.4864E-12 -0.5733E-13
     -0.789 -0.1303E-14 -0.6521E-16 -0.3762E-16 -0.1881E-17 -0.1393E-16 -0.6967E-18 -0.7525E-16 -0.3763E-17 -0.9014E-17 -0.4508E-18 -0.8763E-18 -0.4376E-19 -0.4041E-17 -0.2024E-18 -0.1753E-17 -0.8755E-19 -0.1127E-17 -0.5635E-19
     -0.724 -0.4157E-16 -0.6718E-15 -0.1146E-17 -0.1852E-16 -0.3439E-17 -0.5555E-16 -0.2223E-17 -0.3591E-16 -0.3316E-18 -0.5357E-17 -0.5292E-18 -0.8560E-17 -0.7367E-19 -0.1192E-17 -0.9949E-18 -0.1607E-16 -0.1368E-18 -0.2213E-17
     -0.660 -0.3757E-10 -0.3306E-09 -0.1036E-11 -0.9113E-11 -0.3108E-11 -0.2734E-10 -0.2010E-11 -0.1768E-10 -0.2997E-12 -0.2637E-11 -0.4783E-12 -0.4213E-11 -0.6658E-13 -0.5865E-12 -0.8991E-12 -0.7911E-11 -0.1237E-12 -0.1089E-11
     -0.595 -0.1151E-05 -0.5335E-05 -0.3175E-07 -0.1471E-06 -0.9526E-07 -0.4412E-06 -0.6159E-07 -0.2852E-06 -0.9186E-08 -0.4255E-07 -0.1466E-07 -0.6798E-07 -0.2041E-08 -0.9464E-08 -0.2756E-07 -0.1276E-06 -0.3790E-08 -0.1758E-07
     -0.531 -0.1017E-02 -0.2337E-02 -0.2804E-04 -0.6444E-04 -0.8413E-04 -0.1933E-03 -0.5440E-04 -0.1250E-03 -0.8108E-05 -0.1863E-04 -0.1294E-04 -0.2976E-04 -0.1802E-05 -0.4146E-05 -0.2433E-04 -0.5588E-04 -0.3344E-05 -0.7689E-05
     -0.467 -0.3923E-02  0.1314E-01 -0.1101E-03  0.3582E-03 -0.3303E-03  0.1075E-02 -0.2145E-03  0.6929E-03 -0.2961E-04  0.1082E-03 -0.4704E-04  0.1733E-03 -0.6921E-05  0.2337E-04 -0.8883E-04  0.3245E-03 -0.1157E-04  0.4598E-04
     -0.402  0.2204E+00  0.2488E+00  0.6087E-02  0.6894E-02  0.1826E-01  0.2068E-01  0.1181E-01  0.1339E-01  0.1750E-02  0.1951E-02  0.2792E-02  0.3114E-02  0.3904E-03  0.4407E-03  0.5251E-02  0.5854E-02  0.7192E-03  0.7936E-03
     -0.338  0.1242E+00  0.8382E-01  0.3654E-02  0.2537E-02  0.1096E-01  0.7611E-02  0.7199E-02  0.5031E-02  0.7893E-03  0.4686E-03  0.1234E-02  0.7228E-03  0.2163E-03  0.1447E-03  0.2368E-02  0.1406E-02  0.2485E-03  0.1172E-03
     -0.274  0.2371E-02 -0.1656E-02  0.9679E-04 -0.3995E-04  0.2904E-03 -0.1198E-03  0.2031E-03 -0.7470E-04 -0.8727E-05 -0.1822E-04 -0.1745E-04 -0.2977E-04  0.3686E-05 -0.3038E-05 -0.2618E-04 -0.5467E-04 -0.1418E-04 -0.9446E-05
     -0.209 -0.9559E-03 -0.5360E-03 -0.3199E-04 -0.2400E-04 -0.8842E-04 -0.4564E-04 -0.5970E-04 -0.3326E-04 -0.5132E-05 -0.4747E-05 -0.7208E-05 -0.5312E-05 -0.1791E-05 -0.1459E-05 -0.1317E-04 -0.6436E-05 -0.7230E-06 -0.6026E-06
     -0.145 -0.4866E-02 -0.7594E-02 -0.5260E-03 -0.8208E-03 -0.2084E-03 -0.3250E-03 -0.2873E-03 -0.4481E-03 -0.1404E-03 -0.2191E-03 -0.1163E-03 -0.1815E-03 -0.3652E-04 -0.5710E-04 -0.1583E-04 -0.2456E-04 -0.1686E-04 -0.2635E-04
     -0.081  0.5297E-01  0.1009E+00  0.5730E-02  0.1091E-01  0.2268E-02  0.4318E-02  0.3127E-02  0.5954E-02  0.1529E-02  0.2912E-02  0.1267E-02  0.2412E-02  0.3977E-03  0.7588E-03  0.1720E-03  0.3263E-03  0.1837E-03  0.3502E-03
     -0.016  0.2150E+00  0.1768E+00  0.2326E-01  0.1911E-01  0.9204E-02  0.7565E-02  0.1269E-01  0.1043E-01  0.6207E-02  0.5101E-02  0.5141E-02  0.4225E-02  0.1614E-02  0.1329E-02  0.6981E-03  0.5716E-03  0.7456E-03  0.6136E-03
      0.048 -0.9557E-03 -0.8720E-02 -0.9677E-04 -0.9235E-03 -0.3598E-04 -0.3589E-03 -0.6891E-04 -0.5509E-03 -0.3768E-04 -0.2810E-03 -0.1925E-04 -0.1979E-03 -0.1217E-04 -0.8013E-04 -0.3178E-05 -0.2842E-04 -0.4599E-05 -0.3400E-04
      0.113 -0.9405E-02 -0.8038E-02 -0.6848E-03 -0.5631E-03 -0.1545E-03 -0.1156E-03 -0.1185E-02 -0.1054E-02 -0.7801E-03 -0.7000E-03 -0.4336E-04 -0.2505E-04 -0.3225E-03 -0.2927E-03 -0.3432E-04 -0.2953E-04 -0.9735E-04 -0.8744E-04
      0.177  0.1224E+00  0.1713E+00  0.8293E-02  0.1160E-01  0.1548E-02  0.2168E-02  0.1659E-01  0.2321E-01  0.1110E-01  0.1553E-01  0.2268E-03  0.3169E-03  0.4664E-02  0.6540E-02  0.4536E-03  0.6340E-03  0.1387E-02  0.1941E-02
      0.241  0.1427E+00  0.9185E-01  0.9670E-02  0.6221E-02  0.1806E-02  0.1162E-02  0.1934E-01  0.1244E-01  0.1294E-01  0.8324E-02  0.2644E-03  0.1699E-03  0.5438E-02  0.3506E-02  0.5289E-03  0.3399E-03  0.1617E-02  0.1041E-02
      0.306 -0.8528E-02 -0.7016E-02 -0.5779E-03 -0.4752E-03 -0.1079E-03 -0.8876E-04 -0.1156E-02 -0.9503E-03 -0.7732E-03 -0.6358E-03 -0.1580E-04 -0.1298E-04 -0.3250E-03 -0.2678E-03 -0.3160E-04 -0.2596E-04 -0.9665E-04 -0.7948E-04
      0.370 -0.2539E-03 -0.8085E-04 -0.1721E-04 -0.5476E-05 -0.3213E-05 -0.1023E-05 -0.3441E-04 -0.1095E-04 -0.2302E-04 -0.7328E-05 -0.4706E-06 -0.1495E-06 -0.9677E-05 -0.3086E-05 -0.9411E-06 -0.2992E-06 -0.2878E-05 -0.9160E-06