    1    1    1    2
  0.1813235E+02  0.2866544E-09  0.2866544E-09  0.2866544E-09  0.5000000E-15
  1.000000000000000E-004
  CAR 
 unknown system                          
    5   44    6
 
  0.5000000E-01  0.5000000E-01  0.5000000E-01  0.8000000E-02
   1       -1.542935     -1.554837
   2        6.098026      6.083064
   3        6.098026      6.083064
   4        7.212664      7.197587
   5        9.448377      9.442930
   6        9.448377      9.442930
 
  0.1500000E+00  0.5000000E-01  0.5000000E-01  0.2400000E-01
   1       -0.420241     -0.432171
   2        5.425311      5.410527
   3        5.607610      5.594026
   4        8.560975      8.546480
   5        9.133195      9.125968
   6        9.716856      9.710919
 
  0.2500000E+00  0.5000000E-01  0.5000000E-01  0.2400000E-01
   1        0.906152      0.894057
   2        4.768552      4.753777
   3        5.303746      5.291891
   4        9.352496      9.343829
   5       10.044925     10.038535
   6       10.532671     10.518904
 
  0.3500000E+00  0.5000000E-01  0.5000000E-01  0.2400000E-01
   1        1.536845      1.524669
   2        4.319109      4.304303
   3        6.112646      6.101720
   4        9.675223      9.666157
   5       10.409138     10.402357
   6       12.667346     12.654879
 
  0.4500000E+00  0.5000000E-01  0.5000000E-01  0.1200000E-01
   1        1.594874      1.582770
   2        4.161147      4.146327
   3        6.987508      6.976659
   4        9.656039      9.647223
   5       10.593310     10.586356
   6       13.812702     13.801410
 
 -0.5000000E-01  0.5000000E-01  0.5000000E-01  0.6000000E-02
   1       -1.958710     -1.970615
   2        6.416705      6.401489
   3        6.416710      6.401516
   4        6.553886      6.538660
   5        9.311724      9.306601
   6        9.808603      9.803686
 
  0.1500000E+00  0.1500000E+00  0.5000000E-01  0.2400000E-01
   1        0.850269      0.838222
   2        4.877839      4.864848
   3        4.951603      4.937314
   4        9.208792      9.200926
   5       10.090392     10.083811
   6       10.456964     10.443154
 
  0.2500000E+00  0.1500000E+00  0.5000000E-01  0.4800000E-01
   1        2.017982      2.005639
   2        4.406696      4.393079
   3        4.981504      4.968973
   4        9.510287      9.501639
   5       10.433320     10.426314
   6       12.681683     12.669234
 
  0.3500000E+00  0.1500000E+00  0.5000000E-01  0.4800000E-01
   1        2.297426      2.285048
   2        4.192830      4.178610
   3        5.944064      5.932809
   4        9.762175      9.753407
   5       10.634837     10.627400
   6       14.534009     14.523233
 
 -0.1500000E+00  0.1500000E+00  0.5000000E-01  0.2400000E-01
   1       -1.142389     -1.154265
   2        5.962913      5.947779
   3        6.190806      6.176463
   4        7.366498      7.351522
   5        8.630648      8.624357
   6        9.991661      9.986295
 
  0.2500000E+00  0.2500000E+00  0.5000000E-01  0.2400000E-01
   1        2.938963      2.925670
   2        4.298798      4.287057
   3        5.017124      5.004341
   4        9.824889      9.816031
   5       10.531665     10.523880
   6       14.964127     14.953513
 
  0.3500000E+00  0.2500000E+00  0.5000000E-01  0.2400000E-01
   1        3.120925      3.107287
   2        4.383359      4.371056
   3        5.256531      5.245303
   4       10.064055     10.055247
   5       10.576582     10.568254
   6       14.386457     14.371461
 
 -0.2500000E+00  0.2500000E+00  0.5000000E-01  0.2400000E-01
   1        0.179308      0.167388
   2        5.274924      5.259885
   3        5.617454      5.605516
   4        8.656990      8.648426
   5        8.978923      8.964466
   6       10.188220     10.182084
 
 -0.1500000E+00  0.2500000E+00  0.5000000E-01  0.2400000E-01
   1       -0.060111     -0.071939
   2        5.636229      5.623413
   3        5.708824      5.694014
   4        8.074289      8.066089
   5        8.485122      8.470554
   6       10.391338     10.385355
 
 -0.3500000E+00  0.3500000E+00  0.5000000E-01  0.2400000E-01
   1        1.218259      1.206197
   2        4.680619      4.665645
   3        5.698037      5.687658
   4        9.190211      9.180588
   5       10.416507     10.409707
   6       11.113840     11.100320
 
 -0.2500000E+00  0.3500000E+00  0.5000000E-01  0.4800000E-01
   1        1.243883      1.231984
   2        4.925541      4.913494
   3        5.358190      5.344726
   4        8.377113      8.367164
   5       10.312046     10.299680
   6       10.695060     10.686767
 
 -0.4500000E+00  0.4500000E+00  0.5000000E-01  0.2400000E-01
   1        1.462428      1.450448
   2        4.348658      4.333715
   3        6.699470      6.689536
   4        9.348963      9.339732
   5       10.785913     10.778376
   6       13.060783     13.048691
 
 -0.3500000E+00  0.4500000E+00  0.5000000E-01  0.4800000E-01
   1        1.901788      1.889854
   2        4.625321      4.611361
   3        5.601621      5.591285
   4        8.916001      8.905976
   5       10.730053     10.721461
   6       12.700535     12.688479
 
 -0.2500000E+00  0.4500000E+00  0.5000000E-01  0.2400000E-01
   1        2.368214      2.355992
   2        4.328528      4.318158
   3        5.363596      5.350118
   4        8.684174      8.673521
   5       10.435557     10.426630
   6       12.771443     12.759657
 
 -0.4500000E+00 -0.4500000E+00  0.5000000E-01  0.2400000E-01
   1        1.958237      1.946427
   2        4.524195      4.509667
   3        6.094490      6.085049
   4        8.869210      8.859710
   5       11.238076     11.228884
   6       13.951934     13.940894
 
 -0.3500000E+00 -0.4500000E+00  0.5000000E-01  0.4800000E-01
   1        2.839373      2.826982
   2        4.387510      4.375893
   3        5.226033      5.215388
   4        9.152904      9.142360
   5       10.657000     10.646801
   6       15.061062     15.050484
 
 -0.3500000E+00 -0.3500000E+00  0.5000000E-01  0.8000000E-02
   1        3.500903      3.486470
   2        4.483634      4.474001
   3        4.483645      4.474023
   4       10.115787     10.104989
   5       10.115789     10.104995
   6       14.677616     14.663417
 
  0.1500000E+00  0.1500000E+00  0.1500000E+00  0.8000000E-02
   1        2.237159      2.224914
   2        4.393936      4.380431
   3        4.393936      4.380431
   4       10.057886     10.050566
   5       10.057886     10.050566
   6       12.789220     12.776664
 
  0.2500000E+00  0.1500000E+00  0.1500000E+00  0.2400000E-01
   1        3.146203      3.133586
   2        4.147874      4.133938
   3        4.789245      4.776747
   4       10.224698     10.216898
   5       10.535040     10.528057
   6       14.975382     14.964514
 
  0.3500000E+00  0.1500000E+00  0.1500000E+00  0.1200000E-01
   1        3.154593      3.141960
   2        4.075723      4.061621
   3        5.610621      5.598514
   4       10.284803     10.276872
   5       10.687263     10.680388
   6       14.372298     14.356945
 
 -0.1500000E+00  0.1500000E+00  0.1500000E+00  0.6000000E-02
   1       -0.365296     -0.377026
   2        6.373934      6.359043
   3        6.373939      6.359070
   4        7.173527      7.167339
   5        7.372952      7.358000
   6       10.587458     10.581692
 
  0.2500000E+00  0.2500000E+00  0.1500000E+00  0.2400000E-01
   1        3.749218      3.735570
   2        4.409096      4.396343
   3        4.837077      4.824416
   4       10.537901     10.530481
   5       10.667903     10.660830
   6       13.663803     13.647876
 
 -0.2500000E+00  0.2500000E+00  0.1500000E+00  0.2400000E-01
   1        0.897327      0.885802
   2        5.519123      5.509704
   3        6.016201      6.001378
   4        7.242410      7.230785
   5        8.732519      8.718060
   6       10.791659     10.784702
 
 -0.3500000E+00  0.3500000E+00  0.1500000E+00  0.2400000E-01
   1        1.943036      1.931643
   2        4.892652      4.884077
   3        5.508775      5.493982
   4        8.045743      8.034257
   5       10.858945     10.845385
   6       10.895802     10.887092
 
 -0.2500000E+00  0.3500000E+00  0.1500000E+00  0.2400000E-01
   1        2.067345      2.056207
   2        4.574999      4.566526
   3        6.149772      6.135556
   4        7.524955      7.512168
   5        9.988799      9.976049
   6       10.957352     10.947612
 
 -0.4500000E+00  0.4500000E+00  0.1500000E+00  0.2400000E-01
   1        2.167204      2.156122
   2        5.210329      5.195552
   3        5.263173      5.254667
   4        8.020014      8.009739
   5       11.993630     11.983401
   6       12.858092     12.845927
 
 -0.3500000E+00  0.4500000E+00  0.1500000E+00  0.4800000E-01
   1        2.773301      2.762618
   2        4.189426      4.180864
   3        5.750802      5.737372
   4        8.158472      8.146340
   5       10.726871     10.715319
   6       12.915354     12.903405
 
 -0.4500000E+00 -0.4500000E+00  0.1500000E+00  0.2400000E-01
   1        2.785962      2.775775
   2        4.567892      4.559644
   3        5.304272      5.290587
   4        8.152896      8.141018
   5       11.763112     11.751299
   6       14.569812     14.558466
 
 -0.3500000E+00 -0.4500000E+00  0.1500000E+00  0.2400000E-01
   1        3.654090      3.644122
   2        3.714963      3.706662
   3        4.979415      4.966539
   4        9.421182      9.408550
   5       10.589773     10.577546
   6       15.373679     15.361896
 
  0.2500000E+00  0.2500000E+00  0.2500000E+00  0.2000000E-02
   1        4.478863      4.465669
   2        4.478863      4.465704
   3        4.478875      4.465704
   4       10.746501     10.739678
   5       10.746501     10.739678
   6       12.748300     12.731839
 
 -0.2500000E+00  0.2500000E+00  0.2500000E+00  0.6000000E-02
   1        1.974146      1.963438
   2        4.790812      4.783970
   3        6.963432      6.948943
   4        6.963438      6.948968
   5        8.891357      8.877011
   6       10.690661     10.681833
 
 -0.3500000E+00  0.3500000E+00  0.2500000E+00  0.2400000E-01
   1        2.797593      2.787866
   2        3.861058      3.853699
   3        7.022947      7.008507
   4        7.613162      7.599847
   5       10.552894     10.539317
   6       10.840216     10.829093
 
 -0.4500000E+00  0.4500000E+00  0.2500000E+00  0.2400000E-01
   1        2.833430      2.824693
   2        3.774675      3.766859
   3        6.852823      6.838374
   4        7.495579      7.483000
   5       12.548040     12.535770
   6       12.828450     12.815798
 
 -0.3500000E+00  0.4500000E+00  0.2500000E+00  0.2400000E-01
   1        3.124493      3.116016
   2        3.186715      3.179268
   3        6.863789      6.849906
   4        8.840238      8.826530
   5       10.821459     10.808612
   6       12.933160     12.920542
 
 -0.4500000E+00 -0.4500000E+00  0.2500000E+00  0.2400000E-01
   1        2.915365      2.907602
   2        3.239624      3.231976
   3        6.586327      6.572208
   4        9.355705      9.342236
   5       11.666328     11.653534
   6       15.275605     15.262579
 
 -0.3500000E+00  0.3500000E+00  0.3500000E+00  0.6000000E-02
   1        2.901773      2.893540
   2        3.001420      2.994267
   3        8.619422      8.605364
   4        8.619429      8.605389
   5       10.774477     10.761142
   6       10.948648     10.935960
 
 -0.4500000E+00  0.4500000E+00  0.3500000E+00  0.2400000E-01
   1        2.521937      2.514568
   2        2.684767      2.677226
   3        9.083203      9.069462
   4        9.090693      9.076738
   5       12.266809     12.254466
   6       13.075544     13.061571
 
 -0.4500000E+00 -0.4500000E+00  0.3500000E+00  0.8000000E-02
   1        2.368166      2.360799
   2        2.368167      2.360801
   3        9.015543      9.001622
   4       11.443955     11.430784
   5       11.443959     11.430804
   6       15.584252     15.570008
 
 -0.4500000E+00  0.4500000E+00  0.4500000E+00  0.6000000E-02
   1        2.065737      2.058458
   2        2.112572      2.105225
   3       11.347184     11.333916
   4       11.347188     11.333934
   5       12.255599     12.243377
   6       13.556699     13.541628
