    1    1    1    1
  0.1813235E+02  0.2866544E-09  0.2866544E-09  0.2866544E-09  0.5000000E-15
  1.000000000000000E-004
  CAR 
 unknown system                          
    5   44    6
 
  0.5000000E-01  0.5000000E-01  0.5000000E-01  0.8000000E-02
   1       -1.547196
   2        6.089462
   3        6.089462
   4        7.203960
   5        9.444641
   6        9.444641
 
  0.1500000E+00  0.5000000E-01  0.5000000E-01  0.2400000E-01
   1       -0.424458
   2        5.416975
   3        5.600126
   4        8.552599
   5        9.128522
   6        9.712810
 
  0.2500000E+00  0.5000000E-01  0.5000000E-01  0.2400000E-01
   1        0.901567
   2        4.760327
   3        5.298025
   4        9.346990
   5       10.040573
   6       10.524640
 
  0.3500000E+00  0.5000000E-01  0.5000000E-01  0.2400000E-01
   1        1.531404
   2        4.310930
   3        6.108870
   4        9.669575
   5       10.404457
   6       12.659735
 
  0.4500000E+00  0.5000000E-01  0.5000000E-01  0.1200000E-01
   1        1.589163
   2        4.152981
   3        6.984604
   4        9.650560
   5       10.588451
   6       13.805287
 
 -0.5000000E-01  0.5000000E-01  0.5000000E-01  0.6000000E-02
   1       -1.963012
   2        6.407944
   3        6.407951
   4        6.545066
   5        9.308197
   6        9.805059
 
  0.1500000E+00  0.1500000E+00  0.5000000E-01  0.2400000E-01
   1        0.845962
   2        4.870851
   3        4.943809
   4        9.203748
   5       10.085889
   6       10.449065
 
  0.2500000E+00  0.1500000E+00  0.5000000E-01  0.4800000E-01
   1        2.012952
   2        4.399425
   3        4.975614
   4        9.504783
   5       10.428526
   6       12.674605
 
  0.3500000E+00  0.1500000E+00  0.5000000E-01  0.4800000E-01
   1        2.291655
   2        4.185214
   3        5.939995
   4        9.756671
   5       10.629823
   6       14.527696
 
 -0.1500000E+00  0.1500000E+00  0.5000000E-01  0.2400000E-01
   1       -1.146597
   2        5.954290
   3        6.182727
   4        7.357794
   5        8.626622
   6        9.987855
 
  0.2500000E+00  0.2500000E+00  0.5000000E-01  0.2400000E-01
   1        2.932721
   2        4.293098
   3        5.011375
   4        9.819224
   5       10.526528
   6       14.958344
 
  0.3500000E+00  0.2500000E+00  0.5000000E-01  0.2400000E-01
   1        3.114132
   2        4.377410
   3        5.251969
   4       10.058443
   5       10.571131
   6       14.380248
 
 -0.2500000E+00  0.2500000E+00  0.5000000E-01  0.2400000E-01
   1        0.175035
   2        5.266466
   3        5.611273
   4        8.651718
   5        8.970425
   6       10.183977
 
 -0.1500000E+00  0.2500000E+00  0.5000000E-01  0.2400000E-01
   1       -0.064250
   2        5.629183
   3        5.700547
   4        8.069308
   5        8.476666
   6       10.387129
 
 -0.3500000E+00  0.3500000E+00  0.5000000E-01  0.2400000E-01
   1        1.213272
   2        4.672280
   3        5.693880
   4        9.184458
   5       10.411914
   6       11.105608
 
 -0.2500000E+00  0.3500000E+00  0.5000000E-01  0.4800000E-01
   1        1.239445
   2        4.919154
   3        5.351137
   4        8.371201
   5       10.304611
   6       10.689811
 
 -0.4500000E+00  0.4500000E+00  0.5000000E-01  0.2400000E-01
   1        1.456859
   2        4.340377
   3        6.696660
   4        9.343446
   5       10.781197
   6       13.052782
 
 -0.3500000E+00  0.4500000E+00  0.5000000E-01  0.4800000E-01
   1        1.896501
   2        4.617758
   3        5.597496
   4        8.910157
   5       10.724758
   6       12.693306
 
 -0.2500000E+00  0.4500000E+00  0.5000000E-01  0.2400000E-01
   1        2.363115
   2        4.323334
   3        5.356875
   4        8.677848
   5       10.429994
   6       12.764765
 
 -0.4500000E+00 -0.4500000E+00  0.5000000E-01  0.2400000E-01
   1        1.952680
   2        4.516257
   3        6.091344
   4        8.863625
   5       11.232855
   6       13.944979
 
 -0.3500000E+00 -0.4500000E+00  0.5000000E-01  0.4800000E-01
   1        2.833488
   2        4.381686
   3        5.221439
   4        9.146687
   5       10.650970
   6       15.055120
 
 -0.3500000E+00 -0.3500000E+00  0.5000000E-01  0.8000000E-02
   1        3.493450
   2        4.479422
   3        4.479425
   4       10.109359
   5       10.109360
   6       14.671628
 
  0.1500000E+00  0.1500000E+00  0.1500000E+00  0.8000000E-02
   1        2.232713
   2        4.386799
   3        4.386799
   4       10.052950
   5       10.052950
   6       12.782164
 
  0.2500000E+00  0.1500000E+00  0.1500000E+00  0.2400000E-01
   1        3.140687
   2        4.140588
   3        4.783735
   4       10.219487
   5       10.530178
   6       14.969411
 
  0.3500000E+00  0.1500000E+00  0.1500000E+00  0.1200000E-01
   1        3.148676
   2        4.068378
   3        5.605857
   4       10.279587
   5       10.682418
   6       14.365997
 
 -0.1500000E+00  0.1500000E+00  0.1500000E+00  0.6000000E-02
   1       -0.369354
   2        6.365579
   3        6.365586
   4        7.169853
   5        7.364199
   6       10.583338
 
  0.2500000E+00  0.2500000E+00  0.1500000E+00  0.2400000E-01
   1        3.742493
   2        4.403039
   3        4.831571
   4       10.532808
   5       10.662982
   6       13.657547
 
 -0.2500000E+00  0.2500000E+00  0.1500000E+00  0.2400000E-01
   1        0.893348
   2        5.514085
   3        6.007944
   4        7.235853
   5        8.724005
   6       10.787012
 
 -0.3500000E+00  0.3500000E+00  0.1500000E+00  0.2400000E-01
   1        1.938511
   2        4.888733
   3        5.500590
   4        8.039431
   5       10.850721
   6       10.890796
 
 -0.2500000E+00  0.3500000E+00  0.1500000E+00  0.2400000E-01
   1        2.063318
   2        4.570559
   3        6.142123
   4        7.517806
   5        9.981162
   6       10.951774
 
 -0.4500000E+00  0.4500000E+00  0.1500000E+00  0.2400000E-01
   1        2.162095
   2        5.202184
   3        5.259940
   4        8.014312
   5       11.988926
   6       12.850098
 
 -0.3500000E+00  0.4500000E+00  0.1500000E+00  0.4800000E-01
   1        2.768699
   2        4.185423
   3        5.743700
   4        8.151746
   5       10.720466
   6       12.908725
 
 -0.4500000E+00 -0.4500000E+00  0.1500000E+00  0.2400000E-01
   1        2.781167
   2        4.564479
   3        5.296923
   4        8.146374
   5       11.756627
   6       14.563965
 
 -0.3500000E+00 -0.4500000E+00  0.1500000E+00  0.2400000E-01
   1        3.649597
   2        3.711006
   3        4.972784
   4        9.414131
   5       10.583036
   6       15.367643
 
  0.2500000E+00  0.2500000E+00  0.2500000E+00  0.2000000E-02
   1        4.472666
   2        4.472666
   3        4.472673
   4       10.741664
   5       10.741664
   6       12.741980
 
 -0.2500000E+00  0.2500000E+00  0.2500000E+00  0.6000000E-02
   1        1.970529
   2        4.787073
   3        6.955562
   4        6.955568
   5        8.882760
   6       10.685562
 
 -0.3500000E+00  0.3500000E+00  0.2500000E+00  0.2400000E-01
   1        2.793902
   2        3.857276
   3        7.015085
   4        7.606028
   5       10.544636
   6       10.834913
 
 -0.4500000E+00  0.4500000E+00  0.2500000E+00  0.2400000E-01
   1        2.829311
   2        3.771189
   3        6.844938
   4        7.489069
   5       12.540054
   6       12.823432
 
 -0.3500000E+00  0.4500000E+00  0.2500000E+00  0.2400000E-01
   1        3.120872
   2        3.182912
   3        6.856471
   4        8.832880
   5       10.814677
   6       12.926736
 
 -0.4500000E+00 -0.4500000E+00  0.2500000E+00  0.2400000E-01
   1        2.911555
   2        3.236025
   3        6.579032
   4        9.348538
   5       11.659199
   6       15.270039
 
 -0.3500000E+00  0.3500000E+00  0.3500000E+00  0.6000000E-02
   1        2.898282
   2        2.997667
   3        8.611975
   4        8.611981
   5       10.766158
   6       10.943610
 
 -0.4500000E+00  0.4500000E+00  0.3500000E+00  0.2400000E-01
   1        2.518186
   2        2.681137
   3        9.076298
   4        9.083154
   5       12.258824
   6       13.070420
 
 -0.4500000E+00 -0.4500000E+00  0.3500000E+00  0.8000000E-02
   1        2.364450
   2        2.364450
   3        9.008367
   4       11.436658
   5       11.436663
   6       15.578563
 
 -0.4500000E+00  0.4500000E+00  0.4500000E+00  0.6000000E-02
   1        2.061983
   2        2.108849
   3       11.339857
   4       11.339861
   5       12.247601
   6       13.551755
