       N       E                     dE             d eps       ncg     rms          rms(c)
DAV:   1     0.893416673620E+01    0.89342E+01   -0.17709E+03  1110   0.478E+02
DAV:   2    -0.134320820697E+01   -0.10277E+02   -0.88271E+01  1848   0.644E+01
DAV:   3    -0.140393090696E+01   -0.60723E-01   -0.60121E-01  1104   0.719E+00
DAV:   4    -0.140420346321E+01   -0.27256E-03   -0.27251E-03  1392   0.289E-01
DAV:   5    -0.140420637406E+01   -0.29108E-05   -0.29105E-05   942   0.174E-02    0.769E+00
DAV:   6    -0.117056014933E+02   -0.10301E+02   -0.33528E+00  1098   0.875E+00    0.388E+00
DAV:   7    -0.117849313590E+02   -0.79330E-01   -0.26100E-02  1230   0.145E+00    0.344E+00
DAV:   8    -0.117630442838E+02    0.21887E-01   -0.42777E-01  1164   0.502E+00    0.239E+00
DAV:   9    -0.118517417614E+02   -0.88697E-01   -0.96862E-02  1212   0.259E+00    0.471E-01
DAV:  10    -0.118598615941E+02   -0.81198E-02   -0.19709E-03  1164   0.389E-01    0.182E-01
DAV:  11    -0.118607904165E+02   -0.92882E-03   -0.11073E-03  1158   0.245E-01    0.601E-02
DAV:  12    -0.118608476871E+02   -0.57271E-04   -0.13154E-04   642   0.130E-01
   1 F= -.11860848E+02 E0= -.11861044E+02  d E =0.589002E-03  mag=    -0.0128
