       N       E                     dE             d eps       ncg     rms          rms(c)
DAV:   1    -0.468310916190E+01   -0.46831E+01   -0.13062E+03   546   0.363E+02
DAV:   2    -0.123093739070E+02   -0.76263E+01   -0.72321E+01   924   0.593E+01
DAV:   3    -0.123438666693E+02   -0.34493E-01   -0.33268E-01   546   0.558E+00
DAV:   4    -0.123439396426E+02   -0.72973E-04   -0.72971E-04   702   0.192E-01
DAV:   5    -0.123439397815E+02   -0.13899E-06   -0.13891E-06   456   0.677E-03    0.323E+00
DAV:   6    -0.120132345808E+02    0.33071E+00   -0.20603E-01   618   0.333E+00    0.172E+00
DAV:   7    -0.118618935830E+02    0.15134E+00   -0.29888E-01   636   0.391E+00    0.126E-01
DAV:   8    -0.118608817788E+02    0.10118E-02   -0.83180E-04   582   0.232E-01    0.314E-02
DAV:   9    -0.118608943942E+02   -0.12615E-04   -0.78420E-05   360   0.678E-02
   1 F= -.11860894E+02 E0= -.11861100E+02  d E =0.617335E-03
