 vasp.5.2.12 11Nov11 complex                                                    
  
 executed on             LinuxIFC date 2012.10.17  10:12:41
 running on    1 nodes
 distr:  one band on    1 nodes,    1 groups


--------------------------------------------------------------------------------------------------------


 INCAR:
 POTCAR:    PAW_PBE Ta 17Jan2003                  
 POTCAR:    PAW_PBE Ta 17Jan2003                  
   VRHFIN =Ta:  6s5d                                                            
   LEXCH  = PE                                                                  
   EATOM  =   130.6506 eV,    9.6025 Ry                                         
                                                                                
   TITEL  = PAW_PBE Ta 17Jan2003                                                
   LULTRA =        F    use ultrasoft PP ?                                      
   IUNSCR =        1    unscreen: 0-lin 1-nonlin 2-no                           
   RPACOR =    2.330    partial core radius                                     
   POMASS =  180.948; ZVAL   =    5.000    mass and valenz                      
   RCORE  =    2.900    outmost cutoff radius                                   
   RWIGS  =    2.840; RWIGS  =    1.503    wigner-seitz radius (au A)           
   ENMAX  =  223.667; ENMIN  =  167.750 eV                                      
   RCLOC  =    2.205    cutoff for local pot                                    
   LCOR   =        T    correct aug charges                                     
   LPAW   =        T    paw PP                                                  
   EAUG   =  332.075                                                            
   DEXC   =    -.049                                                            
   RMAX   =    3.083    core radius for proj-oper                               
   RAUG   =    1.300    factor for augmentation sphere                          
   RDEP   =    3.060    radius for radial grids                                 
   QCUT   =   -4.055; QGAM   =    8.109    optimization parameters              
                                                                                
   Description                                                                  
     l     E      TYP  RCUT    TYP  RCUT                                        
     2   .000     23  2.500                                                     
     2   .000     23  2.500                                                     
     0   .000     23  2.500                                                     
     0   .000     23  2.500                                                     
     1   .000     23  2.900                                                     
     1  2.000     23  2.900                                                     
     3   .000      7   .000                                                     
  local pseudopotential read in
  partial core-charges read in
  atomic valenz-charges read in
  non local Contribution for L=           2  read in
    real space projection operators read in
  non local Contribution for L=           2  read in
    real space projection operators read in
  non local Contribution for L=           0  read in
    real space projection operators read in
  non local Contribution for L=           0  read in
    real space projection operators read in
  non local Contribution for L=           1  read in
    real space projection operators read in
  non local Contribution for L=           1  read in
    real space projection operators read in
    PAW grid and wavefunctions read in
 
   number of l-projection  operators is LMAX  =           6
   number of lm-projection operators is LMMAX =          18
 
  PAW_PBE Ta 17Jan2003                  :
 energy of atom  1       EATOM= -130.6506
 kinetic energy error for atom=    0.0121 (will be added to EATOM!!)
 
 
 POSCAR: Ta                                      
  positions in cartesian coordinates
  No initial velocities read in
 exchange correlation table for  LEXCH =        8
   RHO(1)=    0.500       N(1)  =     2000
   RHO(2)=  100.500       N(2)  =     4000
 


--------------------------------------------------------------------------------------------------------


 ion  position               nearest neighbor table
   1  0.000  0.000  0.000-
 
  LATTYP: Found a body centered cubic cell.
 ALAT       =     3.3100000000
  
  Lattice vectors:
  
 A1 = (   2.8665440865,   0.0000000000,   0.0000000000)
 A2 = (  -0.9555146955,   2.7026036829,   0.0000000000)
 A3 = (  -0.9555146955,  -1.3513018414,   2.3405234457)
 Subroutine PRICEL returns:
 Original cell was already a primitive cell.
 

Analysis of symmetry for initial positions (statically):

 Routine SETGRP: Setting up the symmetry group for a 
 body centered cubic supercell.


 Subroutine GETGRP returns: Found 48 space group operations
 (whereof 48 operations were pure point group operations)
 out of a pool of 48 trial point group operations.


The static configuration has the point symmetry O_h .

Analysis of symmetry for dynamics (positions and initial velocities):

 Subroutine DYNSYM returns: Found 48 space group operations
 (whereof 48 operations were pure point group operations)
 out of a pool of 48 trial space group operations
 (whereof 48 operations were pure point group operations)
 and found also     1 'primitive' translations


The dynamic configuration has the point symmetry O_h .

Analysis of magnetic symmetry:

 Subroutine MAGSYM returns: Found 48 space group operations
 (whereof 48 operations were pure point group operations)
 out of a pool of 48 trial space group operations
 (whereof 48 operations were pure point group operations)
 and found also     1 'primitive' translations


The magnetic configuration has the point symmetry O_h .
 
 
 KPOINTS: KPOINTS created by Atomic Simulation Env

Automatic generation of k-mesh.
 
 Subroutine IBZKPT returns following result:
 ===========================================
 
 Found     44 irreducible k-points:
 
 Following reciprocal coordinates:
            Coordinates               Weight
  0.050000  0.050000  0.050000      8.000000
  0.150000  0.050000  0.050000     24.000000
  0.250000  0.050000  0.050000     24.000000
  0.350000  0.050000  0.050000     24.000000
  0.450000  0.050000  0.050000     12.000000
 -0.050000  0.050000  0.050000      6.000000
  0.150000  0.150000  0.050000     24.000000
  0.250000  0.150000  0.050000     48.000000
  0.350000  0.150000  0.050000     48.000000
 -0.150000  0.150000  0.050000     24.000000
  0.250000  0.250000  0.050000     24.000000
  0.350000  0.250000  0.050000     24.000000
 -0.250000  0.250000  0.050000     24.000000
 -0.150000  0.250000  0.050000     24.000000
 -0.350000  0.350000  0.050000     24.000000
 -0.250000  0.350000  0.050000     48.000000
 -0.450000  0.450000  0.050000     24.000000
 -0.350000  0.450000  0.050000     48.000000
 -0.250000  0.450000  0.050000     24.000000
 -0.450000 -0.450000  0.050000     24.000000
 -0.350000 -0.450000  0.050000     48.000000
 -0.350000 -0.350000  0.050000      8.000000
  0.150000  0.150000  0.150000      8.000000
  0.250000  0.150000  0.150000     24.000000
  0.350000  0.150000  0.150000     12.000000
 -0.150000  0.150000  0.150000      6.000000
  0.250000  0.250000  0.150000     24.000000
 -0.250000  0.250000  0.150000     24.000000
 -0.350000  0.350000  0.150000     24.000000
 -0.250000  0.350000  0.150000     24.000000
 -0.450000  0.450000  0.150000     24.000000
 -0.350000  0.450000  0.150000     48.000000
 -0.450000 -0.450000  0.150000     24.000000
 -0.350000 -0.450000  0.150000     24.000000
  0.250000  0.250000  0.250000      2.000000
 -0.250000  0.250000  0.250000      6.000000
 -0.350000  0.350000  0.250000     24.000000
 -0.450000  0.450000  0.250000     24.000000
 -0.350000  0.450000  0.250000     24.000000
 -0.450000 -0.450000  0.250000     24.000000
 -0.350000  0.350000  0.350000      6.000000
 -0.450000  0.450000  0.350000     24.000000
 -0.450000 -0.450000  0.350000      8.000000
 -0.450000  0.450000  0.450000      6.000000
 
 Following cartesian coordinates:
            Coordinates               Weight
  0.017443  0.024668  0.042725      8.000000
  0.052328  0.037001  0.064088     24.000000
  0.087213  0.049335  0.085451     24.000000
  0.122098  0.061669  0.106814     24.000000
  0.156983  0.074003  0.128176     12.000000
 -0.017443  0.012334  0.021363      6.000000
  0.052328  0.074003  0.085451     24.000000
  0.087213  0.086336  0.106814     48.000000
  0.122098  0.098670  0.128176     48.000000
 -0.052328  0.037001  0.021363     24.000000
  0.087213  0.123338  0.128176     24.000000
  0.122098  0.135672  0.149539     24.000000
 -0.087213  0.061669  0.021363     24.000000
 -0.052328  0.074003  0.042725     24.000000
 -0.122098  0.086336  0.021363     24.000000
 -0.087213  0.098670  0.042725     48.000000
 -0.156983  0.111004  0.021363     24.000000
 -0.122098  0.123338  0.042725     48.000000
 -0.087213  0.135672  0.064088     24.000000
 -0.156983 -0.222008 -0.170902     24.000000
 -0.122098 -0.209674 -0.149539     48.000000
 -0.122098 -0.172673 -0.128176      8.000000
  0.052328  0.074003  0.128176      8.000000
  0.087213  0.086336  0.149539     24.000000
  0.122098  0.098670  0.170902     12.000000
 -0.052328  0.037001  0.064088      6.000000
  0.087213  0.123338  0.170902     24.000000
 -0.087213  0.061669  0.064088     24.000000
 -0.122098  0.086336  0.064088     24.000000
 -0.087213  0.098670  0.085451     24.000000
 -0.156983  0.111004  0.064088     24.000000
 -0.122098  0.123338  0.085451     48.000000
 -0.156983 -0.222008 -0.128176     24.000000
 -0.122098 -0.209674 -0.106814     24.000000
  0.087213  0.123338  0.213627      2.000000
 -0.087213  0.061669  0.106814      6.000000
 -0.122098  0.086336  0.106814     24.000000
 -0.156983  0.111004  0.106814     24.000000
 -0.122098  0.123338  0.128176     24.000000
 -0.156983 -0.222008 -0.085451     24.000000
 -0.122098  0.086336  0.149539      6.000000
 -0.156983  0.111004  0.149539     24.000000
 -0.156983 -0.222008 -0.042725      8.000000
 -0.156983  0.111004  0.192265      6.000000
 


--------------------------------------------------------------------------------------------------------




 Dimension of arrays:
   k-points           NKPTS =     44   k-points in BZ     NKDIM =     44   number of bands    NBANDS=      6
   number of dos      NEDOS =    301   number of ions     NIONS =      1
   non local maximal  LDIM  =      6   non local SUM 2l+1 LMDIM =     18
   total plane-waves  NPLWV =   4096
   max r-space proj   IRMAX =      1   max aug-charges    IRDMAX=  15575
   dimension x,y,z NGX =    16 NGY =   16 NGZ =   16
   dimension x,y,z NGXF=    32 NGYF=   32 NGZF=   32
   support grid    NGXF=    32 NGYF=   32 NGZF=   32
   ions per type =               1
 NGX,Y,Z   is equivalent  to a cutoff of   9.28,  9.28,  9.28 a.u.
 NGXF,Y,Z  is equivalent  to a cutoff of  18.56, 18.56, 18.56 a.u.


 I would recommend the setting:
   dimension x,y,z NGX =    16 NGY =   16 NGZ =   16
 SYSTEM =  unknown system                          
 POSCAR =  Ta                                      

 Startparameter for this run:
   NWRITE =      2    write-flag & timer
   PREC   = accura    normal or accurate (medium, high low for compatibility)
   ISTART =      0    job   : 0-new  1-cont  2-samecut
   ICHARG =      2    charge: 1-file 2-atom 10-const
   ISPIN  =      2    spin polarized calculation?
   LNONCOLLINEAR =      F non collinear calculations
   LSORBIT =      F    spin-orbit coupling
   INIWAV =      1    electr: 0-lowe 1-rand  2-diag
   LASPH  =      F    aspherical Exc in radial PAW
   METAGGA=      F    non-selfconsistent MetaGGA calc.

 Electronic Relaxation 1
   ENCUT  =  300.0 eV  22.05 Ry    4.70 a.u.   4.05  4.05  4.05*2*pi/ulx,y,z
   ENINI  =  300.0     initial cutoff
   ENAUG  =  332.1 eV  augmentation charge cutoff
   NELM   =     60;   NELMIN=  2; NELMDL= -5     # of ELM steps 
   EDIFF  = 0.1E-03   stopping-criterion for ELM
   LREAL  =      F    real-space projection
   NLSPLINE    = F    spline interpolate recip. space projectors
   LCOMPAT=      F    compatible to vasp.4.4
   GGA_COMPAT  = T    GGA compatible to vasp.4.4-vasp.4.6
   LMAXPAW     = -100 max onsite density
   LMAXMIX     =    2 max onsite mixed and CHGCAR
   VOSKOWN=      0    Vosko Wilk Nusair interpolation
   ROPT   =    0.00000
 Ionic relaxation
   EDIFFG = 0.1E-02   stopping-criterion for IOM
   NSW    =      0    number of steps for IOM
   NBLOCK =      1;   KBLOCK =      1    inner block; outer block 
   IBRION =     -1    ionic relax: 0-MD 1-quasi-New 2-CG
   NFREE  =      0    steps in history (QN), initial steepest desc. (CG)
   ISIF   =      2    stress and relaxation
   IWAVPR =     10    prediction:  0-non 1-charg 2-wave 3-comb
   ISYM   =      2    0-nonsym 1-usesym 2-fastsym
   LCORR  =      T    Harris-Foulkes like correction to forces

   POTIM  = 0.5000    time-step for ionic-motion
   TEIN   =    0.0    initial temperature
   TEBEG  =    0.0;   TEEND  =   0.0 temperature during run
   SMASS  =  -3.00    Nose mass-parameter (am)
   estimated Nose-frequenzy (Omega)   =  0.10E-29 period in steps =****** mass=  -0.188E-27a.u.
   SCALEE = 1.0000    scale energy and forces
   NPACO  =    256;   APACO  = 16.0  distance and # of slots for P.C.
   PSTRESS=    0.0 pullay stress

  Mass of Ions in am
   POMASS = 180.95
  Ionic Valenz
   ZVAL   =   5.00
  Atomic Wigner-Seitz radii
   RWIGS  =  -1.00
  virtual crystal weights 
   VCA    =   1.00
   NELECT =       5.0000    total number of electrons
   NUPDOWN=      -1.0000    fix difference up-down

 DOS related values:
   EMIN   =  10.00;   EMAX   =-10.00  energy-range for DOS
   EFERMI =   0.00
   ISMEAR =     1;   SIGMA  =   0.05  broadening in eV -4-tet -1-fermi 0-gaus

 Electronic relaxation 2 (details)
   IALGO  =     38    algorithm
   LDIAG  =      T    sub-space diagonalisation (order eigenvalues)
   LSUBROT=      T    optimize rotation matrix (better conditioning)
   TURBO    =      0    0=normal 1=particle mesh
   IRESTART =      0    0=no restart 2=restart with 2 vectors
   NREBOOT  =      0    no. of reboots
   NMIN     =      0    reboot dimension
   EREF     =   0.00    reference energy to select bands
   IMIX   =      4    mixing-type and parameters
     AMIX     =   0.40;   BMIX     =  1.00
     AMIX_MAG =   1.60;   BMIX_MAG =  1.00
     AMIN     =   0.10
     WC   =   100.;   INIMIX=   1;  MIXPRE=   1

 Intra band minimization:
   WEIMIN = 0.0000     energy-eigenvalue tresh-hold
   EBREAK =  0.42E-05  absolut break condition
   DEPER  =   0.30     relativ break condition  

   TIME   =   0.40     timestep for ELM

  volume/ion in A,a.u.               =      18.13       122.36
  Fermi-wavevector in a.u.,A,eV,Ry     =   1.065566  2.013627 15.448462  1.135430
  Thomas-Fermi vector in A             =   2.201121
 
 Write flags
   LWAVE  =      T    write WAVECAR
   LCHARG =      T    write CHGCAR
   LVTOT  =      F    write LOCPOT, total local potential
   LVHAR  =      F    write LOCPOT, Hartree potential only
   LELF   =      F    write electronic localiz. function (ELF)
   LORBIT =     11    0 simple, 1 ext, 2 COOP (PROOUT)


 Dipole corrections
   LMONO  =      F    monopole corrections only (constant potential shift)
   LDIPOL =      F    correct potential (dipole corrections)
   IDIPOL =      0    1-x, 2-y, 3-z, 4-all directions 
   EPSILON=  1.0000000 bulk dielectric constant

 Exchange correlation treatment:
   GGA     =    --    GGA type
   LEXCH   =     8    internal setting for exchange type
   VOSKOWN=      0    Vosko Wilk Nusair interpolation
   LHFCALC =     F    Hartree Fock is set to
   LHFONE  =     F    Hartree Fock one center treatment
   AEXX    =    0.0000 exact exchange contribution

 Linear response parameters
   LEPSILON=     F    determine dielectric tensor
   LRPA    =     F    only Hartree local field effects (RPA)
   LNABLA  =     F    use nabla operator in PAW spheres
   LVEL    =     F    velocity operator in full k-point grid
   LINTERFAST=   F  fast interpolation
   KINTER  =     0    interpolate to denser k-point grid
   CSHIFT  =0.1000    complex shift for real part using Kramers Kronig
   OMEGAMAX=  -1.0    maximum frequency
   RTIME   =    0.100 relaxation time in fs

 Orbital magnetization related:
   ORBITALMAG=     F  switch on orbital magnetization
   LCHIMAG   =     F  perturbation theory with respect to B field
   DQ        =  0.001000  dq finite difference perturbation B field



--------------------------------------------------------------------------------------------------------


 Static calculation
 charge density and potential will be updated during run
 spin polarized calculation
 Variant of blocked Davidson
 Davidson routine will perform the subspace rotation
 perform sub-space diagonalisation
    after iterative eigenvector-optimisation
 modified Broyden-mixing scheme, WC =      100.0
 initial mixing is a Kerker type mixing with AMIX =  0.4000 and BMIX =      1.0000
 Hartree-type preconditioning will be used
 using additional bands            3
 reciprocal scheme for non local part
 use partial core corrections
 calculate Harris-corrections to forces 
   (improved forces if not selfconsistent)
 use gradient corrections 
 use of overlap-Matrix (Vanderbilt PP)
 Methfessel and Paxton  Order N= 1 SIGMA  =   0.05


--------------------------------------------------------------------------------------------------------


  energy-cutoff  :      300.00
  volume of cell :       18.13
      direct lattice vectors                 reciprocal lattice vectors
     2.866544087  0.000000000  0.000000000     0.348852126  0.123337852  0.213627426
    -0.955514696  2.702603683  0.000000000     0.000000000  0.370013556  0.213627426
    -0.955514696 -1.351301841  2.340523446     0.000000000  0.000000000  0.427254853

  length of vectors
     2.866544087  2.866544087  2.866544087     0.427254853  0.427254853  0.427254853


 
 k-points in units of 2pi/SCALE and weight: KPOINTS created by Atomic Simulation Env
   0.01744261  0.02466757  0.04272549       0.008
   0.05232782  0.03700136  0.06408823       0.024
   0.08721303  0.04933514  0.08545097       0.024
   0.12209824  0.06166893  0.10681371       0.024
   0.15698346  0.07400271  0.12817646       0.012
  -0.01744261  0.01233379  0.02136274       0.006
   0.05232782  0.07400271  0.08545097       0.024
   0.08721303  0.08633650  0.10681371       0.048
   0.12209824  0.09867028  0.12817646       0.048
  -0.05232782  0.03700136  0.02136274       0.024
   0.08721303  0.12333785  0.12817646       0.024
   0.12209824  0.13567164  0.14953920       0.024
  -0.08721303  0.06166893  0.02136274       0.024
  -0.05232782  0.07400271  0.04272549       0.024
  -0.12209824  0.08633650  0.02136274       0.024
  -0.08721303  0.09867028  0.04272549       0.048
  -0.15698346  0.11100407  0.02136274       0.024
  -0.12209824  0.12333785  0.04272549       0.048
  -0.08721303  0.13567164  0.06408823       0.024
  -0.15698346 -0.22200813 -0.17090194       0.024
  -0.12209824 -0.20967435 -0.14953920       0.048
  -0.12209824 -0.17267299 -0.12817646       0.008
   0.05232782  0.07400271  0.12817646       0.008
   0.08721303  0.08633650  0.14953920       0.024
   0.12209824  0.09867028  0.17090194       0.012
  -0.05232782  0.03700136  0.06408823       0.006
   0.08721303  0.12333785  0.17090194       0.024
  -0.08721303  0.06166893  0.06408823       0.024
  -0.12209824  0.08633650  0.06408823       0.024
  -0.08721303  0.09867028  0.08545097       0.024
  -0.15698346  0.11100407  0.06408823       0.024
  -0.12209824  0.12333785  0.08545097       0.048
  -0.15698346 -0.22200813 -0.12817646       0.024
  -0.12209824 -0.20967435 -0.10681371       0.024
   0.08721303  0.12333785  0.21362743       0.002
  -0.08721303  0.06166893  0.10681371       0.006
  -0.12209824  0.08633650  0.10681371       0.024
  -0.15698346  0.11100407  0.10681371       0.024
  -0.12209824  0.12333785  0.12817646       0.024
  -0.15698346 -0.22200813 -0.08545097       0.024
  -0.12209824  0.08633650  0.14953920       0.006
  -0.15698346  0.11100407  0.14953920       0.024
  -0.15698346 -0.22200813 -0.04272549       0.008
  -0.15698346  0.11100407  0.19226468       0.006
 
 k-points in reciprocal lattice and weights: KPOINTS created by Atomic Simulation Env
   0.05000000  0.05000000  0.05000000       0.008
   0.15000000  0.05000000  0.05000000       0.024
   0.25000000  0.05000000  0.05000000       0.024
   0.35000000  0.05000000  0.05000000       0.024
   0.45000000  0.05000000  0.05000000       0.012
  -0.05000000  0.05000000  0.05000000       0.006
   0.15000000  0.15000000  0.05000000       0.024
   0.25000000  0.15000000  0.05000000       0.048
   0.35000000  0.15000000  0.05000000       0.048
  -0.15000000  0.15000000  0.05000000       0.024
   0.25000000  0.25000000  0.05000000       0.024
   0.35000000  0.25000000  0.05000000       0.024
  -0.25000000  0.25000000  0.05000000       0.024
  -0.15000000  0.25000000  0.05000000       0.024
  -0.35000000  0.35000000  0.05000000       0.024
  -0.25000000  0.35000000  0.05000000       0.048
  -0.45000000  0.45000000  0.05000000       0.024
  -0.35000000  0.45000000  0.05000000       0.048
  -0.25000000  0.45000000  0.05000000       0.024
  -0.45000000 -0.45000000  0.05000000       0.024
  -0.35000000 -0.45000000  0.05000000       0.048
  -0.35000000 -0.35000000  0.05000000       0.008
   0.15000000  0.15000000  0.15000000       0.008
   0.25000000  0.15000000  0.15000000       0.024
   0.35000000  0.15000000  0.15000000       0.012
  -0.15000000  0.15000000  0.15000000       0.006
   0.25000000  0.25000000  0.15000000       0.024
  -0.25000000  0.25000000  0.15000000       0.024
  -0.35000000  0.35000000  0.15000000       0.024
  -0.25000000  0.35000000  0.15000000       0.024
  -0.45000000  0.45000000  0.15000000       0.024
  -0.35000000  0.45000000  0.15000000       0.048
  -0.45000000 -0.45000000  0.15000000       0.024
  -0.35000000 -0.45000000  0.15000000       0.024
   0.25000000  0.25000000  0.25000000       0.002
  -0.25000000  0.25000000  0.25000000       0.006
  -0.35000000  0.35000000  0.25000000       0.024
  -0.45000000  0.45000000  0.25000000       0.024
  -0.35000000  0.45000000  0.25000000       0.024
  -0.45000000 -0.45000000  0.25000000       0.024
  -0.35000000  0.35000000  0.35000000       0.006
  -0.45000000  0.45000000  0.35000000       0.024
  -0.45000000 -0.45000000  0.35000000       0.008
  -0.45000000  0.45000000  0.45000000       0.006
 
 position of ions in fractional coordinates (direct lattice) 
   0.00000000  0.00000000  0.00000000
 
 position of ions in cartesian coordinates  (Angst):
   0.00000000  0.00000000  0.00000000
 


--------------------------------------------------------------------------------------------------------


 k-point  1 :  0.05000.05000.0500  plane waves:     213
 k-point  2 :  0.15000.05000.0500  plane waves:     210
 k-point  3 :  0.25000.05000.0500  plane waves:     210
 k-point  4 :  0.35000.05000.0500  plane waves:     207
 k-point  5 :  0.45000.05000.0500  plane waves:     212
 k-point  6 :  -.05000.05000.0500  plane waves:     213
 k-point  7 :  0.15000.15000.0500  plane waves:     210
 k-point  8 :  0.25000.15000.0500  plane waves:     210
 k-point  9 :  0.35000.15000.0500  plane waves:     212
 k-point 10 :  -.15000.15000.0500  plane waves:     212
 k-point 11 :  0.25000.25000.0500  plane waves:     214
 k-point 12 :  0.35000.25000.0500  plane waves:     214
 k-point 13 :  -.25000.25000.0500  plane waves:     211
 k-point 14 :  -.15000.25000.0500  plane waves:     211
 k-point 15 :  -.35000.35000.0500  plane waves:     212
 k-point 16 :  -.25000.35000.0500  plane waves:     212
 k-point 17 :  -.45000.45000.0500  plane waves:     211
 k-point 18 :  -.35000.45000.0500  plane waves:     211
 k-point 19 :  -.25000.45000.0500  plane waves:     216
 k-point 20 :  -.4500-.45000.0500  plane waves:     214
 k-point 21 :  -.3500-.45000.0500  plane waves:     215
 k-point 22 :  -.3500-.35000.0500  plane waves:     212
 k-point 23 :  0.15000.15000.1500  plane waves:     210
 k-point 24 :  0.25000.15000.1500  plane waves:     216
 k-point 25 :  0.35000.15000.1500  plane waves:     214
 k-point 26 :  -.15000.15000.1500  plane waves:     213
 k-point 27 :  0.25000.25000.1500  plane waves:     218
 k-point 28 :  -.25000.25000.1500  plane waves:     214
 k-point 29 :  -.35000.35000.1500  plane waves:     215
 k-point 30 :  -.25000.35000.1500  plane waves:     213
 k-point 31 :  -.45000.45000.1500  plane waves:     213
 k-point 32 :  -.35000.45000.1500  plane waves:     217
 k-point 33 :  -.4500-.45000.1500  plane waves:     212
 k-point 34 :  -.3500-.45000.1500  plane waves:     217
 k-point 35 :  0.25000.25000.2500  plane waves:     216
 k-point 36 :  -.25000.25000.2500  plane waves:     209
 k-point 37 :  -.35000.35000.2500  plane waves:     216
 k-point 38 :  -.45000.45000.2500  plane waves:     216
 k-point 39 :  -.35000.45000.2500  plane waves:     220
 k-point 40 :  -.4500-.45000.2500  plane waves:     218
 k-point 41 :  -.35000.35000.3500  plane waves:     220
 k-point 42 :  -.45000.45000.3500  plane waves:     222
 k-point 43 :  -.4500-.45000.3500  plane waves:     224
 k-point 44 :  -.45000.45000.4500  plane waves:     236

 maximum and minimum number of plane-waves per node :       236      207

 maximum number of plane-waves:       236
 maximum index in each direction: 
   IXMAX=    4   IYMAX=    4   IZMAX=    3
   IXMIN=   -4   IYMIN=   -4   IZMIN=   -4

 WARNING: aliasing errors must be expected set NGX to  18 to avoid them
 WARNING: aliasing errors must be expected set NGY to  18 to avoid them
 NGZ is ok and might be reduce to  16
 aliasing errors are usually negligible using standard VASP settings
 and one can safely disregard these warnings

 serial   3D FFT for wavefunctions
 parallel 3D FFT for charge:
    minimum data exchange during FFTs selected (reduces bandwidth)


 total amount of memory used by VASP on root node    37668. kBytes
========================================================================

   base      :      30000. kBytes
   nonl-proj :       1499. kBytes
   fftplans  :       1184. kBytes
   grid      :       2809. kBytes
   one-center:         31. kBytes
   wavefun   :       2145. kBytes
 
 Broyden mixing: mesh for mixing (old mesh)
   NGX =  7   NGY =  7   NGZ =  7
  (NGX  = 32   NGY  = 32   NGZ  = 32)
  gives a total of    343 points

 initial charge density was supplied:
 charge density of overlapping atoms calculated
 number of electron       5.0000000 magnetization       6.0000000
 keeping initial charge density in first step


--------------------------------------------------------------------------------------------------------


 Maximum index for augmentation-charges        15009 (set IRDMAX)


--------------------------------------------------------------------------------------------------------


 First call to EWALD:  gamma=   0.675
 Maximum number of real-space cells 3x 3x 3
 Maximum number of reciprocal cells 3x 3x 3

    FEWALD:  cpu time    0.00: real time    0.00


----------------------------------------- Iteration    1(   1)  ---------------------------------------


    POTLOK:  cpu time    0.11: real time    0.11
    SETDIJ:  cpu time    0.03: real time    0.03
     EDDAV:  cpu time    0.64: real time    0.64
       DOS:  cpu time    0.00: real time    0.00
    --------------------------------------------
      LOOP:  cpu time    0.78: real time    0.81

 eigenvalue-minimisations  :  1110
 total energy-change (2. order) : 0.8934167E+01  (-0.1770923E+03)
 number of electron       5.0000000 magnetization       6.0000000
 augmentation part        5.0000000 magnetization       6.0000000

 Free energy of the ion-electron system (eV)
  ---------------------------------------------------
  alpha Z        PSCENC =        30.58334069
  Ewald energy   TEWEN  =      -197.90100875
  -1/2 Hartree   DENC   =        -2.50452612
  -exchange  EXHF       =         0.00000000
  -V(xc)+E(xc)   XCENC  =       -60.72898754
  PAW double counting   =       143.51874798      -69.33493833
  entropy T*S    EENTRO =         0.00001666
  eigenvalues    EBANDS =        34.66299494
  atomic energy  EATOM  =       130.63852721
  ---------------------------------------------------
  free energy    TOTEN  =         8.93416674 eV

  energy without entropy =        8.93415008  energy(sigma->0) =        8.93416118


--------------------------------------------------------------------------------------------------------




----------------------------------------- Iteration    1(   2)  ---------------------------------------


     EDDAV:  cpu time    0.98: real time    0.98
       DOS:  cpu time    0.00: real time    0.00
    --------------------------------------------
      LOOP:  cpu time    0.99: real time    1.00

 eigenvalue-minimisations  :  1848
 total energy-change (2. order) :-0.1027737E+02  (-0.8827139E+01)
 number of electron       5.0000000 magnetization       6.0000000
 augmentation part        5.0000000 magnetization       6.0000000

 Free energy of the ion-electron system (eV)
  ---------------------------------------------------
  alpha Z        PSCENC =        30.58334069
  Ewald energy   TEWEN  =      -197.90100875
  -1/2 Hartree   DENC   =        -2.50452612
  -exchange  EXHF       =         0.00000000
  -V(xc)+E(xc)   XCENC  =       -60.72898754
  PAW double counting   =       143.51874798      -69.33493833
  entropy T*S    EENTRO =         0.00026432
  eigenvalues    EBANDS =        24.38537233
  atomic energy  EATOM  =       130.63852721
  ---------------------------------------------------
  free energy    TOTEN  =        -1.34320821 eV

  energy without entropy =       -1.34347253  energy(sigma->0) =       -1.34329632


--------------------------------------------------------------------------------------------------------




----------------------------------------- Iteration    1(   3)  ---------------------------------------


     EDDAV:  cpu time    0.63: real time    0.64
       DOS:  cpu time    0.00: real time    0.00
    --------------------------------------------
      LOOP:  cpu time    0.64: real time    0.65

 eigenvalue-minimisations  :  1104
 total energy-change (2. order) :-0.6072270E-01  (-0.6012144E-01)
 number of electron       5.0000000 magnetization       6.0000000
 augmentation part        5.0000000 magnetization       6.0000000

 Free energy of the ion-electron system (eV)
  ---------------------------------------------------
  alpha Z        PSCENC =        30.58334069
  Ewald energy   TEWEN  =      -197.90100875
  -1/2 Hartree   DENC   =        -2.50452612
  -exchange  EXHF       =         0.00000000
  -V(xc)+E(xc)   XCENC  =       -60.72898754
  PAW double counting   =       143.51874798      -69.33493833
  entropy T*S    EENTRO =        -0.00002626
  eigenvalues    EBANDS =        24.32494021
  atomic energy  EATOM  =       130.63852721
  ---------------------------------------------------
  free energy    TOTEN  =        -1.40393091 eV

  energy without entropy =       -1.40390465  energy(sigma->0) =       -1.40392215


--------------------------------------------------------------------------------------------------------




----------------------------------------- Iteration    1(   4)  ---------------------------------------


     EDDAV:  cpu time    0.77: real time    0.77
       DOS:  cpu time    0.00: real time    0.00
    --------------------------------------------
      LOOP:  cpu time    0.77: real time    0.80

 eigenvalue-minimisations  :  1392
 total energy-change (2. order) :-0.2725562E-03  (-0.2725099E-03)
 number of electron       5.0000000 magnetization       6.0000000
 augmentation part        5.0000000 magnetization       6.0000000

 Free energy of the ion-electron system (eV)
  ---------------------------------------------------
  alpha Z        PSCENC =        30.58334069
  Ewald energy   TEWEN  =      -197.90100875
  -1/2 Hartree   DENC   =        -2.50452612
  -exchange  EXHF       =         0.00000000
  -V(xc)+E(xc)   XCENC  =       -60.72898754
  PAW double counting   =       143.51874798      -69.33493833
  entropy T*S    EENTRO =        -0.00002577
  eigenvalues    EBANDS =        24.32466717
  atomic energy  EATOM  =       130.63852721
  ---------------------------------------------------
  free energy    TOTEN  =        -1.40420346 eV

  energy without entropy =       -1.40417769  energy(sigma->0) =       -1.40419487


--------------------------------------------------------------------------------------------------------




----------------------------------------- Iteration    1(   5)  ---------------------------------------


     EDDAV:  cpu time    0.57: real time    0.57
       DOS:  cpu time    0.00: real time    0.00
    CHARGE:  cpu time    0.07: real time    0.07
    MIXING:  cpu time    0.00: real time    0.00
    --------------------------------------------
      LOOP:  cpu time    0.65: real time    0.66

 eigenvalue-minimisations  :   942
 total energy-change (2. order) :-0.2910849E-05  (-0.2910496E-05)
 number of electron       5.0000001 magnetization       1.9562808
 augmentation part        0.4511150 magnetization      -0.8477039

 Broyden mixing:
  rms(total) = 0.76897E+00    rms(broyden)= 0.76883E+00
  rms(prec ) = 0.98652E+00
  weight for this iteration     100.00

 Free energy of the ion-electron system (eV)
  ---------------------------------------------------
  alpha Z        PSCENC =        30.58334069
  Ewald energy   TEWEN  =      -197.90100875
  -1/2 Hartree   DENC   =        -2.50452612
  -exchange  EXHF       =         0.00000000
  -V(xc)+E(xc)   XCENC  =       -60.72898754
  PAW double counting   =       143.51874798      -69.33493833
  entropy T*S    EENTRO =        -0.00002578
  eigenvalues    EBANDS =        24.32466427
  atomic energy  EATOM  =       130.63852721
  ---------------------------------------------------
  free energy    TOTEN  =        -1.40420637 eV

  energy without entropy =       -1.40418059  energy(sigma->0) =       -1.40419778


--------------------------------------------------------------------------------------------------------




----------------------------------------- Iteration    1(   6)  ---------------------------------------


    POTLOK:  cpu time    0.10: real time    0.10
    SETDIJ:  cpu time    0.03: real time    0.03
     EDDAV:  cpu time    0.63: real time    0.63
       DOS:  cpu time    0.00: real time    0.00
    CHARGE:  cpu time    0.06: real time    0.06
    MIXING:  cpu time    0.00: real time    0.00
    --------------------------------------------
      LOOP:  cpu time    0.83: real time    0.86

 eigenvalue-minimisations  :  1098
 total energy-change (2. order) :-0.1030140E+02  (-0.3352789E+00)
 number of electron       5.0000001 magnetization       1.7061252
 augmentation part        0.3662925 magnetization       1.0117025

 Broyden mixing:
  rms(total) = 0.38831E+00    rms(broyden)= 0.38812E+00
  rms(prec ) = 0.11401E+01
  weight for this iteration     100.00

 eigenvalues of (default mixing * dielectric matrix)
  average eigenvalue GAMMA=   1.4903
  1.4903

 Free energy of the ion-electron system (eV)
  ---------------------------------------------------
  alpha Z        PSCENC =        30.58334069
  Ewald energy   TEWEN  =      -197.90100875
  -1/2 Hartree   DENC   =        -1.98624299
  -exchange  EXHF       =         0.00000000
  -V(xc)+E(xc)   XCENC  =       -66.16521384
  PAW double counting   =       164.15393526      -90.21119358
  entropy T*S    EENTRO =         0.00014290
  eigenvalues    EBANDS =        19.18211160
  atomic energy  EATOM  =       130.63852721
  ---------------------------------------------------
  free energy    TOTEN  =       -11.70560149 eV

  energy without entropy =      -11.70574439  energy(sigma->0) =      -11.70564913


--------------------------------------------------------------------------------------------------------




----------------------------------------- Iteration    1(   7)  ---------------------------------------


    POTLOK:  cpu time    0.10: real time    0.10
    SETDIJ:  cpu time    0.03: real time    0.03
     EDDAV:  cpu time    0.69: real time    0.69
       DOS:  cpu time    0.00: real time    0.00
    CHARGE:  cpu time    0.06: real time    0.06
    MIXING:  cpu time    0.00: real time    0.00
    --------------------------------------------
      LOOP:  cpu time    0.89: real time    0.91

 eigenvalue-minimisations  :  1230
 total energy-change (2. order) :-0.7932987E-01  (-0.2609975E-02)
 number of electron       5.0000001 magnetization       1.3053293
 augmentation part        0.3668655 magnetization       0.6731413

 Broyden mixing:
  rms(total) = 0.34395E+00    rms(broyden)= 0.34394E+00
  rms(prec ) = 0.10643E+01
  weight for this iteration     100.00

 eigenvalues of (default mixing * dielectric matrix)
  average eigenvalue GAMMA=   1.0892
  1.0892  1.0892

 Free energy of the ion-electron system (eV)
  ---------------------------------------------------
  alpha Z        PSCENC =        30.58334069
  Ewald energy   TEWEN  =      -197.90100875
  -1/2 Hartree   DENC   =        -1.86088796
  -exchange  EXHF       =         0.00000000
  -V(xc)+E(xc)   XCENC  =       -66.22780534
  PAW double counting   =       166.44253855      -92.53700924
  entropy T*S    EENTRO =        -0.00007980
  eigenvalues    EBANDS =        19.07745328
  atomic energy  EATOM  =       130.63852721
  ---------------------------------------------------
  free energy    TOTEN  =       -11.78493136 eV

  energy without entropy =      -11.78485156  energy(sigma->0) =      -11.78490476


--------------------------------------------------------------------------------------------------------




----------------------------------------- Iteration    1(   8)  ---------------------------------------


    POTLOK:  cpu time    0.10: real time    0.10
    SETDIJ:  cpu time    0.03: real time    0.03
     EDDAV:  cpu time    0.66: real time    0.66
       DOS:  cpu time    0.00: real time    0.00
    CHARGE:  cpu time    0.06: real time    0.06
    MIXING:  cpu time    0.00: real time    0.00
    --------------------------------------------
      LOOP:  cpu time    0.86: real time    0.89

 eigenvalue-minimisations  :  1164
 total energy-change (2. order) : 0.2188708E-01  (-0.4277715E-01)
 number of electron       5.0000001 magnetization       0.3493616
 augmentation part        0.3888423 magnetization      -0.0757492

 Broyden mixing:
  rms(total) = 0.23925E+00    rms(broyden)= 0.23921E+00
  rms(prec ) = 0.40353E+00
  weight for this iteration     100.00

 eigenvalues of (default mixing * dielectric matrix)
  average eigenvalue GAMMA=   1.1244
  1.3583  1.3583  0.6566

 Free energy of the ion-electron system (eV)
  ---------------------------------------------------
  alpha Z        PSCENC =        30.58334069
  Ewald energy   TEWEN  =      -197.90100875
  -1/2 Hartree   DENC   =        -0.89215815
  -exchange  EXHF       =         0.00000000
  -V(xc)+E(xc)   XCENC  =       -66.01056257
  PAW double counting   =       177.87684903     -104.28005538
  entropy T*S    EENTRO =        -0.00014046
  eigenvalues    EBANDS =        18.22216409
  atomic energy  EATOM  =       130.63852721
  ---------------------------------------------------
  free energy    TOTEN  =       -11.76304428 eV

  energy without entropy =      -11.76290382  energy(sigma->0) =      -11.76299746


--------------------------------------------------------------------------------------------------------




----------------------------------------- Iteration    1(   9)  ---------------------------------------


    POTLOK:  cpu time    0.10: real time    0.10
    SETDIJ:  cpu time    0.03: real time    0.03
     EDDAV:  cpu time    0.68: real time    0.68
       DOS:  cpu time    0.00: real time    0.00
    CHARGE:  cpu time    0.06: real time    0.06
    MIXING:  cpu time    0.00: real time    0.00
    --------------------------------------------
      LOOP:  cpu time    0.88: real time    0.90

 eigenvalue-minimisations  :  1212
 total energy-change (2. order) :-0.8869748E-01  (-0.9686242E-02)
 number of electron       5.0000001 magnetization       0.1170327
 augmentation part        0.4009695 magnetization      -0.0380112

 Broyden mixing:
  rms(total) = 0.47061E-01    rms(broyden)= 0.46965E-01
  rms(prec ) = 0.61173E-01
  weight for this iteration     100.00

 eigenvalues of (default mixing * dielectric matrix)
  average eigenvalue GAMMA=   1.1618
  2.0346  0.9703  0.9703  0.6720

 Free energy of the ion-electron system (eV)
  ---------------------------------------------------
  alpha Z        PSCENC =        30.58334069
  Ewald energy   TEWEN  =      -197.90100875
  -1/2 Hartree   DENC   =        -0.57540911
  -exchange  EXHF       =         0.00000000
  -V(xc)+E(xc)   XCENC  =       -65.98973354
  PAW double counting   =       187.98776590     -114.52755535
  entropy T*S    EENTRO =        -0.00053680
  eigenvalues    EBANDS =        17.93286798
  atomic energy  EATOM  =       130.63852721
  ---------------------------------------------------
  free energy    TOTEN  =       -11.85174176 eV

  energy without entropy =      -11.85120496  energy(sigma->0) =      -11.85156283


--------------------------------------------------------------------------------------------------------




----------------------------------------- Iteration    1(  10)  ---------------------------------------


    POTLOK:  cpu time    0.11: real time    0.11
    SETDIJ:  cpu time    0.03: real time    0.03
     EDDAV:  cpu time    0.66: real time    0.66
       DOS:  cpu time    0.00: real time    0.00
    CHARGE:  cpu time    0.06: real time    0.06
    MIXING:  cpu time    0.00: real time    0.00
    --------------------------------------------
      LOOP:  cpu time    0.86: real time    0.88

 eigenvalue-minimisations  :  1164
 total energy-change (2. order) :-0.8119833E-02  (-0.1970894E-03)
 number of electron       5.0000001 magnetization       0.0250274
 augmentation part        0.4004775 magnetization      -0.0261613

 Broyden mixing:
  rms(total) = 0.18159E-01    rms(broyden)= 0.18102E-01
  rms(prec ) = 0.33183E-01
  weight for this iteration     100.00

 eigenvalues of (default mixing * dielectric matrix)
  average eigenvalue GAMMA=   1.0748
  2.0394  0.9431  0.9431  0.8136  0.6346

 Free energy of the ion-electron system (eV)
  ---------------------------------------------------
  alpha Z        PSCENC =        30.58334069
  Ewald energy   TEWEN  =      -197.90100875
  -1/2 Hartree   DENC   =        -0.56526783
  -exchange  EXHF       =         0.00000000
  -V(xc)+E(xc)   XCENC  =       -65.98969723
  PAW double counting   =       190.59790467     -117.15453584
  entropy T*S    EENTRO =        -0.00025477
  eigenvalues    EBANDS =        17.93113025
  atomic energy  EATOM  =       130.63852721
  ---------------------------------------------------
  free energy    TOTEN  =       -11.85986159 eV

  energy without entropy =      -11.85960683  energy(sigma->0) =      -11.85977667


--------------------------------------------------------------------------------------------------------




----------------------------------------- Iteration    1(  11)  ---------------------------------------


    POTLOK:  cpu time    0.10: real time    0.10
    SETDIJ:  cpu time    0.03: real time    0.03
     EDDAV:  cpu time    0.66: real time    0.66
       DOS:  cpu time    0.00: real time    0.00
    CHARGE:  cpu time    0.06: real time    0.06
    MIXING:  cpu time    0.00: real time    0.00
    --------------------------------------------
      LOOP:  cpu time    0.86: real time    0.87

 eigenvalue-minimisations  :  1158
 total energy-change (2. order) :-0.9288224E-03  (-0.1107270E-03)
 number of electron       5.0000001 magnetization      -0.0168085
 augmentation part        0.3996502 magnetization      -0.0263777

 Broyden mixing:
  rms(total) = 0.60122E-02    rms(broyden)= 0.59601E-02
  rms(prec ) = 0.96760E-02
  weight for this iteration     100.00

 eigenvalues of (default mixing * dielectric matrix)
  average eigenvalue GAMMA=   1.1754
  1.8388  1.5695  1.1146  1.1146  0.6353  0.7794

 Free energy of the ion-electron system (eV)
  ---------------------------------------------------
  alpha Z        PSCENC =        30.58334069
  Ewald energy   TEWEN  =      -197.90100875
  -1/2 Hartree   DENC   =        -0.58736854
  -exchange  EXHF       =         0.00000000
  -V(xc)+E(xc)   XCENC  =       -66.00163035
  PAW double counting   =       192.77346013     -119.33710737
  entropy T*S    EENTRO =         0.00057521
  eigenvalues    EBANDS =        17.97042135
  atomic energy  EATOM  =       130.63852721
  ---------------------------------------------------
  free energy    TOTEN  =       -11.86079042 eV

  energy without entropy =      -11.86136562  energy(sigma->0) =      -11.86098215


--------------------------------------------------------------------------------------------------------




----------------------------------------- Iteration    1(  12)  ---------------------------------------


    POTLOK:  cpu time    0.10: real time    0.10
    SETDIJ:  cpu time    0.03: real time    0.03
     EDDAV:  cpu time    0.44: real time    0.44
       DOS:  cpu time    0.00: real time    0.00
    --------------------------------------------
      LOOP:  cpu time    0.58: real time    0.59

 eigenvalue-minimisations  :   642
 total energy-change (2. order) :-0.5727063E-04  (-0.1315425E-04)
 number of electron       5.0000001 magnetization      -0.0168085
 augmentation part        0.3996502 magnetization      -0.0263777

 Free energy of the ion-electron system (eV)
  ---------------------------------------------------
  alpha Z        PSCENC =        30.58334069
  Ewald energy   TEWEN  =      -197.90100875
  -1/2 Hartree   DENC   =        -0.59007959
  -exchange  EXHF       =         0.00000000
  -V(xc)+E(xc)   XCENC  =       -66.00153069
  PAW double counting   =       194.37271019     -120.94421141
  entropy T*S    EENTRO =         0.00058900
  eigenvalues    EBANDS =        17.98081566
  atomic energy  EATOM  =       130.63852721
  ---------------------------------------------------
  free energy    TOTEN  =       -11.86084769 eV

  energy without entropy =      -11.86143669  energy(sigma->0) =      -11.86104402


--------------------------------------------------------------------------------------------------------




 average (electrostatic) potential at core
  the test charge radii are     1.2538
  (the norm of the test charge is              1.0000)
       1 -35.0274
 
 
 
 E-fermi :   5.6750     XC(G=0): -12.3696     alpha+bet :-13.5035


 spin component 1

 k-point   1 :       0.0500    0.0500    0.0500
  band No.  band energies     occupation 
      1      -1.5429      1.00000
      2       6.0980      0.00000
      3       6.0980      0.00000
      4       7.2127      0.00000
      5       9.4484      0.00000
      6       9.4484      0.00000

 k-point   2 :       0.1500    0.0500    0.0500
  band No.  band energies     occupation 
      1      -0.4202      1.00000
      2       5.4253      1.00000
      3       5.6076      1.03350
      4       8.5610      0.00000
      5       9.1332      0.00000
      6       9.7169      0.00000

 k-point   3 :       0.2500    0.0500    0.0500
  band No.  band energies     occupation 
      1       0.9062      1.00000
      2       4.7686      1.00000
      3       5.3037      1.00000
      4       9.3525      0.00000
      5      10.0449      0.00000
      6      10.5327      0.00000

 k-point   4 :       0.3500    0.0500    0.0500
  band No.  band energies     occupation 
      1       1.5368      1.00000
      2       4.3191      1.00000
      3       6.1126      0.00000
      4       9.6752      0.00000
      5      10.4091      0.00000
      6      12.6673      0.00000

 k-point   5 :       0.4500    0.0500    0.0500
  band No.  band energies     occupation 
      1       1.5949      1.00000
      2       4.1611      1.00000
      3       6.9875      0.00000
      4       9.6560      0.00000
      5      10.5933      0.00000
      6      13.8127      0.00000

 k-point   6 :      -0.0500    0.0500    0.0500
  band No.  band energies     occupation 
      1      -1.9587      1.00000
      2       6.4167      0.00000
      3       6.4167      0.00000
      4       6.5539      0.00000
      5       9.3117      0.00000
      6       9.8086      0.00000

 k-point   7 :       0.1500    0.1500    0.0500
  band No.  band energies     occupation 
      1       0.8503      1.00000
      2       4.8778      1.00000
      3       4.9516      1.00000
      4       9.2088      0.00000
      5      10.0904      0.00000
      6      10.4570      0.00000

 k-point   8 :       0.2500    0.1500    0.0500
  band No.  band energies     occupation 
      1       2.0180      1.00000
      2       4.4067      1.00000
      3       4.9815      1.00000
      4       9.5103      0.00000
      5      10.4333      0.00000
      6      12.6817      0.00000

 k-point   9 :       0.3500    0.1500    0.0500
  band No.  band energies     occupation 
      1       2.2974      1.00000
      2       4.1928      1.00000
      3       5.9441      0.00000
      4       9.7622      0.00000
      5      10.6348      0.00000
      6      14.5340      0.00000

 k-point  10 :      -0.1500    0.1500    0.0500
  band No.  band energies     occupation 
      1      -1.1424      1.00000
      2       5.9629      0.00000
      3       6.1908      0.00000
      4       7.3665      0.00000
      5       8.6306      0.00000
      6       9.9917      0.00000

 k-point  11 :       0.2500    0.2500    0.0500
  band No.  band energies     occupation 
      1       2.9390      1.00000
      2       4.2988      1.00000
      3       5.0171      1.00000
      4       9.8249      0.00000
      5      10.5317      0.00000
      6      14.9641      0.00000

 k-point  12 :       0.3500    0.2500    0.0500
  band No.  band energies     occupation 
      1       3.1209      1.00000
      2       4.3834      1.00000
      3       5.2565      1.00000
      4      10.0641      0.00000
      5      10.5766      0.00000
      6      14.3865      0.00000

 k-point  13 :      -0.2500    0.2500    0.0500
  band No.  band energies     occupation 
      1       0.1793      1.00000
      2       5.2749      1.00000
      3       5.6175      1.03452
      4       8.6570      0.00000
      5       8.9789      0.00000
      6      10.1882      0.00000

 k-point  14 :      -0.1500    0.2500    0.0500
  band No.  band energies     occupation 
      1      -0.0601      1.00000
      2       5.6362      0.98341
      3       5.7088      0.04849
      4       8.0743      0.00000
      5       8.4851      0.00000
      6      10.3913      0.00000

 k-point  15 :      -0.3500    0.3500    0.0500
  band No.  band energies     occupation 
      1       1.2183      1.00000
      2       4.6806      1.00000
      3       5.6980      0.15205
      4       9.1902      0.00000
      5      10.4165      0.00000
      6      11.1138      0.00000

 k-point  16 :      -0.2500    0.3500    0.0500
  band No.  band energies     occupation 
      1       1.2439      1.00000
      2       4.9255      1.00000
      3       5.3582      1.00000
      4       8.3771      0.00000
      5      10.3120      0.00000
      6      10.6951      0.00000

 k-point  17 :      -0.4500    0.4500    0.0500
  band No.  band energies     occupation 
      1       1.4624      1.00000
      2       4.3487      1.00000
      3       6.6995      0.00000
      4       9.3490      0.00000
      5      10.7859      0.00000
      6      13.0608      0.00000

 k-point  18 :      -0.3500    0.4500    0.0500
  band No.  band energies     occupation 
      1       1.9018      1.00000
      2       4.6253      1.00000
      3       5.6016      1.02908
      4       8.9160      0.00000
      5      10.7301      0.00000
      6      12.7005      0.00000

 k-point  19 :      -0.2500    0.4500    0.0500
  band No.  band energies     occupation 
      1       2.3682      1.00000
      2       4.3285      1.00000
      3       5.3636      1.00000
      4       8.6842      0.00000
      5      10.4356      0.00000
      6      12.7714      0.00000

 k-point  20 :      -0.4500   -0.4500    0.0500
  band No.  band energies     occupation 
      1       1.9582      1.00000
      2       4.5242      1.00000
      3       6.0945      0.00000
      4       8.8692      0.00000
      5      11.2381      0.00000
      6      13.9519      0.00000

 k-point  21 :      -0.3500   -0.4500    0.0500
  band No.  band energies     occupation 
      1       2.8394      1.00000
      2       4.3875      1.00000
      3       5.2260      1.00000
      4       9.1529      0.00000
      5      10.6570      0.00000
      6      15.0611      0.00000

 k-point  22 :      -0.3500   -0.3500    0.0500
  band No.  band energies     occupation 
      1       3.5009      1.00000
      2       4.4836      1.00000
      3       4.4836      1.00000
      4      10.1158      0.00000
      5      10.1158      0.00000
      6      14.6776      0.00000

 k-point  23 :       0.1500    0.1500    0.1500
  band No.  band energies     occupation 
      1       2.2372      1.00000
      2       4.3939      1.00000
      3       4.3939      1.00000
      4      10.0579      0.00000
      5      10.0579      0.00000
      6      12.7892      0.00000

 k-point  24 :       0.2500    0.1500    0.1500
  band No.  band energies     occupation 
      1       3.1462      1.00000
      2       4.1479      1.00000
      3       4.7892      1.00000
      4      10.2247      0.00000
      5      10.5350      0.00000
      6      14.9754      0.00000

 k-point  25 :       0.3500    0.1500    0.1500
  band No.  band energies     occupation 
      1       3.1546      1.00000
      2       4.0757      1.00000
      3       5.6106      1.03491
      4      10.2848      0.00000
      5      10.6873      0.00000
      6      14.3723      0.00000

 k-point  26 :      -0.1500    0.1500    0.1500
  band No.  band energies     occupation 
      1      -0.3653      1.00000
      2       6.3739      0.00000
      3       6.3739      0.00000
      4       7.1735      0.00000
      5       7.3730      0.00000
      6      10.5875      0.00000

 k-point  27 :       0.2500    0.2500    0.1500
  band No.  band energies     occupation 
      1       3.7492      1.00000
      2       4.4091      1.00000
      3       4.8371      1.00000
      4      10.5379      0.00000
      5      10.6679      0.00000
      6      13.6638      0.00000

 k-point  28 :      -0.2500    0.2500    0.1500
  band No.  band energies     occupation 
      1       0.8973      1.00000
      2       5.5191      1.00005
      3       6.0162      0.00000
      4       7.2424      0.00000
      5       8.7325      0.00000
      6      10.7917      0.00000

 k-point  29 :      -0.3500    0.3500    0.1500
  band No.  band energies     occupation 
      1       1.9430      1.00000
      2       4.8927      1.00000
      3       5.5088      1.00001
      4       8.0457      0.00000
      5      10.8589      0.00000
      6      10.8958      0.00000

 k-point  30 :      -0.2500    0.3500    0.1500
  band No.  band energies     occupation 
      1       2.0673      1.00000
      2       4.5750      1.00000
      3       6.1498      0.00000
      4       7.5250      0.00000
      5       9.9888      0.00000
      6      10.9574      0.00000

 k-point  31 :      -0.4500    0.4500    0.1500
  band No.  band energies     occupation 
      1       2.1672      1.00000
      2       5.2103      1.00000
      3       5.2632      1.00000
      4       8.0200      0.00000
      5      11.9936      0.00000
      6      12.8581      0.00000

 k-point  32 :      -0.3500    0.4500    0.1500
  band No.  band energies     occupation 
      1       2.7733      1.00000
      2       4.1894      1.00000
      3       5.7508     -0.02692
      4       8.1585      0.00000
      5      10.7269      0.00000
      6      12.9154      0.00000

 k-point  33 :      -0.4500   -0.4500    0.1500
  band No.  band energies     occupation 
      1       2.7860      1.00000
      2       4.5679      1.00000
      3       5.3043      1.00000
      4       8.1529      0.00000
      5      11.7631      0.00000
      6      14.5698      0.00000

 k-point  34 :      -0.3500   -0.4500    0.1500
  band No.  band energies     occupation 
      1       3.6541      1.00000
      2       3.7150      1.00000
      3       4.9794      1.00000
      4       9.4212      0.00000
      5      10.5898      0.00000
      6      15.3737      0.00000

 k-point  35 :       0.2500    0.2500    0.2500
  band No.  band energies     occupation 
      1       4.4789      1.00000
      2       4.4789      1.00000
      3       4.4789      1.00000
      4      10.7465      0.00000
      5      10.7465      0.00000
      6      12.7483      0.00000

 k-point  36 :      -0.2500    0.2500    0.2500
  band No.  band energies     occupation 
      1       1.9741      1.00000
      2       4.7908      1.00000
      3       6.9634      0.00000
      4       6.9634      0.00000
      5       8.8914      0.00000
      6      10.6907      0.00000

 k-point  37 :      -0.3500    0.3500    0.2500
  band No.  band energies     occupation 
      1       2.7976      1.00000
      2       3.8611      1.00000
      3       7.0229      0.00000
      4       7.6132      0.00000
      5      10.5529      0.00000
      6      10.8402      0.00000

 k-point  38 :      -0.4500    0.4500    0.2500
  band No.  band energies     occupation 
      1       2.8334      1.00000
      2       3.7747      1.00000
      3       6.8528      0.00000
      4       7.4956      0.00000
      5      12.5480      0.00000
      6      12.8284      0.00000

 k-point  39 :      -0.3500    0.4500    0.2500
  band No.  band energies     occupation 
      1       3.1245      1.00000
      2       3.1867      1.00000
      3       6.8638      0.00000
      4       8.8402      0.00000
      5      10.8215      0.00000
      6      12.9332      0.00000

 k-point  40 :      -0.4500   -0.4500    0.2500
  band No.  band energies     occupation 
      1       2.9154      1.00000
      2       3.2396      1.00000
      3       6.5863      0.00000
      4       9.3557      0.00000
      5      11.6663      0.00000
      6      15.2756      0.00000

 k-point  41 :      -0.3500    0.3500    0.3500
  band No.  band energies     occupation 
      1       2.9018      1.00000
      2       3.0014      1.00000
      3       8.6194      0.00000
      4       8.6194      0.00000
      5      10.7745      0.00000
      6      10.9486      0.00000

 k-point  42 :      -0.4500    0.4500    0.3500
  band No.  band energies     occupation 
      1       2.5219      1.00000
      2       2.6848      1.00000
      3       9.0832      0.00000
      4       9.0907      0.00000
      5      12.2668      0.00000
      6      13.0755      0.00000

 k-point  43 :      -0.4500   -0.4500    0.3500
  band No.  band energies     occupation 
      1       2.3682      1.00000
      2       2.3682      1.00000
      3       9.0155      0.00000
      4      11.4440      0.00000
      5      11.4440      0.00000
      6      15.5843      0.00000

 k-point  44 :      -0.4500    0.4500    0.4500
  band No.  band energies     occupation 
      1       2.0657      1.00000
      2       2.1126      1.00000
      3      11.3472      0.00000
      4      11.3472      0.00000
      5      12.2556      0.00000
      6      13.5567      0.00000

 spin component 2

 k-point   1 :       0.0500    0.0500    0.0500
  band No.  band energies     occupation 
      1      -1.5548      1.00000
      2       6.0831      0.00000
      3       6.0831      0.00000
      4       7.1976      0.00000
      5       9.4429      0.00000
      6       9.4429      0.00000

 k-point   2 :       0.1500    0.0500    0.0500
  band No.  band energies     occupation 
      1      -0.4322      1.00000
      2       5.4105      1.00000
      3       5.5940      1.02218
      4       8.5465      0.00000
      5       9.1260      0.00000
      6       9.7109      0.00000

 k-point   3 :       0.2500    0.0500    0.0500
  band No.  band energies     occupation 
      1       0.8941      1.00000
      2       4.7538      1.00000
      3       5.2919      1.00000
      4       9.3438      0.00000
      5      10.0385      0.00000
      6      10.5189      0.00000

 k-point   4 :       0.3500    0.0500    0.0500
  band No.  band energies     occupation 
      1       1.5247      1.00000
      2       4.3043      1.00000
      3       6.1017      0.00000
      4       9.6662      0.00000
      5      10.4024      0.00000
      6      12.6549      0.00000

 k-point   5 :       0.4500    0.0500    0.0500
  band No.  band energies     occupation 
      1       1.5828      1.00000
      2       4.1463      1.00000
      3       6.9767      0.00000
      4       9.6472      0.00000
      5      10.5864      0.00000
      6      13.8014      0.00000

 k-point   6 :      -0.0500    0.0500    0.0500
  band No.  band energies     occupation 
      1      -1.9706      1.00000
      2       6.4015      0.00000
      3       6.4015      0.00000
      4       6.5387      0.00000
      5       9.3066      0.00000
      6       9.8037      0.00000

 k-point   7 :       0.1500    0.1500    0.0500
  band No.  band energies     occupation 
      1       0.8382      1.00000
      2       4.8648      1.00000
      3       4.9373      1.00000
      4       9.2009      0.00000
      5      10.0838      0.00000
      6      10.4432      0.00000

 k-point   8 :       0.2500    0.1500    0.0500
  band No.  band energies     occupation 
      1       2.0056      1.00000
      2       4.3931      1.00000
      3       4.9690      1.00000
      4       9.5016      0.00000
      5      10.4263      0.00000
      6      12.6692      0.00000

 k-point   9 :       0.3500    0.1500    0.0500
  band No.  band energies     occupation 
      1       2.2850      1.00000
      2       4.1786      1.00000
      3       5.9328      0.00000
      4       9.7534      0.00000
      5      10.6274      0.00000
      6      14.5232      0.00000

 k-point  10 :      -0.1500    0.1500    0.0500
  band No.  band energies     occupation 
      1      -1.1543      1.00000
      2       5.9478      0.00000
      3       6.1765      0.00000
      4       7.3515      0.00000
      5       8.6244      0.00000
      6       9.9863      0.00000

 k-point  11 :       0.2500    0.2500    0.0500
  band No.  band energies     occupation 
      1       2.9257      1.00000
      2       4.2871      1.00000
      3       5.0043      1.00000
      4       9.8160      0.00000
      5      10.5239      0.00000
      6      14.9535      0.00000

 k-point  12 :       0.3500    0.2500    0.0500
  band No.  band energies     occupation 
      1       3.1073      1.00000
      2       4.3711      1.00000
      3       5.2453      1.00000
      4      10.0552      0.00000
      5      10.5683      0.00000
      6      14.3715      0.00000

 k-point  13 :      -0.2500    0.2500    0.0500
  band No.  band energies     occupation 
      1       0.1674      1.00000
      2       5.2599      1.00000
      3       5.6055      1.03215
      4       8.6484      0.00000
      5       8.9645      0.00000
      6      10.1821      0.00000

 k-point  14 :      -0.1500    0.2500    0.0500
  band No.  band energies     occupation 
      1      -0.0719      1.00000
      2       5.6234      1.02809
      3       5.6940      0.20233
      4       8.0661      0.00000
      5       8.4706      0.00000
      6      10.3854      0.00000

 k-point  15 :      -0.3500    0.3500    0.0500
  band No.  band energies     occupation 
      1       1.2062      1.00000
      2       4.6656      1.00000
      3       5.6877      0.29295
      4       9.1806      0.00000
      5      10.4097      0.00000
      6      11.1003      0.00000

 k-point  16 :      -0.2500    0.3500    0.0500
  band No.  band energies     occupation 
      1       1.2320      1.00000
      2       4.9135      1.00000
      3       5.3447      1.00000
      4       8.3672      0.00000
      5      10.2997      0.00000
      6      10.6868      0.00000

 k-point  17 :      -0.4500    0.4500    0.0500
  band No.  band energies     occupation 
      1       1.4504      1.00000
      2       4.3337      1.00000
      3       6.6895      0.00000
      4       9.3397      0.00000
      5      10.7784      0.00000
      6      13.0487      0.00000

 k-point  18 :      -0.3500    0.4500    0.0500
  band No.  band energies     occupation 
      1       1.8899      1.00000
      2       4.6114      1.00000
      3       5.5913      1.01969
      4       8.9060      0.00000
      5      10.7215      0.00000
      6      12.6885      0.00000

 k-point  19 :      -0.2500    0.4500    0.0500
  band No.  band energies     occupation 
      1       2.3560      1.00000
      2       4.3182      1.00000
      3       5.3501      1.00000
      4       8.6735      0.00000
      5      10.4266      0.00000
      6      12.7597      0.00000

 k-point  20 :      -0.4500   -0.4500    0.0500
  band No.  band energies     occupation 
      1       1.9464      1.00000
      2       4.5097      1.00000
      3       6.0850      0.00000
      4       8.8597      0.00000
      5      11.2289      0.00000
      6      13.9409      0.00000

 k-point  21 :      -0.3500   -0.4500    0.0500
  band No.  band energies     occupation 
      1       2.8270      1.00000
      2       4.3759      1.00000
      3       5.2154      1.00000
      4       9.1424      0.00000
      5      10.6468      0.00000
      6      15.0505      0.00000

 k-point  22 :      -0.3500   -0.3500    0.0500
  band No.  band energies     occupation 
      1       3.4865      1.00000
      2       4.4740      1.00000
      3       4.4740      1.00000
      4      10.1050      0.00000
      5      10.1050      0.00000
      6      14.6634      0.00000

 k-point  23 :       0.1500    0.1500    0.1500
  band No.  band energies     occupation 
      1       2.2249      1.00000
      2       4.3804      1.00000
      3       4.3804      1.00000
      4      10.0506      0.00000
      5      10.0506      0.00000
      6      12.7767      0.00000

 k-point  24 :       0.2500    0.1500    0.1500
  band No.  band energies     occupation 
      1       3.1336      1.00000
      2       4.1339      1.00000
      3       4.7767      1.00000
      4      10.2169      0.00000
      5      10.5281      0.00000
      6      14.9645      0.00000

 k-point  25 :       0.3500    0.1500    0.1500
  band No.  band energies     occupation 
      1       3.1420      1.00000
      2       4.0616      1.00000
      3       5.5985      1.02632
      4      10.2769      0.00000
      5      10.6804      0.00000
      6      14.3569      0.00000

 k-point  26 :      -0.1500    0.1500    0.1500
  band No.  band energies     occupation 
      1      -0.3770      1.00000
      2       6.3590      0.00000
      3       6.3591      0.00000
      4       7.1673      0.00000
      5       7.3580      0.00000
      6      10.5817      0.00000

 k-point  27 :       0.2500    0.2500    0.1500
  band No.  band energies     occupation 
      1       3.7356      1.00000
      2       4.3963      1.00000
      3       4.8244      1.00000
      4      10.5305      0.00000
      5      10.6608      0.00000
      6      13.6479      0.00000

 k-point  28 :      -0.2500    0.2500    0.1500
  band No.  band energies     occupation 
      1       0.8858      1.00000
      2       5.5097      1.00002
      3       6.0014      0.00000
      4       7.2308      0.00000
      5       8.7181      0.00000
      6      10.7847      0.00000

 k-point  29 :      -0.3500    0.3500    0.1500
  band No.  band energies     occupation 
      1       1.9316      1.00000
      2       4.8841      1.00000
      3       5.4940      1.00000
      4       8.0343      0.00000
      5      10.8454      0.00000
      6      10.8871      0.00000

 k-point  30 :      -0.2500    0.3500    0.1500
  band No.  band energies     occupation 
      1       2.0562      1.00000
      2       4.5665      1.00000
      3       6.1356      0.00000
      4       7.5122      0.00000
      5       9.9760      0.00000
      6      10.9476      0.00000

 k-point  31 :      -0.4500    0.4500    0.1500
  band No.  band energies     occupation 
      1       2.1561      1.00000
      2       5.1956      1.00000
      3       5.2547      1.00000
      4       8.0097      0.00000
      5      11.9834      0.00000
      6      12.8459      0.00000

 k-point  32 :      -0.3500    0.4500    0.1500
  band No.  band energies     occupation 
      1       2.7626      1.00000
      2       4.1809      1.00000
      3       5.7374     -0.03538
      4       8.1463      0.00000
      5      10.7153      0.00000
      6      12.9034      0.00000

 k-point  33 :      -0.4500   -0.4500    0.1500
  band No.  band energies     occupation 
      1       2.7758      1.00000
      2       4.5596      1.00000
      3       5.2906      1.00000
      4       8.1410      0.00000
      5      11.7513      0.00000
      6      14.5585      0.00000

 k-point  34 :      -0.3500   -0.4500    0.1500
  band No.  band energies     occupation 
      1       3.6441      1.00000
      2       3.7067      1.00000
      3       4.9665      1.00000
      4       9.4085      0.00000
      5      10.5775      0.00000
      6      15.3619      0.00000

 k-point  35 :       0.2500    0.2500    0.2500
  band No.  band energies     occupation 
      1       4.4657      1.00000
      2       4.4657      1.00000
      3       4.4657      1.00000
      4      10.7397      0.00000
      5      10.7397      0.00000
      6      12.7318      0.00000

 k-point  36 :      -0.2500    0.2500    0.2500
  band No.  band energies     occupation 
      1       1.9634      1.00000
      2       4.7840      1.00000
      3       6.9489      0.00000
      4       6.9490      0.00000
      5       8.8770      0.00000
      6      10.6818      0.00000

 k-point  37 :      -0.3500    0.3500    0.2500
  band No.  band energies     occupation 
      1       2.7879      1.00000
      2       3.8537      1.00000
      3       7.0085      0.00000
      4       7.5998      0.00000
      5      10.5393      0.00000
      6      10.8291      0.00000

 k-point  38 :      -0.4500    0.4500    0.2500
  band No.  band energies     occupation 
      1       2.8247      1.00000
      2       3.7669      1.00000
      3       6.8384      0.00000
      4       7.4830      0.00000
      5      12.5358      0.00000
      6      12.8158      0.00000

 k-point  39 :      -0.3500    0.4500    0.2500
  band No.  band energies     occupation 
      1       3.1160      1.00000
      2       3.1793      1.00000
      3       6.8499      0.00000
      4       8.8265      0.00000
      5      10.8086      0.00000
      6      12.9205      0.00000

 k-point  40 :      -0.4500   -0.4500    0.2500
  band No.  band energies     occupation 
      1       2.9076      1.00000
      2       3.2320      1.00000
      3       6.5722      0.00000
      4       9.3422      0.00000
      5      11.6535      0.00000
      6      15.2626      0.00000

 k-point  41 :      -0.3500    0.3500    0.3500
  band No.  band energies     occupation 
      1       2.8935      1.00000
      2       2.9943      1.00000
      3       8.6054      0.00000
      4       8.6054      0.00000
      5      10.7611      0.00000
      6      10.9360      0.00000

 k-point  42 :      -0.4500    0.4500    0.3500
  band No.  band energies     occupation 
      1       2.5146      1.00000
      2       2.6772      1.00000
      3       9.0695      0.00000
      4       9.0767      0.00000
      5      12.2545      0.00000
      6      13.0616      0.00000

 k-point  43 :      -0.4500   -0.4500    0.3500
  band No.  band energies     occupation 
      1       2.3608      1.00000
      2       2.3608      1.00000
      3       9.0016      0.00000
      4      11.4308      0.00000
      5      11.4308      0.00000
      6      15.5700      0.00000

 k-point  44 :      -0.4500    0.4500    0.4500
  band No.  band energies     occupation 
      1       2.0585      1.00000
      2       2.1052      1.00000
      3      11.3339      0.00000
      4      11.3339      0.00000
      5      12.2434      0.00000
      6      13.5416      0.00000


--------------------------------------------------------------------------------------------------------


 soft charge-density along one line, spin component           1
         0         1         2         3         4         5         6         7         8         9
 total charge-density along one line
 
 soft charge-density along one line, spin component           2
         0         1         2         3         4         5         6         7         8         9
 total charge-density along one line
 
 pseudopotential strength for first ion, spin component:           1
 -6.575   0.000   0.003   0.000   0.002   0.090   0.000   0.000
  0.000  -6.572   0.000   0.003   0.000   0.000   0.090   0.000
  0.003   0.000  -6.572   0.000  -0.001   0.000   0.000   0.090
  0.000   0.003   0.000  -6.575   0.000   0.000   0.000   0.000
  0.002   0.000  -0.001   0.000  -6.571   0.000   0.000   0.000
  0.090   0.000   0.000   0.000   0.000   0.071   0.000   0.000
  0.000   0.090   0.000   0.000   0.000   0.000   0.071   0.000
  0.000   0.000   0.090   0.000   0.000   0.000   0.000   0.071
  0.000   0.000   0.000   0.090   0.000   0.000   0.000   0.000
  0.000   0.000   0.000   0.000   0.090   0.000   0.000   0.000
  0.000   0.000   0.000   0.000   0.000   0.000   0.000   0.000
  0.000   0.000   0.000   0.000   0.000   0.000   0.000   0.000
  0.000   0.000   0.000   0.000   0.000   0.000   0.000   0.000
  0.000   0.000   0.000   0.000   0.000   0.000   0.000   0.000
  0.000   0.000   0.000   0.000   0.000   0.000   0.000   0.000
  0.000   0.000   0.000   0.000   0.000   0.000   0.000   0.000
  0.000   0.000   0.000   0.000   0.000   0.000   0.000   0.000
  0.000   0.000   0.000   0.000   0.000   0.000   0.000   0.000
 pseudopotential strength for first ion, spin component:           2
 -6.575   0.000   0.003   0.000   0.001   0.089   0.000   0.000
  0.000  -6.573   0.000   0.003   0.000   0.000   0.089   0.000
  0.003   0.000  -6.573   0.000  -0.001   0.000   0.000   0.089
  0.000   0.003   0.000  -6.575   0.000   0.000   0.000   0.000
  0.001   0.000  -0.001   0.000  -6.572   0.000   0.000   0.000
  0.089   0.000   0.000   0.000   0.000   0.071   0.000   0.000
  0.000   0.089   0.000   0.000   0.000   0.000   0.071   0.000
  0.000   0.000   0.089   0.000   0.000   0.000   0.000   0.071
  0.000   0.000   0.000   0.089   0.000   0.000   0.000   0.000
  0.000   0.000   0.000   0.000   0.089   0.000   0.000   0.000
  0.000   0.000   0.000   0.000   0.000   0.000   0.000   0.000
  0.000   0.000   0.000   0.000   0.000   0.000   0.000   0.000
  0.000   0.000   0.000   0.000   0.000   0.000   0.000   0.000
  0.000   0.000   0.000   0.000   0.000   0.000   0.000   0.000
  0.000   0.000   0.000   0.000   0.000   0.000   0.000   0.000
  0.000   0.000   0.000   0.000   0.000   0.000   0.000   0.000
  0.000   0.000   0.000   0.000   0.000   0.000   0.000   0.000
  0.000   0.000   0.000   0.000   0.000   0.000   0.000   0.000
 total augmentation occupancy for first ion, spin component:           1
  0.642   0.000   0.079   0.000   0.046  -0.540   0.000  -0.024   0.000  -0.014   0.000   0.000   0.000   0.000   0.000   0.000
  0.000   0.707   0.000   0.092   0.000   0.000  -0.560   0.000  -0.028   0.000   0.000   0.000   0.000   0.000   0.000   0.000
  0.079   0.000   0.723   0.000  -0.028  -0.024   0.000  -0.565   0.000   0.009   0.000   0.000   0.000   0.000   0.000   0.000
  0.000   0.092   0.000   0.642   0.000   0.000  -0.028   0.000  -0.540   0.000   0.000   0.000   0.000   0.000   0.000   0.000
  0.046   0.000  -0.028   0.000   0.755  -0.014   0.000   0.009   0.000  -0.575   0.000   0.000   0.000   0.000   0.000   0.000
 -0.540   0.000  -0.024   0.000  -0.014   0.498   0.000  -0.010   0.000  -0.006   0.000   0.000   0.000   0.000   0.000   0.000
  0.000  -0.560   0.000  -0.028   0.000   0.000   0.490   0.000  -0.012   0.000   0.000   0.000   0.000   0.000   0.000   0.000
 -0.024   0.000  -0.565   0.000   0.009  -0.010   0.000   0.488   0.000   0.004   0.000   0.000   0.000   0.000   0.000   0.000
  0.000  -0.028   0.000  -0.540   0.000   0.000  -0.012   0.000   0.498   0.000   0.000   0.000   0.000   0.000   0.000   0.000
 -0.014   0.000   0.009   0.000  -0.575  -0.006   0.000   0.004   0.000   0.484   0.000   0.000   0.000   0.000   0.000   0.000
  0.000   0.000   0.000   0.000   0.000   0.000   0.000   0.000   0.000   0.000   1.405  -0.274   0.000   0.000   0.000   0.000
  0.000   0.000   0.000   0.000   0.000   0.000   0.000   0.000   0.000   0.000  -0.274   0.057   0.000   0.000   0.000   0.000
  0.000   0.000   0.000   0.000   0.000   0.000   0.000   0.000   0.000   0.000   0.000   0.000   0.300   0.000   0.000   0.011
  0.000   0.000   0.000   0.000   0.000   0.000   0.000   0.000   0.000   0.000   0.000   0.000   0.000   0.300   0.000   0.000
  0.000   0.000   0.000   0.000   0.000   0.000   0.000   0.000   0.000   0.000   0.000   0.000   0.000   0.000   0.300   0.000
  0.000   0.000   0.000   0.000   0.000   0.000   0.000   0.000   0.000   0.000   0.000   0.000   0.011   0.000   0.000   0.000
  0.000   0.000   0.000   0.000   0.000   0.000   0.000   0.000   0.000   0.000   0.000   0.000   0.000   0.011   0.000   0.000
  0.000   0.000   0.000   0.000   0.000   0.000   0.000   0.000   0.000   0.000   0.000   0.000   0.000   0.000   0.011   0.000
 total augmentation occupancy for first ion, spin component:           2
  0.001   0.000   0.000   0.000   0.000  -0.001   0.000   0.000   0.000   0.000   0.000   0.000   0.000   0.000   0.000   0.000
  0.000   0.001   0.000   0.000   0.000   0.000  -0.001   0.000   0.000   0.000   0.000   0.000   0.000   0.000   0.000   0.000
  0.000   0.000   0.001   0.000   0.000   0.000   0.000  -0.001   0.000   0.000   0.000   0.000   0.000   0.000   0.000   0.000
  0.000   0.000   0.000   0.001   0.000   0.000   0.000   0.000  -0.001   0.000   0.000   0.000   0.000   0.000   0.000   0.000
  0.000   0.000   0.000   0.000   0.001   0.000   0.000   0.000   0.000  -0.001   0.000   0.000   0.000   0.000   0.000   0.000
 -0.001   0.000   0.000   0.000   0.000   0.001   0.000   0.000   0.000   0.000   0.000   0.000   0.000   0.000   0.000   0.000
  0.000  -0.001   0.000   0.000   0.000   0.000   0.001   0.000   0.000   0.000   0.000   0.000   0.000   0.000   0.000   0.000
  0.000   0.000  -0.001   0.000   0.000   0.000   0.000   0.001   0.000   0.000   0.000   0.000   0.000   0.000   0.000   0.000
  0.000   0.000   0.000  -0.001   0.000   0.000   0.000   0.000   0.001   0.000   0.000   0.000   0.000   0.000   0.000   0.000
  0.000   0.000   0.000   0.000  -0.001   0.000   0.000   0.000   0.000   0.001   0.000   0.000   0.000   0.000   0.000   0.000
  0.000   0.000   0.000   0.000   0.000   0.000   0.000   0.000   0.000   0.000   0.002   0.002   0.000   0.000   0.000   0.000
  0.000   0.000   0.000   0.000   0.000   0.000   0.000   0.000   0.000   0.000   0.002  -0.001   0.000   0.000   0.000   0.000
  0.000   0.000   0.000   0.000   0.000   0.000   0.000   0.000   0.000   0.000   0.000   0.000   0.001   0.000   0.000   0.000
  0.000   0.000   0.000   0.000   0.000   0.000   0.000   0.000   0.000   0.000   0.000   0.000   0.000   0.001   0.000   0.000
  0.000   0.000   0.000   0.000   0.000   0.000   0.000   0.000   0.000   0.000   0.000   0.000   0.000   0.000   0.001   0.000
  0.000   0.000   0.000   0.000   0.000   0.000   0.000   0.000   0.000   0.000   0.000   0.000   0.000   0.000   0.000   0.000
  0.000   0.000   0.000   0.000   0.000   0.000   0.000   0.000   0.000   0.000   0.000   0.000   0.000   0.000   0.000   0.000
  0.000   0.000   0.000   0.000   0.000   0.000   0.000   0.000   0.000   0.000   0.000   0.000   0.000   0.000   0.000   0.000


------------------------ aborting loop because EDIFF is reached ----------------------------------------


 


 total charge     
 
# of ion     s       p       d       tot
----------------------------------------
  1        0.708   0.695   3.394   4.797
 


 magnetization (x)
 
# of ion     s       p       d       tot
----------------------------------------
  1        0.000  -0.001  -0.006  -0.007
 
    CHARGE:  cpu time    0.06: real time    0.06
    FORLOC:  cpu time    0.00: real time    0.00
    FORNL :  cpu time    0.13: real time    0.13
    STRESS:  cpu time    0.27: real time    0.27
    FORCOR:  cpu time    0.10: real time    0.10
    FORHAR:  cpu time    0.01: real time    0.03
    MIXING:  cpu time    0.00: real time    0.00

  FORCE on cell =-STRESS in cart. coord.  units (eV):
  Direction    XX          YY          ZZ          XY          YZ          ZX
  --------------------------------------------------------------------------------------
  Alpha Z    30.58334    30.58334    30.58334
  Ewald     -65.96700   -65.96700   -65.96700     0.00000     0.00000     0.00000
  Hartree     0.19531     0.19531     0.19531     0.00000     0.00000     0.00000
  E(xc)     -22.46648   -22.46647   -22.46646     0.00001     0.00001     0.00001
  Local       3.83860     3.83860     3.83860     0.00000     0.00000     0.00000
  n-local    -8.12343    -8.73341    -5.52176     1.72936    -2.24276    -1.69869
  augment     2.89926     2.89926     2.89927     0.00000     0.00000     0.00000
  Kinetic    59.89254    60.08686    54.73436    -0.49018     2.91994     1.80110
  Fock        0.00000     0.00000     0.00000     0.00000     0.00000     0.00000
  -------------------------------------------------------------------------------------
  Total      -0.13856    -0.13856    -0.13856     0.00000     0.00000     0.00000
  in kB     -12.24353   -12.24353   -12.24353     0.00000     0.00000     0.00000
  external pressure =      -12.24 kB  Pullay stress =        0.00 kB


 VOLUME and BASIS-vectors are now :
 -----------------------------------------------------------------------------
  energy-cutoff  :      300.00
  volume of cell :       18.13
      direct lattice vectors                 reciprocal lattice vectors
     2.866544087  0.000000000  0.000000000     0.348852126  0.123337852  0.213627426
    -0.955514696  2.702603683  0.000000000     0.000000000  0.370013556  0.213627426
    -0.955514696 -1.351301841  2.340523446     0.000000000  0.000000000  0.427254853

  length of vectors
     2.866544087  2.866544087  2.866544087     0.427254853  0.427254853  0.427254853


 FORCES acting on ions
    electron-ion (+dipol)            ewald-force                    non-local-force                 convergence-correction
 -----------------------------------------------------------------------------------------------
   -.368E-15 0.156E-14 -.298E-14   -.279E-15 -.214E-15 0.640E-15   -.207E-23 -.207E-23 0.000E+00   -.492E-16 0.370E-16 -.138E-15
 -----------------------------------------------------------------------------------------------
   -.368E-15 0.156E-14 -.298E-14   -.279E-15 -.214E-15 0.640E-15   -.207E-23 -.207E-23 0.000E+00   -.492E-16 0.370E-16 -.138E-15
 
 
 POSITION                                       TOTAL-FORCE (eV/Angst)
 -----------------------------------------------------------------------------------
      0.00000      0.00000      0.00000         0.000000      0.000000      0.000000
 -----------------------------------------------------------------------------------
    total drift:                                0.000000      0.000000      0.000000


--------------------------------------------------------------------------------------------------------



  FREE ENERGIE OF THE ION-ELECTRON SYSTEM (eV)
  ---------------------------------------------------
  free  energy   TOTEN  =       -11.860848 eV

  energy  without entropy=      -11.861437  energy(sigma->0) =      -11.861044
 


--------------------------------------------------------------------------------------------------------


    POTLOK:  cpu time    0.14: real time    0.14


--------------------------------------------------------------------------------------------------------


 writing wavefunctions
     LOOP+:  cpu time   10.48: real time   10.86
    4ORBIT:  cpu time    0.00: real time    0.00
 


 total charge     
 
# of ion     s       p       d       tot
----------------------------------------
  1        0.708   0.695   3.394   4.797
 


 magnetization (x)
 
# of ion     s       p       d       tot
----------------------------------------
  1        0.000  -0.001  -0.006  -0.007
 

 total amount of memory used by VASP on root node    37668. kBytes
========================================================================

   base      :      30000. kBytes
   nonl-proj :       1499. kBytes
   fftplans  :       1184. kBytes
   grid      :       2809. kBytes
   one-center:         31. kBytes
   wavefun   :       2145. kBytes
 
  
  
 General timing and accounting informations for this job:
 ========================================================
  
                  Total CPU time used (sec):       11.071
                            User time (sec):       10.841
                          System time (sec):        0.230
                         Elapsed time (sec):       11.679
  
                   Maximum memory used (kb):           0.
                   Average memory used (kb):           0.
  
                          Minor page faults:         7386
                          Major page faults:            0
                 Voluntary context switches:         4762
