PROCAR lm decomposed
# of k-points:   44         # of bands:   6         # of ions:   1

 k-point    1 :    0.05000000 0.05000000 0.05000000     weight = 0.00800000

band   1 # energy   -1.54293500 # occ.  1.00000000
 
ion      s     py     pz     px    dxy    dyz    dz2    dxz    dx2    tot
  1  0.815  0.010  0.031  0.005  0.000  0.002  0.001  0.001  0.000  0.866
 
band   2 # energy    6.09802603 # occ.  0.00000000
 
ion      s     py     pz     px    dxy    dyz    dz2    dxz    dx2    tot
  1  0.000  0.004  0.000  0.002  0.178  0.061  0.086  0.001  0.715  1.048
 
band   3 # energy    6.09802603 # occ.  0.00000000
 
ion      s     py     pz     px    dxy    dyz    dz2    dxz    dx2    tot
  1  0.000  0.001  0.002  0.004  0.020  0.173  0.519  0.123  0.208  1.048
 
band   4 # energy    7.21266350 # occ.  0.00000000
 
ion      s     py     pz     px    dxy    dyz    dz2    dxz    dx2    tot
  1  0.000  0.005  0.015  0.003  0.075  0.453  0.255  0.226  0.009  1.043
 
band   5 # energy    9.44837706 # occ.  0.00000000
 
ion      s     py     pz     px    dxy    dyz    dz2    dxz    dx2    tot
  1  0.000  0.000  0.000  0.000  0.156  0.216  0.024  0.519  0.000  0.915
 
band   6 # energy    9.44837706 # occ.  0.00000000
 
ion      s     py     pz     px    dxy    dyz    dz2    dxz    dx2    tot
  1  0.000  0.000  0.000  0.000  0.535  0.087  0.110  0.078  0.106  0.915
 

 k-point    2 :    0.15000000 0.05000000 0.05000000     weight = 0.02400000

band   1 # energy   -0.42024078 # occ.  1.00000000
 
ion      s     py     pz     px    dxy    dyz    dz2    dxz    dx2    tot
  1  0.733  0.020  0.061  0.039  0.006  0.009  0.001  0.018  0.002  0.889
 
band   2 # energy    5.42531096 # occ.  1.00000000
 
ion      s     py     pz     px    dxy    dyz    dz2    dxz    dx2    tot
  1  0.000  0.007  0.002  0.000  0.159  0.205  0.461  0.053  0.154  1.041
 
band   3 # energy    5.60760979 # occ.  1.03350404
 
ion      s     py     pz     px    dxy    dyz    dz2    dxz    dx2    tot
  1  0.003  0.001  0.002  0.049  0.072  0.022  0.104  0.216  0.532  1.000
 
band   4 # energy    8.56097479 # occ.  0.00000000
 
ion      s     py     pz     px    dxy    dyz    dz2    dxz    dx2    tot
  1  0.002  0.015  0.046  0.001  0.076  0.256  0.276  0.228  0.106  1.005
 
band   5 # energy    9.13319485 # occ.  0.00000000
 
ion      s     py     pz     px    dxy    dyz    dz2    dxz    dx2    tot
  1  0.000  0.000  0.001  0.001  0.069  0.433  0.037  0.208  0.184  0.933
 
band   6 # energy    9.71685599 # occ.  0.00000000
 
ion      s     py     pz     px    dxy    dyz    dz2    dxz    dx2    tot
  1  0.000  0.001  0.000  0.000  0.575  0.039  0.088  0.192  0.029  0.925
 

 k-point    3 :    0.25000000 0.05000000 0.05000000     weight = 0.02400000

band   1 # energy    0.90615242 # occ.  1.00000000
 
ion      s     py     pz     px    dxy    dyz    dz2    dxz    dx2    tot
  1  0.568  0.024  0.072  0.052  0.037  0.024  0.000  0.112  0.039  0.928
 
band   2 # energy    4.76855227 # occ.  1.00000000
 
ion      s     py     pz     px    dxy    dyz    dz2    dxz    dx2    tot
  1  0.000  0.009  0.003  0.000  0.180  0.198  0.446  0.060  0.149  1.046
 
band   3 # energy    5.30374644 # occ.  1.00000000
 
ion      s     py     pz     px    dxy    dyz    dz2    dxz    dx2    tot
  1  0.036  0.010  0.030  0.171  0.080  0.001  0.087  0.239  0.293  0.947
 
band   4 # energy    9.35249596 # occ.  0.00000000
 
ion      s     py     pz     px    dxy    dyz    dz2    dxz    dx2    tot
  1  0.004  0.000  0.000  0.009  0.063  0.356  0.004  0.188  0.343  0.967
 
band   5 # energy   10.04492497 # occ.  0.00000000
 
ion      s     py     pz     px    dxy    dyz    dz2    dxz    dx2    tot
  1  0.000  0.002  0.001  0.000  0.560  0.047  0.106  0.187  0.035  0.938
 
band   6 # energy   10.53267100 # occ.  0.00000000
 
ion      s     py     pz     px    dxy    dyz    dz2    dxz    dx2    tot
  1  0.001  0.026  0.079  0.002  0.036  0.321  0.309  0.108  0.096  0.978
 

 k-point    4 :    0.35000000 0.05000000 0.05000000     weight = 0.02400000

band   1 # energy    1.53684519 # occ.  1.00000000
 
ion      s     py     pz     px    dxy    dyz    dz2    dxz    dx2    tot
  1  0.353  0.012  0.037  0.008  0.101  0.029  0.008  0.302  0.121  0.971
 
band   2 # energy    4.31910923 # occ.  1.00000000
 
ion      s     py     pz     px    dxy    dyz    dz2    dxz    dx2    tot
  1  0.000  0.011  0.004  0.000  0.218  0.187  0.422  0.073  0.141  1.054
 
band   3 # energy    6.11264580 # occ.  0.00000000
 
ion      s     py     pz     px    dxy    dyz    dz2    dxz    dx2    tot
  1  0.069  0.039  0.118  0.396  0.025  0.011  0.066  0.076  0.105  0.906
 
band   4 # energy    9.67522298 # occ.  0.00000000
 
ion      s     py     pz     px    dxy    dyz    dz2    dxz    dx2    tot
  1  0.023  0.001  0.004  0.024  0.053  0.421  0.015  0.158  0.291  0.991
 
band   5 # energy   10.40913782 # occ.  0.00000000
 
ion      s     py     pz     px    dxy    dyz    dz2    dxz    dx2    tot
  1  0.000  0.001  0.000  0.000  0.538  0.063  0.141  0.179  0.047  0.970
 
band   6 # energy   12.66734596 # occ.  0.00000000
 
ion      s     py     pz     px    dxy    dyz    dz2    dxz    dx2    tot
  1  0.000  0.025  0.076  0.007  0.032  0.217  0.319  0.097  0.194  0.968
 

 k-point    5 :    0.45000000 0.05000000 0.05000000     weight = 0.01200000

band   1 # energy    1.59487435 # occ.  1.00000000
 
ion      s     py     pz     px    dxy    dyz    dz2    dxz    dx2    tot
  1  0.278  0.003  0.009  0.006  0.124  0.026  0.014  0.373  0.151  0.984
 
band   2 # energy    4.16114680 # occ.  1.00000000
 
ion      s     py     pz     px    dxy    dyz    dz2    dxz    dx2    tot
  1  0.000  0.011  0.004  0.000  0.261  0.174  0.391  0.087  0.130  1.058
 
band   3 # energy    6.98750771 # occ.  0.00000000
 
ion      s     py     pz     px    dxy    dyz    dz2    dxz    dx2    tot
  1  0.000  0.067  0.200  0.534  0.002  0.014  0.032  0.007  0.030  0.887
 
band   4 # energy    9.65603864 # occ.  0.00000000
 
ion      s     py     pz     px    dxy    dyz    dz2    dxz    dx2    tot
  1  0.073  0.000  0.000  0.000  0.058  0.466  0.045  0.175  0.177  0.994
 
band   5 # energy   10.59330957 # occ.  0.00000000
 
ion      s     py     pz     px    dxy    dyz    dz2    dxz    dx2    tot
  1  0.000  0.000  0.000  0.000  0.496  0.083  0.186  0.165  0.062  0.992
 
band   6 # energy   13.81270220 # occ.  0.00000000
 
ion      s     py     pz     px    dxy    dyz    dz2    dxz    dx2    tot
  1  0.000  0.005  0.015  0.040  0.026  0.153  0.345  0.077  0.320  0.980
 

 k-point    6 :   -0.05000000 0.05000000 0.05000000     weight = 0.00600000

band   1 # energy   -1.95870966 # occ.  1.00000000
 
ion      s     py     pz     px    dxy    dyz    dz2    dxz    dx2    tot
  1  0.841  0.003  0.008  0.006  0.000  0.000  0.000  0.000  0.000  0.858
 
band   2 # energy    6.41670494 # occ.  0.00000000
 
ion      s     py     pz     px    dxy    dyz    dz2    dxz    dx2    tot
  1  0.000  0.004  0.001  0.000  0.264  0.176  0.395  0.088  0.132  1.059
 
band   3 # energy    6.41671016 # occ.  0.00000000
 
ion      s     py     pz     px    dxy    dyz    dz2    dxz    dx2    tot
  1  0.000  0.000  0.001  0.004  0.029  0.176  0.395  0.088  0.366  1.059
 
band   4 # energy    6.55388580 # occ.  0.00000000
 
ion      s     py     pz     px    dxy    dyz    dz2    dxz    dx2    tot
  1  0.000  0.000  0.000  0.000  0.059  0.354  0.000  0.177  0.471  1.061
 
band   5 # energy    9.31172413 # occ.  0.00000000
 
ion      s     py     pz     px    dxy    dyz    dz2    dxz    dx2    tot
  1  0.000  0.000  0.000  0.000  0.453  0.076  0.170  0.151  0.057  0.906
 
band   6 # energy    9.80860328 # occ.  0.00000000
 
ion      s     py     pz     px    dxy    dyz    dz2    dxz    dx2    tot
  1  0.000  0.000  0.000  0.000  0.155  0.233  0.058  0.466  0.019  0.933
 

 k-point    7 :    0.15000000 0.15000000 0.05000000     weight = 0.02400000

band   1 # energy    0.85026922 # occ.  1.00000000
 
ion      s     py     pz     px    dxy    dyz    dz2    dxz    dx2    tot
  1  0.623  0.064  0.090  0.032  0.012  0.061  0.000  0.030  0.001  0.914
 
band   2 # energy    4.87783889 # occ.  1.00000000
 
ion      s     py     pz     px    dxy    dyz    dz2    dxz    dx2    tot
  1  0.000  0.023  0.000  0.046  0.084  0.054  0.000  0.108  0.673  0.989
 
band   3 # energy    4.95160326 # occ.  1.00000000
 
ion      s     py     pz     px    dxy    dyz    dz2    dxz    dx2    tot
  1  0.006  0.035  0.000  0.018  0.040  0.235  0.571  0.117  0.005  1.025
 
band   4 # energy    9.20879152 # occ.  0.00000000
 
ion      s     py     pz     px    dxy    dyz    dz2    dxz    dx2    tot
  1  0.000  0.000  0.000  0.001  0.024  0.240  0.000  0.481  0.193  0.940
 
band   5 # energy   10.09039210 # occ.  0.00000000
 
ion      s     py     pz     px    dxy    dyz    dz2    dxz    dx2    tot
  1  0.004  0.001  0.000  0.000  0.733  0.021  0.096  0.011  0.092  0.958
 
band   6 # energy   10.45696414 # occ.  0.00000000
 
ion      s     py     pz     px    dxy    dyz    dz2    dxz    dx2    tot
  1  0.004  0.029  0.093  0.014  0.079  0.311  0.286  0.155  0.010  0.980
 

 k-point    8 :    0.25000000 0.15000000 0.05000000     weight = 0.04800000

band   1 # energy    2.01798185 # occ.  1.00000000
 
ion      s     py     pz     px    dxy    dyz    dz2    dxz    dx2    tot
  1  0.421  0.056  0.089  0.018  0.047  0.095  0.015  0.185  0.027  0.953
 
band   2 # energy    4.40669610 # occ.  1.00000000
 
ion      s     py     pz     px    dxy    dyz    dz2    dxz    dx2    tot
  1  0.000  0.049  0.004  0.024  0.178  0.231  0.228  0.001  0.301  1.015
 
band   3 # energy    4.98150411 # occ.  1.00000000
 
ion      s     py     pz     px    dxy    dyz    dz2    dxz    dx2    tot
  1  0.047  0.031  0.026  0.197  0.006  0.005  0.282  0.179  0.194  0.967
 
band   4 # energy    9.51028716 # occ.  0.00000000
 
ion      s     py     pz     px    dxy    dyz    dz2    dxz    dx2    tot
  1  0.003  0.000  0.000  0.009  0.004  0.314  0.000  0.362  0.267  0.960
 
band   5 # energy   10.43332015 # occ.  0.00000000
 
ion      s     py     pz     px    dxy    dyz    dz2    dxz    dx2    tot
  1  0.014  0.000  0.000  0.000  0.647  0.009  0.192  0.051  0.070  0.984
 
band   6 # energy   12.68168325 # occ.  0.00000000
 
ion      s     py     pz     px    dxy    dyz    dz2    dxz    dx2    tot
  1  0.002  0.053  0.121  0.027  0.104  0.249  0.244  0.101  0.058  0.960
 

 k-point    9 :    0.35000000 0.15000000 0.05000000     weight = 0.04800000

band   1 # energy    2.29742648 # occ.  1.00000000
 
ion      s     py     pz     px    dxy    dyz    dz2    dxz    dx2    tot
  1  0.249  0.031  0.041  0.004  0.073  0.073  0.037  0.365  0.108  0.982
 
band   2 # energy    4.19283040 # occ.  1.00000000
 
ion      s     py     pz     px    dxy    dyz    dz2    dxz    dx2    tot
  1  0.000  0.060  0.003  0.007  0.253  0.219  0.318  0.018  0.156  1.035
 
band   3 # energy    5.94406379 # occ.  0.00000000
 
ion      s     py     pz     px    dxy    dyz    dz2    dxz    dx2    tot
  1  0.025  0.051  0.118  0.389  0.039  0.043  0.080  0.022  0.151  0.919
 
band   4 # energy    9.76217550 # occ.  0.00000000
 
ion      s     py     pz     px    dxy    dyz    dz2    dxz    dx2    tot
  1  0.041  0.000  0.001  0.009  0.022  0.359  0.033  0.258  0.254  0.978
 
band   5 # energy   10.63483721 # occ.  0.00000000
 
ion      s     py     pz     px    dxy    dyz    dz2    dxz    dx2    tot
  1  0.009  0.002  0.002  0.013  0.499  0.011  0.295  0.149  0.012  0.993
 
band   6 # energy   14.53400857 # occ.  0.00000000
 
ion      s     py     pz     px    dxy    dyz    dz2    dxz    dx2    tot
  1  0.000  0.043  0.092  0.073  0.089  0.179  0.228  0.053  0.194  0.949
 

 k-point   10 :   -0.15000000 0.15000000 0.05000000     weight = 0.02400000

band   1 # energy   -1.14238860 # occ.  1.00000000
 
ion      s     py     pz     px    dxy    dyz    dz2    dxz    dx2    tot
  1  0.787  0.023  0.008  0.045  0.005  0.001  0.002  0.001  0.001  0.874
 
band   2 # energy    5.96291294 # occ.  0.00000000
 
ion      s     py     pz     px    dxy    dyz    dz2    dxz    dx2    tot
  1  0.000  0.003  0.000  0.002  0.002  0.685  0.000  0.342  0.015  1.049
 
band   3 # energy    6.19080584 # occ.  0.00000000
 
ion      s     py     pz     px    dxy    dyz    dz2    dxz    dx2    tot
  1  0.001  0.011  0.002  0.021  0.421  0.001  0.511  0.001  0.053  1.021
 
band   4 # energy    7.36649789 # occ.  0.00000000
 
ion      s     py     pz     px    dxy    dyz    dz2    dxz    dx2    tot
  1  0.000  0.013  0.000  0.007  0.110  0.013  0.000  0.007  0.884  1.034
 
band   5 # energy    8.63064799 # occ.  0.00000000
 
ion      s     py     pz     px    dxy    dyz    dz2    dxz    dx2    tot
  1  0.000  0.000  0.000  0.000  0.279  0.057  0.407  0.113  0.035  0.892
 
band   6 # energy    9.99166081 # occ.  0.00000000
 
ion      s     py     pz     px    dxy    dyz    dz2    dxz    dx2    tot
  1  0.002  0.000  0.002  0.000  0.093  0.249  0.082  0.498  0.012  0.937
 

 k-point   11 :    0.25000000 0.25000000 0.05000000     weight = 0.02400000

band   1 # energy    2.93896304 # occ.  1.00000000
 
ion      s     py     pz     px    dxy    dyz    dz2    dxz    dx2    tot
  1  0.239  0.015  0.085  0.007  0.002  0.349  0.124  0.174  0.000  0.995
 
band   2 # energy    4.29879785 # occ.  1.00000000
 
ion      s     py     pz     px    dxy    dyz    dz2    dxz    dx2    tot
  1  0.000  0.069  0.000  0.138  0.060  0.073  0.000  0.145  0.481  0.966
 
band   3 # energy    5.01712395 # occ.  1.00000000
 
ion      s     py     pz     px    dxy    dyz    dz2    dxz    dx2    tot
  1  0.043  0.187  0.053  0.093  0.231  0.018  0.310  0.009  0.029  0.971
 
band   4 # energy    9.82488852 # occ.  0.00000000
 
ion      s     py     pz     px    dxy    dyz    dz2    dxz    dx2    tot
  1  0.000  0.004  0.000  0.009  0.031  0.225  0.000  0.450  0.246  0.965
 
band   5 # energy   10.53166516 # occ.  0.00000000
 
ion      s     py     pz     px    dxy    dyz    dz2    dxz    dx2    tot
  1  0.042  0.003  0.000  0.001  0.477  0.031  0.366  0.015  0.060  0.995
 
band   6 # energy   14.96412738 # occ.  0.00000000
 
ion      s     py     pz     px    dxy    dyz    dz2    dxz    dx2    tot
  1  0.001  0.103  0.131  0.051  0.206  0.160  0.182  0.080  0.026  0.940
 

 k-point   12 :    0.35000000 0.25000000 0.05000000     weight = 0.02400000

band   1 # energy    3.12092460 # occ.  1.00000000
 
ion      s     py     pz     px    dxy    dyz    dz2    dxz    dx2    tot
  1  0.161  0.005  0.038  0.021  0.001  0.242  0.154  0.345  0.045  1.011
 
band   2 # energy    4.38335921 # occ.  1.00000000
 
ion      s     py     pz     px    dxy    dyz    dz2    dxz    dx2    tot
  1  0.001  0.187  0.004  0.037  0.342  0.095  0.119  0.034  0.160  0.978
 
band   3 # energy    5.25653083 # occ.  1.00000000
 
ion      s     py     pz     px    dxy    dyz    dz2    dxz    dx2    tot
  1  0.000  0.037  0.110  0.295  0.136  0.123  0.039  0.000  0.197  0.936
 
band   4 # energy   10.06405527 # occ.  0.00000000
 
ion      s     py     pz     px    dxy    dyz    dz2    dxz    dx2    tot
  1  0.024  0.009  0.001  0.002  0.015  0.306  0.133  0.253  0.232  0.974
 
band   5 # energy   10.57658214 # occ.  0.00000000
 
ion      s     py     pz     px    dxy    dyz    dz2    dxz    dx2    tot
  1  0.000  0.003  0.008  0.021  0.312  0.008  0.406  0.232  0.000  0.989
 
band   6 # energy   14.38645717 # occ.  0.00000000
 
ion      s     py     pz     px    dxy    dyz    dz2    dxz    dx2    tot
  1  0.675  0.000  0.040  0.017  0.000  0.093  0.012  0.037  0.035  0.911
 

 k-point   13 :   -0.25000000 0.25000000 0.05000000     weight = 0.02400000

band   1 # energy    0.17930835 # occ.  1.00000000
 
ion      s     py     pz     px    dxy    dyz    dz2    dxz    dx2    tot
  1  0.665  0.045  0.008  0.090  0.060  0.001  0.025  0.002  0.008  0.905
 
band   2 # energy    5.27492421 # occ.  1.00000000
 
ion      s     py     pz     px    dxy    dyz    dz2    dxz    dx2    tot
  1  0.000  0.003  0.000  0.002  0.000  0.692  0.000  0.346  0.003  1.046
 
band   3 # energy    5.61745445 # occ.  1.03452268
 
ion      s     py     pz     px    dxy    dyz    dz2    dxz    dx2    tot
  1  0.016  0.042  0.001  0.084  0.546  0.006  0.176  0.011  0.068  0.950
 
band   4 # energy    8.65698952 # occ.  0.00000000
 
ion      s     py     pz     px    dxy    dyz    dz2    dxz    dx2    tot
  1  0.000  0.005  0.000  0.010  0.100  0.047  0.663  0.094  0.012  0.932
 
band   5 # energy    8.97892269 # occ.  0.00000000
 
ion      s     py     pz     px    dxy    dyz    dz2    dxz    dx2    tot
  1  0.000  0.032  0.000  0.016  0.104  0.004  0.000  0.002  0.836  0.994
 
band   6 # energy   10.18821989 # occ.  0.00000000
 
ion      s     py     pz     px    dxy    dyz    dz2    dxz    dx2    tot
  1  0.007  0.000  0.003  0.000  0.066  0.254  0.104  0.508  0.008  0.950
 

 k-point   14 :   -0.15000000 0.25000000 0.05000000     weight = 0.02400000

band   1 # energy   -0.06011054 # occ.  1.00000000
 
ion      s     py     pz     px    dxy    dyz    dz2    dxz    dx2    tot
  1  0.700  0.076  0.030  0.041  0.020  0.017  0.005  0.002  0.002  0.894
 
band   2 # energy    5.63622857 # occ.  0.98340599
 
ion      s     py     pz     px    dxy    dyz    dz2    dxz    dx2    tot
  1  0.000  0.004  0.012  0.032  0.208  0.228  0.111  0.004  0.379  0.978
 
band   3 # energy    5.70882430 # occ.  0.04849096
 
ion      s     py     pz     px    dxy    dyz    dz2    dxz    dx2    tot
  1  0.003  0.024  0.002  0.007  0.064  0.525  0.192  0.182  0.034  1.032
 
band   4 # energy    8.07428870 # occ.  0.00000000
 
ion      s     py     pz     px    dxy    dyz    dz2    dxz    dx2    tot
  1  0.000  0.000  0.001  0.003  0.241  0.001  0.428  0.225  0.008  0.906
 
band   5 # energy    8.48512214 # occ.  0.00000000
 
ion      s     py     pz     px    dxy    dyz    dz2    dxz    dx2    tot
  1  0.001  0.050  0.001  0.003  0.239  0.035  0.132  0.023  0.517  1.001
 
band   6 # energy   10.39133793 # occ.  0.00000000
 
ion      s     py     pz     px    dxy    dyz    dz2    dxz    dx2    tot
  1  0.012  0.000  0.002  0.001  0.121  0.166  0.098  0.543  0.022  0.966
 

 k-point   15 :   -0.35000000 0.35000000 0.05000000     weight = 0.02400000

band   1 # energy    1.21825899 # occ.  1.00000000
 
ion      s     py     pz     px    dxy    dyz    dz2    dxz    dx2    tot
  1  0.453  0.030  0.008  0.059  0.281  0.001  0.082  0.002  0.035  0.951
 
band   2 # energy    4.68061935 # occ.  1.00000000
 
ion      s     py     pz     px    dxy    dyz    dz2    dxz    dx2    tot
  1  0.000  0.003  0.000  0.002  0.000  0.697  0.000  0.349  0.001  1.051
 
band   3 # energy    5.69803652 # occ.  0.15204639
 
ion      s     py     pz     px    dxy    dyz    dz2    dxz    dx2    tot
  1  0.066  0.126  0.000  0.253  0.342  0.016  0.026  0.032  0.043  0.904
 
band   4 # energy    9.19021064 # occ.  0.00000000
 
ion      s     py     pz     px    dxy    dyz    dz2    dxz    dx2    tot
  1  0.003  0.021  0.001  0.041  0.079  0.020  0.744  0.041  0.010  0.961
 
band   5 # energy   10.41650704 # occ.  0.00000000
 
ion      s     py     pz     px    dxy    dyz    dz2    dxz    dx2    tot
  1  0.020  0.002  0.003  0.004  0.050  0.278  0.051  0.557  0.006  0.971
 
band   6 # energy   11.11383992 # occ.  0.00000000
 
ion      s     py     pz     px    dxy    dyz    dz2    dxz    dx2    tot
  1  0.000  0.040  0.000  0.020  0.101  0.001  0.000  0.001  0.808  0.971
 

 k-point   16 :   -0.25000000 0.35000000 0.05000000     weight = 0.04800000

band   1 # energy    1.24388340 # occ.  1.00000000
 
ion      s     py     pz     px    dxy    dyz    dz2    dxz    dx2    tot
  1  0.538  0.090  0.028  0.060  0.136  0.030  0.041  0.003  0.002  0.928
 
band   2 # energy    4.92554093 # occ.  1.00000000
 
ion      s     py     pz     px    dxy    dyz    dz2    dxz    dx2    tot
  1  0.004  0.000  0.012  0.068  0.205  0.477  0.010  0.026  0.163  0.967
 
band   3 # energy    5.35819000 # occ.  1.00000000
 
ion      s     py     pz     px    dxy    dyz    dz2    dxz    dx2    tot
  1  0.018  0.055  0.003  0.063  0.146  0.261  0.080  0.272  0.094  0.993
 
band   4 # energy    8.37711309 # occ.  0.00000000
 
ion      s     py     pz     px    dxy    dyz    dz2    dxz    dx2    tot
  1  0.000  0.002  0.000  0.028  0.111  0.002  0.632  0.135  0.025  0.936
 
band   5 # energy   10.31204642 # occ.  0.00000000
 
ion      s     py     pz     px    dxy    dyz    dz2    dxz    dx2    tot
  1  0.004  0.064  0.000  0.000  0.046  0.092  0.138  0.072  0.562  0.978
 
band   6 # energy   10.69506022 # occ.  0.00000000
 
ion      s     py     pz     px    dxy    dyz    dz2    dxz    dx2    tot
  1  0.037  0.038  0.002  0.006  0.226  0.116  0.018  0.474  0.062  0.980
 

 k-point   17 :   -0.45000000 0.45000000 0.05000000     weight = 0.02400000

band   1 # energy    1.46242789 # occ.  1.00000000
 
ion      s     py     pz     px    dxy    dyz    dz2    dxz    dx2    tot
  1  0.300  0.003  0.007  0.006  0.491  0.000  0.109  0.000  0.061  0.978
 
band   2 # energy    4.34865813 # occ.  1.00000000
 
ion      s     py     pz     px    dxy    dyz    dz2    dxz    dx2    tot
  1  0.000  0.003  0.000  0.001  0.000  0.702  0.000  0.351  0.000  1.057
 
band   3 # energy    6.69946964 # occ.  0.00000000
 
ion      s     py     pz     px    dxy    dyz    dz2    dxz    dx2    tot
  1  0.028  0.227  0.000  0.455  0.057  0.035  0.000  0.071  0.007  0.881
 
band   4 # energy    9.34896349 # occ.  0.00000000
 
ion      s     py     pz     px    dxy    dyz    dz2    dxz    dx2    tot
  1  0.056  0.012  0.000  0.024  0.174  0.000  0.685  0.000  0.022  0.973
 
band   5 # energy   10.78591337 # occ.  0.00000000
 
ion      s     py     pz     px    dxy    dyz    dz2    dxz    dx2    tot
  1  0.009  0.031  0.001  0.061  0.008  0.292  0.000  0.584  0.001  0.987
 
band   6 # energy   13.06078252 # occ.  0.00000000
 
ion      s     py     pz     px    dxy    dyz    dz2    dxz    dx2    tot
  1  0.000  0.012  0.000  0.006  0.108  0.000  0.000  0.000  0.861  0.987
 

 k-point   18 :   -0.35000000 0.45000000 0.05000000     weight = 0.04800000

band   1 # energy    1.90178763 # occ.  1.00000000
 
ion      s     py     pz     px    dxy    dyz    dz2    dxz    dx2    tot
  1  0.324  0.047  0.025  0.011  0.408  0.020  0.090  0.000  0.039  0.964
 
band   2 # energy    4.62532063 # occ.  1.00000000
 
ion      s     py     pz     px    dxy    dyz    dz2    dxz    dx2    tot
  1  0.004  0.003  0.014  0.034  0.035  0.729  0.004  0.172  0.025  1.021
 
band   3 # energy    5.60162135 # occ.  1.02908359
 
ion      s     py     pz     px    dxy    dyz    dz2    dxz    dx2    tot
  1  0.044  0.136  0.002  0.261  0.086  0.000  0.005  0.266  0.114  0.913
 
band   4 # energy    8.91600149 # occ.  0.00000000
 
ion      s     py     pz     px    dxy    dyz    dz2    dxz    dx2    tot
  1  0.020  0.010  0.000  0.050  0.136  0.005  0.705  0.018  0.002  0.946
 
band   5 # energy   10.73005285 # occ.  0.00000000
 
ion      s     py     pz     px    dxy    dyz    dz2    dxz    dx2    tot
  1  0.056  0.007  0.001  0.047  0.011  0.231  0.008  0.471  0.159  0.991
 
band   6 # energy   12.70053484 # occ.  0.00000000
 
ion      s     py     pz     px    dxy    dyz    dz2    dxz    dx2    tot
  1  0.006  0.119  0.001  0.017  0.175  0.005  0.012  0.060  0.573  0.967
 

 k-point   19 :   -0.25000000 0.45000000 0.05000000     weight = 0.02400000

band   1 # energy    2.36821361 # occ.  1.00000000
 
ion      s     py     pz     px    dxy    dyz    dz2    dxz    dx2    tot
  1  0.367  0.094  0.026  0.043  0.138  0.219  0.067  0.000  0.003  0.957
 
band   2 # energy    4.32852849 # occ.  1.00000000
 
ion      s     py     pz     px    dxy    dyz    dz2    dxz    dx2    tot
  1  0.000  0.011  0.033  0.088  0.314  0.194  0.010  0.007  0.279  0.937
 
band   3 # energy    5.36359559 # occ.  1.00000000
 
ion      s     py     pz     px    dxy    dyz    dz2    dxz    dx2    tot
  1  0.016  0.122  0.033  0.055  0.000  0.263  0.118  0.309  0.073  0.989
 
band   4 # energy    8.68417407 # occ.  0.00000000
 
ion      s     py     pz     px    dxy    dyz    dz2    dxz    dx2    tot
  1  0.000  0.003  0.009  0.023  0.125  0.008  0.499  0.219  0.057  0.943
 
band   5 # energy   10.43555745 # occ.  0.00000000
 
ion      s     py     pz     px    dxy    dyz    dz2    dxz    dx2    tot
  1  0.083  0.000  0.005  0.002  0.022  0.261  0.134  0.299  0.180  0.987
 
band   6 # energy   12.77144345 # occ.  0.00000000
 
ion      s     py     pz     px    dxy    dyz    dz2    dxz    dx2    tot
  1  0.019  0.167  0.004  0.033  0.283  0.000  0.047  0.123  0.289  0.965
 

 k-point   20 :   -0.45000000-0.45000000 0.05000000     weight = 0.02400000

band   1 # energy    1.95823663 # occ.  1.00000000
 
ion      s     py     pz     px    dxy    dyz    dz2    dxz    dx2    tot
  1  0.246  0.010  0.023  0.005  0.519  0.007  0.097  0.004  0.065  0.976
 
band   2 # energy    4.52419522 # occ.  1.00000000
 
ion      s     py     pz     px    dxy    dyz    dz2    dxz    dx2    tot
  1  0.001  0.014  0.016  0.007  0.014  0.650  0.008  0.325  0.002  1.036
 
band   3 # energy    6.09449012 # occ.  0.00000000
 
ion      s     py     pz     px    dxy    dyz    dz2    dxz    dx2    tot
  1  0.000  0.184  0.000  0.368  0.006  0.096  0.000  0.191  0.045  0.890
 
band   4 # energy    8.86920995 # occ.  0.00000000
 
ion      s     py     pz     px    dxy    dyz    dz2    dxz    dx2    tot
  1  0.086  0.001  0.000  0.000  0.172  0.016  0.637  0.008  0.022  0.942
 
band   5 # energy   11.23807594 # occ.  0.00000000
 
ion      s     py     pz     px    dxy    dyz    dz2    dxz    dx2    tot
  1  0.000  0.065  0.000  0.131  0.017  0.215  0.000  0.431  0.136  0.994
 
band   6 # energy   13.95193401 # occ.  0.00000000
 
ion      s     py     pz     px    dxy    dyz    dz2    dxz    dx2    tot
  1  0.000  0.042  0.000  0.084  0.089  0.020  0.000  0.040  0.711  0.985
 

 k-point   21 :   -0.35000000-0.45000000 0.05000000     weight = 0.04800000

band   1 # energy    2.83937321 # occ.  1.00000000
 
ion      s     py     pz     px    dxy    dyz    dz2    dxz    dx2    tot
  1  0.213  0.050  0.027  0.000  0.411  0.115  0.111  0.016  0.036  0.978
 
band   2 # energy    4.38751042 # occ.  1.00000000
 
ion      s     py     pz     px    dxy    dyz    dz2    dxz    dx2    tot
  1  0.010  0.006  0.042  0.100  0.126  0.532  0.021  0.035  0.093  0.965
 
band   3 # energy    5.22603262 # occ.  1.00000000
 
ion      s     py     pz     px    dxy    dyz    dz2    dxz    dx2    tot
  1  0.003  0.163  0.013  0.174  0.007  0.003  0.022  0.444  0.104  0.931
 
band   4 # energy    9.15290417 # occ.  0.00000000
 
ion      s     py     pz     px    dxy    dyz    dz2    dxz    dx2    tot
  1  0.036  0.002  0.011  0.022  0.134  0.064  0.616  0.063  0.000  0.948
 
band   5 # energy   10.65700031 # occ.  0.00000000
 
ion      s     py     pz     px    dxy    dyz    dz2    dxz    dx2    tot
  1  0.045  0.022  0.002  0.065  0.004  0.215  0.003  0.302  0.325  0.981
 
band   6 # energy   15.06106172 # occ.  0.00000000
 
ion      s     py     pz     px    dxy    dyz    dz2    dxz    dx2    tot
  1  0.032  0.143  0.007  0.104  0.194  0.017  0.029  0.091  0.371  0.987
 

 k-point   22 :   -0.35000000-0.35000000 0.05000000     weight = 0.00800000

band   1 # energy    3.50090296 # occ.  1.00000000
 
ion      s     py     pz     px    dxy    dyz    dz2    dxz    dx2    tot
  1  0.177  0.000  0.000  0.000  0.062  0.372  0.209  0.186  0.008  1.016
 
band   2 # energy    4.48363396 # occ.  1.00000000
 
ion      s     py     pz     px    dxy    dyz    dz2    dxz    dx2    tot
  1  0.000  0.096  0.000  0.191  0.024  0.140  0.000  0.281  0.192  0.924
 
band   3 # energy    4.48364472 # occ.  1.00000000
 
ion      s     py     pz     px    dxy    dyz    dz2    dxz    dx2    tot
  1  0.000  0.127  0.096  0.064  0.503  0.048  0.000  0.024  0.063  0.924
 
band   4 # energy   10.11578718 # occ.  0.00000000
 
ion      s     py     pz     px    dxy    dyz    dz2    dxz    dx2    tot
  1  0.000  0.028  0.000  0.057  0.050  0.145  0.000  0.289  0.398  0.966
 
band   5 # energy   10.11578859 # occ.  0.00000000
 
ion      s     py     pz     px    dxy    dyz    dz2    dxz    dx2    tot
  1  0.000  0.038  0.028  0.019  0.078  0.099  0.644  0.050  0.010  0.966
 
band   6 # energy   14.67761646 # occ.  0.00000000
 
ion      s     py     pz     px    dxy    dyz    dz2    dxz    dx2    tot
  1  0.609  0.013  0.039  0.007  0.016  0.095  0.053  0.047  0.002  0.881
 

 k-point   23 :    0.15000000 0.15000000 0.15000000     weight = 0.00800000

band   1 # energy    2.23715899 # occ.  1.00000000
 
ion      s     py     pz     px    dxy    dyz    dz2    dxz    dx2    tot
  1  0.501  0.058  0.175  0.029  0.012  0.075  0.042  0.037  0.002  0.932
 
band   2 # energy    4.39393560 # occ.  1.00000000
 
ion      s     py     pz     px    dxy    dyz    dz2    dxz    dx2    tot
  1  0.000  0.044  0.001  0.050  0.100  0.058  0.017  0.037  0.703  1.009
 
band   3 # energy    4.39393560 # occ.  1.00000000
 
ion      s     py     pz     px    dxy    dyz    dz2    dxz    dx2    tot
  1  0.000  0.030  0.030  0.034  0.003  0.155  0.610  0.115  0.032  1.009
 
band   4 # energy   10.05788603 # occ.  0.00000000
 
ion      s     py     pz     px    dxy    dyz    dz2    dxz    dx2    tot
  1  0.000  0.000  0.000  0.000  0.303  0.138  0.010  0.499  0.018  0.968
 
band   5 # energy   10.05788603 # occ.  0.00000000
 
ion      s     py     pz     px    dxy    dyz    dz2    dxz    dx2    tot
  1  0.000  0.000  0.000  0.000  0.497  0.170  0.031  0.074  0.195  0.968
 
band   6 # energy   12.78922033 # occ.  0.00000000
 
ion      s     py     pz     px    dxy    dyz    dz2    dxz    dx2    tot
  1  0.004  0.050  0.149  0.025  0.055  0.331  0.186  0.165  0.007  0.972
 

 k-point   24 :    0.25000000 0.15000000 0.15000000     weight = 0.02400000
