<?xml version="1.0" encoding="ISO-8859-1"?>
<modeling>
 <generator>
  <i name="program" type="string">vasp </i>
  <i name="version" type="string">5.2.12  </i>
  <i name="subversion" type="string">11Nov11 complex                                                      parallel </i>
  <i name="platform" type="string">LinuxIFC </i>
  <i name="date" type="string">2012 10 14 </i>
  <i name="time" type="string">15:12:06 </i>
 </generator>
 <incar>
  <i type="string" name="PREC">accurate</i>
  <i name="ENCUT">    300.00000000</i>
  <i type="logical" name="LREAL"> F  </i>
  <i type="int" name="ISMEAR">     1</i>
  <i name="SIGMA">      0.05000000</i>
 </incar>
 <kpoints>
  <generation param="Monkhorst-Pack">
   <v type="int" name="divisions">      10       10       10 </v>
   <v name="usershift">      0.00000000       0.00000000       0.00000000 </v>
   <v name="genvec1">      0.10000000       0.00000000       0.00000000 </v>
   <v name="genvec2">      0.00000000       0.10000000       0.00000000 </v>
   <v name="genvec3">      0.00000000       0.00000000       0.10000000 </v>
   <v name="shift">      0.50000000       0.50000000       0.50000000 </v>
  </generation>
  <varray name="kpointlist" >
   <v>       0.05000000       0.05000000       0.05000000 </v>
   <v>       0.15000000       0.05000000       0.05000000 </v>
   <v>       0.25000000       0.05000000       0.05000000 </v>
   <v>       0.35000000       0.05000000       0.05000000 </v>
   <v>       0.45000000       0.05000000       0.05000000 </v>
   <v>      -0.05000000       0.05000000       0.05000000 </v>
   <v>       0.15000000       0.15000000       0.05000000 </v>
   <v>       0.25000000       0.15000000       0.05000000 </v>
   <v>       0.35000000       0.15000000       0.05000000 </v>
   <v>      -0.15000000       0.15000000       0.05000000 </v>
   <v>       0.25000000       0.25000000       0.05000000 </v>
   <v>       0.35000000       0.25000000       0.05000000 </v>
   <v>      -0.25000000       0.25000000       0.05000000 </v>
   <v>      -0.15000000       0.25000000       0.05000000 </v>
   <v>      -0.35000000       0.35000000       0.05000000 </v>
   <v>      -0.25000000       0.35000000       0.05000000 </v>
   <v>      -0.45000000       0.45000000       0.05000000 </v>
   <v>      -0.35000000       0.45000000       0.05000000 </v>
   <v>      -0.25000000       0.45000000       0.05000000 </v>
   <v>      -0.45000000      -0.45000000       0.05000000 </v>
   <v>      -0.35000000      -0.45000000       0.05000000 </v>
   <v>      -0.35000000      -0.35000000       0.05000000 </v>
   <v>       0.15000000       0.15000000       0.15000000 </v>
   <v>       0.25000000       0.15000000       0.15000000 </v>
   <v>       0.35000000       0.15000000       0.15000000 </v>
   <v>      -0.15000000       0.15000000       0.15000000 </v>
   <v>       0.25000000       0.25000000       0.15000000 </v>
   <v>      -0.25000000       0.25000000       0.15000000 </v>
   <v>      -0.35000000       0.35000000       0.15000000 </v>
   <v>      -0.25000000       0.35000000       0.15000000 </v>
   <v>      -0.45000000       0.45000000       0.15000000 </v>
   <v>      -0.35000000       0.45000000       0.15000000 </v>
   <v>      -0.45000000      -0.45000000       0.15000000 </v>
   <v>      -0.35000000      -0.45000000       0.15000000 </v>
   <v>       0.25000000       0.25000000       0.25000000 </v>
   <v>      -0.25000000       0.25000000       0.25000000 </v>
   <v>      -0.35000000       0.35000000       0.25000000 </v>
   <v>      -0.45000000       0.45000000       0.25000000 </v>
   <v>      -0.35000000       0.45000000       0.25000000 </v>
   <v>      -0.45000000      -0.45000000       0.25000000 </v>
   <v>      -0.35000000       0.35000000       0.35000000 </v>
   <v>      -0.45000000       0.45000000       0.35000000 </v>
   <v>      -0.45000000      -0.45000000       0.35000000 </v>
   <v>      -0.45000000       0.45000000       0.45000000 </v>
  </varray>
  <varray name="weights" >
   <v>       0.00800000 </v>
   <v>       0.02400000 </v>
   <v>       0.02400000 </v>
   <v>       0.02400000 </v>
   <v>       0.01200000 </v>
   <v>       0.00600000 </v>
   <v>       0.02400000 </v>
   <v>       0.04800000 </v>
   <v>       0.04800000 </v>
   <v>       0.02400000 </v>
   <v>       0.02400000 </v>
   <v>       0.02400000 </v>
   <v>       0.02400000 </v>
   <v>       0.02400000 </v>
   <v>       0.02400000 </v>
   <v>       0.04800000 </v>
   <v>       0.02400000 </v>
   <v>       0.04800000 </v>
   <v>       0.02400000 </v>
   <v>       0.02400000 </v>
   <v>       0.04800000 </v>
   <v>       0.00800000 </v>
   <v>       0.00800000 </v>
   <v>       0.02400000 </v>
   <v>       0.01200000 </v>
   <v>       0.00600000 </v>
   <v>       0.02400000 </v>
   <v>       0.02400000 </v>
   <v>       0.02400000 </v>
   <v>       0.02400000 </v>
   <v>       0.02400000 </v>
   <v>       0.04800000 </v>
   <v>       0.02400000 </v>
   <v>       0.02400000 </v>
   <v>       0.00200000 </v>
   <v>       0.00600000 </v>
   <v>       0.02400000 </v>
   <v>       0.02400000 </v>
   <v>       0.02400000 </v>
   <v>       0.02400000 </v>
   <v>       0.00600000 </v>
   <v>       0.02400000 </v>
   <v>       0.00800000 </v>
   <v>       0.00600000 </v>
  </varray>
 </kpoints>
 <parameters>
  <separator name="general" >
   <i type="string" name="SYSTEM">unknown system</i>
   <i type="logical" name="LCOMPAT"> F  </i>
  </separator>
  <separator name="electronic" >
   <i type="string" name="PREC">accura</i>
   <i name="ENMAX">    300.00000000</i>
   <i name="ENAUG">    332.07500000</i>
   <i name="EDIFF">      0.00010000</i>
   <i type="int" name="IALGO">    38</i>
   <i type="int" name="IWAVPR">    10</i>
   <i type="int" name="NBANDS">     6</i>
   <i name="NELECT">      5.00000000</i>
   <i type="int" name="TURBO">     0</i>
   <i type="int" name="IRESTART">     0</i>
   <i type="int" name="NREBOOT">     0</i>
   <i type="int" name="NMIN">     0</i>
   <i name="EREF">      0.00000000</i>
   <separator name="electronic smearing" >
    <i type="int" name="ISMEAR">     1</i>
    <i name="SIGMA">      0.05000000</i>
    <i name="KSPACING">      0.50000000</i>
    <i type="logical" name="KGAMMA"> T  </i>
   </separator>
   <separator name="electronic projectors" >
    <i type="logical" name="LREAL"> F  </i>
    <v name="ROPT">      0.00000000</v>
    <i type="int" name="LMAXPAW">  -100</i>
    <i type="int" name="LMAXMIX">     2</i>
    <i type="logical" name="NLSPLINE"> F  </i>
   </separator>
   <separator name="electronic startup" >
    <i type="int" name="ISTART">     0</i>
    <i type="int" name="ICHARG">     2</i>
    <i type="int" name="INIWAV">     1</i>
   </separator>
   <separator name="electronic spin" >
    <i type="int" name="ISPIN">     1</i>
    <i type="logical" name="LNONCOLLINEAR"> F  </i>
    <v name="MAGMOM">      1.00000000</v>
    <i name="NUPDOWN">     -1.00000000</i>
    <i type="logical" name="LSORBIT"> F  </i>
    <v name="SAXIS">      0.00000000      0.00000000      1.00000000</v>
    <i type="logical" name="LSPIRAL"> F  </i>
    <v name="QSPIRAL">      0.00000000      0.00000000      0.00000000</v>
    <i type="logical" name="LZEROZ"> F  </i>
   </separator>
   <separator name="electronic exchange-correlation" >
    <i type="logical" name="LASPH"> F  </i>
    <i type="logical" name="LMETAGGA"> F  </i>
   </separator>
   <separator name="electronic convergence" >
    <i type="int" name="NELM">    60</i>
    <i type="int" name="NELMDL">    -5</i>
    <i type="int" name="NELMIN">     2</i>
    <i name="ENINI">    300.00000000</i>
    <separator name="electronic convergence detail" >
     <i type="logical" name="LDIAG"> T  </i>
     <i type="logical" name="LSUBROT"> T  </i>
     <i name="WEIMIN">      0.00000000</i>
     <i name="EBREAK">      0.00000417</i>
     <i name="DEPER">      0.30000000</i>
     <i type="int" name="NRMM">     4</i>
     <i name="TIME">      0.40000000</i>
    </separator>
   </separator>
   <separator name="electronic mixer" >
    <i name="AMIX">      0.40000000</i>
    <i name="BMIX">      1.00000000</i>
    <i name="AMIN">      0.10000000</i>
    <i name="AMIX_MAG">      1.60000000</i>
    <i name="BMIX_MAG">      1.00000000</i>
    <separator name="electronic mixer details" >
     <i type="int" name="IMIX">     4</i>
     <i type="int" name="MAXMIX">   -45</i>
     <i name="WC">    100.00000000</i>
     <i type="int" name="INIMIX">     1</i>
     <i type="int" name="MIXPRE">     1</i>
     <i type="int" name="MREMOVE">     5</i>
    </separator>
   </separator>
   <separator name="electronic dipolcorrection" >
    <i type="logical" name="LDIPOL"> F  </i>
    <i type="logical" name="LMONO"> F  </i>
    <i type="int" name="IDIPOL">     0</i>
    <i name="EPSILON">      1.00000000</i>
    <v name="DIPOL">   -100.00000000   -100.00000000   -100.00000000</v>
    <i name="EFIELD">      0.00000000</i>
   </separator>
  </separator>
  <separator name="grids" >
   <i type="int" name="NGX">    16</i>
   <i type="int" name="NGY">    16</i>
   <i type="int" name="NGZ">    16</i>
   <i type="int" name="NGXF">    32</i>
   <i type="int" name="NGYF">    32</i>
   <i type="int" name="NGZF">    32</i>
   <i type="logical" name="ADDGRID"> F  </i>
  </separator>
  <separator name="ionic" >
   <i type="int" name="NSW">     0</i>
   <i type="int" name="IBRION">    -1</i>
   <i type="int" name="ISIF">     2</i>
   <i name="PSTRESS">      0.00000000</i>
   <i name="EDIFFG">      0.00100000</i>
   <i type="int" name="NFREE">     0</i>
   <i name="POTIM">      0.50000000</i>
   <i name="SMASS">     -3.00000000</i>
   <i name="SCALEE">      1.00000000</i>
  </separator>
  <separator name="ionic md" >
   <i name="TEBEG">      0.00010000</i>
   <i name="TEEND">      0.00010000</i>
   <i type="int" name="NBLOCK">     1</i>
   <i type="int" name="KBLOCK">     1</i>
   <i type="int" name="NPACO">   256</i>
   <i name="APACO">     16.00000000</i>
  </separator>
  <separator name="symmetry" >
   <i type="int" name="ISYM">     2</i>
   <i name="SYMPREC">      0.00001000</i>
  </separator>
  <separator name="dos" >
   <i type="logical" name="LORBIT"> F  </i>
   <v name="RWIGS">     -1.00000000</v>
   <i type="int" name="NEDOS">   301</i>
   <i name="EMIN">     10.00000000</i>
   <i name="EMAX">    -10.00000000</i>
   <i name="EFERMI">      0.00000000</i>
  </separator>
  <separator name="writing" >
   <i type="int" name="NWRITE">     2</i>
   <i type="logical" name="LWAVE"> T  </i>
   <i type="logical" name="LCHARG"> T  </i>
   <i type="logical" name="LPARD"> F  </i>
   <i type="logical" name="LVTOT"> F  </i>
   <i type="logical" name="LVHAR"> F  </i>
   <i type="logical" name="LELF"> F  </i>
   <i type="logical" name="LOPTICS"> F  </i>
   <v name="STM">      0.00000000      0.00000000      0.00000000      0.00000000      0.00000000      0.00000000      0.00000000</v>
  </separator>
  <separator name="performance" >
   <i type="int" name="NPAR">     1</i>
   <i type="int" name="NSIM">     4</i>
   <i type="int" name="NBLK">    -1</i>
   <i type="logical" name="LPLANE"> T  </i>
   <i type="logical" name="LSCALAPACK"> F  </i>
   <i type="logical" name="LSCAAWARE"> F  </i>
   <i type="logical" name="LSCALU"> F  </i>
   <i type="logical" name="LASYNC"> F  </i>
   <i type="logical" name="LORBITALREAL"> F  </i>
  </separator>
  <separator name="miscellaneous" >
   <i type="int" name="IDIOT">     3</i>
   <i type="logical" name="LMUSIC"> F  </i>
   <v name="POMASS">    180.94800000</v>
   <v name="DARWINR">      0.00000000</v>
   <v name="DARWINV">      1.00000000</v>
   <i type="logical" name="LCORR"> T  </i>
  </separator>
  <i type="logical" name="GGA_COMPAT"> T  </i>
  <i type="logical" name="LBERRY"> F  </i>
  <i type="int" name="ICORELEVEL">     0</i>
  <i type="logical" name="LDAU"> F  </i>
  <i type="int" name="I_CONSTRAINED_M">     0</i>
  <separator name="electronic exchange-correlation" >
   <i type="string" name="GGA">--</i>
   <i type="int" name="VOSKOWN">     0</i>
   <i type="logical" name="LHFCALC"> F  </i>
   <i type="string" name="PRECFOCK"></i>
   <i type="logical" name="LHFONE"> F  </i>
   <i type="logical" name="LRHFCALC"> F  </i>
   <i type="logical" name="LTHOMAS"> F  </i>
   <i type="logical" name="LMODELHF"> F  </i>
   <i name="ENCUT4O">     -1.00000000</i>
   <i type="int" name="EXXOEP">     0</i>
   <i type="int" name="FOURORBIT">     0</i>
   <i name="AEXX">      0.00000000</i>
   <i name="HFALPHA">      0.00000000</i>
   <i name="ALDAX">      1.00000000</i>
   <i name="AGGAX">      1.00000000</i>
   <i name="ALDAC">      1.00000000</i>
   <i name="AGGAC">      1.00000000</i>
   <i type="int" name="NKREDX">     1</i>
   <i type="int" name="NKREDY">     1</i>
   <i type="int" name="NKREDZ">     1</i>
   <i type="logical" name="SHIFTRED"> F  </i>
   <i type="logical" name="ODDONLY"> F  </i>
   <i type="logical" name="EVENONLY"> F  </i>
   <i type="int" name="LMAXFOCK">     0</i>
   <i type="int" name="NMAXFOCKAE">     0</i>
   <i type="logical" name="LFOCKAEDFT"> F  </i>
   <i name="HFSCREEN">      0.00000000</i>
   <i name="HFSCREENC">      0.00000000</i>
  </separator>
  <separator name="vdW DFT" >
   <i type="logical" name="LUSE_VDW"> F  </i>
   <i name="Zab_VDW">     -0.84910000</i>
   <i name="PARAM1">      0.12340000</i>
   <i name="PARAM2">      1.00000000</i>
   <i name="PARAM3">      0.00000000</i>
  </separator>
  <separator name="model GW" >
   <i type="int" name="MODEL_GW">     0</i>
   <i name="MODEL_EPS0">     10.87940730</i>
   <i name="MODEL_ALPHA">      1.00000000</i>
  </separator>
  <separator name="linear response parameters" >
   <i type="logical" name="LEPSILON"> F  </i>
   <i type="logical" name="LRPA"> F  </i>
   <i type="logical" name="LNABLA"> F  </i>
   <i type="logical" name="LVEL"> F  </i>
   <i type="int" name="KINTER">     0</i>
   <i name="CSHIFT">      0.10000000</i>
   <i name="OMEGAMAX">     -1.00000000</i>
  </separator>
  <separator name="orbital magnetization" >
   <i type="logical" name="NUCIND"> F  </i>
   <v name="MAGPOS">      0.00000000      0.00000000      0.00000000</v>
   <i type="logical" name="LNICSALL"> T  </i>
   <i type="logical" name="ORBITALMAG"> F  </i>
   <i type="logical" name="LMAGBLOCH"> F  </i>
   <i type="logical" name="LCHIMAG"> F  </i>
   <i type="logical" name="LGAUGE"> T  </i>
   <i type="int" name="MAGATOM">     0</i>
   <v name="MAGDIPOL">      0.00000000      0.00000000      0.00000000</v>
   <v name="AVECCONST">      0.00000000      0.00000000      0.00000000</v>
  </separator>
  <separator name="response functions" >
   <i type="logical" name="LADDER"> F  </i>
   <i type="logical" name="LHARTREE"> T  </i>
   <i type="int" name="IBSE">     0</i>
   <i type="logical" name="LTCTE"> F  </i>
   <i type="logical" name="LTETE"> F  </i>
   <i type="logical" name="LFXCEPS"> F  </i>
   <i type="logical" name="L2ORDER"> F  </i>
   <i type="logical" name="LUSEW"> F  </i>
   <i name="ENCUTGW">     -2.00000000</i>
   <i name="ENCUTGWSOFT">     -2.00000000</i>
   <i name="ENCUTLF">     -1.00000000</i>
   <i type="int" name="LMAXMP2">    -1</i>
   <i name="SCISSOR">      0.00000000</i>
   <i type="int" name="NOMEGA">     0</i>
   <i type="int" name="NOMEGAR">     0</i>
   <i type="int" name="NBANDSGW">    -1</i>
   <i type="int" name="NBANDSO">    -1</i>
   <i type="int" name="NBANDSV">    -1</i>
   <i name="OPTEMAX">      0.00000000</i>
   <i type="int" name="NELM">     1</i>
   <i type="int" name="DIM">     3</i>
   <i type="int" name="ANTIRES">     0</i>
   <i name="OMEGAMAX">    -30.00000000</i>
   <i name="OMEGATL">   -200.00000000</i>
   <i type="int" name="OMEGAGRID">     0</i>
   <i name="CSHIFT">     -0.10000000</i>
   <i type="logical" name="SELFENERGY"> F  </i>
   <i type="logical" name="LSPECTRAL"> F  </i>
   <i type="logical" name="ODDONLYGW"> F  </i>
   <i type="logical" name="EVENONLYGW"> F  </i>
   <i type="int" name="NKREDLFX">     1</i>
   <i type="int" name="NKREDLFY">     1</i>
   <i type="int" name="NKREDLFZ">     1</i>
   <i type="int" name="MAXMEM">  1800</i>
   <i type="int" name="TELESCOPE">     0</i>
  </separator>
 </parameters>
 <atominfo>
  <atoms>       1 </atoms>
  <types>       1 </types>
  <array name="atoms" >
   <dimension dim="1">ion</dimension>
   <field type="string">element</field>
   <field type="int">atomtype</field>
   <set>
    <rc><c>Ta</c><c>   1</c></rc>
   </set>
  </array>
  <array name="atomtypes" >
   <dimension dim="1">type</dimension>
   <field type="int">atomspertype</field>
   <field type="string">element</field>
   <field>mass</field>
   <field>valence</field>
   <field type="string">pseudopotential</field>
   <set>
    <rc><c>   1</c><c>Ta</c><c>    180.94800000</c><c>      5.00000000</c><c>  PAW_PBE Ta 17Jan2003                  </c></rc>
   </set>
  </array>
 </atominfo>
 <structure name="initialpos" >
  <crystal>
   <varray name="basis" >
    <v>       2.86654409       0.00000000       0.00000000 </v>
    <v>      -0.95551470       2.70260368       0.00000000 </v>
    <v>      -0.95551470      -1.35130184       2.34052345 </v>
   </varray>
   <i name="volume">     18.13234550 </i>
   <varray name="rec_basis" >
    <v>       0.34885213       0.12333785       0.21362743 </v>
    <v>       0.00000000       0.37001356       0.21362743 </v>
    <v>       0.00000000       0.00000000       0.42725485 </v>
   </varray>
  </crystal>
  <varray name="positions" >
   <v>       0.00000000       0.00000000       0.00000000 </v>
  </varray>
 </structure>
 <calculation>
  <scstep>
   <time name="dav">    0.37    0.39</time>
   <time name="total">    0.45    0.60</time>
   <energy>
    <i name="alphaZ">     30.58334069 </i>
    <i name="ewald">   -197.90100875 </i>
    <i name="hartreedc">     -2.50452612 </i>
    <i name="XCdc">    -66.68582559 </i>
    <i name="pawpsdc">    148.27821850 </i>
    <i name="pawaedc">    -73.99089003 </i>
    <i name="eentropy">     -0.00032115 </i>
    <i name="bandstr">     26.89937607 </i>
    <i name="atom">    130.63852721 </i>
    <i name="e_fr_energy">     -4.68310916 </i>
    <i name="e_wo_entrp">     -4.68278801 </i>
    <i name="e_0_energy">     -4.68300211 </i>
   </energy>
  </scstep>
  <scstep>
   <time name="dav">    0.57    0.78</time>
   <time name="total">    0.57    0.79</time>
   <energy>
    <i name="e_fr_energy">    -12.30937391 </i>
    <i name="e_wo_entrp">    -12.30854732 </i>
    <i name="e_0_energy">    -12.30909838 </i>
   </energy>
  </scstep>
  <scstep>
   <time name="dav">    0.38    0.61</time>
   <time name="total">    0.38    0.67</time>
   <energy>
    <i name="e_fr_energy">    -12.34386667 </i>
    <i name="e_wo_entrp">    -12.34326619 </i>
    <i name="e_0_energy">    -12.34366651 </i>
   </energy>
  </scstep>
  <scstep>
   <time name="dav">    0.48    0.81</time>
   <time name="total">    0.49    0.83</time>
   <energy>
    <i name="e_fr_energy">    -12.34393964 </i>
    <i name="e_wo_entrp">    -12.34334034 </i>
    <i name="e_0_energy">    -12.34373987 </i>
   </energy>
  </scstep>
  <scstep>
   <time name="dav">    0.32    0.54</time>
   <time name="total">    0.36    0.61</time>
   <energy>
    <i name="e_fr_energy">    -12.34393978 </i>
    <i name="e_wo_entrp">    -12.34334047 </i>
    <i name="e_0_energy">    -12.34374001 </i>
   </energy>
  </scstep>
  <scstep>
   <time name="dav">    0.41    0.70</time>
   <time name="total">    0.52    1.05</time>
   <energy>
    <i name="e_fr_energy">    -12.01323458 </i>
    <i name="e_wo_entrp">    -12.01313572 </i>
    <i name="e_0_energy">    -12.01320163 </i>
   </energy>
  </scstep>
  <scstep>
   <time name="dav">    0.42    0.55</time>
   <time name="total">    0.52    0.68</time>
   <energy>
    <i name="e_fr_energy">    -11.86189358 </i>
    <i name="e_wo_entrp">    -11.86242981 </i>
    <i name="e_0_energy">    -11.86207233 </i>
   </energy>
  </scstep>
  <scstep>
   <time name="dav">    0.42    0.51</time>
   <time name="total">    0.54    0.66</time>
   <energy>
    <i name="e_fr_energy">    -11.86088178 </i>
    <i name="e_wo_entrp">    -11.86149484 </i>
    <i name="e_0_energy">    -11.86108613 </i>
   </energy>
  </scstep>
  <scstep>
   <time name="dav">    0.29    0.34</time>
   <time name="total">    0.35    0.53</time>
   <energy>
    <i name="alphaZ">     30.58334069 </i>
    <i name="ewald">   -197.90100875 </i>
    <i name="hartreedc">     -0.58718781 </i>
    <i name="XCdc">    -65.99868130 </i>
    <i name="pawpsdc">    195.17253794 </i>
    <i name="pawaedc">   -121.75135088 </i>
    <i name="eentropy">      0.00061734 </i>
    <i name="bandstr">     17.98231116 </i>
    <i name="atom">    130.63852721 </i>
    <i name="e_fr_energy">    -11.86089439 </i>
    <i name="e_wo_entrp">    -11.86151173 </i>
    <i name="e_0_energy">    -11.86110017 </i>
   </energy>
  </scstep>
  <parameters_embedded>
   <separator name="dft+d2" >
    <i type="logical" name="LVDW"> F  </i>
   </separator>
  </parameters_embedded>
  <structure>
   <crystal>
    <varray name="basis" >
     <v>       2.86654409       0.00000000       0.00000000 </v>
     <v>      -0.95551470       2.70260368       0.00000000 </v>
     <v>      -0.95551470      -1.35130184       2.34052345 </v>
    </varray>
    <i name="volume">     18.13234550 </i>
    <varray name="rec_basis" >
     <v>       0.34885213       0.12333785       0.21362743 </v>
     <v>       0.00000000       0.37001356       0.21362743 </v>
     <v>       0.00000000       0.00000000       0.42725485 </v>
    </varray>
   </crystal>
   <varray name="positions" >
    <v>       0.00000000       0.00000000       0.00000000 </v>
   </varray>
  </structure>
  <varray name="forces" >
   <v>       0.00000000       0.00000000       0.00000000 </v>
  </varray>
  <varray name="stress" >
   <v>     -11.72527055       0.00000000       0.00000000 </v>
   <v>       0.00000000     -11.72527055       0.00000000 </v>
   <v>       0.00000000       0.00000000     -11.72527055 </v>
  </varray>
  <energy>
   <i name="e_fr_energy">    -11.86089439 </i>
   <i name="e_wo_entrp">    -11.86110017 </i>
   <i name="e_0_energy">      0.00061734 </i>
  </energy>
  <time name="totalsc">    4.90    9.33</time>
  <eigenvalues>
   <array>
    <dimension dim="1">band</dimension>
    <dimension dim="2">kpoint</dimension>
    <dimension dim="3">spin</dimension>
    <field>eigene</field>
    <field>occ</field>
    <set>
     <set comment="spin 1">
      <set comment="kpoint 1">
       <r>   -1.5472    1.0000 </r>
       <r>    6.0895    0.0000 </r>
       <r>    6.0895    0.0000 </r>
       <r>    7.2040    0.0000 </r>
       <r>    9.4446    0.0000 </r>
       <r>    9.4446    0.0000 </r>
      </set>
      <set comment="kpoint 2">
       <r>   -0.4245    1.0000 </r>
       <r>    5.4170    1.0000 </r>
       <r>    5.6001    1.0274 </r>
       <r>    8.5526    0.0000 </r>
       <r>    9.1285    0.0000 </r>
       <r>    9.7128    0.0000 </r>
      </set>
      <set comment="kpoint 3">
       <r>    0.9016    1.0000 </r>
       <r>    4.7603    1.0000 </r>
       <r>    5.2980    1.0000 </r>
       <r>    9.3470    0.0000 </r>
       <r>   10.0406    0.0000 </r>
       <r>   10.5246    0.0000 </r>
      </set>
      <set comment="kpoint 4">
       <r>    1.5314    1.0000 </r>
       <r>    4.3109    1.0000 </r>
       <r>    6.1089    0.0000 </r>
       <r>    9.6696    0.0000 </r>
       <r>   10.4045    0.0000 </r>
       <r>   12.6597    0.0000 </r>
      </set>
      <set comment="kpoint 5">
       <r>    1.5892    1.0000 </r>
       <r>    4.1530    1.0000 </r>
       <r>    6.9846    0.0000 </r>
       <r>    9.6506    0.0000 </r>
       <r>   10.5885    0.0000 </r>
       <r>   13.8053    0.0000 </r>
      </set>
      <set comment="kpoint 6">
       <r>   -1.9630    1.0000 </r>
       <r>    6.4079    0.0000 </r>
       <r>    6.4080    0.0000 </r>
       <r>    6.5451    0.0000 </r>
       <r>    9.3082    0.0000 </r>
       <r>    9.8051    0.0000 </r>
      </set>
      <set comment="kpoint 7">
       <r>    0.8460    1.0000 </r>
       <r>    4.8709    1.0000 </r>
       <r>    4.9438    1.0000 </r>
       <r>    9.2037    0.0000 </r>
       <r>   10.0859    0.0000 </r>
       <r>   10.4491    0.0000 </r>
      </set>
      <set comment="kpoint 8">
       <r>    2.0130    1.0000 </r>
       <r>    4.3994    1.0000 </r>
       <r>    4.9756    1.0000 </r>
       <r>    9.5048    0.0000 </r>
       <r>   10.4285    0.0000 </r>
       <r>   12.6746    0.0000 </r>
      </set>
      <set comment="kpoint 9">
       <r>    2.2917    1.0000 </r>
       <r>    4.1852    1.0000 </r>
       <r>    5.9400    0.0000 </r>
       <r>    9.7567    0.0000 </r>
       <r>   10.6298    0.0000 </r>
       <r>   14.5277    0.0000 </r>
      </set>
      <set comment="kpoint 10">
       <r>   -1.1466    1.0000 </r>
       <r>    5.9543    0.0000 </r>
       <r>    6.1827    0.0000 </r>
       <r>    7.3578    0.0000 </r>
       <r>    8.6266    0.0000 </r>
       <r>    9.9879    0.0000 </r>
      </set>
      <set comment="kpoint 11">
       <r>    2.9327    1.0000 </r>
       <r>    4.2931    1.0000 </r>
       <r>    5.0114    1.0000 </r>
       <r>    9.8192    0.0000 </r>
       <r>   10.5265    0.0000 </r>
       <r>   14.9583    0.0000 </r>
      </set>
      <set comment="kpoint 12">
       <r>    3.1141    1.0000 </r>
       <r>    4.3774    1.0000 </r>
       <r>    5.2520    1.0000 </r>
       <r>   10.0584    0.0000 </r>
       <r>   10.5711    0.0000 </r>
       <r>   14.3802    0.0000 </r>
      </set>
      <set comment="kpoint 13">
       <r>    0.1750    1.0000 </r>
       <r>    5.2665    1.0000 </r>
       <r>    5.6113    1.0350 </r>
       <r>    8.6517    0.0000 </r>
       <r>    8.9704    0.0000 </r>
       <r>   10.1840    0.0000 </r>
      </set>
      <set comment="kpoint 14">
       <r>   -0.0642    1.0000 </r>
       <r>    5.6292    1.0155 </r>
       <r>    5.7005    0.1286 </r>
       <r>    8.0693    0.0000 </r>
       <r>    8.4767    0.0000 </r>
       <r>   10.3871    0.0000 </r>
      </set>
      <set comment="kpoint 15">
       <r>    1.2133    1.0000 </r>
       <r>    4.6723    1.0000 </r>
       <r>    5.6939    0.2101 </r>
       <r>    9.1845    0.0000 </r>
       <r>   10.4119    0.0000 </r>
       <r>   11.1056    0.0000 </r>
      </set>
      <set comment="kpoint 16">
       <r>    1.2394    1.0000 </r>
       <r>    4.9192    1.0000 </r>
       <r>    5.3511    1.0000 </r>
       <r>    8.3712    0.0000 </r>
       <r>   10.3046    0.0000 </r>
       <r>   10.6898    0.0000 </r>
      </set>
      <set comment="kpoint 17">
       <r>    1.4569    1.0000 </r>
       <r>    4.3404    1.0000 </r>
       <r>    6.6967    0.0000 </r>
       <r>    9.3434    0.0000 </r>
       <r>   10.7812    0.0000 </r>
       <r>   13.0528    0.0000 </r>
      </set>
      <set comment="kpoint 18">
       <r>    1.8965    1.0000 </r>
       <r>    4.6178    1.0000 </r>
       <r>    5.5975    1.0250 </r>
       <r>    8.9102    0.0000 </r>
       <r>   10.7248    0.0000 </r>
       <r>   12.6933    0.0000 </r>
      </set>
      <set comment="kpoint 19">
       <r>    2.3631    1.0000 </r>
       <r>    4.3233    1.0000 </r>
       <r>    5.3569    1.0000 </r>
       <r>    8.6778    0.0000 </r>
       <r>   10.4300    0.0000 </r>
       <r>   12.7648    0.0000 </r>
      </set>
      <set comment="kpoint 20">
       <r>    1.9527    1.0000 </r>
       <r>    4.5163    1.0000 </r>
       <r>    6.0913    0.0000 </r>
       <r>    8.8636    0.0000 </r>
       <r>   11.2329    0.0000 </r>
       <r>   13.9450    0.0000 </r>
      </set>
      <set comment="kpoint 21">
       <r>    2.8335    1.0000 </r>
       <r>    4.3817    1.0000 </r>
       <r>    5.2214    1.0000 </r>
       <r>    9.1467    0.0000 </r>
       <r>   10.6510    0.0000 </r>
       <r>   15.0551    0.0000 </r>
      </set>
      <set comment="kpoint 22">
       <r>    3.4934    1.0000 </r>
       <r>    4.4794    1.0000 </r>
       <r>    4.4794    1.0000 </r>
       <r>   10.1094    0.0000 </r>
       <r>   10.1094    0.0000 </r>
       <r>   14.6716    0.0000 </r>
      </set>
      <set comment="kpoint 23">
       <r>    2.2327    1.0000 </r>
       <r>    4.3868    1.0000 </r>
       <r>    4.3868    1.0000 </r>
       <r>   10.0530    0.0000 </r>
       <r>   10.0530    0.0000 </r>
       <r>   12.7822    0.0000 </r>
      </set>
      <set comment="kpoint 24">
       <r>    3.1407    1.0000 </r>
       <r>    4.1406    1.0000 </r>
       <r>    4.7837    1.0000 </r>
       <r>   10.2195    0.0000 </r>
       <r>   10.5302    0.0000 </r>
       <r>   14.9694    0.0000 </r>
      </set>
      <set comment="kpoint 25">
       <r>    3.1487    1.0000 </r>
       <r>    4.0684    1.0000 </r>
       <r>    5.6059    1.0321 </r>
       <r>   10.2796    0.0000 </r>
       <r>   10.6824    0.0000 </r>
       <r>   14.3660    0.0000 </r>
      </set>
      <set comment="kpoint 26">
       <r>   -0.3694    1.0000 </r>
       <r>    6.3656    0.0000 </r>
       <r>    6.3656    0.0000 </r>
       <r>    7.1699    0.0000 </r>
       <r>    7.3642    0.0000 </r>
       <r>   10.5833    0.0000 </r>
      </set>
      <set comment="kpoint 27">
       <r>    3.7425    1.0000 </r>
       <r>    4.4030    1.0000 </r>
       <r>    4.8316    1.0000 </r>
       <r>   10.5328    0.0000 </r>
       <r>   10.6630    0.0000 </r>
       <r>   13.6575    0.0000 </r>
      </set>
      <set comment="kpoint 28">
       <r>    0.8933    1.0000 </r>
       <r>    5.5141    1.0000 </r>
       <r>    6.0079    0.0000 </r>
       <r>    7.2359    0.0000 </r>
       <r>    8.7240    0.0000 </r>
       <r>   10.7870    0.0000 </r>
      </set>
      <set comment="kpoint 29">
       <r>    1.9385    1.0000 </r>
       <r>    4.8887    1.0000 </r>
       <r>    5.5006    1.0000 </r>
       <r>    8.0394    0.0000 </r>
       <r>   10.8507    0.0000 </r>
       <r>   10.8908    0.0000 </r>
      </set>
      <set comment="kpoint 30">
       <r>    2.0633    1.0000 </r>
       <r>    4.5706    1.0000 </r>
       <r>    6.1421    0.0000 </r>
       <r>    7.5178    0.0000 </r>
       <r>    9.9812    0.0000 </r>
       <r>   10.9518    0.0000 </r>
      </set>
      <set comment="kpoint 31">
       <r>    2.1621    1.0000 </r>
       <r>    5.2022    1.0000 </r>
       <r>    5.2599    1.0000 </r>
       <r>    8.0143    0.0000 </r>
       <r>   11.9889    0.0000 </r>
       <r>   12.8501    0.0000 </r>
      </set>
      <set comment="kpoint 32">
       <r>    2.7687    1.0000 </r>
       <r>    4.1854    1.0000 </r>
       <r>    5.7437   -0.0330 </r>
       <r>    8.1517    0.0000 </r>
       <r>   10.7205    0.0000 </r>
       <r>   12.9087    0.0000 </r>
      </set>
      <set comment="kpoint 33">
       <r>    2.7812    1.0000 </r>
       <r>    4.5645    1.0000 </r>
       <r>    5.2969    1.0000 </r>
       <r>    8.1464    0.0000 </r>
       <r>   11.7566    0.0000 </r>
       <r>   14.5640    0.0000 </r>
      </set>
      <set comment="kpoint 34">
       <r>    3.6496    1.0000 </r>
       <r>    3.7110    1.0000 </r>
       <r>    4.9728    1.0000 </r>
       <r>    9.4141    0.0000 </r>
       <r>   10.5830    0.0000 </r>
       <r>   15.3676    0.0000 </r>
      </set>
      <set comment="kpoint 35">
       <r>    4.4727    1.0000 </r>
       <r>    4.4727    1.0000 </r>
       <r>    4.4727    1.0000 </r>
       <r>   10.7417    0.0000 </r>
       <r>   10.7417    0.0000 </r>
       <r>   12.7420    0.0000 </r>
      </set>
      <set comment="kpoint 36">
       <r>    1.9705    1.0000 </r>
       <r>    4.7871    1.0000 </r>
       <r>    6.9556    0.0000 </r>
       <r>    6.9556    0.0000 </r>
       <r>    8.8828    0.0000 </r>
       <r>   10.6856    0.0000 </r>
      </set>
      <set comment="kpoint 37">
       <r>    2.7939    1.0000 </r>
       <r>    3.8573    1.0000 </r>
       <r>    7.0151    0.0000 </r>
       <r>    7.6060    0.0000 </r>
       <r>   10.5446    0.0000 </r>
       <r>   10.8349    0.0000 </r>
      </set>
      <set comment="kpoint 38">
       <r>    2.8293    1.0000 </r>
       <r>    3.7712    1.0000 </r>
       <r>    6.8449    0.0000 </r>
       <r>    7.4891    0.0000 </r>
       <r>   12.5401    0.0000 </r>
       <r>   12.8234    0.0000 </r>
      </set>
      <set comment="kpoint 39">
       <r>    3.1209    1.0000 </r>
       <r>    3.1829    1.0000 </r>
       <r>    6.8565    0.0000 </r>
       <r>    8.8329    0.0000 </r>
       <r>   10.8147    0.0000 </r>
       <r>   12.9267    0.0000 </r>
      </set>
      <set comment="kpoint 40">
       <r>    2.9116    1.0000 </r>
       <r>    3.2360    1.0000 </r>
       <r>    6.5790    0.0000 </r>
       <r>    9.3485    0.0000 </r>
       <r>   11.6592    0.0000 </r>
       <r>   15.2700    0.0000 </r>
      </set>
      <set comment="kpoint 41">
       <r>    2.8983    1.0000 </r>
       <r>    2.9977    1.0000 </r>
       <r>    8.6120    0.0000 </r>
       <r>    8.6120    0.0000 </r>
       <r>   10.7662    0.0000 </r>
       <r>   10.9436    0.0000 </r>
      </set>
      <set comment="kpoint 42">
       <r>    2.5182    1.0000 </r>
       <r>    2.6811    1.0000 </r>
       <r>    9.0763    0.0000 </r>
       <r>    9.0832    0.0000 </r>
       <r>   12.2588    0.0000 </r>
       <r>   13.0704    0.0000 </r>
      </set>
      <set comment="kpoint 43">
       <r>    2.3645    1.0000 </r>
       <r>    2.3645    1.0000 </r>
       <r>    9.0084    0.0000 </r>
       <r>   11.4367    0.0000 </r>
       <r>   11.4367    0.0000 </r>
       <r>   15.5786    0.0000 </r>
      </set>
      <set comment="kpoint 44">
       <r>    2.0620    1.0000 </r>
       <r>    2.1088    1.0000 </r>
       <r>   11.3399    0.0000 </r>
       <r>   11.3399    0.0000 </r>
       <r>   12.2476    0.0000 </r>
       <r>   13.5518    0.0000 </r>
      </set>
     </set>
    </set>
   </array>
  </eigenvalues>
  <separator name="orbital magnetization" >
   <v name="MAGDIPOLOUT">      0.00000000      0.00000000      0.00000000</v>
  </separator>
  <dos>
   <i name="efermi">      5.67543236 </i>
   <total>
    <array>
     <dimension dim="1">gridpoints</dimension>
     <dimension dim="2">spin</dimension>
     <field>energy</field>
     <field>total</field>
     <field>integrated</field>
     <set>
      <set comment="spin 1">
       <r>    -2.8401     0.0000     0.0000 </r>
       <r>    -2.7758     0.0000     0.0000 </r>
       <r>    -2.7115     0.0000     0.0000 </r>
       <r>    -2.6471     0.0000     0.0000 </r>
       <r>    -2.5828     0.0000     0.0000 </r>
       <r>    -2.5185     0.0000     0.0000 </r>
       <r>    -2.4542     0.0000     0.0000 </r>
       <r>    -2.3899     0.0000     0.0000 </r>
       <r>    -2.3255     0.0000     0.0000 </r>
       <r>    -2.2612     0.0000     0.0000 </r>
       <r>    -2.1969     0.0000     0.0000 </r>
       <r>    -2.1326     0.0000     0.0000 </r>
       <r>    -2.0683    -0.0010    -0.0001 </r>
       <r>    -2.0039     0.0020     0.0001 </r>
       <r>    -1.9396     0.1579     0.0102 </r>
       <r>    -1.8753     0.0307     0.0122 </r>
       <r>    -1.8110    -0.0030     0.0120 </r>
       <r>    -1.7467     0.0000     0.0120 </r>
       <r>    -1.6823    -0.0001     0.0120 </r>
       <r>    -1.6180    -0.0076     0.0115 </r>
       <r>    -1.5537     0.1050     0.0183 </r>
       <r>    -1.4894     0.1602     0.0286 </r>
       <r>    -1.4251    -0.0083     0.0280 </r>
       <r>    -1.3608    -0.0004     0.0280 </r>
       <r>    -1.2964    -0.0001     0.0280 </r>
       <r>    -1.2321    -0.0134     0.0271 </r>
       <r>    -1.1678     0.1437     0.0364 </r>
       <r>    -1.1035     0.6193     0.0762 </r>
       <r>    -1.0392     0.0003     0.0762 </r>
       <r>    -0.9748    -0.0036     0.0760 </r>
       <r>    -0.9105     0.0000     0.0760 </r>
       <r>    -0.8462     0.0000     0.0760 </r>
       <r>    -0.7819     0.0000     0.0760 </r>
       <r>    -0.7176     0.0000     0.0760 </r>
       <r>    -0.6532     0.0000     0.0760 </r>
       <r>    -0.5889     0.0000     0.0760 </r>
       <r>    -0.5246    -0.0059     0.0756 </r>
       <r>    -0.4603     0.0291     0.0775 </r>
       <r>    -0.3960     0.6740     0.1208 </r>
       <r>    -0.3316     0.2407     0.1363 </r>
       <r>    -0.2673    -0.0037     0.1361 </r>
       <r>    -0.2030    -0.0016     0.1360 </r>
       <r>    -0.1387    -0.0208     0.1346 </r>
       <r>    -0.0744     0.2692     0.1520 </r>
       <r>    -0.0100     0.5218     0.1855 </r>
       <r>     0.0543    -0.0235     0.1840 </r>
       <r>     0.1186    -0.0255     0.1824 </r>
       <r>     0.1829     0.4965     0.2143 </r>
       <r>     0.2472     0.2975     0.2334 </r>
       <r>     0.3115    -0.0221     0.2320 </r>
       <r>     0.3759    -0.0003     0.2320 </r>
       <r>     0.4402     0.0000     0.2320 </r>
       <r>     0.5045     0.0000     0.2320 </r>
       <r>     0.5688     0.0000     0.2320 </r>
       <r>     0.6331     0.0000     0.2320 </r>
       <r>     0.6975    -0.0001     0.2320 </r>
       <r>     0.7618    -0.0150     0.2310 </r>
       <r>     0.8261     0.1125     0.2383 </r>
       <r>     0.8904     1.2282     0.3173 </r>
       <r>     0.9547     0.9657     0.3794 </r>
       <r>     1.0191    -0.0500     0.3762 </r>
       <r>     1.0834    -0.0031     0.3760 </r>
       <r>     1.1477    -0.0447     0.3731 </r>
       <r>     1.2120     0.5583     0.4090 </r>
       <r>     1.2763     1.7109     0.5190 </r>
       <r>     1.3407     0.0248     0.5206 </r>
       <r>     1.4050    -0.0320     0.5186 </r>
       <r>     1.4693     0.5199     0.5520 </r>
       <r>     1.5336     0.6565     0.5942 </r>
       <r>     1.5979     0.6048     0.6331 </r>
       <r>     1.6622     0.1181     0.6407 </r>
       <r>     1.7266    -0.0113     0.6400 </r>
       <r>     1.7909    -0.0084     0.6395 </r>
       <r>     1.8552    -0.0088     0.6389 </r>
       <r>     1.9195     1.4506     0.7322 </r>
       <r>     1.9838     1.7764     0.8465 </r>
       <r>     2.0482     1.6461     0.9523 </r>
       <r>     2.1125     0.8618     1.0078 </r>
       <r>     2.1768     0.6127     1.0472 </r>
       <r>     2.2411     0.3357     1.0688 </r>
       <r>     2.3054     1.1569     1.1432 </r>
       <r>     2.3698     1.2346     1.2226 </r>
       <r>     2.4341     0.4824     1.2536 </r>
       <r>     2.4984     0.1191     1.2613 </r>
       <r>     2.5627     0.6079     1.3004 </r>
       <r>     2.6270    -0.0265     1.2987 </r>
       <r>     2.6914     0.4655     1.3286 </r>
       <r>     2.7557     0.8003     1.3801 </r>
       <r>     2.8200     3.0870     1.5786 </r>
       <r>     2.8843     1.8354     1.6967 </r>
       <r>     2.9486     1.2851     1.7793 </r>
       <r>     3.0129     0.3492     1.8018 </r>
       <r>     3.0773     0.0130     1.8026 </r>
       <r>     3.1416     1.8224     1.9198 </r>
       <r>     3.2059     1.5643     2.0205 </r>
       <r>     3.2702     0.7186     2.0667 </r>
       <r>     3.3345     0.0272     2.0684 </r>
       <r>     3.3989    -0.0094     2.0678 </r>
       <r>     3.4632     0.0221     2.0692 </r>
       <r>     3.5275     0.2167     2.0832 </r>
       <r>     3.5918    -0.0124     2.0824 </r>
       <r>     3.6561     0.4409     2.1107 </r>
       <r>     3.7205     0.9464     2.1716 </r>
       <r>     3.7848     1.4148     2.2626 </r>
       <r>     3.8491     0.5022     2.2949 </r>
       <r>     3.9134     0.4775     2.3256 </r>
       <r>     3.9777    -0.0292     2.3237 </r>
       <r>     4.0421     0.0386     2.3262 </r>
       <r>     4.1064     0.2868     2.3447 </r>
       <r>     4.1707     1.8186     2.4617 </r>
       <r>     4.2350     2.3646     2.6137 </r>
       <r>     4.2993     0.6982     2.6586 </r>
       <r>     4.3636     2.8508     2.8420 </r>
       <r>     4.4280     4.1786     3.1108 </r>
       <r>     4.4923     0.8123     3.1630 </r>
       <r>     4.5566     1.2587     3.2440 </r>
       <r>     4.6209     1.9119     3.3669 </r>
       <r>     4.6852     1.1939     3.4437 </r>
       <r>     4.7496     0.4728     3.4741 </r>
       <r>     4.8139     1.4502     3.5674 </r>
       <r>     4.8782     1.3856     3.6565 </r>
       <r>     4.9425     2.5914     3.8232 </r>
       <r>     5.0068     2.9165     4.0108 </r>
       <r>     5.0712     0.5650     4.0471 </r>
       <r>     5.1355    -0.1029     4.0405 </r>
       <r>     5.1998     0.5619     4.0767 </r>
       <r>     5.2641     3.0955     4.2758 </r>
       <r>     5.3284     2.6307     4.4450 </r>
       <r>     5.3928     2.0624     4.5776 </r>
       <r>     5.4571     0.6351     4.6185 </r>
       <r>     5.5214     1.0256     4.6844 </r>
       <r>     5.5857     1.3367     4.7704 </r>
       <r>     5.6500     3.1366     4.9722 </r>
       <r>     5.7144     1.4257     5.0639 </r>
       <r>     5.7787     1.6538     5.1702 </r>
       <r>     5.8430     0.0233     5.1717 </r>
       <r>     5.9073     0.0711     5.1763 </r>
       <r>     5.9716     1.9264     5.3002 </r>
       <r>     6.0359     0.8838     5.3570 </r>
       <r>     6.1003     1.1907     5.4336 </r>
       <r>     6.1646     1.7555     5.5465 </r>
       <r>     6.2289     0.6705     5.5897 </r>
       <r>     6.2932    -0.0350     5.5874 </r>
       <r>     6.3575     0.1361     5.5962 </r>
       <r>     6.4219     0.5294     5.6302 </r>
       <r>     6.4862     0.0842     5.6356 </r>
       <r>     6.5505     0.1860     5.6476 </r>
       <r>     6.6148     0.7168     5.6937 </r>
       <r>     6.6791     0.2081     5.7071 </r>
       <r>     6.7435     0.5791     5.7443 </r>
       <r>     6.8078     0.0004     5.7444 </r>
       <r>     6.8721     1.2123     5.8223 </r>
       <r>     6.9364     0.3510     5.8449 </r>
       <r>     7.0007     0.7843     5.8953 </r>
       <r>     7.0651     0.6597     5.9378 </r>
       <r>     7.1294    -0.0347     5.9355 </r>
       <r>     7.1937     0.2490     5.9516 </r>
       <r>     7.2580     0.8222     6.0044 </r>
       <r>     7.3223     0.1588     6.0146 </r>
       <r>     7.3866     0.7889     6.0654 </r>
       <r>     7.4510     0.1049     6.0721 </r>
       <r>     7.5153     0.9880     6.1357 </r>
       <r>     7.5796     0.6249     6.1759 </r>
       <r>     7.6439     0.6086     6.2150 </r>
       <r>     7.7082     0.0204     6.2163 </r>
       <r>     7.7726    -0.0051     6.2160 </r>
       <r>     7.8369     0.0000     6.2160 </r>
       <r>     7.9012    -0.0026     6.2158 </r>
       <r>     7.9655    -0.0401     6.2133 </r>
       <r>     8.0298     0.8618     6.2687 </r>
       <r>     8.0942     1.2898     6.3516 </r>
       <r>     8.1585     1.5786     6.4532 </r>
       <r>     8.2228     0.8560     6.5082 </r>
       <r>     8.2871    -0.0938     6.5022 </r>
       <r>     8.3514     0.3148     6.5224 </r>
       <r>     8.4158     1.1937     6.5992 </r>
       <r>     8.4801     0.4120     6.6257 </r>
       <r>     8.5444     0.6101     6.6650 </r>
       <r>     8.6087     0.8072     6.7169 </r>
       <r>     8.6730     1.7307     6.8282 </r>
       <r>     8.7373     1.1261     6.9006 </r>
       <r>     8.8017     0.2112     6.9142 </r>
       <r>     8.8660     1.1010     6.9850 </r>
       <r>     8.9303     1.7925     7.1003 </r>
       <r>     8.9946     0.9566     7.1619 </r>
       <r>     9.0589     0.5228     7.1955 </r>
       <r>     9.1233     1.7430     7.3076 </r>
       <r>     9.1876     2.3653     7.4597 </r>
       <r>     9.2519     0.8933     7.5172 </r>
       <r>     9.3162     0.2747     7.5348 </r>
       <r>     9.3805     2.0519     7.6668 </r>
       <r>     9.4449     0.9895     7.7305 </r>
       <r>     9.5092     1.2169     7.8087 </r>
       <r>     9.5735     0.6421     7.8500 </r>
       <r>     9.6378     0.1028     7.8567 </r>
       <r>     9.7021     1.1426     7.9301 </r>
       <r>     9.7665     1.5892     8.0324 </r>
       <r>     9.8308     1.2145     8.1105 </r>
       <r>     9.8951     0.2110     8.1240 </r>
       <r>     9.9594     0.1657     8.1347 </r>
       <r>    10.0237     1.5148     8.2321 </r>
       <r>    10.0881     2.2217     8.3750 </r>
       <r>    10.1524     0.8900     8.4323 </r>
       <r>    10.2167     0.9408     8.4928 </r>
       <r>    10.2810     0.9261     8.5524 </r>
       <r>    10.3453     1.3296     8.6379 </r>
       <r>    10.4096     1.9614     8.7640 </r>
       <r>    10.4740     3.2194     8.9711 </r>
       <r>    10.5383     2.4222     9.1269 </r>
       <r>    10.6026     3.3343     9.3413 </r>
       <r>    10.6669     3.4620     9.5640 </r>
       <r>    10.7312     4.4676     9.8514 </r>
       <r>    10.7956     2.5556    10.0157 </r>
       <r>    10.8599     2.2278    10.1590 </r>
       <r>    10.9242     1.1214    10.2312 </r>
       <r>    10.9885     0.8078    10.2831 </r>
       <r>    11.0528    -0.0023    10.2830 </r>
       <r>    11.1172     0.5289    10.3170 </r>
       <r>    11.1815     0.2327    10.3320 </r>
       <r>    11.2458     0.5272    10.3659 </r>
       <r>    11.3101     0.2690    10.3832 </r>
       <r>    11.3744     0.2903    10.4018 </r>
       <r>    11.4388     0.3031    10.4213 </r>
       <r>    11.5031     0.2449    10.4371 </r>
       <r>    11.5674    -0.0263    10.4354 </r>
       <r>    11.6317     0.0860    10.4409 </r>
       <r>    11.6960     0.6224    10.4810 </r>
       <r>    11.7603     0.4729    10.5114 </r>
       <r>    11.8247     0.3455    10.5336 </r>
       <r>    11.8890    -0.0303    10.5316 </r>
       <r>    11.9533     0.0323    10.5337 </r>
       <r>    12.0176     0.6508    10.5756 </r>
       <r>    12.0819     0.0778    10.5806 </r>
       <r>    12.1463    -0.0129    10.5798 </r>
       <r>    12.2106    -0.0070    10.5793 </r>
       <r>    12.2749     0.7426    10.6271 </r>
       <r>    12.3392     0.2204    10.6412 </r>
       <r>    12.4035    -0.0196    10.6400 </r>
       <r>    12.4679    -0.0223    10.6386 </r>
       <r>    12.5322     0.2964    10.6576 </r>
       <r>    12.5965     0.4197    10.6846 </r>
       <r>    12.6608     0.9344    10.7447 </r>
       <r>    12.7251     2.8259    10.9265 </r>
       <r>    12.7895     0.9143    10.9853 </r>
       <r>    12.8538     1.2236    11.0640 </r>
       <r>    12.9181     1.7125    11.1741 </r>
       <r>    12.9824     0.9948    11.2381 </r>
       <r>    13.0467     0.3743    11.2622 </r>
       <r>    13.1110     1.1064    11.3333 </r>
       <r>    13.1754    -0.0156    11.3323 </r>
       <r>    13.2397    -0.0053    11.3320 </r>
       <r>    13.3040     0.0000    11.3320 </r>
       <r>    13.3683     0.0000    11.3320 </r>
       <r>    13.4326    -0.0004    11.3320 </r>
       <r>    13.4970    -0.0057    11.3316 </r>
       <r>    13.5613     0.1213    11.3394 </r>
       <r>    13.6256     0.1239    11.3474 </r>
       <r>    13.6899     0.6481    11.3891 </r>
       <r>    13.7542     0.0428    11.3918 </r>
       <r>    13.8186     0.2693    11.4091 </r>
       <r>    13.8829     0.0897    11.4149 </r>
       <r>    13.9472     0.4182    11.4418 </r>
       <r>    14.0115     0.3704    11.4656 </r>
       <r>    14.0758    -0.0248    11.4640 </r>
       <r>    14.1402    -0.0005    11.4640 </r>
       <r>    14.2045     0.0000    11.4640 </r>
       <r>    14.2688    -0.0062    11.4636 </r>
       <r>    14.3331     0.0135    11.4645 </r>
       <r>    14.3974     0.9162    11.5234 </r>
       <r>    14.4617     0.1597    11.5337 </r>
       <r>    14.5261     0.7576    11.5824 </r>
       <r>    14.5904     1.4792    11.6775 </r>
       <r>    14.6547     0.1075    11.6845 </r>
       <r>    14.7190     0.1842    11.6963 </r>
       <r>    14.7833    -0.0039    11.6961 </r>
       <r>    14.8477    -0.0048    11.6957 </r>
       <r>    14.9120    -0.0339    11.6936 </r>
       <r>    14.9763     1.0456    11.7608 </r>
       <r>    15.0406     0.9200    11.8200 </r>
       <r>    15.1049     1.0947    11.8904 </r>
       <r>    15.1693    -0.0387    11.8879 </r>
       <r>    15.2336     0.0236    11.8894 </r>
       <r>    15.2979     0.6254    11.9297 </r>
       <r>    15.3622     0.4132    11.9562 </r>
       <r>    15.4265     0.4579    11.9857 </r>
       <r>    15.4909    -0.0292    11.9838 </r>
       <r>    15.5552     0.0399    11.9864 </r>
       <r>    15.6195     0.2106    11.9999 </r>
       <r>    15.6838     0.0027    12.0001 </r>
       <r>    15.7481    -0.0014    12.0000 </r>
       <r>    15.8125     0.0000    12.0000 </r>
       <r>    15.8768     0.0000    12.0000 </r>
       <r>    15.9411     0.0000    12.0000 </r>
       <r>    16.0054     0.0000    12.0000 </r>
       <r>    16.0697     0.0000    12.0000 </r>
       <r>    16.1340     0.0000    12.0000 </r>
       <r>    16.1984     0.0000    12.0000 </r>
       <r>    16.2627     0.0000    12.0000 </r>
       <r>    16.3270     0.0000    12.0000 </r>
       <r>    16.3913     0.0000    12.0000 </r>
       <r>    16.4556     0.0000    12.0000 </r>
      </set>
     </set>
    </array>
   </total>
  </dos>
 </calculation>
 <structure name="finalpos" >
  <crystal>
   <varray name="basis" >
    <v>       2.86654409       0.00000000       0.00000000 </v>
    <v>      -0.95551470       2.70260368       0.00000000 </v>
    <v>      -0.95551470      -1.35130184       2.34052345 </v>
   </varray>
   <i name="volume">     18.13234550 </i>
   <varray name="rec_basis" >
    <v>       0.34885213       0.12333785       0.21362743 </v>
    <v>       0.00000000       0.37001356       0.21362743 </v>
    <v>       0.00000000       0.00000000       0.42725485 </v>
   </varray>
  </crystal>
  <varray name="positions" >
   <v>       0.00000000       0.00000000       0.00000000 </v>
  </varray>
 </structure>
</modeling>
