<?xml version="1.0" encoding="ISO-8859-1"?>
<modeling>
 <generator>
  <i name="program" type="string">vasp </i>
  <i name="version" type="string">5.2.12  </i>
  <i name="subversion" type="string">11Nov11 complex                                                      parallel </i>
  <i name="platform" type="string">LinuxIFC </i>
  <i name="date" type="string">2012 10 17 </i>
  <i name="time" type="string">10:12:41 </i>
 </generator>
 <incar>
  <i type="int" name="ISTART">     0</i>
  <i type="string" name="PREC">accurate</i>
  <i type="int" name="ISPIN">     2</i>
  <i name="ENCUT">    300.00000000</i>
  <i type="int" name="NBANDS">     6</i>
  <v name="MAGMOM">      6.00000000</v>
  <i type="logical" name="LREAL"> F  </i>
  <i type="int" name="ISMEAR">     1</i>
  <i name="SIGMA">      0.05000000</i>
  <i type="logical" name="LORBIT"> F  </i>
 </incar>
 <kpoints>
  <generation param="Monkhorst-Pack">
   <v type="int" name="divisions">      10       10       10 </v>
   <v name="usershift">      0.00000000       0.00000000       0.00000000 </v>
   <v name="genvec1">      0.10000000       0.00000000       0.00000000 </v>
   <v name="genvec2">      0.00000000       0.10000000       0.00000000 </v>
   <v name="genvec3">      0.00000000       0.00000000       0.10000000 </v>
   <v name="shift">      0.50000000       0.50000000       0.50000000 </v>
  </generation>
  <varray name="kpointlist" >
   <v>       0.05000000       0.05000000       0.05000000 </v>
   <v>       0.15000000       0.05000000       0.05000000 </v>
   <v>       0.25000000       0.05000000       0.05000000 </v>
   <v>       0.35000000       0.05000000       0.05000000 </v>
   <v>       0.45000000       0.05000000       0.05000000 </v>
   <v>      -0.05000000       0.05000000       0.05000000 </v>
   <v>       0.15000000       0.15000000       0.05000000 </v>
   <v>       0.25000000       0.15000000       0.05000000 </v>
   <v>       0.35000000       0.15000000       0.05000000 </v>
   <v>      -0.15000000       0.15000000       0.05000000 </v>
   <v>       0.25000000       0.25000000       0.05000000 </v>
   <v>       0.35000000       0.25000000       0.05000000 </v>
   <v>      -0.25000000       0.25000000       0.05000000 </v>
   <v>      -0.15000000       0.25000000       0.05000000 </v>
   <v>      -0.35000000       0.35000000       0.05000000 </v>
   <v>      -0.25000000       0.35000000       0.05000000 </v>
   <v>      -0.45000000       0.45000000       0.05000000 </v>
   <v>      -0.35000000       0.45000000       0.05000000 </v>
   <v>      -0.25000000       0.45000000       0.05000000 </v>
   <v>      -0.45000000      -0.45000000       0.05000000 </v>
   <v>      -0.35000000      -0.45000000       0.05000000 </v>
   <v>      -0.35000000      -0.35000000       0.05000000 </v>
   <v>       0.15000000       0.15000000       0.15000000 </v>
   <v>       0.25000000       0.15000000       0.15000000 </v>
   <v>       0.35000000       0.15000000       0.15000000 </v>
   <v>      -0.15000000       0.15000000       0.15000000 </v>
   <v>       0.25000000       0.25000000       0.15000000 </v>
   <v>      -0.25000000       0.25000000       0.15000000 </v>
   <v>      -0.35000000       0.35000000       0.15000000 </v>
   <v>      -0.25000000       0.35000000       0.15000000 </v>
   <v>      -0.45000000       0.45000000       0.15000000 </v>
   <v>      -0.35000000       0.45000000       0.15000000 </v>
   <v>      -0.45000000      -0.45000000       0.15000000 </v>
   <v>      -0.35000000      -0.45000000       0.15000000 </v>
   <v>       0.25000000       0.25000000       0.25000000 </v>
   <v>      -0.25000000       0.25000000       0.25000000 </v>
   <v>      -0.35000000       0.35000000       0.25000000 </v>
   <v>      -0.45000000       0.45000000       0.25000000 </v>
   <v>      -0.35000000       0.45000000       0.25000000 </v>
   <v>      -0.45000000      -0.45000000       0.25000000 </v>
   <v>      -0.35000000       0.35000000       0.35000000 </v>
   <v>      -0.45000000       0.45000000       0.35000000 </v>
   <v>      -0.45000000      -0.45000000       0.35000000 </v>
   <v>      -0.45000000       0.45000000       0.45000000 </v>
  </varray>
  <varray name="weights" >
   <v>       0.00800000 </v>
   <v>       0.02400000 </v>
   <v>       0.02400000 </v>
   <v>       0.02400000 </v>
   <v>       0.01200000 </v>
   <v>       0.00600000 </v>
   <v>       0.02400000 </v>
   <v>       0.04800000 </v>
   <v>       0.04800000 </v>
   <v>       0.02400000 </v>
   <v>       0.02400000 </v>
   <v>       0.02400000 </v>
   <v>       0.02400000 </v>
   <v>       0.02400000 </v>
   <v>       0.02400000 </v>
   <v>       0.04800000 </v>
   <v>       0.02400000 </v>
   <v>       0.04800000 </v>
   <v>       0.02400000 </v>
   <v>       0.02400000 </v>
   <v>       0.04800000 </v>
   <v>       0.00800000 </v>
   <v>       0.00800000 </v>
   <v>       0.02400000 </v>
   <v>       0.01200000 </v>
   <v>       0.00600000 </v>
   <v>       0.02400000 </v>
   <v>       0.02400000 </v>
   <v>       0.02400000 </v>
   <v>       0.02400000 </v>
   <v>       0.02400000 </v>
   <v>       0.04800000 </v>
   <v>       0.02400000 </v>
   <v>       0.02400000 </v>
   <v>       0.00200000 </v>
   <v>       0.00600000 </v>
   <v>       0.02400000 </v>
   <v>       0.02400000 </v>
   <v>       0.02400000 </v>
   <v>       0.02400000 </v>
   <v>       0.00600000 </v>
   <v>       0.02400000 </v>
   <v>       0.00800000 </v>
   <v>       0.00600000 </v>
  </varray>
 </kpoints>
 <parameters>
  <separator name="general" >
   <i type="string" name="SYSTEM">unknown system</i>
   <i type="logical" name="LCOMPAT"> F  </i>
  </separator>
  <separator name="electronic" >
   <i type="string" name="PREC">accura</i>
   <i name="ENMAX">    300.00000000</i>
   <i name="ENAUG">    332.07500000</i>
   <i name="EDIFF">      0.00010000</i>
   <i type="int" name="IALGO">    38</i>
   <i type="int" name="IWAVPR">    10</i>
   <i type="int" name="NBANDS">     6</i>
   <i name="NELECT">      5.00000000</i>
   <i type="int" name="TURBO">     0</i>
   <i type="int" name="IRESTART">     0</i>
   <i type="int" name="NREBOOT">     0</i>
   <i type="int" name="NMIN">     0</i>
   <i name="EREF">      0.00000000</i>
   <separator name="electronic smearing" >
    <i type="int" name="ISMEAR">     1</i>
    <i name="SIGMA">      0.05000000</i>
    <i name="KSPACING">      0.50000000</i>
    <i type="logical" name="KGAMMA"> T  </i>
   </separator>
   <separator name="electronic projectors" >
    <i type="logical" name="LREAL"> F  </i>
    <v name="ROPT">      0.00000000</v>
    <i type="int" name="LMAXPAW">  -100</i>
    <i type="int" name="LMAXMIX">     2</i>
    <i type="logical" name="NLSPLINE"> F  </i>
   </separator>
   <separator name="electronic startup" >
    <i type="int" name="ISTART">     0</i>
    <i type="int" name="ICHARG">     2</i>
    <i type="int" name="INIWAV">     1</i>
   </separator>
   <separator name="electronic spin" >
    <i type="int" name="ISPIN">     2</i>
    <i type="logical" name="LNONCOLLINEAR"> F  </i>
    <v name="MAGMOM">      6.00000000</v>
    <i name="NUPDOWN">     -1.00000000</i>
    <i type="logical" name="LSORBIT"> F  </i>
    <v name="SAXIS">      0.00000000      0.00000000      1.00000000</v>
    <i type="logical" name="LSPIRAL"> F  </i>
    <v name="QSPIRAL">      0.00000000      0.00000000      0.00000000</v>
    <i type="logical" name="LZEROZ"> F  </i>
   </separator>
   <separator name="electronic exchange-correlation" >
    <i type="logical" name="LASPH"> F  </i>
    <i type="logical" name="LMETAGGA"> F  </i>
   </separator>
   <separator name="electronic convergence" >
    <i type="int" name="NELM">    60</i>
    <i type="int" name="NELMDL">    -5</i>
    <i type="int" name="NELMIN">     2</i>
    <i name="ENINI">    300.00000000</i>
    <separator name="electronic convergence detail" >
     <i type="logical" name="LDIAG"> T  </i>
     <i type="logical" name="LSUBROT"> T  </i>
     <i name="WEIMIN">      0.00000000</i>
     <i name="EBREAK">      0.00000417</i>
     <i name="DEPER">      0.30000000</i>
     <i type="int" name="NRMM">     4</i>
     <i name="TIME">      0.40000000</i>
    </separator>
   </separator>
   <separator name="electronic mixer" >
    <i name="AMIX">      0.40000000</i>
    <i name="BMIX">      1.00000000</i>
    <i name="AMIN">      0.10000000</i>
    <i name="AMIX_MAG">      1.60000000</i>
    <i name="BMIX_MAG">      1.00000000</i>
    <separator name="electronic mixer details" >
     <i type="int" name="IMIX">     4</i>
     <i type="int" name="MAXMIX">   -45</i>
     <i name="WC">    100.00000000</i>
     <i type="int" name="INIMIX">     1</i>
     <i type="int" name="MIXPRE">     1</i>
     <i type="int" name="MREMOVE">     5</i>
    </separator>
   </separator>
   <separator name="electronic dipolcorrection" >
    <i type="logical" name="LDIPOL"> F  </i>
    <i type="logical" name="LMONO"> F  </i>
    <i type="int" name="IDIPOL">     0</i>
    <i name="EPSILON">      1.00000000</i>
    <v name="DIPOL">   -100.00000000   -100.00000000   -100.00000000</v>
    <i name="EFIELD">      0.00000000</i>
   </separator>
  </separator>
  <separator name="grids" >
   <i type="int" name="NGX">    16</i>
   <i type="int" name="NGY">    16</i>
   <i type="int" name="NGZ">    16</i>
   <i type="int" name="NGXF">    32</i>
   <i type="int" name="NGYF">    32</i>
   <i type="int" name="NGZF">    32</i>
   <i type="logical" name="ADDGRID"> F  </i>
  </separator>
  <separator name="ionic" >
   <i type="int" name="NSW">     0</i>
   <i type="int" name="IBRION">    -1</i>
   <i type="int" name="ISIF">     2</i>
   <i name="PSTRESS">      0.00000000</i>
   <i name="EDIFFG">      0.00100000</i>
   <i type="int" name="NFREE">     0</i>
   <i name="POTIM">      0.50000000</i>
   <i name="SMASS">     -3.00000000</i>
   <i name="SCALEE">      1.00000000</i>
  </separator>
  <separator name="ionic md" >
   <i name="TEBEG">      0.00010000</i>
   <i name="TEEND">      0.00010000</i>
   <i type="int" name="NBLOCK">     1</i>
   <i type="int" name="KBLOCK">     1</i>
   <i type="int" name="NPACO">   256</i>
   <i name="APACO">     16.00000000</i>
  </separator>
  <separator name="symmetry" >
   <i type="int" name="ISYM">     2</i>
   <i name="SYMPREC">      0.00001000</i>
  </separator>
  <separator name="dos" >
   <i type="logical" name="LORBIT"> F  </i>
   <v name="RWIGS">     -1.00000000</v>
   <i type="int" name="NEDOS">   301</i>
   <i name="EMIN">     10.00000000</i>
   <i name="EMAX">    -10.00000000</i>
   <i name="EFERMI">      0.00000000</i>
  </separator>
  <separator name="writing" >
   <i type="int" name="NWRITE">     2</i>
   <i type="logical" name="LWAVE"> T  </i>
   <i type="logical" name="LCHARG"> T  </i>
   <i type="logical" name="LPARD"> F  </i>
   <i type="logical" name="LVTOT"> F  </i>
   <i type="logical" name="LVHAR"> F  </i>
   <i type="logical" name="LELF"> F  </i>
   <i type="logical" name="LOPTICS"> F  </i>
   <v name="STM">      0.00000000      0.00000000      0.00000000      0.00000000      0.00000000      0.00000000      0.00000000</v>
  </separator>
  <separator name="performance" >
   <i type="int" name="NPAR">     1</i>
   <i type="int" name="NSIM">     4</i>
   <i type="int" name="NBLK">    -1</i>
   <i type="logical" name="LPLANE"> T  </i>
   <i type="logical" name="LSCALAPACK"> F  </i>
   <i type="logical" name="LSCAAWARE"> F  </i>
   <i type="logical" name="LSCALU"> F  </i>
   <i type="logical" name="LASYNC"> F  </i>
   <i type="logical" name="LORBITALREAL"> F  </i>
  </separator>
  <separator name="miscellaneous" >
   <i type="int" name="IDIOT">     3</i>
   <i type="logical" name="LMUSIC"> F  </i>
   <v name="POMASS">    180.94800000</v>
   <v name="DARWINR">      0.00000000</v>
   <v name="DARWINV">      1.00000000</v>
   <i type="logical" name="LCORR"> T  </i>
  </separator>
  <i type="logical" name="GGA_COMPAT"> T  </i>
  <i type="logical" name="LBERRY"> F  </i>
  <i type="int" name="ICORELEVEL">     0</i>
  <i type="logical" name="LDAU"> F  </i>
  <i type="int" name="I_CONSTRAINED_M">     0</i>
  <separator name="electronic exchange-correlation" >
   <i type="string" name="GGA">--</i>
   <i type="int" name="VOSKOWN">     0</i>
   <i type="logical" name="LHFCALC"> F  </i>
   <i type="string" name="PRECFOCK"></i>
   <i type="logical" name="LHFONE"> F  </i>
   <i type="logical" name="LRHFCALC"> F  </i>
   <i type="logical" name="LTHOMAS"> F  </i>
   <i type="logical" name="LMODELHF"> F  </i>
   <i name="ENCUT4O">     -1.00000000</i>
   <i type="int" name="EXXOEP">     0</i>
   <i type="int" name="FOURORBIT">     0</i>
   <i name="AEXX">      0.00000000</i>
   <i name="HFALPHA">      0.00000000</i>
   <i name="ALDAX">      1.00000000</i>
   <i name="AGGAX">      1.00000000</i>
   <i name="ALDAC">      1.00000000</i>
   <i name="AGGAC">      1.00000000</i>
   <i type="int" name="NKREDX">     1</i>
   <i type="int" name="NKREDY">     1</i>
   <i type="int" name="NKREDZ">     1</i>
   <i type="logical" name="SHIFTRED"> F  </i>
   <i type="logical" name="ODDONLY"> F  </i>
   <i type="logical" name="EVENONLY"> F  </i>
   <i type="int" name="LMAXFOCK">     0</i>
   <i type="int" name="NMAXFOCKAE">     0</i>
   <i type="logical" name="LFOCKAEDFT"> F  </i>
   <i name="HFSCREEN">      0.00000000</i>
   <i name="HFSCREENC">      0.00000000</i>
  </separator>
  <separator name="vdW DFT" >
   <i type="logical" name="LUSE_VDW"> F  </i>
   <i name="Zab_VDW">     -0.84910000</i>
   <i name="PARAM1">      0.12340000</i>
   <i name="PARAM2">      1.00000000</i>
   <i name="PARAM3">      0.00000000</i>
  </separator>
  <separator name="model GW" >
   <i type="int" name="MODEL_GW">     0</i>
   <i name="MODEL_EPS0">     10.87940730</i>
   <i name="MODEL_ALPHA">      1.00000000</i>
  </separator>
  <separator name="linear response parameters" >
   <i type="logical" name="LEPSILON"> F  </i>
   <i type="logical" name="LRPA"> F  </i>
   <i type="logical" name="LNABLA"> F  </i>
   <i type="logical" name="LVEL"> F  </i>
   <i type="int" name="KINTER">     0</i>
   <i name="CSHIFT">      0.10000000</i>
   <i name="OMEGAMAX">     -1.00000000</i>
  </separator>
  <separator name="orbital magnetization" >
   <i type="logical" name="NUCIND"> F  </i>
   <v name="MAGPOS">      0.00000000      0.00000000      0.00000000</v>
   <i type="logical" name="LNICSALL"> T  </i>
   <i type="logical" name="ORBITALMAG"> F  </i>
   <i type="logical" name="LMAGBLOCH"> F  </i>
   <i type="logical" name="LCHIMAG"> F  </i>
   <i type="logical" name="LGAUGE"> T  </i>
   <i type="int" name="MAGATOM">     0</i>
   <v name="MAGDIPOL">      0.00000000      0.00000000      0.00000000</v>
   <v name="AVECCONST">      0.00000000      0.00000000      0.00000000</v>
  </separator>
  <separator name="response functions" >
   <i type="logical" name="LADDER"> F  </i>
   <i type="logical" name="LHARTREE"> T  </i>
   <i type="int" name="IBSE">     0</i>
   <i type="logical" name="LTCTE"> F  </i>
   <i type="logical" name="LTETE"> F  </i>
   <i type="logical" name="LFXCEPS"> F  </i>
   <i type="logical" name="L2ORDER"> F  </i>
   <i type="logical" name="LUSEW"> F  </i>
   <i name="ENCUTGW">     -2.00000000</i>
   <i name="ENCUTGWSOFT">     -2.00000000</i>
   <i name="ENCUTLF">     -1.00000000</i>
   <i type="int" name="LMAXMP2">    -1</i>
   <i name="SCISSOR">      0.00000000</i>
   <i type="int" name="NOMEGA">     0</i>
   <i type="int" name="NOMEGAR">     0</i>
   <i type="int" name="NBANDSGW">    -1</i>
   <i type="int" name="NBANDSO">    -1</i>
   <i type="int" name="NBANDSV">    -1</i>
   <i name="OPTEMAX">      0.00000000</i>
   <i type="int" name="NELM">     1</i>
   <i type="int" name="DIM">     3</i>
   <i type="int" name="ANTIRES">     0</i>
   <i name="OMEGAMAX">    -30.00000000</i>
   <i name="OMEGATL">   -200.00000000</i>
   <i type="int" name="OMEGAGRID">     0</i>
   <i name="CSHIFT">     -0.10000000</i>
   <i type="logical" name="SELFENERGY"> F  </i>
   <i type="logical" name="LSPECTRAL"> F  </i>
   <i type="logical" name="ODDONLYGW"> F  </i>
   <i type="logical" name="EVENONLYGW"> F  </i>
   <i type="int" name="NKREDLFX">     1</i>
   <i type="int" name="NKREDLFY">     1</i>
   <i type="int" name="NKREDLFZ">     1</i>
   <i type="int" name="MAXMEM">  1800</i>
   <i type="int" name="TELESCOPE">     0</i>
  </separator>
 </parameters>
 <atominfo>
  <atoms>       1 </atoms>
  <types>       1 </types>
  <array name="atoms" >
   <dimension dim="1">ion</dimension>
   <field type="string">element</field>
   <field type="int">atomtype</field>
   <set>
    <rc><c>Ta</c><c>   1</c></rc>
   </set>
  </array>
  <array name="atomtypes" >
   <dimension dim="1">type</dimension>
   <field type="int">atomspertype</field>
   <field type="string">element</field>
   <field>mass</field>
   <field>valence</field>
   <field type="string">pseudopotential</field>
   <set>
    <rc><c>   1</c><c>Ta</c><c>    180.94800000</c><c>      5.00000000</c><c>  PAW_PBE Ta 17Jan2003                  </c></rc>
   </set>
  </array>
 </atominfo>
 <structure name="initialpos" >
  <crystal>
   <varray name="basis" >
    <v>       2.86654409       0.00000000       0.00000000 </v>
    <v>      -0.95551470       2.70260368       0.00000000 </v>
    <v>      -0.95551470      -1.35130184       2.34052345 </v>
   </varray>
   <i name="volume">     18.13234550 </i>
   <varray name="rec_basis" >
    <v>       0.34885213       0.12333785       0.21362743 </v>
    <v>       0.00000000       0.37001356       0.21362743 </v>
    <v>       0.00000000       0.00000000       0.42725485 </v>
   </varray>
  </crystal>
  <varray name="positions" >
   <v>       0.00000000       0.00000000       0.00000000 </v>
  </varray>
 </structure>
 <calculation>
  <scstep>
   <time name="dav">    0.64    0.64</time>
   <time name="total">    0.78    0.81</time>
   <energy>
    <i name="alphaZ">     30.58334069 </i>
    <i name="ewald">   -197.90100875 </i>
    <i name="hartreedc">     -2.50452612 </i>
    <i name="XCdc">    -60.72898754 </i>
    <i name="pawpsdc">    143.51874798 </i>
    <i name="pawaedc">    -69.33493833 </i>
    <i name="eentropy">      0.00001666 </i>
    <i name="bandstr">     34.66299494 </i>
    <i name="atom">    130.63852721 </i>
    <i name="e_fr_energy">      8.93416674 </i>
    <i name="e_wo_entrp">      8.93415008 </i>
    <i name="e_0_energy">      8.93416118 </i>
   </energy>
  </scstep>
  <scstep>
   <time name="dav">    0.98    0.98</time>
   <time name="total">    0.99    1.00</time>
   <energy>
    <i name="e_fr_energy">     -1.34320821 </i>
    <i name="e_wo_entrp">     -1.34347253 </i>
    <i name="e_0_energy">     -1.34329632 </i>
   </energy>
  </scstep>
  <scstep>
   <time name="dav">    0.63    0.64</time>
   <time name="total">    0.64    0.65</time>
   <energy>
    <i name="e_fr_energy">     -1.40393091 </i>
    <i name="e_wo_entrp">     -1.40390465 </i>
    <i name="e_0_energy">     -1.40392215 </i>
   </energy>
  </scstep>
  <scstep>
   <time name="dav">    0.77    0.77</time>
   <time name="total">    0.77    0.80</time>
   <energy>
    <i name="e_fr_energy">     -1.40420346 </i>
    <i name="e_wo_entrp">     -1.40417769 </i>
    <i name="e_0_energy">     -1.40419487 </i>
   </energy>
  </scstep>
  <scstep>
   <time name="dav">    0.57    0.57</time>
   <time name="total">    0.65    0.66</time>
   <energy>
    <i name="e_fr_energy">     -1.40420637 </i>
    <i name="e_wo_entrp">     -1.40418059 </i>
    <i name="e_0_energy">     -1.40419778 </i>
   </energy>
  </scstep>
  <scstep>
   <time name="dav">    0.63    0.63</time>
   <time name="total">    0.83    0.86</time>
   <energy>
    <i name="e_fr_energy">    -11.70560149 </i>
    <i name="e_wo_entrp">    -11.70574439 </i>
    <i name="e_0_energy">    -11.70564913 </i>
   </energy>
  </scstep>
  <scstep>
   <time name="dav">    0.69    0.69</time>
   <time name="total">    0.89    0.91</time>
   <energy>
    <i name="e_fr_energy">    -11.78493136 </i>
    <i name="e_wo_entrp">    -11.78485156 </i>
    <i name="e_0_energy">    -11.78490476 </i>
   </energy>
  </scstep>
  <scstep>
   <time name="dav">    0.66    0.66</time>
   <time name="total">    0.86    0.89</time>
   <energy>
    <i name="e_fr_energy">    -11.76304428 </i>
    <i name="e_wo_entrp">    -11.76290382 </i>
    <i name="e_0_energy">    -11.76299746 </i>
   </energy>
  </scstep>
  <scstep>
   <time name="dav">    0.68    0.68</time>
   <time name="total">    0.88    0.90</time>
   <energy>
    <i name="e_fr_energy">    -11.85174176 </i>
    <i name="e_wo_entrp">    -11.85120496 </i>
    <i name="e_0_energy">    -11.85156283 </i>
   </energy>
  </scstep>
  <scstep>
   <time name="dav">    0.66    0.66</time>
   <time name="total">    0.86    0.88</time>
   <energy>
    <i name="e_fr_energy">    -11.85986159 </i>
    <i name="e_wo_entrp">    -11.85960683 </i>
    <i name="e_0_energy">    -11.85977667 </i>
   </energy>
  </scstep>
  <scstep>
   <time name="dav">    0.66    0.66</time>
   <time name="total">    0.86    0.87</time>
   <energy>
    <i name="e_fr_energy">    -11.86079042 </i>
    <i name="e_wo_entrp">    -11.86136562 </i>
    <i name="e_0_energy">    -11.86098215 </i>
   </energy>
  </scstep>
  <scstep>
   <time name="dav">    0.44    0.44</time>
   <time name="total">    0.58    0.59</time>
   <energy>
    <i name="alphaZ">     30.58334069 </i>
    <i name="ewald">   -197.90100875 </i>
    <i name="hartreedc">     -0.59007959 </i>
    <i name="XCdc">    -66.00153069 </i>
    <i name="pawpsdc">    194.37271019 </i>
    <i name="pawaedc">   -120.94421141 </i>
    <i name="eentropy">      0.00058900 </i>
    <i name="bandstr">     17.98081566 </i>
    <i name="atom">    130.63852721 </i>
    <i name="e_fr_energy">    -11.86084769 </i>
    <i name="e_wo_entrp">    -11.86143669 </i>
    <i name="e_0_energy">    -11.86104402 </i>
   </energy>
  </scstep>
  <parameters_embedded>
   <separator name="dft+d2" >
    <i type="logical" name="LVDW"> F  </i>
   </separator>
  </parameters_embedded>
  <structure>
   <crystal>
    <varray name="basis" >
     <v>       2.86654409       0.00000000       0.00000000 </v>
     <v>      -0.95551470       2.70260368       0.00000000 </v>
     <v>      -0.95551470      -1.35130184       2.34052345 </v>
    </varray>
    <i name="volume">     18.13234550 </i>
    <varray name="rec_basis" >
     <v>       0.34885213       0.12333785       0.21362743 </v>
     <v>       0.00000000       0.37001356       0.21362743 </v>
     <v>       0.00000000       0.00000000       0.42725485 </v>
    </varray>
   </crystal>
   <varray name="positions" >
    <v>       0.00000000       0.00000000       0.00000000 </v>
   </varray>
  </structure>
  <varray name="forces" >
   <v>       0.00000000       0.00000000       0.00000000 </v>
  </varray>
  <varray name="stress" >
   <v>     -12.24352667       0.00000000       0.00000000 </v>
   <v>       0.00000000     -12.24352667       0.00000000 </v>
   <v>       0.00000000       0.00000000     -12.24352667 </v>
  </varray>
  <energy>
   <i name="e_fr_energy">    -11.86084769 </i>
   <i name="e_wo_entrp">    -11.86104402 </i>
   <i name="e_0_energy">      0.00058900 </i>
  </energy>
  <time name="totalsc">   10.48   10.86</time>
  <eigenvalues>
   <array>
    <dimension dim="1">band</dimension>
    <dimension dim="2">kpoint</dimension>
    <dimension dim="3">spin</dimension>
    <field>eigene</field>
    <field>occ</field>
    <set>
     <set comment="spin 1">
      <set comment="kpoint 1">
       <r>   -1.5429    1.0000 </r>
       <r>    6.0980    0.0000 </r>
       <r>    6.0980    0.0000 </r>
       <r>    7.2127    0.0000 </r>
       <r>    9.4484    0.0000 </r>
       <r>    9.4484    0.0000 </r>
      </set>
      <set comment="kpoint 2">
       <r>   -0.4202    1.0000 </r>
       <r>    5.4253    1.0000 </r>
       <r>    5.6076    1.0335 </r>
       <r>    8.5610    0.0000 </r>
       <r>    9.1332    0.0000 </r>
       <r>    9.7169    0.0000 </r>
      </set>
      <set comment="kpoint 3">
       <r>    0.9062    1.0000 </r>
       <r>    4.7686    1.0000 </r>
       <r>    5.3037    1.0000 </r>
       <r>    9.3525    0.0000 </r>
       <r>   10.0449    0.0000 </r>
       <r>   10.5327    0.0000 </r>
      </set>
      <set comment="kpoint 4">
       <r>    1.5368    1.0000 </r>
       <r>    4.3191    1.0000 </r>
       <r>    6.1126    0.0000 </r>
       <r>    9.6752    0.0000 </r>
       <r>   10.4091    0.0000 </r>
       <r>   12.6673    0.0000 </r>
      </set>
      <set comment="kpoint 5">
       <r>    1.5949    1.0000 </r>
       <r>    4.1611    1.0000 </r>
       <r>    6.9875    0.0000 </r>
       <r>    9.6560    0.0000 </r>
       <r>   10.5933    0.0000 </r>
       <r>   13.8127    0.0000 </r>
      </set>
      <set comment="kpoint 6">
       <r>   -1.9587    1.0000 </r>
       <r>    6.4167    0.0000 </r>
       <r>    6.4167    0.0000 </r>
       <r>    6.5539    0.0000 </r>
       <r>    9.3117    0.0000 </r>
       <r>    9.8086    0.0000 </r>
      </set>
      <set comment="kpoint 7">
       <r>    0.8503    1.0000 </r>
       <r>    4.8778    1.0000 </r>
       <r>    4.9516    1.0000 </r>
       <r>    9.2088    0.0000 </r>
       <r>   10.0904    0.0000 </r>
       <r>   10.4570    0.0000 </r>
      </set>
      <set comment="kpoint 8">
       <r>    2.0180    1.0000 </r>
       <r>    4.4067    1.0000 </r>
       <r>    4.9815    1.0000 </r>
       <r>    9.5103    0.0000 </r>
       <r>   10.4333    0.0000 </r>
       <r>   12.6817    0.0000 </r>
      </set>
      <set comment="kpoint 9">
       <r>    2.2974    1.0000 </r>
       <r>    4.1928    1.0000 </r>
       <r>    5.9441    0.0000 </r>
       <r>    9.7622    0.0000 </r>
       <r>   10.6348    0.0000 </r>
       <r>   14.5340    0.0000 </r>
      </set>
      <set comment="kpoint 10">
       <r>   -1.1424    1.0000 </r>
       <r>    5.9629    0.0000 </r>
       <r>    6.1908    0.0000 </r>
       <r>    7.3665    0.0000 </r>
       <r>    8.6306    0.0000 </r>
       <r>    9.9917    0.0000 </r>
      </set>
      <set comment="kpoint 11">
       <r>    2.9390    1.0000 </r>
       <r>    4.2988    1.0000 </r>
       <r>    5.0171    1.0000 </r>
       <r>    9.8249    0.0000 </r>
       <r>   10.5317    0.0000 </r>
       <r>   14.9641    0.0000 </r>
      </set>
      <set comment="kpoint 12">
       <r>    3.1209    1.0000 </r>
       <r>    4.3834    1.0000 </r>
       <r>    5.2565    1.0000 </r>
       <r>   10.0641    0.0000 </r>
       <r>   10.5766    0.0000 </r>
       <r>   14.3865    0.0000 </r>
      </set>
      <set comment="kpoint 13">
       <r>    0.1793    1.0000 </r>
       <r>    5.2749    1.0000 </r>
       <r>    5.6175    1.0345 </r>
       <r>    8.6570    0.0000 </r>
       <r>    8.9789    0.0000 </r>
       <r>   10.1882    0.0000 </r>
      </set>
      <set comment="kpoint 14">
       <r>   -0.0601    1.0000 </r>
       <r>    5.6362    0.9834 </r>
       <r>    5.7088    0.0485 </r>
       <r>    8.0743    0.0000 </r>
       <r>    8.4851    0.0000 </r>
       <r>   10.3913    0.0000 </r>
      </set>
      <set comment="kpoint 15">
       <r>    1.2183    1.0000 </r>
       <r>    4.6806    1.0000 </r>
       <r>    5.6980    0.1520 </r>
       <r>    9.1902    0.0000 </r>
       <r>   10.4165    0.0000 </r>
       <r>   11.1138    0.0000 </r>
      </set>
      <set comment="kpoint 16">
       <r>    1.2439    1.0000 </r>
       <r>    4.9255    1.0000 </r>
       <r>    5.3582    1.0000 </r>
       <r>    8.3771    0.0000 </r>
       <r>   10.3120    0.0000 </r>
       <r>   10.6951    0.0000 </r>
      </set>
      <set comment="kpoint 17">
       <r>    1.4624    1.0000 </r>
       <r>    4.3487    1.0000 </r>
       <r>    6.6995    0.0000 </r>
       <r>    9.3490    0.0000 </r>
       <r>   10.7859    0.0000 </r>
       <r>   13.0608    0.0000 </r>
      </set>
      <set comment="kpoint 18">
       <r>    1.9018    1.0000 </r>
       <r>    4.6253    1.0000 </r>
       <r>    5.6016    1.0291 </r>
       <r>    8.9160    0.0000 </r>
       <r>   10.7301    0.0000 </r>
       <r>   12.7005    0.0000 </r>
      </set>
      <set comment="kpoint 19">
       <r>    2.3682    1.0000 </r>
       <r>    4.3285    1.0000 </r>
       <r>    5.3636    1.0000 </r>
       <r>    8.6842    0.0000 </r>
       <r>   10.4356    0.0000 </r>
       <r>   12.7714    0.0000 </r>
      </set>
      <set comment="kpoint 20">
       <r>    1.9582    1.0000 </r>
       <r>    4.5242    1.0000 </r>
       <r>    6.0945    0.0000 </r>
       <r>    8.8692    0.0000 </r>
       <r>   11.2381    0.0000 </r>
       <r>   13.9519    0.0000 </r>
      </set>
      <set comment="kpoint 21">
       <r>    2.8394    1.0000 </r>
       <r>    4.3875    1.0000 </r>
       <r>    5.2260    1.0000 </r>
       <r>    9.1529    0.0000 </r>
       <r>   10.6570    0.0000 </r>
       <r>   15.0611    0.0000 </r>
      </set>
      <set comment="kpoint 22">
       <r>    3.5009    1.0000 </r>
       <r>    4.4836    1.0000 </r>
       <r>    4.4836    1.0000 </r>
       <r>   10.1158    0.0000 </r>
       <r>   10.1158    0.0000 </r>
       <r>   14.6776    0.0000 </r>
      </set>
      <set comment="kpoint 23">
       <r>    2.2372    1.0000 </r>
       <r>    4.3939    1.0000 </r>
       <r>    4.3939    1.0000 </r>
       <r>   10.0579    0.0000 </r>
       <r>   10.0579    0.0000 </r>
       <r>   12.7892    0.0000 </r>
      </set>
      <set comment="kpoint 24">
       <r>    3.1462    1.0000 </r>
       <r>    4.1479    1.0000 </r>
       <r>    4.7892    1.0000 </r>
       <r>   10.2247    0.0000 </r>
       <r>   10.5350    0.0000 </r>
       <r>   14.9754    0.0000 </r>
      </set>
      <set comment="kpoint 25">
       <r>    3.1546    1.0000 </r>
       <r>    4.0757    1.0000 </r>
       <r>    5.6106    1.0349 </r>
       <r>   10.2848    0.0000 </r>
       <r>   10.6873    0.0000 </r>
       <r>   14.3723    0.0000 </r>
      </set>
      <set comment="kpoint 26">
       <r>   -0.3653    1.0000 </r>
       <r>    6.3739    0.0000 </r>
       <r>    6.3739    0.0000 </r>
       <r>    7.1735    0.0000 </r>
       <r>    7.3730    0.0000 </r>
       <r>   10.5875    0.0000 </r>
      </set>
      <set comment="kpoint 27">
       <r>    3.7492    1.0000 </r>
       <r>    4.4091    1.0000 </r>
       <r>    4.8371    1.0000 </r>
       <r>   10.5379    0.0000 </r>
       <r>   10.6679    0.0000 </r>
       <r>   13.6638    0.0000 </r>
      </set>
      <set comment="kpoint 28">
       <r>    0.8973    1.0000 </r>
       <r>    5.5191    1.0000 </r>
       <r>    6.0162    0.0000 </r>
       <r>    7.2424    0.0000 </r>
       <r>    8.7325    0.0000 </r>
       <r>   10.7917    0.0000 </r>
      </set>
      <set comment="kpoint 29">
       <r>    1.9430    1.0000 </r>
       <r>    4.8927    1.0000 </r>
       <r>    5.5088    1.0000 </r>
       <r>    8.0457    0.0000 </r>
       <r>   10.8589    0.0000 </r>
       <r>   10.8958    0.0000 </r>
      </set>
      <set comment="kpoint 30">
       <r>    2.0673    1.0000 </r>
       <r>    4.5750    1.0000 </r>
       <r>    6.1498    0.0000 </r>
       <r>    7.5250    0.0000 </r>
       <r>    9.9888    0.0000 </r>
       <r>   10.9574    0.0000 </r>
      </set>
      <set comment="kpoint 31">
       <r>    2.1672    1.0000 </r>
       <r>    5.2103    1.0000 </r>
       <r>    5.2632    1.0000 </r>
       <r>    8.0200    0.0000 </r>
       <r>   11.9936    0.0000 </r>
       <r>   12.8581    0.0000 </r>
      </set>
      <set comment="kpoint 32">
       <r>    2.7733    1.0000 </r>
       <r>    4.1894    1.0000 </r>
       <r>    5.7508   -0.0269 </r>
       <r>    8.1585    0.0000 </r>
       <r>   10.7269    0.0000 </r>
       <r>   12.9154    0.0000 </r>
      </set>
      <set comment="kpoint 33">
       <r>    2.7860    1.0000 </r>
       <r>    4.5679    1.0000 </r>
       <r>    5.3043    1.0000 </r>
       <r>    8.1529    0.0000 </r>
       <r>   11.7631    0.0000 </r>
       <r>   14.5698    0.0000 </r>
      </set>
      <set comment="kpoint 34">
       <r>    3.6541    1.0000 </r>
       <r>    3.7150    1.0000 </r>
       <r>    4.9794    1.0000 </r>
       <r>    9.4212    0.0000 </r>
       <r>   10.5898    0.0000 </r>
       <r>   15.3737    0.0000 </r>
      </set>
      <set comment="kpoint 35">
       <r>    4.4789    1.0000 </r>
       <r>    4.4789    1.0000 </r>
       <r>    4.4789    1.0000 </r>
       <r>   10.7465    0.0000 </r>
       <r>   10.7465    0.0000 </r>
       <r>   12.7483    0.0000 </r>
      </set>
      <set comment="kpoint 36">
       <r>    1.9741    1.0000 </r>
       <r>    4.7908    1.0000 </r>
       <r>    6.9634    0.0000 </r>
       <r>    6.9634    0.0000 </r>
       <r>    8.8914    0.0000 </r>
       <r>   10.6907    0.0000 </r>
      </set>
      <set comment="kpoint 37">
       <r>    2.7976    1.0000 </r>
       <r>    3.8611    1.0000 </r>
       <r>    7.0229    0.0000 </r>
       <r>    7.6132    0.0000 </r>
       <r>   10.5529    0.0000 </r>
       <r>   10.8402    0.0000 </r>
      </set>
      <set comment="kpoint 38">
       <r>    2.8334    1.0000 </r>
       <r>    3.7747    1.0000 </r>
       <r>    6.8528    0.0000 </r>
       <r>    7.4956    0.0000 </r>
       <r>   12.5480    0.0000 </r>
       <r>   12.8284    0.0000 </r>
      </set>
      <set comment="kpoint 39">
       <r>    3.1245    1.0000 </r>
       <r>    3.1867    1.0000 </r>
       <r>    6.8638    0.0000 </r>
       <r>    8.8402    0.0000 </r>
       <r>   10.8215    0.0000 </r>
       <r>   12.9332    0.0000 </r>
      </set>
      <set comment="kpoint 40">
       <r>    2.9154    1.0000 </r>
       <r>    3.2396    1.0000 </r>
       <r>    6.5863    0.0000 </r>
       <r>    9.3557    0.0000 </r>
       <r>   11.6663    0.0000 </r>
       <r>   15.2756    0.0000 </r>
      </set>
      <set comment="kpoint 41">
       <r>    2.9018    1.0000 </r>
       <r>    3.0014    1.0000 </r>
       <r>    8.6194    0.0000 </r>
       <r>    8.6194    0.0000 </r>
       <r>   10.7745    0.0000 </r>
       <r>   10.9486    0.0000 </r>
      </set>
      <set comment="kpoint 42">
       <r>    2.5219    1.0000 </r>
       <r>    2.6848    1.0000 </r>
       <r>    9.0832    0.0000 </r>
       <r>    9.0907    0.0000 </r>
       <r>   12.2668    0.0000 </r>
       <r>   13.0755    0.0000 </r>
      </set>
      <set comment="kpoint 43">
       <r>    2.3682    1.0000 </r>
       <r>    2.3682    1.0000 </r>
       <r>    9.0155    0.0000 </r>
       <r>   11.4440    0.0000 </r>
       <r>   11.4440    0.0000 </r>
       <r>   15.5843    0.0000 </r>
      </set>
      <set comment="kpoint 44">
       <r>    2.0657    1.0000 </r>
       <r>    2.1126    1.0000 </r>
       <r>   11.3472    0.0000 </r>
       <r>   11.3472    0.0000 </r>
       <r>   12.2556    0.0000 </r>
       <r>   13.5567    0.0000 </r>
      </set>
     </set>
     <set comment="spin 2">
      <set comment="kpoint 1">
       <r>   -1.5548    1.0000 </r>
       <r>    6.0831    0.0000 </r>
       <r>    6.0831    0.0000 </r>
       <r>    7.1976    0.0000 </r>
       <r>    9.4429    0.0000 </r>
       <r>    9.4429    0.0000 </r>
      </set>
      <set comment="kpoint 2">
       <r>   -0.4322    1.0000 </r>
       <r>    5.4105    1.0000 </r>
       <r>    5.5940    1.0222 </r>
       <r>    8.5465    0.0000 </r>
       <r>    9.1260    0.0000 </r>
       <r>    9.7109    0.0000 </r>
      </set>
      <set comment="kpoint 3">
       <r>    0.8941    1.0000 </r>
       <r>    4.7538    1.0000 </r>
       <r>    5.2919    1.0000 </r>
       <r>    9.3438    0.0000 </r>
       <r>   10.0385    0.0000 </r>
       <r>   10.5189    0.0000 </r>
      </set>
      <set comment="kpoint 4">
       <r>    1.5247    1.0000 </r>
       <r>    4.3043    1.0000 </r>
       <r>    6.1017    0.0000 </r>
       <r>    9.6662    0.0000 </r>
       <r>   10.4024    0.0000 </r>
       <r>   12.6549    0.0000 </r>
      </set>
      <set comment="kpoint 5">
       <r>    1.5828    1.0000 </r>
       <r>    4.1463    1.0000 </r>
       <r>    6.9767    0.0000 </r>
       <r>    9.6472    0.0000 </r>
       <r>   10.5864    0.0000 </r>
       <r>   13.8014    0.0000 </r>
      </set>
      <set comment="kpoint 6">
       <r>   -1.9706    1.0000 </r>
       <r>    6.4015    0.0000 </r>
       <r>    6.4015    0.0000 </r>
       <r>    6.5387    0.0000 </r>
       <r>    9.3066    0.0000 </r>
       <r>    9.8037    0.0000 </r>
      </set>
      <set comment="kpoint 7">
       <r>    0.8382    1.0000 </r>
       <r>    4.8648    1.0000 </r>
       <r>    4.9373    1.0000 </r>
       <r>    9.2009    0.0000 </r>
       <r>   10.0838    0.0000 </r>
       <r>   10.4432    0.0000 </r>
      </set>
      <set comment="kpoint 8">
       <r>    2.0056    1.0000 </r>
       <r>    4.3931    1.0000 </r>
       <r>    4.9690    1.0000 </r>
       <r>    9.5016    0.0000 </r>
       <r>   10.4263    0.0000 </r>
       <r>   12.6692    0.0000 </r>
      </set>
      <set comment="kpoint 9">
       <r>    2.2850    1.0000 </r>
       <r>    4.1786    1.0000 </r>
       <r>    5.9328    0.0000 </r>
       <r>    9.7534    0.0000 </r>
       <r>   10.6274    0.0000 </r>
       <r>   14.5232    0.0000 </r>
      </set>
      <set comment="kpoint 10">
       <r>   -1.1543    1.0000 </r>
       <r>    5.9478    0.0000 </r>
       <r>    6.1765    0.0000 </r>
       <r>    7.3515    0.0000 </r>
       <r>    8.6244    0.0000 </r>
       <r>    9.9863    0.0000 </r>
      </set>
      <set comment="kpoint 11">
       <r>    2.9257    1.0000 </r>
       <r>    4.2871    1.0000 </r>
       <r>    5.0043    1.0000 </r>
       <r>    9.8160    0.0000 </r>
       <r>   10.5239    0.0000 </r>
       <r>   14.9535    0.0000 </r>
      </set>
      <set comment="kpoint 12">
       <r>    3.1073    1.0000 </r>
       <r>    4.3711    1.0000 </r>
       <r>    5.2453    1.0000 </r>
       <r>   10.0552    0.0000 </r>
       <r>   10.5683    0.0000 </r>
       <r>   14.3715    0.0000 </r>
      </set>
      <set comment="kpoint 13">
       <r>    0.1674    1.0000 </r>
       <r>    5.2599    1.0000 </r>
       <r>    5.6055    1.0322 </r>
       <r>    8.6484    0.0000 </r>
       <r>    8.9645    0.0000 </r>
       <r>   10.1821    0.0000 </r>
      </set>
      <set comment="kpoint 14">
       <r>   -0.0719    1.0000 </r>
       <r>    5.6234    1.0281 </r>
       <r>    5.6940    0.2023 </r>
       <r>    8.0661    0.0000 </r>
       <r>    8.4706    0.0000 </r>
       <r>   10.3854    0.0000 </r>
      </set>
      <set comment="kpoint 15">
       <r>    1.2062    1.0000 </r>
       <r>    4.6656    1.0000 </r>
       <r>    5.6877    0.2930 </r>
       <r>    9.1806    0.0000 </r>
       <r>   10.4097    0.0000 </r>
       <r>   11.1003    0.0000 </r>
      </set>
      <set comment="kpoint 16">
       <r>    1.2320    1.0000 </r>
       <r>    4.9135    1.0000 </r>
       <r>    5.3447    1.0000 </r>
       <r>    8.3672    0.0000 </r>
       <r>   10.2997    0.0000 </r>
       <r>   10.6868    0.0000 </r>
      </set>
      <set comment="kpoint 17">
       <r>    1.4504    1.0000 </r>
       <r>    4.3337    1.0000 </r>
       <r>    6.6895    0.0000 </r>
       <r>    9.3397    0.0000 </r>
       <r>   10.7784    0.0000 </r>
       <r>   13.0487    0.0000 </r>
      </set>
      <set comment="kpoint 18">
       <r>    1.8899    1.0000 </r>
       <r>    4.6114    1.0000 </r>
       <r>    5.5913    1.0197 </r>
       <r>    8.9060    0.0000 </r>
       <r>   10.7215    0.0000 </r>
       <r>   12.6885    0.0000 </r>
      </set>
      <set comment="kpoint 19">
       <r>    2.3560    1.0000 </r>
       <r>    4.3182    1.0000 </r>
       <r>    5.3501    1.0000 </r>
       <r>    8.6735    0.0000 </r>
       <r>   10.4266    0.0000 </r>
       <r>   12.7597    0.0000 </r>
      </set>
      <set comment="kpoint 20">
       <r>    1.9464    1.0000 </r>
       <r>    4.5097    1.0000 </r>
       <r>    6.0850    0.0000 </r>
       <r>    8.8597    0.0000 </r>
       <r>   11.2289    0.0000 </r>
       <r>   13.9409    0.0000 </r>
      </set>
      <set comment="kpoint 21">
       <r>    2.8270    1.0000 </r>
       <r>    4.3759    1.0000 </r>
       <r>    5.2154    1.0000 </r>
       <r>    9.1424    0.0000 </r>
       <r>   10.6468    0.0000 </r>
       <r>   15.0505    0.0000 </r>
      </set>
      <set comment="kpoint 22">
       <r>    3.4865    1.0000 </r>
       <r>    4.4740    1.0000 </r>
       <r>    4.4740    1.0000 </r>
       <r>   10.1050    0.0000 </r>
       <r>   10.1050    0.0000 </r>
       <r>   14.6634    0.0000 </r>
      </set>
      <set comment="kpoint 23">
       <r>    2.2249    1.0000 </r>
       <r>    4.3804    1.0000 </r>
       <r>    4.3804    1.0000 </r>
       <r>   10.0506    0.0000 </r>
       <r>   10.0506    0.0000 </r>
       <r>   12.7767    0.0000 </r>
      </set>
      <set comment="kpoint 24">
       <r>    3.1336    1.0000 </r>
       <r>    4.1339    1.0000 </r>
       <r>    4.7767    1.0000 </r>
       <r>   10.2169    0.0000 </r>
       <r>   10.5281    0.0000 </r>
       <r>   14.9645    0.0000 </r>
      </set>
      <set comment="kpoint 25">
       <r>    3.1420    1.0000 </r>
       <r>    4.0616    1.0000 </r>
       <r>    5.5985    1.0263 </r>
       <r>   10.2769    0.0000 </r>
       <r>   10.6804    0.0000 </r>
       <r>   14.3569    0.0000 </r>
      </set>
      <set comment="kpoint 26">
       <r>   -0.3770    1.0000 </r>
       <r>    6.3590    0.0000 </r>
       <r>    6.3591    0.0000 </r>
       <r>    7.1673    0.0000 </r>
       <r>    7.3580    0.0000 </r>
       <r>   10.5817    0.0000 </r>
      </set>
      <set comment="kpoint 27">
       <r>    3.7356    1.0000 </r>
       <r>    4.3963    1.0000 </r>
       <r>    4.8244    1.0000 </r>
       <r>   10.5305    0.0000 </r>
       <r>   10.6608    0.0000 </r>
       <r>   13.6479    0.0000 </r>
      </set>
      <set comment="kpoint 28">
       <r>    0.8858    1.0000 </r>
       <r>    5.5097    1.0000 </r>
       <r>    6.0014    0.0000 </r>
       <r>    7.2308    0.0000 </r>
       <r>    8.7181    0.0000 </r>
       <r>   10.7847    0.0000 </r>
      </set>
      <set comment="kpoint 29">
       <r>    1.9316    1.0000 </r>
       <r>    4.8841    1.0000 </r>
       <r>    5.4940    1.0000 </r>
       <r>    8.0343    0.0000 </r>
       <r>   10.8454    0.0000 </r>
       <r>   10.8871    0.0000 </r>
      </set>
      <set comment="kpoint 30">
       <r>    2.0562    1.0000 </r>
       <r>    4.5665    1.0000 </r>
       <r>    6.1356    0.0000 </r>
       <r>    7.5122    0.0000 </r>
       <r>    9.9760    0.0000 </r>
       <r>   10.9476    0.0000 </r>
      </set>
      <set comment="kpoint 31">
       <r>    2.1561    1.0000 </r>
       <r>    5.1956    1.0000 </r>
       <r>    5.2547    1.0000 </r>
       <r>    8.0097    0.0000 </r>
       <r>   11.9834    0.0000 </r>
       <r>   12.8459    0.0000 </r>
      </set>
      <set comment="kpoint 32">
       <r>    2.7626    1.0000 </r>
       <r>    4.1809    1.0000 </r>
       <r>    5.7374   -0.0354 </r>
       <r>    8.1463    0.0000 </r>
       <r>   10.7153    0.0000 </r>
       <r>   12.9034    0.0000 </r>
      </set>
      <set comment="kpoint 33">
       <r>    2.7758    1.0000 </r>
       <r>    4.5596    1.0000 </r>
       <r>    5.2906    1.0000 </r>
       <r>    8.1410    0.0000 </r>
       <r>   11.7513    0.0000 </r>
       <r>   14.5585    0.0000 </r>
      </set>
      <set comment="kpoint 34">
       <r>    3.6441    1.0000 </r>
       <r>    3.7067    1.0000 </r>
       <r>    4.9665    1.0000 </r>
       <r>    9.4085    0.0000 </r>
       <r>   10.5775    0.0000 </r>
       <r>   15.3619    0.0000 </r>
      </set>
      <set comment="kpoint 35">
       <r>    4.4657    1.0000 </r>
       <r>    4.4657    1.0000 </r>
       <r>    4.4657    1.0000 </r>
       <r>   10.7397    0.0000 </r>
       <r>   10.7397    0.0000 </r>
       <r>   12.7318    0.0000 </r>
      </set>
      <set comment="kpoint 36">
       <r>    1.9634    1.0000 </r>
       <r>    4.7840    1.0000 </r>
       <r>    6.9489    0.0000 </r>
       <r>    6.9490    0.0000 </r>
       <r>    8.8770    0.0000 </r>
       <r>   10.6818    0.0000 </r>
      </set>
      <set comment="kpoint 37">
       <r>    2.7879    1.0000 </r>
       <r>    3.8537    1.0000 </r>
       <r>    7.0085    0.0000 </r>
       <r>    7.5998    0.0000 </r>
       <r>   10.5393    0.0000 </r>
       <r>   10.8291    0.0000 </r>
      </set>
      <set comment="kpoint 38">
       <r>    2.8247    1.0000 </r>
       <r>    3.7669    1.0000 </r>
       <r>    6.8384    0.0000 </r>
       <r>    7.4830    0.0000 </r>
       <r>   12.5358    0.0000 </r>
       <r>   12.8158    0.0000 </r>
      </set>
      <set comment="kpoint 39">
       <r>    3.1160    1.0000 </r>
       <r>    3.1793    1.0000 </r>
       <r>    6.8499    0.0000 </r>
       <r>    8.8265    0.0000 </r>
       <r>   10.8086    0.0000 </r>
       <r>   12.9205    0.0000 </r>
      </set>
      <set comment="kpoint 40">
       <r>    2.9076    1.0000 </r>
       <r>    3.2320    1.0000 </r>
       <r>    6.5722    0.0000 </r>
       <r>    9.3422    0.0000 </r>
       <r>   11.6535    0.0000 </r>
       <r>   15.2626    0.0000 </r>
      </set>
      <set comment="kpoint 41">
       <r>    2.8935    1.0000 </r>
       <r>    2.9943    1.0000 </r>
       <r>    8.6054    0.0000 </r>
       <r>    8.6054    0.0000 </r>
       <r>   10.7611    0.0000 </r>
       <r>   10.9360    0.0000 </r>
      </set>
      <set comment="kpoint 42">
       <r>    2.5146    1.0000 </r>
       <r>    2.6772    1.0000 </r>
       <r>    9.0695    0.0000 </r>
       <r>    9.0767    0.0000 </r>
       <r>   12.2545    0.0000 </r>
       <r>   13.0616    0.0000 </r>
      </set>
      <set comment="kpoint 43">
       <r>    2.3608    1.0000 </r>
       <r>    2.3608    1.0000 </r>
       <r>    9.0016    0.0000 </r>
       <r>   11.4308    0.0000 </r>
       <r>   11.4308    0.0000 </r>
       <r>   15.5700    0.0000 </r>
      </set>
      <set comment="kpoint 44">
       <r>    2.0585    1.0000 </r>
       <r>    2.1052    1.0000 </r>
       <r>   11.3339    0.0000 </r>
       <r>   11.3339    0.0000 </r>
       <r>   12.2434    0.0000 </r>
       <r>   13.5416    0.0000 </r>
      </set>
     </set>
    </set>
   </array>
  </eigenvalues>
  <separator name="orbital magnetization" >
   <v name="MAGDIPOLOUT">      0.00000000      0.00000000      0.00000000</v>
  </separator>
  <dos>
   <i name="efermi">      5.67498465 </i>
   <total>
    <array>
     <dimension dim="1">gridpoints</dimension>
     <dimension dim="2">spin</dimension>
     <field>energy</field>
     <field>total</field>
     <field>integrated</field>
     <set>
      <set comment="spin 1">
       <r>    -2.8484     0.0000     0.0000 </r>
       <r>    -2.7840     0.0000     0.0000 </r>
       <r>    -2.7196     0.0000     0.0000 </r>
       <r>    -2.6553     0.0000     0.0000 </r>
       <r>    -2.5909     0.0000     0.0000 </r>
       <r>    -2.5265     0.0000     0.0000 </r>
       <r>    -2.4622     0.0000     0.0000 </r>
       <r>    -2.3978     0.0000     0.0000 </r>
       <r>    -2.3334     0.0000     0.0000 </r>
       <r>    -2.2690     0.0000     0.0000 </r>
       <r>    -2.2047     0.0000     0.0000 </r>
       <r>    -2.1403     0.0000     0.0000 </r>
       <r>    -2.0759    -0.0002     0.0000 </r>
       <r>    -2.0116    -0.0026    -0.0002 </r>
       <r>    -1.9472     0.0670     0.0041 </r>
       <r>    -1.8828     0.0315     0.0062 </r>
       <r>    -1.8185    -0.0025     0.0060 </r>
       <r>    -1.7541     0.0000     0.0060 </r>
       <r>    -1.6897     0.0000     0.0060 </r>
       <r>    -1.6254    -0.0026     0.0058 </r>
       <r>    -1.5610     0.0293     0.0077 </r>
       <r>    -1.4966     0.0995     0.0141 </r>
       <r>    -1.4323    -0.0015     0.0140 </r>
       <r>    -1.3679    -0.0005     0.0140 </r>
       <r>    -1.3035     0.0000     0.0140 </r>
       <r>    -1.2392    -0.0036     0.0138 </r>
       <r>    -1.1748     0.0259     0.0154 </r>
       <r>    -1.1104     0.3271     0.0365 </r>
       <r>    -1.0461     0.0273     0.0382 </r>
       <r>    -0.9817    -0.0037     0.0380 </r>
       <r>    -0.9173     0.0000     0.0380 </r>
       <r>    -0.8530     0.0000     0.0380 </r>
       <r>    -0.7886     0.0000     0.0380 </r>
       <r>    -0.7242     0.0000     0.0380 </r>
       <r>    -0.6599     0.0000     0.0380 </r>
       <r>    -0.5955     0.0000     0.0380 </r>
       <r>    -0.5311    -0.0014     0.0379 </r>
       <r>    -0.4667    -0.0054     0.0376 </r>
       <r>    -0.4024     0.3008     0.0569 </r>
       <r>    -0.3380     0.1700     0.0679 </r>
       <r>    -0.2736     0.0033     0.0681 </r>
       <r>    -0.2093    -0.0013     0.0680 </r>
       <r>    -0.1449    -0.0069     0.0676 </r>
       <r>    -0.0805     0.0756     0.0724 </r>
       <r>    -0.0162     0.3070     0.0922 </r>
       <r>     0.0482    -0.0014     0.0921 </r>
       <r>     0.1126    -0.0141     0.0912 </r>
       <r>     0.1769     0.1841     0.1030 </r>
       <r>     0.2413     0.2146     0.1169 </r>
       <r>     0.3057    -0.0128     0.1160 </r>
       <r>     0.3700    -0.0004     0.1160 </r>
       <r>     0.4344     0.0000     0.1160 </r>
       <r>     0.4988     0.0000     0.1160 </r>
       <r>     0.5631     0.0000     0.1160 </r>
       <r>     0.6275     0.0000     0.1160 </r>
       <r>     0.6919     0.0000     0.1160 </r>
       <r>     0.7562    -0.0044     0.1157 </r>
       <r>     0.8206     0.0189     0.1169 </r>
       <r>     0.8850     0.5189     0.1503 </r>
       <r>     0.9493     0.6009     0.1890 </r>
       <r>     1.0137    -0.0130     0.1882 </r>
       <r>     1.0781    -0.0028     0.1880 </r>
       <r>     1.1424    -0.0154     0.1870 </r>
       <r>     1.2068     0.1515     0.1968 </r>
       <r>     1.2712     0.9150     0.2557 </r>
       <r>     1.3356     0.0779     0.2607 </r>
       <r>     1.3999    -0.0236     0.2591 </r>
       <r>     1.4643     0.2002     0.2720 </r>
       <r>     1.5287     0.3278     0.2931 </r>
       <r>     1.5930     0.3312     0.3144 </r>
       <r>     1.6574     0.0935     0.3205 </r>
       <r>     1.7218    -0.0070     0.3200 </r>
       <r>     1.7861    -0.0021     0.3199 </r>
       <r>     1.8505    -0.0252     0.3183 </r>
       <r>     1.9149     0.5850     0.3559 </r>
       <r>     1.9792     0.9340     0.4160 </r>
       <r>     2.0436     0.8249     0.4691 </r>
       <r>     2.1080     0.5143     0.5022 </r>
       <r>     2.1723     0.2781     0.5201 </r>
       <r>     2.2367     0.1999     0.5330 </r>
       <r>     2.3011     0.4802     0.5639 </r>
       <r>     2.3654     0.6499     0.6057 </r>
       <r>     2.4298     0.3326     0.6271 </r>
       <r>     2.4942     0.0207     0.6285 </r>
       <r>     2.5585     0.3232     0.6493 </r>
       <r>     2.6229     0.0009     0.6493 </r>
       <r>     2.6873     0.1948     0.6619 </r>
       <r>     2.7516     0.3183     0.6823 </r>
       <r>     2.8160     1.4448     0.7753 </r>
       <r>     2.8804     1.0717     0.8443 </r>
       <r>     2.9447     0.6233     0.8845 </r>
       <r>     3.0091     0.2522     0.9007 </r>
       <r>     3.0735    -0.0101     0.9000 </r>
       <r>     3.1379     0.7517     0.9484 </r>
       <r>     3.2022     0.9058     1.0067 </r>
       <r>     3.2666     0.3931     1.0320 </r>
       <r>     3.3310     0.0357     1.0343 </r>
       <r>     3.3953    -0.0057     1.0340 </r>
       <r>     3.4597     0.0012     1.0340 </r>
       <r>     3.5241     0.1048     1.0408 </r>
       <r>     3.5884     0.0078     1.0413 </r>
       <r>     3.6528     0.1719     1.0523 </r>
       <r>     3.7172     0.4359     1.0804 </r>
       <r>     3.7815     0.7329     1.1276 </r>
       <r>     3.8459     0.2727     1.1451 </r>
       <r>     3.9103     0.2709     1.1626 </r>
       <r>     3.9746    -0.0092     1.1620 </r>
       <r>     4.0390     0.0036     1.1622 </r>
       <r>     4.1034     0.1297     1.1706 </r>
       <r>     4.1677     0.6924     1.2151 </r>
       <r>     4.2321     1.3926     1.3048 </r>
       <r>     4.2965     0.2473     1.3207 </r>
       <r>     4.3608     1.2783     1.4030 </r>
       <r>     4.4252     2.1907     1.5440 </r>
       <r>     4.4896     0.5253     1.5778 </r>
       <r>     4.5539     0.5937     1.6160 </r>
       <r>     4.6183     0.9094     1.6745 </r>
       <r>     4.6827     0.6765     1.7181 </r>
       <r>     4.7470     0.2249     1.7326 </r>
       <r>     4.8114     0.7145     1.7786 </r>
       <r>     4.8758     0.6550     1.8207 </r>
       <r>     4.9402     1.2029     1.8981 </r>
       <r>     5.0045     1.5300     1.9966 </r>
       <r>     5.0689     0.4235     2.0239 </r>
       <r>     5.1333    -0.0480     2.0208 </r>
       <r>     5.1976     0.1591     2.0310 </r>
       <r>     5.2620     1.4611     2.1251 </r>
       <r>     5.3264     1.3582     2.2125 </r>
       <r>     5.3907     1.0873     2.2825 </r>
       <r>     5.4551     0.3843     2.3072 </r>
       <r>     5.5195     0.4597     2.3368 </r>
       <r>     5.5838     0.5960     2.3752 </r>
       <r>     5.6482     1.6214     2.4795 </r>
       <r>     5.7126     0.6810     2.5234 </r>
       <r>     5.7769     0.9065     2.5817 </r>
       <r>     5.8413     0.0716     2.5863 </r>
       <r>     5.9057    -0.0055     2.5860 </r>
       <r>     5.9700     0.8814     2.6427 </r>
       <r>     6.0344     0.5206     2.6762 </r>
       <r>     6.0988     0.5260     2.7101 </r>
       <r>     6.1631     0.8942     2.7676 </r>
       <r>     6.2275     0.4096     2.7940 </r>
       <r>     6.2919    -0.0013     2.7939 </r>
       <r>     6.3562     0.0358     2.7962 </r>
       <r>     6.4206     0.2605     2.8130 </r>
       <r>     6.4850     0.0789     2.8181 </r>
       <r>     6.5493     0.0486     2.8212 </r>
       <r>     6.6137     0.3740     2.8453 </r>
       <r>     6.6781     0.1116     2.8525 </r>
       <r>     6.7425     0.3031     2.8720 </r>
       <r>     6.8068    -0.0158     2.8709 </r>
       <r>     6.8712     0.5402     2.9057 </r>
       <r>     6.9356     0.2480     2.9217 </r>
       <r>     6.9999     0.3428     2.9437 </r>
       <r>     7.0643     0.3814     2.9683 </r>
       <r>     7.1287    -0.0071     2.9678 </r>
       <r>     7.1930     0.0927     2.9738 </r>
       <r>     7.2574     0.4050     2.9999 </r>
       <r>     7.3218     0.0980     3.0062 </r>
       <r>     7.3861     0.3625     3.0295 </r>
       <r>     7.4505     0.0954     3.0357 </r>
       <r>     7.5149     0.4248     3.0630 </r>
       <r>     7.5792     0.3632     3.0864 </r>
       <r>     7.6436     0.3082     3.1062 </r>
       <r>     7.7080     0.0317     3.1083 </r>
       <r>     7.7723    -0.0041     3.1080 </r>
       <r>     7.8367     0.0000     3.1080 </r>
       <r>     7.9011    -0.0008     3.1079 </r>
       <r>     7.9654    -0.0213     3.1066 </r>
       <r>     8.0298     0.3557     3.1295 </r>
       <r>     8.0942     0.6933     3.1741 </r>
       <r>     8.1585     0.6958     3.2189 </r>
       <r>     8.2229     0.5524     3.2544 </r>
       <r>     8.2873    -0.0479     3.2514 </r>
       <r>     8.3516     0.1030     3.2580 </r>
       <r>     8.4160     0.6289     3.2985 </r>
       <r>     8.4804     0.1769     3.3098 </r>
       <r>     8.5448     0.3096     3.3298 </r>
       <r>     8.6091     0.3980     3.3554 </r>
       <r>     8.6735     0.8447     3.4098 </r>
       <r>     8.7379     0.5846     3.4474 </r>
       <r>     8.8022     0.1380     3.4563 </r>
       <r>     8.8666     0.4889     3.4877 </r>
       <r>     8.9310     0.9056     3.5460 </r>
       <r>     8.9953     0.5016     3.5783 </r>
       <r>     9.0597     0.2520     3.5945 </r>
       <r>     9.1241     0.8318     3.6481 </r>
       <r>     9.1884     1.1964     3.7251 </r>
       <r>     9.2528     0.5214     3.7587 </r>
       <r>     9.3172     0.0893     3.7644 </r>
       <r>     9.3815     1.0107     3.8295 </r>
       <r>     9.4459     0.5262     3.8633 </r>
       <r>     9.5103     0.5839     3.9009 </r>
       <r>     9.5746     0.3779     3.9252 </r>
       <r>     9.6390     0.0256     3.9269 </r>
       <r>     9.7034     0.5590     3.9629 </r>
       <r>     9.7677     0.7739     4.0127 </r>
       <r>     9.8321     0.6357     4.0536 </r>
       <r>     9.8965     0.1348     4.0623 </r>
       <r>     9.9608     0.0475     4.0653 </r>
       <r>    10.0252     0.7394     4.1129 </r>
       <r>    10.0896     1.1030     4.1839 </r>
       <r>    10.1539     0.4898     4.2155 </r>
       <r>    10.2183     0.4540     4.2447 </r>
       <r>    10.2827     0.4342     4.2726 </r>
       <r>    10.3470     0.6952     4.3174 </r>
       <r>    10.4114     0.9043     4.3756 </r>
       <r>    10.4758     1.6658     4.4828 </r>
       <r>    10.5402     1.1104     4.5543 </r>
       <r>    10.6045     1.7379     4.6662 </r>
       <r>    10.6689     1.6835     4.7745 </r>
       <r>    10.7333     2.2382     4.9186 </r>
       <r>    10.7976     1.3279     5.0041 </r>
       <r>    10.8620     1.1084     5.0754 </r>
       <r>    10.9264     0.6035     5.1143 </r>
       <r>    10.9907     0.4154     5.1410 </r>
       <r>    11.0551     0.0064     5.1414 </r>
       <r>    11.1195     0.2301     5.1562 </r>
       <r>    11.1838     0.1519     5.1660 </r>
       <r>    11.2482     0.2475     5.1819 </r>
       <r>    11.3126     0.1437     5.1912 </r>
       <r>    11.3769     0.1445     5.2005 </r>
       <r>    11.4413     0.1389     5.2094 </r>
       <r>    11.5057     0.1421     5.2186 </r>
       <r>    11.5700    -0.0123     5.2178 </r>
       <r>    11.6344     0.0269     5.2195 </r>
       <r>    11.6988     0.3144     5.2397 </r>
       <r>    11.7631     0.2254     5.2542 </r>
       <r>    11.8275     0.1956     5.2668 </r>
       <r>    11.8919    -0.0154     5.2658 </r>
       <r>    11.9562     0.0115     5.2666 </r>
       <r>    12.0206     0.3231     5.2874 </r>
       <r>    12.0850     0.0456     5.2903 </r>
       <r>    12.1493    -0.0063     5.2899 </r>
       <r>    12.2137    -0.0100     5.2893 </r>
       <r>    12.2781     0.3453     5.3115 </r>
       <r>    12.3425     0.1437     5.3208 </r>
       <r>    12.4068    -0.0117     5.3200 </r>
       <r>    12.4712    -0.0097     5.3194 </r>
       <r>    12.5356     0.1196     5.3271 </r>
       <r>    12.5999     0.2394     5.3425 </r>
       <r>    12.6643     0.3801     5.3670 </r>
       <r>    12.7287     1.4586     5.4608 </r>
       <r>    12.7930     0.4725     5.4912 </r>
       <r>    12.8574     0.6012     5.5300 </r>
       <r>    12.9218     0.8364     5.5838 </r>
       <r>    12.9861     0.5504     5.6192 </r>
       <r>    13.0505     0.1535     5.6291 </r>
       <r>    13.1149     0.5800     5.6664 </r>
       <r>    13.1792    -0.0037     5.6662 </r>
       <r>    13.2436    -0.0031     5.6660 </r>
       <r>    13.3080     0.0000     5.6660 </r>
       <r>    13.3723     0.0000     5.6660 </r>
       <r>    13.4367    -0.0002     5.6660 </r>
       <r>    13.5011    -0.0029     5.6658 </r>
       <r>    13.5654     0.0600     5.6697 </r>
       <r>    13.6298     0.0567     5.6733 </r>
       <r>    13.6942     0.3235     5.6941 </r>
       <r>    13.7585     0.0271     5.6959 </r>
       <r>    13.8229     0.1262     5.7040 </r>
       <r>    13.8873     0.0543     5.7075 </r>
       <r>    13.9516     0.1924     5.7199 </r>
       <r>    14.0160     0.2012     5.7328 </r>
       <r>    14.0804    -0.0127     5.7320 </r>
       <r>    14.1448    -0.0003     5.7320 </r>
       <r>    14.2091     0.0000     5.7320 </r>
       <r>    14.2735    -0.0028     5.7318 </r>
       <r>    14.3379     0.0028     5.7320 </r>
       <r>    14.4022     0.4516     5.7611 </r>
       <r>    14.4666     0.0910     5.7669 </r>
       <r>    14.5310     0.3572     5.7899 </r>
       <r>    14.5953     0.7556     5.8386 </r>
       <r>    14.6597     0.0557     5.8421 </r>
       <r>    14.7241     0.0931     5.8481 </r>
       <r>    14.7884    -0.0016     5.8480 </r>
       <r>    14.8528    -0.0023     5.8479 </r>
       <r>    14.9172    -0.0178     5.8467 </r>
       <r>    14.9815     0.5164     5.8800 </r>
       <r>    15.0459     0.4597     5.9096 </r>
       <r>    15.1103     0.5528     5.9451 </r>
       <r>    15.1746    -0.0182     5.9440 </r>
       <r>    15.2390     0.0114     5.9447 </r>
       <r>    15.3034     0.3126     5.9648 </r>
       <r>    15.3677     0.2035     5.9779 </r>
       <r>    15.4321     0.2319     5.9928 </r>
       <r>    15.4965    -0.0145     5.9919 </r>
       <r>    15.5608     0.0199     5.9932 </r>
       <r>    15.6252     0.1053     6.0000 </r>
       <r>    15.6896     0.0013     6.0000 </r>
       <r>    15.7539    -0.0007     6.0000 </r>
       <r>    15.8183     0.0000     6.0000 </r>
       <r>    15.8827     0.0000     6.0000 </r>
       <r>    15.9471     0.0000     6.0000 </r>
       <r>    16.0114     0.0000     6.0000 </r>
       <r>    16.0758     0.0000     6.0000 </r>
       <r>    16.1402     0.0000     6.0000 </r>
       <r>    16.2045     0.0000     6.0000 </r>
       <r>    16.2689     0.0000     6.0000 </r>
       <r>    16.3333     0.0000     6.0000 </r>
       <r>    16.3976     0.0000     6.0000 </r>
       <r>    16.4620     0.0000     6.0000 </r>
      </set>
      <set comment="spin 2">
       <r>    -2.8484     0.0000     0.0000 </r>
       <r>    -2.7840     0.0000     0.0000 </r>
       <r>    -2.7196     0.0000     0.0000 </r>
       <r>    -2.6553     0.0000     0.0000 </r>
       <r>    -2.5909     0.0000     0.0000 </r>
       <r>    -2.5265     0.0000     0.0000 </r>
       <r>    -2.4622     0.0000     0.0000 </r>
       <r>    -2.3978     0.0000     0.0000 </r>
       <r>    -2.3334     0.0000     0.0000 </r>
       <r>    -2.2690     0.0000     0.0000 </r>
       <r>    -2.2047     0.0000     0.0000 </r>
       <r>    -2.1403     0.0000     0.0000 </r>
       <r>    -2.0759    -0.0005     0.0000 </r>
       <r>    -2.0116     0.0010     0.0000 </r>
       <r>    -1.9472     0.0789     0.0051 </r>
       <r>    -1.8828     0.0153     0.0061 </r>
       <r>    -1.8185    -0.0015     0.0060 </r>
       <r>    -1.7541     0.0000     0.0060 </r>
       <r>    -1.6897    -0.0001     0.0060 </r>
       <r>    -1.6254    -0.0038     0.0057 </r>
       <r>    -1.5610     0.0532     0.0092 </r>
       <r>    -1.4966     0.0793     0.0143 </r>
       <r>    -1.4323    -0.0042     0.0140 </r>
       <r>    -1.3679    -0.0002     0.0140 </r>
       <r>    -1.3035     0.0000     0.0140 </r>
       <r>    -1.2392    -0.0069     0.0136 </r>
       <r>    -1.1748     0.0751     0.0184 </r>
       <r>    -1.1104     0.3073     0.0382 </r>
       <r>    -1.0461    -0.0010     0.0381 </r>
       <r>    -0.9817    -0.0017     0.0380 </r>
       <r>    -0.9173     0.0000     0.0380 </r>
       <r>    -0.8530     0.0000     0.0380 </r>
       <r>    -0.7886     0.0000     0.0380 </r>
       <r>    -0.7242     0.0000     0.0380 </r>
       <r>    -0.6599     0.0000     0.0380 </r>
       <r>    -0.5955     0.0000     0.0380 </r>
       <r>    -0.5311    -0.0032     0.0378 </r>
       <r>    -0.4667     0.0179     0.0389 </r>
       <r>    -0.4024     0.3394     0.0608 </r>
       <r>    -0.3380     0.1148     0.0682 </r>
       <r>    -0.2736    -0.0022     0.0680 </r>
       <r>    -0.2093    -0.0007     0.0680 </r>
       <r>    -0.1449    -0.0108     0.0673 </r>
       <r>    -0.0805     0.1440     0.0766 </r>
       <r>    -0.0162     0.2523     0.0928 </r>
       <r>     0.0482    -0.0125     0.0920 </r>
       <r>     0.1126    -0.0120     0.0912 </r>
       <r>     0.1769     0.2576     0.1078 </r>
       <r>     0.2413     0.1381     0.1167 </r>
       <r>     0.3057    -0.0105     0.1160 </r>
       <r>     0.3700    -0.0001     0.1160 </r>
       <r>     0.4344     0.0000     0.1160 </r>
       <r>     0.4988     0.0000     0.1160 </r>
       <r>     0.5631     0.0000     0.1160 </r>
       <r>     0.6275     0.0000     0.1160 </r>
       <r>     0.6919    -0.0001     0.1160 </r>
       <r>     0.7562    -0.0083     0.1155 </r>
       <r>     0.8206     0.0672     0.1198 </r>
       <r>     0.8850     0.6317     0.1605 </r>
       <r>     0.9493     0.4547     0.1897 </r>
       <r>     1.0137    -0.0257     0.1881 </r>
       <r>     1.0781    -0.0014     0.1880 </r>
       <r>     1.1424    -0.0237     0.1864 </r>
       <r>     1.2068     0.3100     0.2064 </r>
       <r>     1.2712     0.8351     0.2602 </r>
       <r>     1.3356     0.0016     0.2603 </r>
       <r>     1.3999    -0.0142     0.2593 </r>
       <r>     1.4643     0.2668     0.2765 </r>
       <r>     1.5287     0.3311     0.2978 </r>
       <r>     1.5930     0.2952     0.3168 </r>
       <r>     1.6574     0.0547     0.3203 </r>
       <r>     1.7218    -0.0054     0.3200 </r>
       <r>     1.7861    -0.0048     0.3197 </r>
       <r>     1.8505     0.0023     0.3198 </r>
       <r>     1.9149     0.7505     0.3682 </r>
       <r>     1.9792     0.8845     0.4251 </r>
       <r>     2.0436     0.8183     0.4778 </r>
       <r>     2.1080     0.4063     0.5039 </r>
       <r>     2.1723     0.3136     0.5241 </r>
       <r>     2.2367     0.1693     0.5350 </r>
       <r>     2.3011     0.5930     0.5732 </r>
       <r>     2.3654     0.6047     0.6121 </r>
       <r>     2.4298     0.2278     0.6268 </r>
       <r>     2.4942     0.0572     0.6304 </r>
       <r>     2.5585     0.3059     0.6501 </r>
       <r>     2.6229    -0.0126     0.6493 </r>
       <r>     2.6873     0.2295     0.6641 </r>
       <r>     2.7516     0.4349     0.6921 </r>
       <r>     2.8160     1.5557     0.7922 </r>
       <r>     2.8804     0.8786     0.8488 </r>
       <r>     2.9447     0.6513     0.8907 </r>
       <r>     3.0091     0.1558     0.9007 </r>
       <r>     3.0735     0.0181     0.9019 </r>
       <r>     3.1379     0.9476     0.9629 </r>
       <r>     3.2022     0.7347     1.0102 </r>
       <r>     3.2666     0.3606     1.0334 </r>
       <r>     3.3310     0.0125     1.0342 </r>
       <r>     3.3953    -0.0049     1.0339 </r>
       <r>     3.4597     0.0155     1.0349 </r>
       <r>     3.5241     0.1069     1.0418 </r>
       <r>     3.5884    -0.0088     1.0412 </r>
       <r>     3.6528     0.2322     1.0561 </r>
       <r>     3.7172     0.4843     1.0873 </r>
       <r>     3.7815     0.6939     1.1320 </r>
       <r>     3.8459     0.2418     1.1475 </r>
       <r>     3.9103     0.2372     1.1628 </r>
       <r>     3.9746    -0.0152     1.1618 </r>
       <r>     4.0390     0.0265     1.1635 </r>
       <r>     4.1034     0.1501     1.1732 </r>
       <r>     4.1677     0.9741     1.2359 </r>
       <r>     4.2321     1.1064     1.3071 </r>
       <r>     4.2965     0.3976     1.3327 </r>
       <r>     4.3608     1.4824     1.4281 </r>
       <r>     4.4252     2.0274     1.5586 </r>
       <r>     4.4896     0.3824     1.5832 </r>
       <r>     4.5539     0.6287     1.6237 </r>
       <r>     4.6183     0.9796     1.6868 </r>
       <r>     4.6827     0.5630     1.7230 </r>
       <r>     4.7470     0.2535     1.7393 </r>
       <r>     4.8114     0.7297     1.7863 </r>
       <r>     4.8758     0.6992     1.8313 </r>
       <r>     4.9402     1.3404     1.9176 </r>
       <r>     5.0045     1.4256     2.0093 </r>
       <r>     5.0689     0.2181     2.0234 </r>
       <r>     5.1333    -0.0522     2.0200 </r>
       <r>     5.1976     0.3517     2.0427 </r>
       <r>     5.2620     1.5836     2.1446 </r>
       <r>     5.3264     1.2882     2.2275 </r>
       <r>     5.3907     0.9923     2.2914 </r>
       <r>     5.4551     0.2914     2.3101 </r>
       <r>     5.5195     0.5262     2.3440 </r>
       <r>     5.5838     0.7494     2.3922 </r>
       <r>     5.6482     1.5006     2.4888 </r>
       <r>     5.7126     0.7456     2.5368 </r>
       <r>     5.7769     0.7680     2.5863 </r>
       <r>     5.8413    -0.0112     2.5855 </r>
       <r>     5.9057     0.0833     2.5909 </r>
       <r>     5.9700     0.9867     2.6544 </r>
       <r>     6.0344     0.3894     2.6795 </r>
       <r>     6.0988     0.6683     2.7225 </r>
       <r>     6.1631     0.8336     2.7761 </r>
       <r>     6.2275     0.2928     2.7950 </r>
       <r>     6.2919    -0.0214     2.7936 </r>
       <r>     6.3562     0.0881     2.7993 </r>
       <r>     6.4206     0.2597     2.8160 </r>
       <r>     6.4850     0.0259     2.8177 </r>
       <r>     6.5493     0.1257     2.8258 </r>
       <r>     6.6137     0.3371     2.8475 </r>
       <r>     6.6781     0.1267     2.8556 </r>
       <r>     6.7425     0.2602     2.8724 </r>
       <r>     6.8068     0.0184     2.8735 </r>
       <r>     6.8712     0.6302     2.9141 </r>
       <r>     6.9356     0.1442     2.9234 </r>
       <r>     6.9999     0.4305     2.9511 </r>
       <r>     7.0643     0.2778     2.9690 </r>
       <r>     7.1287    -0.0197     2.9677 </r>
       <r>     7.1930     0.1471     2.9772 </r>
       <r>     7.2574     0.4064     3.0033 </r>
       <r>     7.3218     0.0801     3.0085 </r>
       <r>     7.3861     0.3981     3.0341 </r>
       <r>     7.4505     0.0421     3.0368 </r>
       <r>     7.5149     0.5325     3.0711 </r>
       <r>     7.5792     0.2843     3.0894 </r>
       <r>     7.6436     0.2915     3.1082 </r>
       <r>     7.7080    -0.0011     3.1081 </r>
       <r>     7.7723    -0.0017     3.1080 </r>
       <r>     7.8367     0.0000     3.1080 </r>
       <r>     7.9011    -0.0018     3.1079 </r>
       <r>     7.9654    -0.0165     3.1068 </r>
       <r>     8.0298     0.4879     3.1382 </r>
       <r>     8.0942     0.6047     3.1771 </r>
       <r>     8.1585     0.8613     3.2326 </r>
       <r>     8.2229     0.3290     3.2538 </r>
       <r>     8.2873    -0.0444     3.2509 </r>
       <r>     8.3516     0.2034     3.2640 </r>
       <r>     8.4160     0.5640     3.3003 </r>
       <r>     8.4804     0.2318     3.3152 </r>
       <r>     8.5448     0.3045     3.3348 </r>
       <r>     8.6091     0.4085     3.3611 </r>
       <r>     8.6735     0.8779     3.4176 </r>
       <r>     8.7379     0.5380     3.4522 </r>
       <r>     8.8022     0.0970     3.4585 </r>
       <r>     8.8666     0.5969     3.4969 </r>
       <r>     8.9310     0.8836     3.5538 </r>
       <r>     8.9953     0.4527     3.5829 </r>
       <r>     9.0597     0.3010     3.6023 </r>
       <r>     9.1241     0.8840     3.6592 </r>
       <r>     9.1884     1.1607     3.7339 </r>
       <r>     9.2528     0.3794     3.7583 </r>
       <r>     9.3172     0.2022     3.7714 </r>
       <r>     9.3815     1.0232     3.8372 </r>
       <r>     9.4459     0.4636     3.8671 </r>
       <r>     9.5103     0.6299     3.9076 </r>
       <r>     9.5746     0.2662     3.9247 </r>
       <r>     9.6390     0.0831     3.9301 </r>
       <r>     9.7034     0.5802     3.9674 </r>
       <r>     9.7677     0.8142     4.0198 </r>
       <r>     9.8321     0.5743     4.0568 </r>
       <r>     9.8965     0.0762     4.0617 </r>
       <r>     9.9608     0.1286     4.0700 </r>
       <r>    10.0252     0.7722     4.1197 </r>
       <r>    10.0896     1.1171     4.1916 </r>
       <r>    10.1539     0.3941     4.2170 </r>
       <r>    10.2183     0.4884     4.2484 </r>
       <r>    10.2827     0.5060     4.2810 </r>
       <r>    10.3470     0.6090     4.3202 </r>
       <r>    10.4114     1.1078     4.3915 </r>
       <r>    10.4758     1.5105     4.4887 </r>
       <r>    10.5402     1.3431     4.5752 </r>
       <r>    10.6045     1.5825     4.6770 </r>
       <r>    10.6689     1.8095     4.7935 </r>
       <r>    10.7333     2.2174     4.9362 </r>
       <r>    10.7976     1.2266     5.0152 </r>
       <r>    10.8620     1.0909     5.0854 </r>
       <r>    10.9264     0.5174     5.1187 </r>
       <r>    10.9907     0.3674     5.1424 </r>
       <r>    11.0551    -0.0081     5.1418 </r>
       <r>    11.1195     0.2990     5.1611 </r>
       <r>    11.1838     0.0795     5.1662 </r>
       <r>    11.2482     0.2925     5.1850 </r>
       <r>    11.3126     0.1163     5.1925 </r>
       <r>    11.3769     0.1404     5.2015 </r>
       <r>    11.4413     0.1754     5.2128 </r>
       <r>    11.5057     0.0871     5.2184 </r>
       <r>    11.5700    -0.0142     5.2175 </r>
       <r>    11.6344     0.0814     5.2228 </r>
       <r>    11.6988     0.2923     5.2416 </r>
       <r>    11.7631     0.2669     5.2588 </r>
       <r>    11.8275     0.1223     5.2666 </r>
       <r>    11.8919    -0.0147     5.2657 </r>
       <r>    11.9562     0.0448     5.2686 </r>
       <r>    12.0206     0.3234     5.2894 </r>
       <r>    12.0850     0.0122     5.2902 </r>
       <r>    12.1493    -0.0059     5.2898 </r>
       <r>    12.2137     0.0132     5.2906 </r>
       <r>    12.2781     0.3978     5.3163 </r>
       <r>    12.3425     0.0649     5.3204 </r>
       <r>    12.4068    -0.0070     5.3200 </r>
       <r>    12.4712    -0.0127     5.3192 </r>
       <r>    12.5356     0.1969     5.3318 </r>
       <r>    12.5999     0.1541     5.3418 </r>
       <r>    12.6643     0.6888     5.3861 </r>
       <r>    12.7287     1.2714     5.4679 </r>
       <r>    12.7930     0.4681     5.4981 </r>
       <r>    12.8574     0.6099     5.5373 </r>
       <r>    12.9218     0.9287     5.5971 </r>
       <r>    12.9861     0.3296     5.6183 </r>
       <r>    13.0505     0.3117     5.6384 </r>
       <r>    13.1149     0.4533     5.6676 </r>
       <r>    13.1792    -0.0231     5.6661 </r>
       <r>    13.2436    -0.0011     5.6660 </r>
       <r>    13.3080     0.0000     5.6660 </r>
       <r>    13.3723     0.0000     5.6660 </r>
       <r>    13.4367    -0.0005     5.6660 </r>
       <r>    13.5011     0.0012     5.6660 </r>
       <r>    13.5654     0.0715     5.6706 </r>
       <r>    13.6298     0.1028     5.6773 </r>
       <r>    13.6942     0.2961     5.6963 </r>
       <r>    13.7585    -0.0041     5.6961 </r>
       <r>    13.8229     0.1530     5.7059 </r>
       <r>    13.8873     0.0243     5.7075 </r>
       <r>    13.9516     0.2609     5.7243 </r>
       <r>    14.0160     0.1305     5.7327 </r>
       <r>    14.0804    -0.0102     5.7320 </r>
       <r>    14.1448    -0.0001     5.7320 </r>
       <r>    14.2091     0.0000     5.7320 </r>
       <r>    14.2735    -0.0071     5.7315 </r>
       <r>    14.3379     0.0634     5.7356 </r>
       <r>    14.4022     0.4767     5.7663 </r>
       <r>    14.4666     0.0008     5.7664 </r>
       <r>    14.5310     0.5331     5.8007 </r>
       <r>    14.5953     0.6189     5.8405 </r>
       <r>    14.6597     0.0494     5.8437 </r>
       <r>    14.7241     0.0713     5.8483 </r>
       <r>    14.7884    -0.0043     5.8480 </r>
       <r>    14.8528    -0.0043     5.8477 </r>
       <r>    14.9172     0.0084     5.8483 </r>
       <r>    14.9815     0.5949     5.8866 </r>
       <r>    15.0459     0.4747     5.9171 </r>
       <r>    15.1103     0.4440     5.9457 </r>
       <r>    15.1746    -0.0314     5.9437 </r>
       <r>    15.2390     0.0590     5.9475 </r>
       <r>    15.3034     0.3037     5.9670 </r>
       <r>    15.3677     0.2404     5.9825 </r>
       <r>    15.4321     0.1595     5.9928 </r>
       <r>    15.4965    -0.0152     5.9918 </r>
       <r>    15.5608     0.0466     5.9948 </r>
       <r>    15.6252     0.0851     6.0003 </r>
       <r>    15.6896    -0.0038     6.0000 </r>
       <r>    15.7539    -0.0002     6.0000 </r>
       <r>    15.8183     0.0000     6.0000 </r>
       <r>    15.8827     0.0000     6.0000 </r>
       <r>    15.9471     0.0000     6.0000 </r>
       <r>    16.0114     0.0000     6.0000 </r>
       <r>    16.0758     0.0000     6.0000 </r>
       <r>    16.1402     0.0000     6.0000 </r>
       <r>    16.2045     0.0000     6.0000 </r>
       <r>    16.2689     0.0000     6.0000 </r>
       <r>    16.3333     0.0000     6.0000 </r>
       <r>    16.3976     0.0000     6.0000 </r>
       <r>    16.4620     0.0000     6.0000 </r>
      </set>
     </set>
    </array>
   </total>
   <partial>
    <array>
     <dimension dim="1">gridpoints</dimension>
     <dimension dim="2">spin</dimension>
     <dimension dim="3">ion</dimension>
     <field>energy</field>
     <field>  s</field>
     <field> py</field>
     <field> pz</field>
     <field> px</field>
     <field>dxy</field>
     <field>dyz</field>
     <field>dz2</field>
     <field>dxz</field>
     <field>dx2</field>
     <set>
      <set comment="ion 1">
       <set comment="spin 1">
        <r>    -2.8484     0.0000     0.0000     0.0000     0.0000     0.0000     0.0000     0.0000     0.0000     0.0000 </r>
        <r>    -2.7840     0.0000     0.0000     0.0000     0.0000     0.0000     0.0000     0.0000     0.0000     0.0000 </r>
        <r>    -2.7196     0.0000     0.0000     0.0000     0.0000     0.0000     0.0000     0.0000     0.0000     0.0000 </r>
        <r>    -2.6553     0.0000     0.0000     0.0000     0.0000     0.0000     0.0000     0.0000     0.0000     0.0000 </r>
        <r>    -2.5909     0.0000     0.0000     0.0000     0.0000     0.0000     0.0000     0.0000     0.0000     0.0000 </r>
        <r>    -2.5265     0.0000     0.0000     0.0000     0.0000     0.0000     0.0000     0.0000     0.0000     0.0000 </r>
        <r>    -2.4622     0.0000     0.0000     0.0000     0.0000     0.0000     0.0000     0.0000     0.0000     0.0000 </r>
        <r>    -2.3978     0.0000     0.0000     0.0000     0.0000     0.0000     0.0000     0.0000     0.0000     0.0000 </r>
        <r>    -2.3334     0.0000     0.0000     0.0000     0.0000     0.0000     0.0000     0.0000     0.0000     0.0000 </r>
        <r>    -2.2690     0.0000     0.0000     0.0000     0.0000     0.0000     0.0000     0.0000     0.0000     0.0000 </r>
        <r>    -2.2047     0.0000     0.0000     0.0000     0.0000     0.0000     0.0000     0.0000     0.0000     0.0000 </r>
        <r>    -2.1403     0.0000     0.0000     0.0000     0.0000     0.0000     0.0000     0.0000     0.0000     0.0000 </r>
        <r>    -2.0759    -0.0002     0.0000     0.0000     0.0000     0.0000     0.0000     0.0000     0.0000     0.0000 </r>
        <r>    -2.0116    -0.0022     0.0000     0.0000     0.0000     0.0000     0.0000     0.0000     0.0000     0.0000 </r>
        <r>    -1.9472     0.0564     0.0002     0.0006     0.0004     0.0000     0.0000     0.0000     0.0000     0.0000 </r>
        <r>    -1.8828     0.0265     0.0001     0.0003     0.0002     0.0000     0.0000     0.0000     0.0000     0.0000 </r>
        <r>    -1.8185    -0.0021     0.0000     0.0000     0.0000     0.0000     0.0000     0.0000     0.0000     0.0000 </r>
        <r>    -1.7541     0.0000     0.0000     0.0000     0.0000     0.0000     0.0000     0.0000     0.0000     0.0000 </r>
        <r>    -1.6897     0.0000     0.0000     0.0000     0.0000     0.0000     0.0000     0.0000     0.0000     0.0000 </r>
        <r>    -1.6254    -0.0021     0.0000    -0.0001     0.0000     0.0000     0.0000     0.0000     0.0000     0.0000 </r>
        <r>    -1.5610     0.0239     0.0003     0.0009     0.0002     0.0000     0.0001     0.0000     0.0000     0.0000 </r>
        <r>    -1.4966     0.0811     0.0010     0.0031     0.0005     0.0000     0.0002     0.0001     0.0001     0.0000 </r>
        <r>    -1.4323    -0.0012     0.0000     0.0000     0.0000     0.0000     0.0000     0.0000     0.0000     0.0000 </r>
[...]
       <set comment="band 1">
        <r>  0.5683 </r>
       </set>
       <set comment="band 2">
        <r>  0.0000 </r>
       </set>
       <set comment="band 3">
        <r>  0.0363 </r>
       </set>
       <set comment="band 4">
        <r>  0.0041 </r>
       </set>
       <set comment="band 5">
        <r>  0.0000 </r>
       </set>
       <set comment="band 6">
        <r>  0.0014 </r>
       </set>
      </set>
      <set comment="kpoint 4">
       <set comment="band 1">
        <r>  0.3529 </r>
       </set>
       <set comment="band 2">
        <r>  0.0000 </r>
       </set>
       <set comment="band 3">
        <r>  0.0694 </r>
       </set>
       <set comment="band 4">
        <r>  0.0233 </r>
       </set>
       <set comment="band 5">
        <r>  0.0000 </r>
       </set>
       <set comment="band 6">
        <r>  0.0001 </r>
       </set>
      </set>
      <set comment="kpoint 5">
       <set comment="band 1">
        <r>  0.2780 </r>
       </set>
       <set comment="band 2">
        <r>  0.0000 </r>
       </set>
       <set comment="band 3">
        <r>  0.0000 </r>
       </set>
       <set comment="band 4">
        <r>  0.0732 </r>
       </set>
       <set comment="band 5">
        <r>  0.0000 </r>
       </set>
       <set comment="band 6">
        <r>  0.0000 </r>
       </set>
      </set>
      <set comment="kpoint 6">
       <set comment="band 1">
        <r>  0.8420 </r>
       </set>
       <set comment="band 2">
        <r>  0.0000 </r>
       </set>
       <set comment="band 3">
        <r>  0.0000 </r>
       </set>
       <set comment="band 4">
        <r>  0.0000 </r>
       </set>
       <set comment="band 5">
        <r>  0.0000 </r>
       </set>
       <set comment="band 6">
        <r>  0.0002 </r>
       </set>
      </set>
      <set comment="kpoint 7">
       <set comment="band 1">
        <r>  0.6233 </r>
       </set>
       <set comment="band 2">
        <r>  0.0000 </r>
       </set>
       <set comment="band 3">
        <r>  0.0056 </r>
       </set>
       <set comment="band 4">
        <r>  0.0000 </r>
       </set>
       <set comment="band 5">
        <r>  0.0039 </r>
       </set>
       <set comment="band 6">
        <r>  0.0037 </r>
       </set>
      </set>
      <set comment="kpoint 8">
       <set comment="band 1">
        <r>  0.4210 </r>
       </set>
       <set comment="band 2">
        <r>  0.0002 </r>
       </set>
       <set comment="band 3">
        <r>  0.0467 </r>
       </set>
       <set comment="band 4">
        <r>  0.0028 </r>
       </set>
       <set comment="band 5">
        <r>  0.0140 </r>
       </set>
       <set comment="band 6">
        <r>  0.0025 </r>
       </set>
      </set>
      <set comment="kpoint 9">
       <set comment="band 1">
        <r>  0.2497 </r>
       </set>
       <set comment="band 2">
        <r>  0.0000 </r>
       </set>
       <set comment="band 3">
        <r>  0.0255 </r>
       </set>
       <set comment="band 4">
        <r>  0.0410 </r>
       </set>
       <set comment="band 5">
        <r>  0.0091 </r>
       </set>
       <set comment="band 6">
        <r>  0.0001 </r>
       </set>
      </set>
      <set comment="kpoint 10">
       <set comment="band 1">
        <r>  0.7877 </r>
       </set>
       <set comment="band 2">
        <r>  0.0000 </r>
       </set>
       <set comment="band 3">
        <r>  0.0012 </r>
       </set>
       <set comment="band 4">
        <r>  0.0000 </r>
       </set>
       <set comment="band 5">
        <r>  0.0000 </r>
       </set>
       <set comment="band 6">
        <r>  0.0018 </r>
       </set>
      </set>
      <set comment="kpoint 11">
       <set comment="band 1">
        <r>  0.2388 </r>
       </set>
       <set comment="band 2">
        <r>  0.0000 </r>
       </set>
       <set comment="band 3">
        <r>  0.0427 </r>
       </set>
       <set comment="band 4">
        <r>  0.0000 </r>
       </set>
       <set comment="band 5">
        <r>  0.0415 </r>
       </set>
       <set comment="band 6">
        <r>  0.0007 </r>
       </set>
      </set>
      <set comment="kpoint 12">
       <set comment="band 1">
        <r>  0.1614 </r>
       </set>
       <set comment="band 2">
        <r>  0.0008 </r>
       </set>
       <set comment="band 3">
        <r>  0.0000 </r>
       </set>
       <set comment="band 4">
        <r>  0.0243 </r>
       </set>
       <set comment="band 5">
        <r>  0.0000 </r>
       </set>
       <set comment="band 6">
        <r>  0.6755 </r>
       </set>
      </set>
      <set comment="kpoint 13">
       <set comment="band 1">
        <r>  0.6652 </r>
       </set>
       <set comment="band 2">
        <r>  0.0000 </r>
       </set>
       <set comment="band 3">
        <r>  0.0165 </r>
       </set>
       <set comment="band 4">
        <r>  0.0001 </r>
       </set>
       <set comment="band 5">
        <r>  0.0000 </r>
       </set>
       <set comment="band 6">
        <r>  0.0072 </r>
       </set>
      </set>
      <set comment="kpoint 14">
       <set comment="band 1">
        <r>  0.7008 </r>
       </set>
       <set comment="band 2">
        <r>  0.0000 </r>
       </set>
       <set comment="band 3">
        <r>  0.0030 </r>
       </set>
       <set comment="band 4">
        <r>  0.0000 </r>
       </set>
       <set comment="band 5">
        <r>  0.0013 </r>
       </set>
       <set comment="band 6">
        <r>  0.0117 </r>
       </set>
      </set>
      <set comment="kpoint 15">
       <set comment="band 1">
        <r>  0.4533 </r>
       </set>
       <set comment="band 2">
        <r>  0.0000 </r>
       </set>
       <set comment="band 3">
        <r>  0.0664 </r>
       </set>
       <set comment="band 4">
        <r>  0.0032 </r>
       </set>
       <set comment="band 5">
        <r>  0.0201 </r>
       </set>
       <set comment="band 6">
        <r>  0.0000 </r>
       </set>
      </set>
      <set comment="kpoint 16">
       <set comment="band 1">
        <r>  0.5377 </r>
       </set>
       <set comment="band 2">
        <r>  0.0041 </r>
       </set>
       <set comment="band 3">
        <r>  0.0184 </r>
       </set>
       <set comment="band 4">
        <r>  0.0000 </r>
       </set>
       <set comment="band 5">
        <r>  0.0037 </r>
       </set>
       <set comment="band 6">
        <r>  0.0374 </r>
       </set>
      </set>
      <set comment="kpoint 17">
       <set comment="band 1">
        <r>  0.3002 </r>
       </set>
       <set comment="band 2">
        <r>  0.0000 </r>
       </set>
       <set comment="band 3">
        <r>  0.0285 </r>
       </set>
       <set comment="band 4">
        <r>  0.0564 </r>
       </set>
       <set comment="band 5">
        <r>  0.0089 </r>
       </set>
       <set comment="band 6">
        <r>  0.0000 </r>
       </set>
      </set>
      <set comment="kpoint 18">
       <set comment="band 1">
        <r>  0.3241 </r>
       </set>
       <set comment="band 2">
        <r>  0.0035 </r>
       </set>
       <set comment="band 3">
        <r>  0.0437 </r>
       </set>
       <set comment="band 4">
        <r>  0.0200 </r>
       </set>
       <set comment="band 5">
        <r>  0.0562 </r>
       </set>
       <set comment="band 6">
        <r>  0.0057 </r>
       </set>
      </set>
      <set comment="kpoint 19">
       <set comment="band 1">
        <r>  0.3674 </r>
       </set>
       <set comment="band 2">
        <r>  0.0000 </r>
       </set>
       <set comment="band 3">
        <r>  0.0163 </r>
       </set>
       <set comment="band 4">
        <r>  0.0000 </r>
       </set>
       <set comment="band 5">
        <r>  0.0828 </r>
       </set>
       <set comment="band 6">
        <r>  0.0190 </r>
       </set>
      </set>
      <set comment="kpoint 20">
       <set comment="band 1">
        <r>  0.2466 </r>
       </set>
       <set comment="band 2">
        <r>  0.0014 </r>
       </set>
       <set comment="band 3">
        <r>  0.0000 </r>
       </set>
       <set comment="band 4">
        <r>  0.0859 </r>
       </set>
       <set comment="band 5">
        <r>  0.0000 </r>
       </set>
       <set comment="band 6">
        <r>  0.0000 </r>
       </set>
      </set>
      <set comment="kpoint 21">
       <set comment="band 1">
        <r>  0.2135 </r>
       </set>
       <set comment="band 2">
        <r>  0.0103 </r>
       </set>
       <set comment="band 3">
        <r>  0.0026 </r>
       </set>
       <set comment="band 4">
        <r>  0.0360 </r>
       </set>
       <set comment="band 5">
        <r>  0.0445 </r>
       </set>
       <set comment="band 6">
        <r>  0.0323 </r>
       </set>
      </set>
      <set comment="kpoint 22">
       <set comment="band 1">
        <r>  0.1778 </r>
       </set>
       <set comment="band 2">
        <r>  0.0000 </r>
       </set>
       <set comment="band 3">
        <r>  0.0000 </r>
       </set>
       <set comment="band 4">
        <r>  0.0000 </r>
       </set>
       <set comment="band 5">
        <r>  0.0000 </r>
       </set>
       <set comment="band 6">
        <r>  0.6073 </r>
       </set>
      </set>
      <set comment="kpoint 23">
       <set comment="band 1">
        <r>  0.5009 </r>
       </set>
       <set comment="band 2">
        <r>  0.0000 </r>
       </set>
       <set comment="band 3">
        <r>  0.0000 </r>
       </set>
       <set comment="band 4">
        <r>  0.0000 </r>
       </set>
       <set comment="band 5">
        <r>  0.0000 </r>
       </set>
       <set comment="band 6">
        <r>  0.0037 </r>
       </set>
      </set>
      <set comment="kpoint 24">
       <set comment="band 1">
        <r>  0.2502 </r>
       </set>
       <set comment="band 2">
        <r>  0.0000 </r>
       </set>
       <set comment="band 3">
        <r>  0.0614 </r>
       </set>
       <set comment="band 4">
        <r>  0.0083 </r>
       </set>
       <set comment="band 5">
        <r>  0.0000 </r>
       </set>
       <set comment="band 6">
        <r>  0.0001 </r>
       </set>
      </set>
      <set comment="kpoint 25">
       <set comment="band 1">
        <r>  0.1616 </r>
       </set>
       <set comment="band 2">
        <r>  0.0000 </r>
       </set>
       <set comment="band 3">
        <r>  0.0000 </r>
       </set>
       <set comment="band 4">
        <r>  0.0354 </r>
       </set>
       <set comment="band 5">
        <r>  0.0000 </r>
       </set>
       <set comment="band 6">
        <r>  0.6968 </r>
       </set>
      </set>
      <set comment="kpoint 26">
       <set comment="band 1">
        <r>  0.7283 </r>
       </set>
       <set comment="band 2">
        <r>  0.0000 </r>
       </set>
       <set comment="band 3">
        <r>  0.0000 </r>
       </set>
       <set comment="band 4">
        <r>  0.0000 </r>
       </set>
       <set comment="band 5">
        <r>  0.0000 </r>
       </set>
       <set comment="band 6">
        <r>  0.0163 </r>
       </set>
      </set>
      <set comment="kpoint 27">
       <set comment="band 1">
        <r>  0.0788 </r>
       </set>
       <set comment="band 2">
        <r>  0.0000 </r>
       </set>
       <set comment="band 3">
        <r>  0.0354 </r>
       </set>
       <set comment="band 4">
        <r>  0.0000 </r>
       </set>
       <set comment="band 5">
        <r>  0.0071 </r>
       </set>
       <set comment="band 6">
        <r>  0.7984 </r>
       </set>
      </set>
      <set comment="kpoint 28">
       <set comment="band 1">
        <r>  0.5997 </r>
       </set>
       <set comment="band 2">
        <r>  0.0034 </r>
       </set>
       <set comment="band 3">
        <r>  0.0000 </r>
       </set>
       <set comment="band 4">
        <r>  0.0008 </r>
       </set>
       <set comment="band 5">
        <r>  0.0000 </r>
       </set>
       <set comment="band 6">
        <r>  0.0588 </r>
       </set>
      </set>
      <set comment="kpoint 29">
       <set comment="band 1">
        <r>  0.3905 </r>
       </set>
       <set comment="band 2">
        <r>  0.0300 </r>
       </set>
       <set comment="band 3">
        <r>  0.0000 </r>
       </set>
       <set comment="band 4">
        <r>  0.0046 </r>
       </set>
       <set comment="band 5">
        <r>  0.0000 </r>
       </set>
       <set comment="band 6">
        <r>  0.1266 </r>
       </set>
      </set>
      <set comment="kpoint 30">
       <set comment="band 1">
        <r>  0.4323 </r>
       </set>
       <set comment="band 2">
        <r>  0.0000 </r>
       </set>
       <set comment="band 3">
        <r>  0.0012 </r>
       </set>
       <set comment="band 4">
        <r>  0.0000 </r>
       </set>
       <set comment="band 5">
        <r>  0.0264 </r>
       </set>
       <set comment="band 6">
        <r>  0.1283 </r>
       </set>
      </set>
      <set comment="kpoint 31">
       <set comment="band 1">
        <r>  0.2273 </r>
       </set>
       <set comment="band 2">
        <r>  0.0000 </r>
       </set>
       <set comment="band 3">
        <r>  0.0172 </r>
       </set>
       <set comment="band 4">
        <r>  0.0911 </r>
       </set>
       <set comment="band 5">
        <r>  0.0506 </r>
       </set>
       <set comment="band 6">
        <r>  0.0000 </r>
       </set>
      </set>
      <set comment="kpoint 32">
       <set comment="band 1">
        <r>  0.2259 </r>
       </set>
       <set comment="band 2">
        <r>  0.0236 </r>
       </set>
       <set comment="band 3">
        <r>  0.0049 </r>
       </set>
       <set comment="band 4">
        <r>  0.0345 </r>
       </set>
       <set comment="band 5">
        <r>  0.1194 </r>
       </set>
       <set comment="band 6">
        <r>  0.0576 </r>
       </set>
      </set>
      <set comment="kpoint 33">
       <set comment="band 1">
        <r>  0.1362 </r>
       </set>
       <set comment="band 2">
        <r>  0.0000 </r>
       </set>
       <set comment="band 3">
        <r>  0.0447 </r>
       </set>
       <set comment="band 4">
        <r>  0.0952 </r>
       </set>
       <set comment="band 5">
        <r>  0.0000 </r>
       </set>
       <set comment="band 6">
        <r>  0.0000 </r>
       </set>
      </set>
      <set comment="kpoint 34">
       <set comment="band 1">
        <r>  0.1013 </r>
       </set>
       <set comment="band 2">
        <r>  0.0000 </r>
       </set>
       <set comment="band 3">
        <r>  0.0837 </r>
       </set>
       <set comment="band 4">
        <r>  0.0000 </r>
       </set>
       <set comment="band 5">
        <r>  0.0595 </r>
       </set>
       <set comment="band 6">
        <r>  0.2750 </r>
       </set>
      </set>
      <set comment="kpoint 35">
       <set comment="band 1">
        <r>  0.0000 </r>
       </set>
       <set comment="band 2">
        <r>  0.0000 </r>
       </set>
       <set comment="band 3">
        <r>  0.0000 </r>
       </set>
       <set comment="band 4">
        <r>  0.0000 </r>
       </set>
       <set comment="band 5">
        <r>  0.0000 </r>
       </set>
       <set comment="band 6">
        <r>  0.9493 </r>
       </set>
      </set>
      <set comment="kpoint 36">
       <set comment="band 1">
        <r>  0.4484 </r>
       </set>
       <set comment="band 2">
        <r>  0.0000 </r>
       </set>
       <set comment="band 3">
        <r>  0.0000 </r>
       </set>
       <set comment="band 4">
        <r>  0.0000 </r>
       </set>
       <set comment="band 5">
        <r>  0.0000 </r>
       </set>
       <set comment="band 6">
        <r>  0.1749 </r>
       </set>
      </set>
      <set comment="kpoint 37">
       <set comment="band 1">
        <r>  0.2372 </r>
       </set>
       <set comment="band 2">
        <r>  0.0051 </r>
       </set>
       <set comment="band 3">
        <r>  0.0000 </r>
       </set>
       <set comment="band 4">
        <r>  0.0269 </r>
       </set>
       <set comment="band 5">
        <r>  0.0000 </r>
       </set>
       <set comment="band 6">
        <r>  0.2725 </r>
       </set>
      </set>
      <set comment="kpoint 38">
       <set comment="band 1">
        <r>  0.0786 </r>
       </set>
       <set comment="band 2">
        <r>  0.0116 </r>
       </set>
       <set comment="band 3">
        <r>  0.0000 </r>
       </set>
       <set comment="band 4">
        <r>  0.1578 </r>
       </set>
       <set comment="band 5">
        <r>  0.0000 </r>
       </set>
       <set comment="band 6">
        <r>  0.1159 </r>
       </set>
      </set>
      <set comment="kpoint 39">
       <set comment="band 1">
        <r>  0.0771 </r>
       </set>
       <set comment="band 2">
        <r>  0.0000 </r>
       </set>
       <set comment="band 3">
        <r>  0.0801 </r>
       </set>
       <set comment="band 4">
        <r>  0.0000 </r>
       </set>
       <set comment="band 5">
        <r>  0.1504 </r>
       </set>
       <set comment="band 6">
        <r>  0.1173 </r>
       </set>
      </set>
      <set comment="kpoint 40">
       <set comment="band 1">
        <r>  0.0138 </r>
       </set>
       <set comment="band 2">
        <r>  0.0000 </r>
       </set>
       <set comment="band 3">
        <r>  0.1261 </r>
       </set>
       <set comment="band 4">
        <r>  0.0386 </r>
       </set>
       <set comment="band 5">
        <r>  0.0000 </r>
       </set>
       <set comment="band 6">
        <r>  0.0000 </r>
       </set>
      </set>
      <set comment="kpoint 41">
       <set comment="band 1">
        <r>  0.0747 </r>
       </set>
       <set comment="band 2">
        <r>  0.0000 </r>
       </set>
       <set comment="band 3">
        <r>  0.0000 </r>
       </set>
       <set comment="band 4">
        <r>  0.0000 </r>
       </set>
       <set comment="band 5">
        <r>  0.0000 </r>
       </set>
       <set comment="band 6">
        <r>  0.3865 </r>
       </set>
      </set>
      <set comment="kpoint 42">
       <set comment="band 1">
        <r>  0.0043 </r>
       </set>
       <set comment="band 2">
        <r>  0.0072 </r>
       </set>
       <set comment="band 3">
        <r>  0.1051 </r>
       </set>
       <set comment="band 4">
        <r>  0.0000 </r>
       </set>
       <set comment="band 5">
        <r>  0.0000 </r>
       </set>
       <set comment="band 6">
        <r>  0.1684 </r>
       </set>
      </set>
      <set comment="kpoint 43">
       <set comment="band 1">
        <r>  0.0000 </r>
       </set>
       <set comment="band 2">
        <r>  0.0000 </r>
       </set>
       <set comment="band 3">
        <r>  0.0750 </r>
       </set>
       <set comment="band 4">
        <r>  0.0000 </r>
       </set>
       <set comment="band 5">
        <r>  0.0000 </r>
       </set>
       <set comment="band 6">
        <r>  0.0000 </r>
       </set>
      </set>
      <set comment="kpoint 44">
       <set comment="band 1">
        <r>  0.0000 </r>
       </set>
       <set comment="band 2">
        <r>  0.0007 </r>
       </set>
       <set comment="band 3">
        <r>  0.0000 </r>
       </set>
       <set comment="band 4">
        <r>  0.0000 </r>
       </set>
       <set comment="band 5">
        <r>  0.0000 </r>
       </set>
       <set comment="band 6">
        <r>  0.1259 </r>
       </set>
      </set>
     </set>
    </set>
   </array>
  </projected>
 </calculation>
 <structure name="finalpos" >
  <crystal>
   <varray name="basis" >
    <v>       2.86654409       0.00000000       0.00000000 </v>
    <v>      -0.95551470       2.70260368       0.00000000 </v>
    <v>      -0.95551470      -1.35130184       2.34052345 </v>
   </varray>
   <i name="volume">     18.13234550 </i>
   <varray name="rec_basis" >
    <v>       0.34885213       0.12333785       0.21362743 </v>
    <v>       0.00000000       0.37001356       0.21362743 </v>
    <v>       0.00000000       0.00000000       0.42725485 </v>
   </varray>
  </crystal>
  <varray name="positions" >
   <v>       0.00000000       0.00000000       0.00000000 </v>
  </varray>
 </structure>
</modeling>
