    2    2   50    1
  0.5000000E+03  0.1000000E-08  0.1000000E-08  0.1000000E-08  0.5000000E-15
  1.000000000000000E-004
  CAR 
 unknown system                          
   10    1    9
 
  0.0000000E+00  0.0000000E+00  0.0000000E+00  0.1000000E+01
   1      -29.190732
   2      -13.955615
   3      -11.635135
   4      -11.635135
   5       -8.928238
   6       -2.007362
   7       -2.007362
   8       -0.183869
   9        1.063293
