       N       E                     dE             d eps       ncg     rms          rms(c)
DAV:   1     0.791408548708E+02    0.79141E+02   -0.17558E+03    18   0.442E+02
DAV:   2    -0.374188301687E+00   -0.79515E+02   -0.79429E+02    35   0.128E+02
DAV:   3    -0.151236577800E+02   -0.14749E+02   -0.14748E+02    36   0.738E+01
DAV:   4    -0.152538141204E+02   -0.13016E+00   -0.13016E+00    28   0.720E+00
DAV:   5    -0.152539065572E+02   -0.92437E-04   -0.92437E-04    28   0.186E-01    0.563E+00
DAV:   6    -0.147853938751E+02    0.46851E+00   -0.36684E+00    19   0.124E+01    0.320E+00
DAV:   7    -0.146762598505E+02    0.10913E+00   -0.70550E-01    19   0.506E+00    0.166E+00
DAV:   8    -0.146411830980E+02    0.35077E-01   -0.11967E-01    18   0.268E+00    0.291E-01
DAV:   9    -0.146411228087E+02    0.60289E-04   -0.82855E-03    20   0.651E-01    0.137E-01
DAV:  10    -0.146419706367E+02   -0.84783E-03   -0.21261E-03    18   0.360E-01    0.328E-02
DAV:  11    -0.146432992614E+02   -0.13286E-02   -0.56975E-04    19   0.155E-01    0.260E-02
DAV:  12    -0.146440079284E+02   -0.70867E-03   -0.11416E-04    18   0.730E-02    0.108E-02
DAV:  13    -0.146449428872E+02   -0.93496E-03   -0.12519E-04    18   0.566E-02    0.452E-03
DAV:  14    -0.146451784896E+02   -0.23560E-03   -0.14008E-05    19   0.190E-02    0.323E-03
DAV:  15    -0.146453688976E+02   -0.19041E-03   -0.14521E-05    20   0.188E-02    0.182E-03
DAV:  16    -0.146454118783E+02   -0.42981E-04   -0.24436E-06    20   0.927E-03
   1 F= -.14645412E+02 E0= -.14646378E+02  d E =-.146454E+02
       N       E                     dE             d eps       ncg     rms          rms(c)
DAV:   1     0.209385945762E+02    0.35584E+02   -0.74128E+02    18   0.289E+02    0.111E+01
DAV:   2     0.224596537289E+02    0.15211E+01   -0.23154E+01    34   0.525E+01    0.776E+00
DAV:   3     0.239780735188E+02    0.15184E+01   -0.11151E+01    36   0.335E+01    0.230E+00
DAV:   4     0.240758390524E+02    0.97766E-01   -0.13138E+00    18   0.109E+01    0.112E+00
DAV:   5     0.240912591244E+02    0.15420E-01   -0.13316E-01    18   0.412E+00    0.174E-01
DAV:   6     0.240893760575E+02   -0.18831E-02   -0.51931E-03    36   0.675E-01    0.878E-02
DAV:   7     0.240866069046E+02   -0.27692E-02   -0.14520E-03    20   0.349E-01    0.468E-02
DAV:   8     0.240840281513E+02   -0.25788E-02   -0.20635E-03    20   0.337E-01    0.652E-02
DAV:   9     0.240814975181E+02   -0.25306E-02   -0.84006E-04    20   0.254E-01    0.162E-02
DAV:  10     0.240798204871E+02   -0.16770E-02   -0.32198E-04    20   0.947E-02    0.928E-03
DAV:  11     0.240794137897E+02   -0.40670E-03   -0.32081E-05    28   0.342E-02    0.602E-03
DAV:  12     0.240791957358E+02   -0.21805E-03   -0.17303E-05    18   0.260E-02    0.370E-03
DAV:  13     0.240791257443E+02   -0.69991E-04   -0.63301E-06    20   0.207E-02
   2 F= 0.24079126E+02 E0= 0.24078159E+02  d E =0.387245E+02
       N       E                     dE             d eps       ncg     rms          rms(c)
DAV:   1    -0.190505670795E+02   -0.43130E+02   -0.71839E+02    18   0.286E+02    0.132E+01
DAV:   2    -0.156518930050E+02    0.33987E+01   -0.19912E+01    34   0.412E+01    0.605E+00
DAV:   3    -0.147914355979E+02    0.86046E+00   -0.43548E+00    28   0.148E+01    0.261E+00
DAV:   4    -0.146768375350E+02    0.11460E+00   -0.55651E-01    28   0.716E+00    0.825E-01
DAV:   5    -0.146821226532E+02   -0.52851E-02   -0.40633E-02    19   0.206E+00    0.319E-01
DAV:   6    -0.146832713279E+02   -0.11487E-02   -0.13438E-02    19   0.805E-01    0.805E-02
DAV:   7    -0.146839554978E+02   -0.68417E-03   -0.55475E-04    19   0.190E-01    0.460E-02
DAV:   8    -0.146853491381E+02   -0.13936E-02   -0.10911E-03    19   0.229E-01    0.528E-02
DAV:   9    -0.146860576659E+02   -0.70853E-03   -0.49976E-04    19   0.153E-01    0.124E-02
DAV:  10    -0.146864841675E+02   -0.42650E-03   -0.56647E-05    20   0.560E-02    0.822E-03
DAV:  11    -0.146866633707E+02   -0.17920E-03   -0.18842E-05    20   0.266E-02    0.640E-03
DAV:  12    -0.146867745519E+02   -0.11118E-03   -0.68678E-06    18   0.175E-02    0.189E-03
DAV:  13    -0.146868150062E+02   -0.40454E-04   -0.21002E-06    19   0.937E-03
   3 F= -.14686815E+02 E0= -.14687781E+02  d E =-.387659E+02
       N       E                     dE             d eps       ncg     rms          rms(c)
DAV:   1    -0.147180870466E+02   -0.31312E-01   -0.13684E-01    20   0.387E+00    0.111E-01
DAV:   2    -0.147180055858E+02    0.81461E-04   -0.30347E-03    18   0.493E-01    0.643E-02
DAV:   3    -0.147179396510E+02    0.65935E-04   -0.29056E-04    18   0.156E-01
   4 F= -.14717940E+02 E0= -.14718906E+02  d E =-.311246E-01
       N       E                     dE             d eps       ncg     rms          rms(c)
DAV:   1    -0.148047721462E+02   -0.86767E-01   -0.63138E+00    18   0.265E+01    0.775E-01
DAV:   2    -0.148011772494E+02    0.35949E-02   -0.13272E-01    18   0.342E+00    0.461E-01
DAV:   3    -0.147967260810E+02    0.44512E-02   -0.18678E-02    28   0.123E+00    0.115E-01
DAV:   4    -0.147969022418E+02   -0.17616E-03   -0.56566E-04    20   0.222E-01    0.537E-02
DAV:   5    -0.147971340311E+02   -0.23179E-03   -0.59188E-05    20   0.712E-02    0.146E-02
DAV:   6    -0.147972630329E+02   -0.12900E-03   -0.13800E-05    18   0.367E-02    0.732E-03
DAV:   7    -0.147975425683E+02   -0.27954E-03   -0.35593E-05    20   0.398E-02    0.516E-03
DAV:   8    -0.147976586097E+02   -0.11604E-03   -0.99502E-06    20   0.193E-02    0.355E-03
DAV:   9    -0.147977496914E+02   -0.91082E-04   -0.64103E-06    20   0.176E-02
   5 F= -.14797750E+02 E0= -.14798716E+02  d E =-.798100E-01
       N       E                     dE             d eps       ncg     rms          rms(c)
DAV:   1    -0.148024570908E+02   -0.47985E-02   -0.26811E-01    18   0.547E+00    0.167E-01
DAV:   2    -0.148021452383E+02    0.31185E-03   -0.55172E-03    20   0.692E-01    0.936E-02
DAV:   3    -0.148020006336E+02    0.14460E-03   -0.84415E-04    18   0.260E-01    0.219E-02
DAV:   4    -0.148020294659E+02   -0.28832E-04   -0.21885E-05    18   0.462E-02
   6 F= -.14802029E+02 E0= -.14802996E+02  d E =-.427977E-02
       N       E                     dE             d eps       ncg     rms          rms(c)
DAV:   1    -0.148021623269E+02   -0.16169E-03   -0.44496E-03    18   0.707E-01    0.212E-02
DAV:   2    -0.148021666813E+02   -0.43543E-05   -0.10308E-04    19   0.930E-02
   7 F= -.14802167E+02 E0= -.14803133E+02  d E =-.137215E-03
