<?xml version="1.0" encoding="ISO-8859-1"?>
<modeling>
 <generator>
  <i name="program" type="string">vasp </i>
  <i name="version" type="string">5.2.12  </i>
  <i name="subversion" type="string">11Nov11 complex                                                      parallel </i>
  <i name="platform" type="string">LinuxIFC </i>
  <i name="date" type="string">2012 10 09 </i>
  <i name="time" type="string">20:12:59 </i>
 </generator>
 <incar>
  <i type="string" name="PREC">accurate</i>
  <i type="int" name="IBRION">     1</i>
  <i name="EDIFFG">     -0.05000000</i>
  <i type="int" name="NSW">    50</i>
  <i type="int" name="ISIF">     2</i>
  <i name="ENCUT">    350.00000000</i>
  <i type="logical" name="LREAL"> F  </i>
  <i type="int" name="ISMEAR">     1</i>
  <i name="SIGMA">      0.05000000</i>
 </incar>
 <kpoints>
  <generation param="Monkhorst-Pack">
   <v type="int" name="divisions">       1        1        1 </v>
   <v name="usershift">      0.00000000       0.00000000       0.00000000 </v>
   <v name="genvec1">      1.00000000       0.00000000       0.00000000 </v>
   <v name="genvec2">      0.00000000       1.00000000       0.00000000 </v>
   <v name="genvec3">      0.00000000       0.00000000       1.00000000 </v>
   <v name="shift">      0.00000000       0.00000000       0.00000000 </v>
  </generation>
  <varray name="kpointlist" >
   <v>       0.00000000       0.00000000       0.00000000 </v>
  </varray>
  <varray name="weights" >
   <v>       1.00000000 </v>
  </varray>
 </kpoints>
 <parameters>
  <separator name="general" >
   <i type="string" name="SYSTEM">unknown system</i>
   <i type="logical" name="LCOMPAT"> F  </i>
  </separator>
  <separator name="electronic" >
   <i type="string" name="PREC">accura</i>
   <i name="ENMAX">    350.00000000</i>
   <i name="ENAUG">    644.87300000</i>
   <i name="EDIFF">      0.00010000</i>
   <i type="int" name="IALGO">    38</i>
   <i type="int" name="IWAVPR">    11</i>
   <i type="int" name="NBANDS">     9</i>
   <i name="NELECT">     10.00000000</i>
   <i type="int" name="TURBO">     0</i>
   <i type="int" name="IRESTART">     0</i>
   <i type="int" name="NREBOOT">     0</i>
   <i type="int" name="NMIN">     0</i>
   <i name="EREF">      0.00000000</i>
   <separator name="electronic smearing" >
    <i type="int" name="ISMEAR">     1</i>
    <i name="SIGMA">      0.05000000</i>
    <i name="KSPACING">      0.50000000</i>
    <i type="logical" name="KGAMMA"> T  </i>
   </separator>
   <separator name="electronic projectors" >
    <i type="logical" name="LREAL"> F  </i>
    <v name="ROPT">      0.00000000      0.00000000</v>
    <i type="int" name="LMAXPAW">  -100</i>
    <i type="int" name="LMAXMIX">     2</i>
    <i type="logical" name="NLSPLINE"> F  </i>
   </separator>
   <separator name="electronic startup" >
    <i type="int" name="ISTART">     0</i>
    <i type="int" name="ICHARG">     2</i>
    <i type="int" name="INIWAV">     1</i>
   </separator>
   <separator name="electronic spin" >
    <i type="int" name="ISPIN">     1</i>
    <i type="logical" name="LNONCOLLINEAR"> F  </i>
    <v name="MAGMOM">      1.00000000      1.00000000</v>
    <i name="NUPDOWN">     -1.00000000</i>
    <i type="logical" name="LSORBIT"> F  </i>
    <v name="SAXIS">      0.00000000      0.00000000      1.00000000</v>
    <i type="logical" name="LSPIRAL"> F  </i>
    <v name="QSPIRAL">      0.00000000      0.00000000      0.00000000</v>
    <i type="logical" name="LZEROZ"> F  </i>
   </separator>
   <separator name="electronic exchange-correlation" >
    <i type="logical" name="LASPH"> F  </i>
    <i type="logical" name="LMETAGGA"> F  </i>
   </separator>
   <separator name="electronic convergence" >
    <i type="int" name="NELM">    60</i>
    <i type="int" name="NELMDL">    -5</i>
    <i type="int" name="NELMIN">     2</i>
    <i name="ENINI">    350.00000000</i>
    <separator name="electronic convergence detail" >
     <i type="logical" name="LDIAG"> T  </i>
     <i type="logical" name="LSUBROT"> T  </i>
     <i name="WEIMIN">      0.00100000</i>
     <i name="EBREAK">      0.00000278</i>
     <i name="DEPER">      0.30000000</i>
     <i type="int" name="NRMM">     4</i>
     <i name="TIME">      0.40000000</i>
    </separator>
   </separator>
   <separator name="electronic mixer" >
    <i name="AMIX">      0.40000000</i>
    <i name="BMIX">      1.00000000</i>
    <i name="AMIN">      0.10000000</i>
    <i name="AMIX_MAG">      1.60000000</i>
    <i name="BMIX_MAG">      1.00000000</i>
    <separator name="electronic mixer details" >
     <i type="int" name="IMIX">     4</i>
     <i type="int" name="MAXMIX">   -45</i>
     <i name="WC">    100.00000000</i>
     <i type="int" name="INIMIX">     1</i>
     <i type="int" name="MIXPRE">     1</i>
     <i type="int" name="MREMOVE">     5</i>
    </separator>
   </separator>
   <separator name="electronic dipolcorrection" >
    <i type="logical" name="LDIPOL"> F  </i>
    <i type="logical" name="LMONO"> F  </i>
    <i type="int" name="IDIPOL">     0</i>
    <i name="EPSILON">      1.00000000</i>
    <v name="DIPOL">   -100.00000000   -100.00000000   -100.00000000</v>
    <i name="EFIELD">      0.00000000</i>
   </separator>
  </separator>
  <separator name="grids" >
   <i type="int" name="NGX">    64</i>
   <i type="int" name="NGY">    64</i>
   <i type="int" name="NGZ">    64</i>
   <i type="int" name="NGXF">   128</i>
   <i type="int" name="NGYF">   128</i>
   <i type="int" name="NGZF">   128</i>
   <i type="logical" name="ADDGRID"> F  </i>
  </separator>
  <separator name="ionic" >
   <i type="int" name="NSW">    50</i>
   <i type="int" name="IBRION">     1</i>
   <i type="int" name="ISIF">     2</i>
   <i name="PSTRESS">      0.00000000</i>
   <i name="EDIFFG">     -0.05000000</i>
   <i type="int" name="NFREE">     0</i>
   <i name="POTIM">      0.50000000</i>
   <i name="SMASS">     -3.00000000</i>
   <i name="SCALEE">      1.00000000</i>
  </separator>
  <separator name="ionic md" >
   <i name="TEBEG">      0.00010000</i>
   <i name="TEEND">      0.00010000</i>
   <i type="int" name="NBLOCK">     1</i>
   <i type="int" name="KBLOCK">    50</i>
   <i type="int" name="NPACO">   256</i>
   <i name="APACO">     16.00000000</i>
  </separator>
  <separator name="symmetry" >
   <i type="int" name="ISYM">     2</i>
   <i name="SYMPREC">      0.00001000</i>
  </separator>
  <separator name="dos" >
   <i type="logical" name="LORBIT"> F  </i>
   <v name="RWIGS">     -1.00000000     -1.00000000</v>
   <i type="int" name="NEDOS">   301</i>
   <i name="EMIN">     10.00000000</i>
   <i name="EMAX">    -10.00000000</i>
   <i name="EFERMI">      0.00000000</i>
  </separator>
  <separator name="writing" >
   <i type="int" name="NWRITE">     2</i>
   <i type="logical" name="LWAVE"> T  </i>
   <i type="logical" name="LCHARG"> T  </i>
   <i type="logical" name="LPARD"> F  </i>
   <i type="logical" name="LVTOT"> F  </i>
   <i type="logical" name="LVHAR"> F  </i>
   <i type="logical" name="LELF"> F  </i>
   <i type="logical" name="LOPTICS"> F  </i>
   <v name="STM">      0.00000000      0.00000000      0.00000000      0.00000000      0.00000000      0.00000000      0.00000000</v>
  </separator>
  <separator name="performance" >
   <i type="int" name="NPAR">     1</i>
   <i type="int" name="NSIM">     4</i>
   <i type="int" name="NBLK">    -1</i>
   <i type="logical" name="LPLANE"> T  </i>
   <i type="logical" name="LSCALAPACK"> F  </i>
   <i type="logical" name="LSCAAWARE"> F  </i>
   <i type="logical" name="LSCALU"> F  </i>
   <i type="logical" name="LASYNC"> F  </i>
   <i type="logical" name="LORBITALREAL"> F  </i>
  </separator>
  <separator name="miscellaneous" >
   <i type="int" name="IDIOT">     3</i>
   <i type="logical" name="LMUSIC"> F  </i>
   <v name="POMASS">     12.01100000     16.00000000</v>
   <v name="DARWINR">      0.00000000      0.00000000</v>
   <v name="DARWINV">      1.00000000      1.00000000</v>
   <i type="logical" name="LCORR"> T  </i>
  </separator>
  <i type="logical" name="GGA_COMPAT"> T  </i>
  <i type="logical" name="LBERRY"> F  </i>
  <i type="int" name="ICORELEVEL">     0</i>
  <i type="logical" name="LDAU"> F  </i>
  <i type="int" name="I_CONSTRAINED_M">     0</i>
  <separator name="electronic exchange-correlation" >
   <i type="string" name="GGA">--</i>
   <i type="int" name="VOSKOWN">     0</i>
   <i type="logical" name="LHFCALC"> F  </i>
   <i type="string" name="PRECFOCK"></i>
   <i type="logical" name="LHFONE"> F  </i>
   <i type="logical" name="LRHFCALC"> F  </i>
   <i type="logical" name="LTHOMAS"> F  </i>
   <i type="logical" name="LMODELHF"> F  </i>
   <i name="ENCUT4O">     -1.00000000</i>
   <i type="int" name="EXXOEP">     0</i>
   <i type="int" name="FOURORBIT">     0</i>
   <i name="AEXX">      0.00000000</i>
   <i name="HFALPHA">      0.00000000</i>
   <i name="ALDAX">      1.00000000</i>
   <i name="AGGAX">      1.00000000</i>
   <i name="ALDAC">      1.00000000</i>
   <i name="AGGAC">      1.00000000</i>
   <i type="int" name="NKREDX">     1</i>
   <i type="int" name="NKREDY">     1</i>
   <i type="int" name="NKREDZ">     1</i>
   <i type="logical" name="SHIFTRED"> F  </i>
   <i type="logical" name="ODDONLY"> F  </i>
   <i type="logical" name="EVENONLY"> F  </i>
   <i type="int" name="LMAXFOCK">     0</i>
   <i type="int" name="NMAXFOCKAE">     0</i>
   <i type="logical" name="LFOCKAEDFT"> F  </i>
   <i name="HFSCREEN">      0.00000000</i>
   <i name="HFSCREENC">      0.00000000</i>
  </separator>
  <separator name="vdW DFT" >
   <i type="logical" name="LUSE_VDW"> F  </i>
   <i name="Zab_VDW">     -0.84910000</i>
   <i name="PARAM1">      0.12340000</i>
   <i name="PARAM2">      1.00000000</i>
   <i name="PARAM3">      0.00000000</i>
  </separator>
  <separator name="model GW" >
   <i type="int" name="MODEL_GW">     0</i>
   <i name="MODEL_EPS0">    300.00000000</i>
   <i name="MODEL_ALPHA">      1.00000000</i>
  </separator>
  <separator name="linear response parameters" >
   <i type="logical" name="LEPSILON"> F  </i>
   <i type="logical" name="LRPA"> F  </i>
   <i type="logical" name="LNABLA"> F  </i>
   <i type="logical" name="LVEL"> F  </i>
   <i type="int" name="KINTER">     0</i>
   <i name="CSHIFT">      0.10000000</i>
   <i name="OMEGAMAX">     -1.00000000</i>
  </separator>
  <separator name="orbital magnetization" >
   <i type="logical" name="NUCIND"> F  </i>
   <v name="MAGPOS">      0.00000000      0.00000000      0.00000000</v>
   <i type="logical" name="LNICSALL"> T  </i>
   <i type="logical" name="ORBITALMAG"> F  </i>
   <i type="logical" name="LMAGBLOCH"> F  </i>
   <i type="logical" name="LCHIMAG"> F  </i>
   <i type="logical" name="LGAUGE"> T  </i>
   <i type="int" name="MAGATOM">     0</i>
   <v name="MAGDIPOL">      0.00000000      0.00000000      0.00000000</v>
   <v name="AVECCONST">      0.00000000      0.00000000      0.00000000</v>
  </separator>
  <separator name="response functions" >
   <i type="logical" name="LADDER"> F  </i>
   <i type="logical" name="LHARTREE"> T  </i>
   <i type="int" name="IBSE">     0</i>
   <i type="logical" name="LTCTE"> F  </i>
   <i type="logical" name="LTETE"> F  </i>
   <i type="logical" name="LFXCEPS"> F  </i>
   <i type="logical" name="L2ORDER"> F  </i>
   <i type="logical" name="LUSEW"> F  </i>
   <i name="ENCUTGW">     -2.00000000</i>
   <i name="ENCUTGWSOFT">     -2.00000000</i>
   <i name="ENCUTLF">     -1.00000000</i>
   <i type="int" name="LMAXMP2">    -1</i>
   <i name="SCISSOR">      0.00000000</i>
   <i type="int" name="NOMEGA">     0</i>
   <i type="int" name="NOMEGAR">     0</i>
   <i type="int" name="NBANDSGW">    -1</i>
   <i type="int" name="NBANDSO">    -1</i>
   <i type="int" name="NBANDSV">    -1</i>
   <i name="OPTEMAX">      0.00000000</i>
   <i type="int" name="NELM">     1</i>
   <i type="int" name="DIM">     3</i>
   <i type="int" name="ANTIRES">     0</i>
   <i name="OMEGAMAX">    -30.00000000</i>
   <i name="OMEGATL">   -200.00000000</i>
   <i type="int" name="OMEGAGRID">     0</i>
   <i name="CSHIFT">     -0.10000000</i>
   <i type="logical" name="SELFENERGY"> F  </i>
   <i type="logical" name="LSPECTRAL"> F  </i>
   <i type="logical" name="ODDONLYGW"> F  </i>
   <i type="logical" name="EVENONLYGW"> F  </i>
   <i type="int" name="NKREDLFX">     1</i>
   <i type="int" name="NKREDLFY">     1</i>
   <i type="int" name="NKREDLFZ">     1</i>
   <i type="int" name="MAXMEM">  1800</i>
   <i type="int" name="TELESCOPE">     0</i>
  </separator>
 </parameters>
 <atominfo>
  <atoms>       2 </atoms>
  <types>       2 </types>
  <array name="atoms" >
   <dimension dim="1">ion</dimension>
   <field type="string">element</field>
   <field type="int">atomtype</field>
   <set>
    <rc><c>C </c><c>   1</c></rc>
    <rc><c>O </c><c>   2</c></rc>
   </set>
  </array>
  <array name="atomtypes" >
   <dimension dim="1">type</dimension>
   <field type="int">atomspertype</field>
   <field type="string">element</field>
   <field>mass</field>
   <field>valence</field>
   <field type="string">pseudopotential</field>
   <set>
    <rc><c>   1</c><c>C </c><c>     12.01100000</c><c>      4.00000000</c><c> PAW_PBE C 08Apr2002                    </c></rc>
    <rc><c>   1</c><c>O </c><c>     16.00000000</c><c>      6.00000000</c><c> PAW_PBE O 08Apr2002                    </c></rc>
   </set>
  </array>
 </atominfo>
 <structure name="initialpos" >
  <crystal>
   <varray name="basis" >
    <v>      10.00000000       0.00000000       0.00000000 </v>
    <v>       0.00000000      10.00000000       0.00000000 </v>
    <v>       0.00000000       0.00000000      10.00000000 </v>
   </varray>
   <i name="volume">   1000.00000000 </i>
   <varray name="rec_basis" >
    <v>       0.10000000       0.00000000       0.00000000 </v>
    <v>       0.00000000       0.10000000       0.00000000 </v>
    <v>       0.00000000       0.00000000       0.10000000 </v>
   </varray>
  </crystal>
  <varray name="positions" >
   <v>       0.00000000       0.00000000       0.00000000 </v>
   <v>       0.12000000       0.00000000       0.00000000 </v>
  </varray>
 </structure>
 <calculation>
  <scstep>
   <time name="dav">    1.97    2.17</time>
   <time name="total">    6.35    7.49</time>
   <energy>
    <i name="alphaZ">      0.43525486 </i>
    <i name="ewald">     84.77797003 </i>
    <i name="hartreedc">   -552.03476690 </i>
    <i name="XCdc">     39.59593932 </i>
    <i name="pawpsdc">    283.82984571 </i>
    <i name="pawaedc">   -286.83001101 </i>
    <i name="eentropy">      0.00289895 </i>
    <i name="bandstr">    -69.70750656 </i>
    <i name="atom">    579.07123046 </i>
    <i name="e_fr_energy">     79.14085487 </i>
    <i name="e_wo_entrp">     79.13795592 </i>
    <i name="e_0_energy">     79.13988855 </i>
   </energy>
  </scstep>
  <scstep>
   <time name="dav">    3.56    4.46</time>
   <time name="total">    3.56    4.48</time>
   <energy>
    <i name="e_fr_energy">     -0.37418830 </i>
    <i name="e_wo_entrp">     -0.37708725 </i>
    <i name="e_0_energy">     -0.37515462 </i>
   </energy>
  </scstep>
  <scstep>
   <time name="dav">    3.83    5.38</time>
   <time name="total">    3.83    5.40</time>
   <energy>
    <i name="e_fr_energy">    -15.12365778 </i>
    <i name="e_wo_entrp">    -15.12655673 </i>
    <i name="e_0_energy">    -15.12462410 </i>
   </energy>
  </scstep>
  <scstep>
   <time name="dav">    3.61    4.70</time>
   <time name="total">    3.61    4.72</time>
   <energy>
    <i name="e_fr_energy">    -15.25381412 </i>
    <i name="e_wo_entrp">    -15.25671307 </i>
    <i name="e_0_energy">    -15.25478044 </i>
   </energy>
  </scstep>
  <scstep>
   <time name="dav">    2.89    3.99</time>
   <time name="total">    3.63    5.08</time>
   <energy>
    <i name="e_fr_energy">    -15.25390656 </i>
    <i name="e_wo_entrp">    -15.25680551 </i>
    <i name="e_0_energy">    -15.25487287 </i>
   </energy>
  </scstep>
  <scstep>
   <time name="dav">    2.31    3.27</time>
   <time name="total">    7.84    9.68</time>
   <energy>
    <i name="e_fr_energy">    -14.78539388 </i>
    <i name="e_wo_entrp">    -14.78829283 </i>
    <i name="e_0_energy">    -14.78636019 </i>
   </energy>
  </scstep>
  <scstep>
   <time name="dav">    2.16    3.14</time>
   <time name="total">    6.91    9.00</time>
   <energy>
    <i name="e_fr_energy">    -14.67625985 </i>
    <i name="e_wo_entrp">    -14.67915880 </i>
    <i name="e_0_energy">    -14.67722617 </i>
   </energy>
  </scstep>
  <scstep>
   <time name="dav">    2.21    3.22</time>
   <time name="total">    7.41   10.32</time>
   <energy>
    <i name="e_fr_energy">    -14.64118310 </i>
    <i name="e_wo_entrp">    -14.64408205 </i>
    <i name="e_0_energy">    -14.64214942 </i>
   </energy>
  </scstep>
  <scstep>
   <time name="dav">    2.49    3.07</time>
   <time name="total">    8.00    9.77</time>
   <energy>
    <i name="e_fr_energy">    -14.64112281 </i>
    <i name="e_wo_entrp">    -14.64402176 </i>
    <i name="e_0_energy">    -14.64208913 </i>
   </energy>
  </scstep>
  <scstep>
   <time name="dav">    2.14    2.54</time>
   <time name="total">    7.69   10.44</time>
   <energy>
    <i name="e_fr_energy">    -14.64197064 </i>
    <i name="e_wo_entrp">    -14.64486959 </i>
    <i name="e_0_energy">    -14.64293695 </i>
   </energy>
  </scstep>
  <scstep>
   <time name="dav">    2.18    3.09</time>
   <time name="total">    6.86   10.04</time>
   <energy>
    <i name="e_fr_energy">    -14.64329926 </i>
    <i name="e_wo_entrp">    -14.64619821 </i>
    <i name="e_0_energy">    -14.64426558 </i>
   </energy>
  </scstep>
  <scstep>
   <time name="dav">    2.57    3.05</time>
   <time name="total">    8.02   10.32</time>
   <energy>
    <i name="e_fr_energy">    -14.64400793 </i>
    <i name="e_wo_entrp">    -14.64690688 </i>
    <i name="e_0_energy">    -14.64497425 </i>
   </energy>
  </scstep>
  <scstep>
   <time name="dav">    1.85    2.76</time>
   <time name="total">    6.80    9.44</time>
   <energy>
    <i name="e_fr_energy">    -14.64494289 </i>
    <i name="e_wo_entrp">    -14.64784184 </i>
    <i name="e_0_energy">    -14.64590920 </i>
   </energy>
  </scstep>
  <scstep>
   <time name="dav">    2.49    3.27</time>
   <time name="total">    8.04   10.83</time>
   <energy>
    <i name="e_fr_energy">    -14.64517849 </i>
    <i name="e_wo_entrp">    -14.64807744 </i>
    <i name="e_0_energy">    -14.64614481 </i>
   </energy>
  </scstep>
  <scstep>
   <time name="dav">    2.40    3.01</time>
   <time name="total">    7.57   10.01</time>
   <energy>
    <i name="e_fr_energy">    -14.64536890 </i>
    <i name="e_wo_entrp">    -14.64826785 </i>
    <i name="e_0_energy">    -14.64633522 </i>
   </energy>
  </scstep>
  <scstep>
   <time name="dav">    2.33    3.63</time>
   <time name="total">    6.36    9.10</time>
   <energy>
    <i name="alphaZ">      0.43525486 </i>
    <i name="ewald">     84.77797003 </i>
    <i name="hartreedc">   -569.15754615 </i>
    <i name="XCdc">     40.60942829 </i>
    <i name="pawpsdc">    364.48811348 </i>
    <i name="pawaedc">   -367.40414092 </i>
    <i name="eentropy">      0.00289895 </i>
    <i name="bandstr">   -147.46862088 </i>
    <i name="atom">    579.07123046 </i>
    <i name="e_fr_energy">    -14.64541188 </i>
    <i name="e_wo_entrp">    -14.64831083 </i>
    <i name="e_0_energy">    -14.64637820 </i>
   </energy>
  </scstep>
  <parameters_embedded>
   <separator name="dft+d2" >
    <i type="logical" name="LVDW"> F  </i>
   </separator>
  </parameters_embedded>
  <structure>
   <crystal>
    <varray name="basis" >
     <v>      10.00000000       0.00000000       0.00000000 </v>
     <v>       0.00000000      10.00000000       0.00000000 </v>
     <v>       0.00000000       0.00000000      10.00000000 </v>
    </varray>
    <i name="volume">   1000.00000000 </i>
    <varray name="rec_basis" >
     <v>       0.10000000       0.00000000       0.00000000 </v>
     <v>       0.00000000       0.10000000       0.00000000 </v>
     <v>       0.00000000       0.00000000       0.10000000 </v>
    </varray>
   </crystal>
   <varray name="positions" >
    <v>       0.00000000       0.00000000       0.00000000 </v>
    <v>       0.12000000       0.00000000       0.00000000 </v>
   </varray>
  </structure>
  <varray name="forces" >
   <v>       5.18780053       0.00000000       0.00000000 </v>
   <v>      -5.18780053       0.00000000       0.00000000 </v>
  </varray>
  <varray name="stress" >
   <v>     -13.95057686       0.00000000       0.00000000 </v>
   <v>       0.00000000      -3.78909253       0.00000000 </v>
   <v>       0.00000000       0.00000000      -3.78909253 </v>
  </varray>
  <energy>
   <i name="e_fr_energy">    -14.64541188 </i>
   <i name="e_wo_entrp">    -14.64637820 </i>
   <i name="e_0_energy">      0.00289895 </i>
  </energy>
  <time name="totalsc">  115.12  154.99</time>
 </calculation>
 <calculation>
  <scstep>
   <time name="dav">    2.45    2.87</time>
   <time name="total">    8.19    9.96</time>
   <energy>
    <i name="alphaZ">      0.43525486 </i>
    <i name="ewald">    290.16704324 </i>
    <i name="hartreedc">   -650.01157576 </i>
    <i name="XCdc">     43.32687189 </i>
    <i name="pawpsdc">    364.47854010 </i>
    <i name="pawaedc">   -367.39446228 </i>
    <i name="eentropy">      0.00289895 </i>
    <i name="bandstr">   -239.13720688 </i>
    <i name="atom">    579.07123046 </i>
    <i name="e_fr_energy">     20.93859458 </i>
    <i name="e_wo_entrp">     20.93569562 </i>
    <i name="e_0_energy">     20.93762826 </i>
   </energy>
  </scstep>
  <scstep>
   <time name="dav">    3.81    4.98</time>
   <time name="total">    8.98   12.04</time>
   <energy>
    <i name="e_fr_energy">     22.45965373 </i>
    <i name="e_wo_entrp">     22.45675478 </i>
    <i name="e_0_energy">     22.45868741 </i>
   </energy>
  </scstep>
  <scstep>
   <time name="dav">    3.63    4.18</time>
   <time name="total">    9.12   11.03</time>
   <energy>
    <i name="e_fr_energy">     23.97807352 </i>
    <i name="e_wo_entrp">     23.97517457 </i>
    <i name="e_0_energy">     23.97710720 </i>
   </energy>
  </scstep>
  <scstep>
   <time name="dav">    2.39    3.31</time>
   <time name="total">    7.23    9.81</time>
   <energy>
    <i name="e_fr_energy">     24.07583905 </i>
    <i name="e_wo_entrp">     24.07294010 </i>
    <i name="e_0_energy">     24.07487273 </i>
   </energy>
  </scstep>
  <scstep>
   <time name="dav">    2.17    3.01</time>
   <time name="total">    7.64   10.61</time>
   <energy>
    <i name="e_fr_energy">     24.09125912 </i>
    <i name="e_wo_entrp">     24.08836017 </i>
    <i name="e_0_energy">     24.09029281 </i>
   </energy>
  </scstep>
  <scstep>
   <time name="dav">    3.79    4.89</time>
   <time name="total">    8.82   11.57</time>
   <energy>
    <i name="e_fr_energy">     24.08937606 </i>
    <i name="e_wo_entrp">     24.08647710 </i>
    <i name="e_0_energy">     24.08840974 </i>
   </energy>
  </scstep>
  <scstep>
   <time name="dav">    2.52    3.18</time>
   <time name="total">    7.66   10.11</time>
   <energy>
    <i name="e_fr_energy">     24.08660690 </i>
    <i name="e_wo_entrp">     24.08370795 </i>
    <i name="e_0_energy">     24.08564059 </i>
   </energy>
  </scstep>
  <scstep>
   <time name="dav">    2.12    2.84</time>
   <time name="total">    7.27    8.88</time>
   <energy>
    <i name="e_fr_energy">     24.08402815 </i>
    <i name="e_wo_entrp">     24.08112920 </i>
    <i name="e_0_energy">     24.08306183 </i>
   </energy>
  </scstep>
  <scstep>
   <time name="dav">    2.17    2.79</time>
   <time name="total">    6.75    8.36</time>
   <energy>
    <i name="e_fr_energy">     24.08149752 </i>
    <i name="e_wo_entrp">     24.07859857 </i>
    <i name="e_0_energy">     24.08053120 </i>
   </energy>
  </scstep>
  <scstep>
   <time name="dav">    2.48    3.16</time>
   <time name="total">    7.66    9.95</time>
   <energy>
    <i name="e_fr_energy">     24.07982049 </i>
    <i name="e_wo_entrp">     24.07692153 </i>
    <i name="e_0_energy">     24.07885417 </i>
   </energy>
  </scstep>
  <scstep>
   <time name="dav">    3.30    5.15</time>
   <time name="total">    8.61   12.54</time>
   <energy>
    <i name="e_fr_energy">     24.07941379 </i>
    <i name="e_wo_entrp">     24.07651484 </i>
    <i name="e_0_energy">     24.07844747 </i>
   </energy>
  </scstep>
  <scstep>
   <time name="dav">    2.33    3.37</time>
   <time name="total">    7.26    9.86</time>
   <energy>
    <i name="e_fr_energy">     24.07919574 </i>
    <i name="e_wo_entrp">     24.07629678 </i>
    <i name="e_0_energy">     24.07822942 </i>
   </energy>
  </scstep>
  <scstep>
   <time name="dav">    2.36    2.82</time>
   <time name="total">    7.06    8.62</time>
   <energy>
    <i name="alphaZ">      0.43525486 </i>
    <i name="ewald">    290.16704324 </i>
    <i name="hartreedc">   -707.16308044 </i>
    <i name="XCdc">     46.26213183 </i>
    <i name="pawpsdc">    630.01955012 </i>
    <i name="pawaedc">   -635.05858947 </i>
    <i name="eentropy">      0.00289895 </i>
    <i name="bandstr">   -179.65731381 </i>
    <i name="atom">    579.07123046 </i>
    <i name="e_fr_energy">     24.07912574 </i>
    <i name="e_wo_entrp">     24.07622679 </i>
    <i name="e_0_energy">     24.07815943 </i>
   </energy>
  </scstep>
  <structure>
   <crystal>
    <varray name="basis" >
     <v>      10.00000000       0.00000000       0.00000000 </v>
     <v>       0.00000000      10.00000000       0.00000000 </v>
     <v>       0.00000000       0.00000000      10.00000000 </v>
    </varray>
    <i name="volume">   1000.00000000 </i>
    <varray name="rec_basis" >
     <v>       0.10000000       0.00000000       0.00000000 </v>
     <v>       0.00000000       0.10000000       0.00000000 </v>
     <v>       0.00000000       0.00000000       0.10000000 </v>
    </varray>
   </crystal>
   <varray name="positions" >
    <v>       0.02502733       0.00000000       0.00000000 </v>
    <v>       0.09497267       0.00000000       0.00000000 </v>
   </varray>
  </structure>
  <varray name="forces" >
   <v>    -300.15044429       0.00000000       0.00000000 </v>
   <v>     300.15044429       0.00000000       0.00000000 </v>
  </varray>
  <varray name="stress" >
   <v>     333.07756254       0.00000000       0.00000000 </v>
   <v>       0.00000000      -5.85450057       0.00000000 </v>
   <v>       0.00000000       0.00000000      -5.85450057 </v>
  </varray>
  <energy>
   <i name="e_fr_energy">     24.07912574 </i>
   <i name="e_wo_entrp">     24.07815943 </i>
   <i name="e_0_energy">      0.00289895 </i>
  </energy>
  <time name="totalsc">  110.36  144.00</time>
 </calculation>
 <calculation>
  <scstep>
   <time name="dav">    2.05    2.21</time>
   <time name="total">    7.14    8.10</time>
   <energy>
    <i name="alphaZ">      0.43525486 </i>
    <i name="ewald">     86.81815996 </i>
    <i name="hartreedc">   -613.60409158 </i>
    <i name="XCdc">     43.06787548 </i>
    <i name="pawpsdc">    630.01515511 </i>
    <i name="pawaedc">   -635.05422442 </i>
    <i name="eentropy">      0.00289895 </i>
    <i name="bandstr">   -109.80282590 </i>
    <i name="atom">    579.07123046 </i>
    <i name="e_fr_energy">    -19.05056708 </i>
    <i name="e_wo_entrp">    -19.05346603 </i>
    <i name="e_0_energy">    -19.05153340 </i>
   </energy>
  </scstep>
  <scstep>
   <time name="dav">    4.09    5.51</time>
   <time name="total">    9.91   12.94</time>
   <energy>
    <i name="e_fr_energy">    -15.65189301 </i>
    <i name="e_wo_entrp">    -15.65479196 </i>
    <i name="e_0_energy">    -15.65285932 </i>
   </energy>
  </scstep>
  <scstep>
   <time name="dav">    3.05    4.28</time>
   <time name="total">    7.68   10.59</time>
   <energy>
    <i name="e_fr_energy">    -14.79143560 </i>
    <i name="e_wo_entrp">    -14.79433455 </i>
    <i name="e_0_energy">    -14.79240192 </i>
   </energy>
  </scstep>
  <scstep>
   <time name="dav">    3.75    4.84</time>
   <time name="total">    8.98   11.86</time>
   <energy>
    <i name="e_fr_energy">    -14.67683753 </i>
    <i name="e_wo_entrp">    -14.67973649 </i>
    <i name="e_0_energy">    -14.67780385 </i>
   </energy>
  </scstep>
  <scstep>
   <time name="dav">    2.42    3.18</time>
   <time name="total">    7.76   10.80</time>
   <energy>
    <i name="e_fr_energy">    -14.68212265 </i>
    <i name="e_wo_entrp">    -14.68502161 </i>
    <i name="e_0_energy">    -14.68308897 </i>
   </energy>
  </scstep>
  <scstep>
   <time name="dav">    2.16    2.69</time>
   <time name="total">    7.12    9.17</time>
   <energy>
    <i name="e_fr_energy">    -14.68327133 </i>
    <i name="e_wo_entrp">    -14.68617028 </i>
    <i name="e_0_energy">    -14.68423765 </i>
   </energy>
  </scstep>
  <scstep>
   <time name="dav">    2.15    2.75</time>
   <time name="total">    6.85    9.32</time>
   <energy>
    <i name="e_fr_energy">    -14.68395550 </i>
    <i name="e_wo_entrp">    -14.68685445 </i>
    <i name="e_0_energy">    -14.68492182 </i>
   </energy>
  </scstep>
  <scstep>
   <time name="dav">    2.31    2.96</time>
   <time name="total">    7.18    9.23</time>
   <energy>
    <i name="e_fr_energy">    -14.68534914 </i>
    <i name="e_wo_entrp">    -14.68824809 </i>
    <i name="e_0_energy">    -14.68631546 </i>
   </energy>
  </scstep>
  <scstep>
   <time name="dav">    2.33    2.86</time>
   <time name="total">    7.30    9.37</time>
   <energy>
    <i name="e_fr_energy">    -14.68605767 </i>
    <i name="e_wo_entrp">    -14.68895662 </i>
    <i name="e_0_energy">    -14.68702398 </i>
   </energy>
  </scstep>
  <scstep>
   <time name="dav">    2.13    2.18</time>
   <time name="total">    7.18    9.03</time>
   <energy>
    <i name="e_fr_energy">    -14.68648417 </i>
    <i name="e_wo_entrp">    -14.68938312 </i>
    <i name="e_0_energy">    -14.68745049 </i>
   </energy>
  </scstep>
  <scstep>
   <time name="dav">    2.48    2.62</time>
   <time name="total">    8.07    8.91</time>
   <energy>
    <i name="e_fr_energy">    -14.68666337 </i>
    <i name="e_wo_entrp">    -14.68956232 </i>
    <i name="e_0_energy">    -14.68762969 </i>
   </energy>
  </scstep>
  <scstep>
   <time name="dav">    2.28    2.86</time>
   <time name="total">    7.68    9.74</time>
   <energy>
    <i name="e_fr_energy">    -14.68677455 </i>
    <i name="e_wo_entrp">    -14.68967350 </i>
    <i name="e_0_energy">    -14.68774087 </i>
   </energy>
  </scstep>
  <scstep>
   <time name="dav">    2.07    2.44</time>
   <time name="total">    6.66    8.30</time>
   <energy>
    <i name="alphaZ">      0.43525486 </i>
    <i name="ewald">     86.81815996 </i>
    <i name="hartreedc">   -570.81679228 </i>
    <i name="XCdc">     40.66951522 </i>
    <i name="pawpsdc">    366.85221967 </i>
    <i name="pawaedc">   -369.77820317 </i>
    <i name="eentropy">      0.00289895 </i>
    <i name="bandstr">   -147.94109869 </i>
    <i name="atom">    579.07123046 </i>
    <i name="e_fr_energy">    -14.68681501 </i>
    <i name="e_wo_entrp">    -14.68971396 </i>
    <i name="e_0_energy">    -14.68778132 </i>
   </energy>
  </scstep>
  <structure>
   <crystal>
    <varray name="basis" >
     <v>      10.00000000       0.00000000       0.00000000 </v>
     <v>       0.00000000      10.00000000       0.00000000 </v>
     <v>       0.00000000       0.00000000      10.00000000 </v>
    </varray>
    <i name="volume">   1000.00000000 </i>
    <varray name="rec_basis" >
     <v>       0.10000000       0.00000000       0.00000000 </v>
     <v>       0.00000000       0.10000000       0.00000000 </v>
     <v>       0.00000000       0.00000000       0.10000000 </v>
    </varray>
   </crystal>
   <varray name="positions" >
    <v>       0.00042521       0.00000000       0.00000000 </v>
    <v>       0.11957479       0.00000000       0.00000000 </v>
   </varray>
  </structure>
  <varray name="forces" >
   <v>       4.54128969       0.00000000       0.00000000 </v>
   <v>      -4.54128969       0.00000000       0.00000000 </v>
  </varray>
  <varray name="stress" >
   <v>     -12.65851144       0.00000000       0.00000000 </v>
   <v>       0.00000000      -3.77624222       0.00000000 </v>
   <v>       0.00000000       0.00000000      -3.77624222 </v>
  </varray>
  <energy>
   <i name="e_fr_energy">    -14.68681501 </i>
   <i name="e_wo_entrp">    -14.68778132 </i>
   <i name="e_0_energy">      0.00289895 </i>
  </energy>
  <time name="totalsc">  107.74  137.83</time>
 </calculation>
 <calculation>
  <scstep>
   <time name="dav">    2.49    3.88</time>
   <time name="total">    7.83   11.54</time>
   <energy>
    <i name="alphaZ">      0.43525486 </i>
    <i name="ewald">     88.60134401 </i>
    <i name="hartreedc">   -571.91068804 </i>
    <i name="XCdc">     40.70044479 </i>
    <i name="pawpsdc">    366.86291219 </i>
    <i name="pawaedc">   -369.78883427 </i>
    <i name="eentropy">      0.00289895 </i>
    <i name="bandstr">   -148.69265000 </i>
    <i name="atom">    579.07123046 </i>
    <i name="e_fr_energy">    -14.71808705 </i>
    <i name="e_wo_entrp">    -14.72098600 </i>
    <i name="e_0_energy">    -14.71905336 </i>
   </energy>
  </scstep>
  <scstep>
   <time name="dav">    2.49    2.97</time>
   <time name="total">    8.01   11.02</time>
   <energy>
    <i name="e_fr_energy">    -14.71800559 </i>
    <i name="e_wo_entrp">    -14.72090454 </i>
    <i name="e_0_energy">    -14.71897190 </i>
   </energy>
  </scstep>
  <scstep>
   <time name="dav">    2.30    3.71</time>
   <time name="total">    6.92   10.64</time>
   <energy>
    <i name="alphaZ">      0.43525486 </i>
    <i name="ewald">     88.60134401 </i>
    <i name="hartreedc">   -572.24176894 </i>
    <i name="XCdc">     40.72074325 </i>
    <i name="pawpsdc">    368.51107142 </i>
    <i name="pawaedc">   -371.44436717 </i>
    <i name="eentropy">      0.00289895 </i>
    <i name="bandstr">   -148.37434649 </i>
    <i name="atom">    579.07123046 </i>
    <i name="e_fr_energy">    -14.71793965 </i>
    <i name="e_wo_entrp">    -14.72083860 </i>
    <i name="e_0_energy">    -14.71890597 </i>
   </energy>
  </scstep>
  <structure>
   <crystal>
    <varray name="basis" >
     <v>      10.00000000       0.00000000       0.00000000 </v>
     <v>       0.00000000      10.00000000       0.00000000 </v>
     <v>       0.00000000       0.00000000      10.00000000 </v>
    </varray>
    <i name="volume">   1000.00000000 </i>
    <varray name="rec_basis" >
     <v>       0.10000000       0.00000000       0.00000000 </v>
     <v>       0.00000000       0.10000000       0.00000000 </v>
     <v>       0.00000000       0.00000000       0.10000000 </v>
    </varray>
   </crystal>
   <varray name="positions" >
    <v>       0.00079189       0.00000000       0.00000000 </v>
    <v>       0.11920811       0.00000000       0.00000000 </v>
   </varray>
  </structure>
  <varray name="forces" >
   <v>       3.95377631       0.00000000       0.00000000 </v>
   <v>      -3.95377631       0.00000000       0.00000000 </v>
  </varray>
  <varray name="stress" >
   <v>     -11.51453409       0.00000000       0.00000000 </v>
   <v>       0.00000000      -3.73946821       0.00000000 </v>
   <v>       0.00000000       0.00000000      -3.73946821 </v>
  </varray>
  <energy>
   <i name="e_fr_energy">    -14.71793965 </i>
   <i name="e_wo_entrp">    -14.71890597 </i>
   <i name="e_0_energy">      0.00289895 </i>
  </energy>
  <time name="totalsc">   31.62   44.88</time>
 </calculation>
 <calculation>
  <scstep>
   <time name="dav">    2.10    2.52</time>
   <time name="total">    7.47   10.36</time>
   <energy>
    <i name="alphaZ">      0.43525486 </i>
    <i name="ewald">    101.20773850 </i>
    <i name="hartreedc">   -579.75553538 </i>
    <i name="XCdc">     40.93945033 </i>
    <i name="pawpsdc">    368.80275361 </i>
    <i name="pawaedc">   -371.73724609 </i>
    <i name="eentropy">      0.00289895 </i>
    <i name="bandstr">   -153.77131738 </i>
    <i name="atom">    579.07123046 </i>
    <i name="e_fr_energy">    -14.80477215 </i>
    <i name="e_wo_entrp">    -14.80767110 </i>
    <i name="e_0_energy">    -14.80573846 </i>
   </energy>
  </scstep>
  <scstep>
   <time name="dav">    2.21    3.29</time>
   <time name="total">    7.84   11.09</time>
   <energy>
    <i name="e_fr_energy">    -14.80117725 </i>
    <i name="e_wo_entrp">    -14.80407620 </i>
    <i name="e_0_energy">    -14.80214357 </i>
   </energy>
  </scstep>
  <scstep>
   <time name="dav">    3.13    4.30</time>
   <time name="total">    8.25   11.17</time>
   <energy>
    <i name="e_fr_energy">    -14.79672608 </i>
    <i name="e_wo_entrp">    -14.79962503 </i>
    <i name="e_0_energy">    -14.79769240 </i>
   </energy>
  </scstep>
  <scstep>
   <time name="dav">    2.96    3.86</time>
   <time name="total">    8.71   11.67</time>
   <energy>
    <i name="e_fr_energy">    -14.79690224 </i>
    <i name="e_wo_entrp">    -14.79980119 </i>
    <i name="e_0_energy">    -14.79786856 </i>
   </energy>
  </scstep>
  <scstep>
   <time name="dav">    2.44    3.44</time>
   <time name="total">    8.22   11.65</time>
   <energy>
    <i name="e_fr_energy">    -14.79713403 </i>
    <i name="e_wo_entrp">    -14.80003298 </i>
    <i name="e_0_energy">    -14.79810035 </i>
   </energy>
  </scstep>
  <scstep>
   <time name="dav">    2.06    2.32</time>
   <time name="total">    6.71    7.83</time>
   <energy>
    <i name="e_fr_energy">    -14.79726303 </i>
    <i name="e_wo_entrp">    -14.80016199 </i>
    <i name="e_0_energy">    -14.79822935 </i>
   </energy>
  </scstep>
  <scstep>
   <time name="dav">    2.53    2.71</time>
   <time name="total">    7.95    9.23</time>
   <energy>
    <i name="e_fr_energy">    -14.79754257 </i>
    <i name="e_wo_entrp">    -14.80044152 </i>
    <i name="e_0_energy">    -14.79850889 </i>
   </energy>
  </scstep>
  <scstep>
   <time name="dav">    2.11    2.78</time>
   <time name="total">    7.50    8.64</time>
   <energy>
    <i name="e_fr_energy">    -14.79765861 </i>
    <i name="e_wo_entrp">    -14.80055756 </i>
    <i name="e_0_energy">    -14.79862493 </i>
   </energy>
  </scstep>
  <scstep>
   <time name="dav">    2.35    2.98</time>
   <time name="total">    6.39    8.02</time>
   <energy>
    <i name="alphaZ">      0.43525486 </i>
    <i name="ewald">    101.20773850 </i>
    <i name="hartreedc">   -582.43793708 </i>
    <i name="XCdc">     41.09827169 </i>
    <i name="pawpsdc">    384.54775013 </i>
    <i name="pawaedc">   -387.55158947 </i>
    <i name="eentropy">      0.00289895 </i>
    <i name="bandstr">   -151.17136774 </i>
    <i name="atom">    579.07123046 </i>
    <i name="e_fr_energy">    -14.79774969 </i>
    <i name="e_wo_entrp">    -14.80064864 </i>
    <i name="e_0_energy">    -14.79871601 </i>
   </energy>
  </scstep>
  <structure>
   <crystal>
    <varray name="basis" >
     <v>      10.00000000       0.00000000       0.00000000 </v>
     <v>       0.00000000      10.00000000       0.00000000 </v>
     <v>       0.00000000       0.00000000      10.00000000 </v>
    </varray>
    <i name="volume">   1000.00000000 </i>
    <varray name="rec_basis" >
     <v>       0.10000000       0.00000000       0.00000000 </v>
     <v>       0.00000000       0.10000000       0.00000000 </v>
     <v>       0.00000000       0.00000000       0.10000000 </v>
    </varray>
   </crystal>
   <varray name="positions" >
    <v>       0.00325955       0.00000000       0.00000000 </v>
    <v>       0.11674045       0.00000000       0.00000000 </v>
   </varray>
  </structure>
  <varray name="forces" >
   <v>      -1.01506471       0.00000000       0.00000000 </v>
   <v>       1.01506471       0.00000000       0.00000000 </v>
  </varray>
  <varray name="stress" >
   <v>      -2.20553243       0.00000000       0.00000000 </v>
   <v>       0.00000000      -3.75887149       0.00000000 </v>
   <v>       0.00000000       0.00000000      -3.75887149 </v>
  </varray>
  <energy>
   <i name="e_fr_energy">    -14.79774969 </i>
   <i name="e_wo_entrp">    -14.79871601 </i>
   <i name="e_0_energy">      0.00289895 </i>
  </energy>
  <time name="totalsc">   76.74   98.89</time>
 </calculation>
 <calculation>
  <scstep>
   <time name="dav">    2.02    2.60</time>
   <time name="total">    7.30    8.74</time>
   <energy>
    <i name="alphaZ">      0.43525486 </i>
    <i name="ewald">     98.54316759 </i>
    <i name="hartreedc">   -580.87829902 </i>
    <i name="XCdc">     41.05230567 </i>
    <i name="pawpsdc">    384.52998867 </i>
    <i name="pawaedc">   -387.53383634 </i>
    <i name="eentropy">      0.00289895 </i>
    <i name="bandstr">   -150.02516794 </i>
    <i name="atom">    579.07123046 </i>
    <i name="e_fr_energy">    -14.80245709 </i>
    <i name="e_wo_entrp">    -14.80535604 </i>
    <i name="e_0_energy">    -14.80342341 </i>
   </energy>
  </scstep>
  <scstep>
   <time name="dav">    2.40    2.86</time>
   <time name="total">    7.40    8.36</time>
   <energy>
    <i name="e_fr_energy">    -14.80214524 </i>
    <i name="e_wo_entrp">    -14.80504419 </i>
    <i name="e_0_energy">    -14.80311156 </i>
   </energy>
  </scstep>
  <scstep>
   <time name="dav">    2.15    2.23</time>
   <time name="total">    7.47    8.08</time>
   <energy>
    <i name="e_fr_energy">    -14.80200063 </i>
    <i name="e_wo_entrp">    -14.80489959 </i>
    <i name="e_0_energy">    -14.80296695 </i>
   </energy>
  </scstep>
  <scstep>
   <time name="dav">    2.22    2.81</time>
   <time name="total">    6.45    8.31</time>
   <energy>
    <i name="alphaZ">      0.43525486 </i>
    <i name="ewald">     98.54316759 </i>
    <i name="hartreedc">   -580.30476903 </i>
    <i name="XCdc">     41.01858325 </i>
    <i name="pawpsdc">    381.41372325 </i>
    <i name="pawaedc">   -384.40217070 </i>
    <i name="eentropy">      0.00289895 </i>
    <i name="bandstr">   -150.57994810 </i>
    <i name="atom">    579.07123046 </i>
    <i name="e_fr_energy">    -14.80202947 </i>
    <i name="e_wo_entrp">    -14.80492842 </i>
    <i name="e_0_energy">    -14.80299578 </i>
   </energy>
  </scstep>
  <structure>
   <crystal>
    <varray name="basis" >
     <v>      10.00000000       0.00000000       0.00000000 </v>
     <v>       0.00000000      10.00000000       0.00000000 </v>
     <v>       0.00000000       0.00000000      10.00000000 </v>
    </varray>
    <i name="volume">   1000.00000000 </i>
    <varray name="rec_basis" >
     <v>       0.10000000       0.00000000       0.00000000 </v>
     <v>       0.00000000       0.10000000       0.00000000 </v>
     <v>       0.00000000       0.00000000       0.10000000 </v>
    </varray>
   </crystal>
   <varray name="positions" >
    <v>       0.00275545       0.00000000       0.00000000 </v>
    <v>       0.11724455       0.00000000       0.00000000 </v>
   </varray>
  </structure>
  <varray name="forces" >
   <v>       0.14845127       0.00000000       0.00000000 </v>
   <v>      -0.14845127       0.00000000       0.00000000 </v>
  </varray>
  <varray name="stress" >
   <v>      -4.31205383       0.00000000       0.00000000 </v>
   <v>       0.00000000      -3.75839450       0.00000000 </v>
   <v>       0.00000000       0.00000000      -3.75839450 </v>
  </varray>
  <energy>
   <i name="e_fr_energy">    -14.80202947 </i>
   <i name="e_wo_entrp">    -14.80299578 </i>
   <i name="e_0_energy">      0.00289895 </i>
  </energy>
  <time name="totalsc">   37.17   44.40</time>
 </calculation>
 <calculation>
  <scstep>
   <time name="dav">    2.37    3.12</time>
   <time name="total">    8.33   10.48</time>
   <energy>
    <i name="alphaZ">      0.43525486 </i>
    <i name="ewald">     98.88049534 </i>
    <i name="hartreedc">   -580.51012733 </i>
    <i name="XCdc">     41.02483075 </i>
    <i name="pawpsdc">    381.17908326 </i>
    <i name="pawaedc">   -384.16710439 </i>
    <i name="eentropy">      0.00289895 </i>
    <i name="bandstr">   -150.71872423 </i>
    <i name="atom">    579.07123046 </i>
    <i name="e_fr_energy">    -14.80216233 </i>
    <i name="e_wo_entrp">    -14.80506128 </i>
    <i name="e_0_energy">    -14.80312864 </i>
   </energy>
  </scstep>
  <scstep>
   <time name="dav">    2.03    2.72</time>
   <time name="total">    5.91    7.71</time>
   <energy>
    <i name="alphaZ">      0.43525486 </i>
    <i name="ewald">     98.88049534 </i>
    <i name="hartreedc">   -580.54032882 </i>
    <i name="XCdc">     41.02670549 </i>
    <i name="pawpsdc">    381.34618617 </i>
    <i name="pawaedc">   -384.33489772 </i>
    <i name="eentropy">      0.00289895 </i>
    <i name="bandstr">   -150.68971142 </i>
    <i name="atom">    579.07123046 </i>
    <i name="e_fr_energy">    -14.80216668 </i>
    <i name="e_wo_entrp">    -14.80506563 </i>
    <i name="e_0_energy">    -14.80313300 </i>
   </energy>
  </scstep>
  <structure>
   <crystal>
    <varray name="basis" >
     <v>      10.00000000       0.00000000       0.00000000 </v>
     <v>       0.00000000      10.00000000       0.00000000 </v>
     <v>       0.00000000       0.00000000      10.00000000 </v>
    </varray>
    <i name="volume">   1000.00000000 </i>
    <varray name="rec_basis" >
     <v>       0.10000000       0.00000000       0.00000000 </v>
     <v>       0.00000000       0.10000000       0.00000000 </v>
     <v>       0.00000000       0.00000000       0.10000000 </v>
    </varray>
   </crystal>
   <varray name="positions" >
    <v>       0.00281976       0.00000000       0.00000000 </v>
    <v>       0.11718024       0.00000000       0.00000000 </v>
   </varray>
  </structure>
  <varray name="forces" >
   <v>       0.01711285       0.00000000       0.00000000 </v>
   <v>      -0.01711285       0.00000000       0.00000000 </v>
  </varray>
  <varray name="stress" >
   <v>      -4.05879038       0.00000000       0.00000000 </v>
   <v>       0.00000000      -3.70777000       0.00000000 </v>
   <v>       0.00000000       0.00000000      -3.70777000 </v>
  </varray>
  <energy>
   <i name="e_fr_energy">    -14.80216668 </i>
   <i name="e_wo_entrp">    -14.80313300 </i>
   <i name="e_0_energy">      0.00289895 </i>
  </energy>
  <time name="totalsc">   21.43   27.83</time>
  <eigenvalues>
   <array>
    <dimension dim="1">band</dimension>
    <dimension dim="2">kpoint</dimension>
    <dimension dim="3">spin</dimension>
    <field>eigene</field>
    <field>occ</field>
    <set>
     <set comment="spin 1">
      <set comment="kpoint 1">
       <r>  -29.1907    1.0000 </r>
       <r>  -13.9556    1.0000 </r>
       <r>  -11.6351    1.0000 </r>
       <r>  -11.6351    1.0000 </r>
       <r>   -8.9282    1.0000 </r>
       <r>   -2.0074    0.0000 </r>
       <r>   -2.0074    0.0000 </r>
       <r>   -0.1839    0.0000 </r>
       <r>    1.0633    0.0000 </r>
      </set>
     </set>
    </set>
   </array>
  </eigenvalues>
  <separator name="orbital magnetization" >
   <v name="MAGDIPOLOUT">      0.00000000      0.00000000      0.00000000</v>
  </separator>
 </calculation>
 <structure name="finalpos" >
  <crystal>
   <varray name="basis" >
    <v>      10.00000000       0.00000000       0.00000000 </v>
    <v>       0.00000000      10.00000000       0.00000000 </v>
    <v>       0.00000000       0.00000000      10.00000000 </v>
   </varray>
   <i name="volume">   1000.00000000 </i>
   <varray name="rec_basis" >
    <v>       0.10000000       0.00000000       0.00000000 </v>
    <v>       0.00000000       0.10000000       0.00000000 </v>
    <v>       0.00000000       0.00000000       0.10000000 </v>
   </varray>
  </crystal>
  <varray name="positions" >
   <v>       0.00281976       0.00000000       0.00000000 </v>
   <v>       0.11718024       0.00000000       0.00000000 </v>
  </varray>
 </structure>
</modeling>
