    3    3   50    1
  0.3333333E+03  0.1000000E-08  0.1000000E-08  0.1000000E-08  0.5000000E-15
  1.000000000000000E-004
  CAR 
 unknown system                          
   16    1   12
 
  0.0000000E+00  0.0000000E+00  0.0000000E+00  0.1000000E+01
   1      -29.596139
   2      -28.567723
   3      -13.974649
   4      -12.620828
   5      -12.620828
   6      -12.572587
   7       -8.981881
   8       -8.981881
   9       -0.954016
  10       -0.120064
  11       -0.120064
  12        0.437256
