       N       E                     dE             d eps       ncg     rms          rms(c)
DAV:   1     0.663652216996E+02    0.66365E+02   -0.34989E+03    40   0.410E+02
DAV:   2    -0.158745136774E+02   -0.82240E+02   -0.81763E+02    48   0.154E+02
DAV:   3    -0.242548588560E+02   -0.83803E+01   -0.83645E+01    32   0.465E+01
DAV:   4    -0.244712422107E+02   -0.21638E+00   -0.21367E+00    32   0.754E+00
DAV:   5    -0.244818884753E+02   -0.10646E-01   -0.10474E-01    32   0.148E+00    0.742E+00
DAV:   6    -0.236317281116E+02    0.85016E+00   -0.11705E+00    28   0.924E+00    0.408E+00
DAV:   7    -0.235051454942E+02    0.12658E+00   -0.13437E-01    32   0.293E+00    0.187E+00
DAV:   8    -0.234862703794E+02    0.18875E-01   -0.74870E-02    28   0.212E+00    0.211E-01
DAV:   9    -0.234878106203E+02   -0.15402E-02   -0.69878E-03    32   0.747E-01    0.119E-01
DAV:  10    -0.234892757781E+02   -0.14652E-02   -0.69537E-04    28   0.258E-01    0.403E-02
DAV:  11    -0.234928283150E+02   -0.35525E-02   -0.84974E-04    24   0.178E-01    0.188E-02
DAV:  12    -0.234941824580E+02   -0.13541E-02   -0.10375E-04    24   0.661E-02    0.144E-02
DAV:  13    -0.234955073205E+02   -0.13249E-02   -0.25895E-04    24   0.899E-02    0.718E-03
DAV:  14    -0.234959722067E+02   -0.46489E-03   -0.35461E-05    20   0.413E-02    0.367E-03
DAV:  15    -0.234961114515E+02   -0.13924E-03   -0.84100E-06    20   0.202E-02    0.179E-03
DAV:  16    -0.234962468371E+02   -0.13539E-03   -0.42443E-06    20   0.180E-02    0.304E-03
DAV:  17    -0.234962619387E+02   -0.15102E-04   -0.91099E-07    20   0.851E-03
   1 F= -.23496262E+02 E0= -.23498195E+02  d E =-.234963E+02
       N       E                     dE             d eps       ncg     rms          rms(c)
DAV:   1    -0.233816867952E+02    0.11456E+00   -0.24052E+01    24   0.469E+01    0.173E+00
DAV:   2    -0.233761841114E+02    0.55027E-02   -0.51865E-01    32   0.605E+00    0.657E-01
DAV:   3    -0.233762018433E+02   -0.17732E-04   -0.17225E-02    32   0.122E+00    0.274E-01
DAV:   4    -0.233796892922E+02   -0.34874E-02   -0.47940E-03    28   0.547E-01    0.966E-02
DAV:   5    -0.233808254461E+02   -0.11362E-02   -0.20418E-04    28   0.136E-01    0.375E-02
DAV:   6    -0.233811415457E+02   -0.31610E-03   -0.31688E-05    20   0.553E-02    0.533E-03
DAV:   7    -0.233812305919E+02   -0.89046E-04   -0.13446E-05    20   0.294E-02
   2 F= -.23381231E+02 E0= -.23383163E+02  d E =0.115031E+00
       N       E                     dE             d eps       ncg     rms          rms(c)
DAV:   1    -0.235018279712E+02   -0.12069E+00   -0.14062E+01    24   0.362E+01    0.126E+00
DAV:   2    -0.235016281443E+02    0.19983E-03   -0.28700E-01    28   0.447E+00    0.522E-01
DAV:   3    -0.235018622993E+02   -0.23416E-03   -0.13089E-02    28   0.101E+00    0.183E-01
DAV:   4    -0.235044303922E+02   -0.25681E-02   -0.29318E-03    28   0.415E-01    0.626E-02
DAV:   5    -0.235051659356E+02   -0.73554E-03   -0.11840E-04    20   0.105E-01    0.287E-02
DAV:   6    -0.235054414107E+02   -0.27548E-03   -0.27915E-05    20   0.520E-02    0.315E-03
DAV:   7    -0.235054720550E+02   -0.30644E-04   -0.48080E-06    20   0.183E-02
   3 F= -.23505472E+02 E0= -.23507405E+02  d E =-.124241E+00
       N       E                     dE             d eps       ncg     rms          rms(c)
DAV:   1    -0.235057324798E+02   -0.29107E-03   -0.37381E-02    24   0.186E+00    0.667E-02
DAV:   2    -0.235056503326E+02    0.82147E-04   -0.77140E-04    24   0.233E-01
   4 F= -.23505650E+02 E0= -.23507583E+02  d E =-.178278E-03
