<?xml version="1.0" encoding="ISO-8859-1"?>
<modeling>
 <generator>
  <i name="program" type="string">vasp </i>
  <i name="version" type="string">5.2.12  </i>
  <i name="subversion" type="string">11Nov11 complex                                                      parallel </i>
  <i name="platform" type="string">LinuxIFC </i>
  <i name="date" type="string">2012 10 09 </i>
  <i name="time" type="string">20:19:16 </i>
 </generator>
 <incar>
  <i type="string" name="PREC">accurate</i>
  <i type="int" name="IBRION">     1</i>
  <i name="EDIFFG">     -0.05000000</i>
  <i type="int" name="NSW">    50</i>
  <i type="int" name="ISIF">     2</i>
  <i name="ENCUT">    250.00000000</i>
  <i type="logical" name="LREAL"> F  </i>
  <i type="int" name="ISMEAR">     1</i>
  <i name="SIGMA">      0.05000000</i>
 </incar>
 <kpoints>
  <generation param="Monkhorst-Pack">
   <v type="int" name="divisions">       1        1        1 </v>
   <v name="usershift">      0.00000000       0.00000000       0.00000000 </v>
   <v name="genvec1">      1.00000000       0.00000000       0.00000000 </v>
   <v name="genvec2">      0.00000000       1.00000000       0.00000000 </v>
   <v name="genvec3">      0.00000000       0.00000000       1.00000000 </v>
   <v name="shift">      0.00000000       0.00000000       0.00000000 </v>
  </generation>
  <varray name="kpointlist" >
   <v>       0.00000000       0.00000000       0.00000000 </v>
  </varray>
  <varray name="weights" >
   <v>       1.00000000 </v>
  </varray>
 </kpoints>
 <parameters>
  <separator name="general" >
   <i type="string" name="SYSTEM">unknown system</i>
   <i type="logical" name="LCOMPAT"> F  </i>
  </separator>
  <separator name="electronic" >
   <i type="string" name="PREC">accura</i>
   <i name="ENMAX">    250.00000000</i>
   <i name="ENAUG">    644.87300000</i>
   <i name="EDIFF">      0.00010000</i>
   <i type="int" name="IALGO">    38</i>
   <i type="int" name="IWAVPR">    11</i>
   <i type="int" name="NBANDS">    12</i>
   <i name="NELECT">     16.00000000</i>
   <i type="int" name="TURBO">     0</i>
   <i type="int" name="IRESTART">     0</i>
   <i type="int" name="NREBOOT">     0</i>
   <i type="int" name="NMIN">     0</i>
   <i name="EREF">      0.00000000</i>
   <separator name="electronic smearing" >
    <i type="int" name="ISMEAR">     1</i>
    <i name="SIGMA">      0.05000000</i>
    <i name="KSPACING">      0.50000000</i>
    <i type="logical" name="KGAMMA"> T  </i>
   </separator>
   <separator name="electronic projectors" >
    <i type="logical" name="LREAL"> F  </i>
    <v name="ROPT">      0.00000000      0.00000000</v>
    <i type="int" name="LMAXPAW">  -100</i>
    <i type="int" name="LMAXMIX">     2</i>
    <i type="logical" name="NLSPLINE"> F  </i>
   </separator>
   <separator name="electronic startup" >
    <i type="int" name="ISTART">     0</i>
    <i type="int" name="ICHARG">     2</i>
    <i type="int" name="INIWAV">     1</i>
   </separator>
   <separator name="electronic spin" >
    <i type="int" name="ISPIN">     1</i>
    <i type="logical" name="LNONCOLLINEAR"> F  </i>
    <v name="MAGMOM">      1.00000000      1.00000000      1.00000000</v>
    <i name="NUPDOWN">     -1.00000000</i>
    <i type="logical" name="LSORBIT"> F  </i>
    <v name="SAXIS">      0.00000000      0.00000000      1.00000000</v>
    <i type="logical" name="LSPIRAL"> F  </i>
    <v name="QSPIRAL">      0.00000000      0.00000000      0.00000000</v>
    <i type="logical" name="LZEROZ"> F  </i>
   </separator>
   <separator name="electronic exchange-correlation" >
    <i type="logical" name="LASPH"> F  </i>
    <i type="logical" name="LMETAGGA"> F  </i>
   </separator>
   <separator name="electronic convergence" >
    <i type="int" name="NELM">    60</i>
    <i type="int" name="NELMDL">    -5</i>
    <i type="int" name="NELMIN">     2</i>
    <i name="ENINI">    250.00000000</i>
    <separator name="electronic convergence detail" >
     <i type="logical" name="LDIAG"> T  </i>
     <i type="logical" name="LSUBROT"> T  </i>
     <i name="WEIMIN">      0.00100000</i>
     <i name="EBREAK">      0.00000208</i>
     <i name="DEPER">      0.30000000</i>
     <i type="int" name="NRMM">     4</i>
     <i name="TIME">      0.40000000</i>
    </separator>
   </separator>
   <separator name="electronic mixer" >
    <i name="AMIX">      0.40000000</i>
    <i name="BMIX">      1.00000000</i>
    <i name="AMIN">      0.10000000</i>
    <i name="AMIX_MAG">      1.60000000</i>
    <i name="BMIX_MAG">      1.00000000</i>
    <separator name="electronic mixer details" >
     <i type="int" name="IMIX">     4</i>
     <i type="int" name="MAXMIX">   -45</i>
     <i name="WC">    100.00000000</i>
     <i type="int" name="INIMIX">     1</i>
     <i type="int" name="MIXPRE">     1</i>
     <i type="int" name="MREMOVE">     5</i>
    </separator>
   </separator>
   <separator name="electronic dipolcorrection" >
    <i type="logical" name="LDIPOL"> F  </i>
    <i type="logical" name="LMONO"> F  </i>
    <i type="int" name="IDIPOL">     0</i>
    <i name="EPSILON">      1.00000000</i>
    <v name="DIPOL">   -100.00000000   -100.00000000   -100.00000000</v>
    <i name="EFIELD">      0.00000000</i>
   </separator>
  </separator>
  <separator name="grids" >
   <i type="int" name="NGX">    54</i>
   <i type="int" name="NGY">    54</i>
   <i type="int" name="NGZ">    54</i>
   <i type="int" name="NGXF">   108</i>
   <i type="int" name="NGYF">   108</i>
   <i type="int" name="NGZF">   108</i>
   <i type="logical" name="ADDGRID"> F  </i>
  </separator>
  <separator name="ionic" >
   <i type="int" name="NSW">    50</i>
   <i type="int" name="IBRION">     1</i>
   <i type="int" name="ISIF">     2</i>
   <i name="PSTRESS">      0.00000000</i>
   <i name="EDIFFG">     -0.05000000</i>
   <i type="int" name="NFREE">     0</i>
   <i name="POTIM">      0.50000000</i>
   <i name="SMASS">     -3.00000000</i>
   <i name="SCALEE">      1.00000000</i>
  </separator>
  <separator name="ionic md" >
   <i name="TEBEG">      0.00010000</i>
   <i name="TEEND">      0.00010000</i>
   <i type="int" name="NBLOCK">     1</i>
   <i type="int" name="KBLOCK">    50</i>
   <i type="int" name="NPACO">   256</i>
   <i name="APACO">     16.00000000</i>
  </separator>
  <separator name="symmetry" >
   <i type="int" name="ISYM">     2</i>
   <i name="SYMPREC">      0.00001000</i>
  </separator>
  <separator name="dos" >
   <i type="logical" name="LORBIT"> F  </i>
   <v name="RWIGS">     -1.00000000     -1.00000000</v>
   <i type="int" name="NEDOS">   301</i>
   <i name="EMIN">     10.00000000</i>
   <i name="EMAX">    -10.00000000</i>
   <i name="EFERMI">      0.00000000</i>
  </separator>
  <separator name="writing" >
   <i type="int" name="NWRITE">     2</i>
   <i type="logical" name="LWAVE"> T  </i>
   <i type="logical" name="LCHARG"> T  </i>
   <i type="logical" name="LPARD"> F  </i>
   <i type="logical" name="LVTOT"> F  </i>
   <i type="logical" name="LVHAR"> F  </i>
   <i type="logical" name="LELF"> F  </i>
   <i type="logical" name="LOPTICS"> F  </i>
   <v name="STM">      0.00000000      0.00000000      0.00000000      0.00000000      0.00000000      0.00000000      0.00000000</v>
  </separator>
  <separator name="performance" >
   <i type="int" name="NPAR">     1</i>
   <i type="int" name="NSIM">     4</i>
   <i type="int" name="NBLK">    -1</i>
   <i type="logical" name="LPLANE"> T  </i>
   <i type="logical" name="LSCALAPACK"> F  </i>
   <i type="logical" name="LSCAAWARE"> F  </i>
   <i type="logical" name="LSCALU"> F  </i>
   <i type="logical" name="LASYNC"> F  </i>
   <i type="logical" name="LORBITALREAL"> F  </i>
  </separator>
  <separator name="miscellaneous" >
   <i type="int" name="IDIOT">     3</i>
   <i type="logical" name="LMUSIC"> F  </i>
   <v name="POMASS">     12.01100000     16.00000000</v>
   <v name="DARWINR">      0.00000000      0.00000000</v>
   <v name="DARWINV">      1.00000000      1.00000000</v>
   <i type="logical" name="LCORR"> T  </i>
  </separator>
  <i type="logical" name="GGA_COMPAT"> T  </i>
  <i type="logical" name="LBERRY"> F  </i>
  <i type="int" name="ICORELEVEL">     0</i>
  <i type="logical" name="LDAU"> F  </i>
  <i type="int" name="I_CONSTRAINED_M">     0</i>
  <separator name="electronic exchange-correlation" >
   <i type="string" name="GGA">--</i>
   <i type="int" name="VOSKOWN">     0</i>
   <i type="logical" name="LHFCALC"> F  </i>
   <i type="string" name="PRECFOCK"></i>
   <i type="logical" name="LHFONE"> F  </i>
   <i type="logical" name="LRHFCALC"> F  </i>
   <i type="logical" name="LTHOMAS"> F  </i>
   <i type="logical" name="LMODELHF"> F  </i>
   <i name="ENCUT4O">     -1.00000000</i>
   <i type="int" name="EXXOEP">     0</i>
   <i type="int" name="FOURORBIT">     0</i>
   <i name="AEXX">      0.00000000</i>
   <i name="HFALPHA">      0.00000000</i>
   <i name="ALDAX">      1.00000000</i>
   <i name="AGGAX">      1.00000000</i>
   <i name="ALDAC">      1.00000000</i>
   <i name="AGGAC">      1.00000000</i>
   <i type="int" name="NKREDX">     1</i>
   <i type="int" name="NKREDY">     1</i>
   <i type="int" name="NKREDZ">     1</i>
   <i type="logical" name="SHIFTRED"> F  </i>
   <i type="logical" name="ODDONLY"> F  </i>
   <i type="logical" name="EVENONLY"> F  </i>
   <i type="int" name="LMAXFOCK">     0</i>
   <i type="int" name="NMAXFOCKAE">     0</i>
   <i type="logical" name="LFOCKAEDFT"> F  </i>
   <i name="HFSCREEN">      0.00000000</i>
   <i name="HFSCREENC">      0.00000000</i>
  </separator>
  <separator name="vdW DFT" >
   <i type="logical" name="LUSE_VDW"> F  </i>
   <i name="Zab_VDW">     -0.84910000</i>
   <i name="PARAM1">      0.12340000</i>
   <i name="PARAM2">      1.00000000</i>
   <i name="PARAM3">      0.00000000</i>
  </separator>
  <separator name="model GW" >
   <i type="int" name="MODEL_GW">     0</i>
   <i name="MODEL_EPS0">    200.00000000</i>
   <i name="MODEL_ALPHA">      1.00000000</i>
  </separator>
  <separator name="linear response parameters" >
   <i type="logical" name="LEPSILON"> F  </i>
   <i type="logical" name="LRPA"> F  </i>
   <i type="logical" name="LNABLA"> F  </i>
   <i type="logical" name="LVEL"> F  </i>
   <i type="int" name="KINTER">     0</i>
   <i name="CSHIFT">      0.10000000</i>
   <i name="OMEGAMAX">     -1.00000000</i>
  </separator>
  <separator name="orbital magnetization" >
   <i type="logical" name="NUCIND"> F  </i>
   <v name="MAGPOS">      0.00000000      0.00000000      0.00000000</v>
   <i type="logical" name="LNICSALL"> T  </i>
   <i type="logical" name="ORBITALMAG"> F  </i>
   <i type="logical" name="LMAGBLOCH"> F  </i>
   <i type="logical" name="LCHIMAG"> F  </i>
   <i type="logical" name="LGAUGE"> T  </i>
   <i type="int" name="MAGATOM">     0</i>
   <v name="MAGDIPOL">      0.00000000      0.00000000      0.00000000</v>
   <v name="AVECCONST">      0.00000000      0.00000000      0.00000000</v>
  </separator>
  <separator name="response functions" >
   <i type="logical" name="LADDER"> F  </i>
   <i type="logical" name="LHARTREE"> T  </i>
   <i type="int" name="IBSE">     0</i>
   <i type="logical" name="LTCTE"> F  </i>
   <i type="logical" name="LTETE"> F  </i>
   <i type="logical" name="LFXCEPS"> F  </i>
   <i type="logical" name="L2ORDER"> F  </i>
   <i type="logical" name="LUSEW"> F  </i>
   <i name="ENCUTGW">     -2.00000000</i>
   <i name="ENCUTGWSOFT">     -2.00000000</i>
   <i name="ENCUTLF">     -1.00000000</i>
   <i type="int" name="LMAXMP2">    -1</i>
   <i name="SCISSOR">      0.00000000</i>
   <i type="int" name="NOMEGA">     0</i>
   <i type="int" name="NOMEGAR">     0</i>
   <i type="int" name="NBANDSGW">    -1</i>
   <i type="int" name="NBANDSO">    -1</i>
   <i type="int" name="NBANDSV">    -1</i>
   <i name="OPTEMAX">      0.00000000</i>
   <i type="int" name="NELM">     1</i>
   <i type="int" name="DIM">     3</i>
   <i type="int" name="ANTIRES">     0</i>
   <i name="OMEGAMAX">    -30.00000000</i>
   <i name="OMEGATL">   -200.00000000</i>
   <i type="int" name="OMEGAGRID">     0</i>
   <i name="CSHIFT">     -0.10000000</i>
   <i type="logical" name="SELFENERGY"> F  </i>
   <i type="logical" name="LSPECTRAL"> F  </i>
   <i type="logical" name="ODDONLYGW"> F  </i>
   <i type="logical" name="EVENONLYGW"> F  </i>
   <i type="int" name="NKREDLFX">     1</i>
   <i type="int" name="NKREDLFY">     1</i>
   <i type="int" name="NKREDLFZ">     1</i>
   <i type="int" name="MAXMEM">  1800</i>
   <i type="int" name="TELESCOPE">     0</i>
  </separator>
 </parameters>
 <atominfo>
  <atoms>       3 </atoms>
  <types>       2 </types>
  <array name="atoms" >
   <dimension dim="1">ion</dimension>
   <field type="string">element</field>
   <field type="int">atomtype</field>
   <set>
    <rc><c>C </c><c>   1</c></rc>
    <rc><c>O </c><c>   2</c></rc>
    <rc><c>O </c><c>   2</c></rc>
   </set>
  </array>
  <array name="atomtypes" >
   <dimension dim="1">type</dimension>
   <field type="int">atomspertype</field>
   <field type="string">element</field>
   <field>mass</field>
   <field>valence</field>
   <field type="string">pseudopotential</field>
   <set>
    <rc><c>   1</c><c>C </c><c>     12.01100000</c><c>      4.00000000</c><c> PAW_PBE C 08Apr2002                    </c></rc>
    <rc><c>   2</c><c>O </c><c>     16.00000000</c><c>      6.00000000</c><c> PAW_PBE O 08Apr2002                    </c></rc>
   </set>
  </array>
 </atominfo>
 <structure name="initialpos" >
  <crystal>
   <varray name="basis" >
    <v>      10.00000000       0.00000000       0.00000000 </v>
    <v>       0.00000000      10.00000000       0.00000000 </v>
    <v>       0.00000000       0.00000000      10.00000000 </v>
   </varray>
   <i name="volume">   1000.00000000 </i>
   <varray name="rec_basis" >
    <v>       0.10000000       0.00000000       0.00000000 </v>
    <v>       0.00000000       0.10000000       0.00000000 </v>
    <v>       0.00000000       0.00000000       0.10000000 </v>
   </varray>
  </crystal>
  <varray name="positions" >
   <v>       0.11600000       0.00000000       0.00000000 </v>
   <v>       0.00000000       0.00000000       0.00000000 </v>
   <v>       0.23200000       0.00000000       0.00000000 </v>
  </varray>
 </structure>
 <calculation>
  <scstep>
   <time name="dav">    1.37    1.37</time>
   <time name="total">    3.37    3.37</time>
   <energy>
    <i name="alphaZ">      1.06689490 </i>
    <i name="ewald">    304.63885589 </i>
    <i name="hartreedc">  -1112.59984709 </i>
    <i name="XCdc">     68.37513299 </i>
    <i name="pawpsdc">    529.82824833 </i>
    <i name="pawaedc">   -534.67809926 </i>
    <i name="eentropy">      0.00289895 </i>
    <i name="bandstr">   -194.86295965 </i>
    <i name="atom">   1004.59409663 </i>
    <i name="e_fr_energy">     66.36522170 </i>
    <i name="e_wo_entrp">     66.36232275 </i>
    <i name="e_0_energy">     66.36425538 </i>
   </energy>
  </scstep>
  <scstep>
   <time name="dav">    1.57    1.57</time>
   <time name="total">    1.57    1.59</time>
   <energy>
    <i name="e_fr_energy">    -15.87451368 </i>
    <i name="e_wo_entrp">    -15.87741263 </i>
    <i name="e_0_energy">    -15.87547999 </i>
   </energy>
  </scstep>
  <scstep>
   <time name="dav">    1.39    1.39</time>
   <time name="total">    1.39    1.41</time>
   <energy>
    <i name="e_fr_energy">    -24.25485886 </i>
    <i name="e_wo_entrp">    -24.26027173 </i>
    <i name="e_0_energy">    -24.25666315 </i>
   </energy>
  </scstep>
  <scstep>
   <time name="dav">    1.38    1.38</time>
   <time name="total">    1.38    1.39</time>
   <energy>
    <i name="e_fr_energy">    -24.47124221 </i>
    <i name="e_wo_entrp">    -24.47704948 </i>
    <i name="e_0_energy">    -24.47317797 </i>
   </energy>
  </scstep>
  <scstep>
   <time name="dav">    1.38    1.38</time>
   <time name="total">    1.81    1.83</time>
   <energy>
    <i name="e_fr_energy">    -24.48188848 </i>
    <i name="e_wo_entrp">    -24.48768639 </i>
    <i name="e_0_energy">    -24.48382111 </i>
   </energy>
  </scstep>
  <scstep>
   <time name="dav">    1.28    1.28</time>
   <time name="total">    4.15    4.26</time>
   <energy>
    <i name="e_fr_energy">    -23.63172811 </i>
    <i name="e_wo_entrp">    -23.63752602 </i>
    <i name="e_0_energy">    -23.63366075 </i>
   </energy>
  </scstep>
  <scstep>
   <time name="dav">    1.41    1.41</time>
   <time name="total">    4.28    4.30</time>
   <energy>
    <i name="e_fr_energy">    -23.50514549 </i>
    <i name="e_wo_entrp">    -23.51094340 </i>
    <i name="e_0_energy">    -23.50707813 </i>
   </energy>
  </scstep>
  <scstep>
   <time name="dav">    1.28    1.28</time>
   <time name="total">    4.15    4.27</time>
   <energy>
    <i name="e_fr_energy">    -23.48627038 </i>
    <i name="e_wo_entrp">    -23.49206828 </i>
    <i name="e_0_energy">    -23.48820301 </i>
   </energy>
  </scstep>
  <scstep>
   <time name="dav">    1.41    1.41</time>
   <time name="total">    4.27    4.29</time>
   <energy>
    <i name="e_fr_energy">    -23.48781062 </i>
    <i name="e_wo_entrp">    -23.49360853 </i>
    <i name="e_0_energy">    -23.48974326 </i>
   </energy>
  </scstep>
  <scstep>
   <time name="dav">    1.28    1.28</time>
   <time name="total">    4.13    4.16</time>
   <energy>
    <i name="e_fr_energy">    -23.48927578 </i>
    <i name="e_wo_entrp">    -23.49507368 </i>
    <i name="e_0_energy">    -23.49120841 </i>
   </energy>
  </scstep>
  <scstep>
   <time name="dav">    1.15    1.15</time>
   <time name="total">    3.98    4.00</time>
   <energy>
    <i name="e_fr_energy">    -23.49282831 </i>
    <i name="e_wo_entrp">    -23.49862622 </i>
    <i name="e_0_energy">    -23.49476095 </i>
   </energy>
  </scstep>
  <scstep>
   <time name="dav">    1.16    1.16</time>
   <time name="total">    3.99    4.00</time>
   <energy>
    <i name="e_fr_energy">    -23.49418246 </i>
    <i name="e_wo_entrp">    -23.49998036 </i>
    <i name="e_0_energy">    -23.49611509 </i>
   </energy>
  </scstep>
  <scstep>
   <time name="dav">    1.15    1.15</time>
   <time name="total">    3.95    3.96</time>
   <energy>
    <i name="e_fr_energy">    -23.49550732 </i>
    <i name="e_wo_entrp">    -23.50130523 </i>
    <i name="e_0_energy">    -23.49743996 </i>
   </energy>
  </scstep>
  <scstep>
   <time name="dav">    1.02    1.02</time>
   <time name="total">    3.85    3.87</time>
   <energy>
    <i name="e_fr_energy">    -23.49597221 </i>
    <i name="e_wo_entrp">    -23.50177011 </i>
    <i name="e_0_energy">    -23.49790484 </i>
   </energy>
  </scstep>
  <scstep>
   <time name="dav">    1.02    1.02</time>
   <time name="total">    3.91    3.92</time>
   <energy>
    <i name="e_fr_energy">    -23.49611145 </i>
    <i name="e_wo_entrp">    -23.50190936 </i>
    <i name="e_0_energy">    -23.49804409 </i>
   </energy>
  </scstep>
  <scstep>
   <time name="dav">    1.02    1.02</time>
   <time name="total">    3.98    4.01</time>
   <energy>
    <i name="e_fr_energy">    -23.49624684 </i>
    <i name="e_wo_entrp">    -23.50204474 </i>
    <i name="e_0_energy">    -23.49817947 </i>
   </energy>
  </scstep>
  <scstep>
   <time name="dav">    1.02    1.02</time>
   <time name="total">    3.52    3.54</time>
   <energy>
    <i name="alphaZ">      1.06689490 </i>
    <i name="ewald">    304.63885589 </i>
    <i name="hartreedc">  -1143.63026212 </i>
    <i name="XCdc">     70.08199164 </i>
    <i name="pawpsdc">    756.97808783 </i>
    <i name="pawaedc">   -760.81453600 </i>
    <i name="eentropy">      0.00579791 </i>
    <i name="bandstr">   -256.41718861 </i>
    <i name="atom">   1004.59409663 </i>
    <i name="e_fr_energy">    -23.49626194 </i>
    <i name="e_wo_entrp">    -23.50205984 </i>
    <i name="e_0_energy">    -23.49819457 </i>
   </energy>
  </scstep>
  <parameters_embedded>
   <separator name="dft+d2" >
    <i type="logical" name="LVDW"> F  </i>
   </separator>
  </parameters_embedded>
  <structure>
   <crystal>
    <varray name="basis" >
     <v>      10.00000000       0.00000000       0.00000000 </v>
     <v>       0.00000000      10.00000000       0.00000000 </v>
     <v>       0.00000000       0.00000000      10.00000000 </v>
    </varray>
    <i name="volume">   1000.00000000 </i>
    <varray name="rec_basis" >
     <v>       0.10000000       0.00000000       0.00000000 </v>
     <v>       0.00000000       0.10000000       0.00000000 </v>
     <v>       0.00000000       0.00000000       0.10000000 </v>
    </varray>
   </crystal>
   <varray name="positions" >
    <v>       0.11600000       0.00000000       0.00000000 </v>
    <v>       0.00000000       0.00000000       0.00000000 </v>
    <v>       0.23200000       0.00000000       0.00000000 </v>
   </varray>
  </structure>
  <varray name="forces" >
   <v>       0.00000000       0.00000000       0.00000000 </v>
   <v>      -0.98566416       0.00000000       0.00000000 </v>
   <v>       0.98566416       0.00000000       0.00000000 </v>
  </varray>
  <varray name="stress" >
   <v>     -29.14922948       0.00000000       0.00000000 </v>
   <v>       0.00000000     -36.68262625       0.00000000 </v>
   <v>       0.00000000       0.00000000     -36.68262625 </v>
  </varray>
  <energy>
   <i name="e_fr_energy">    -23.49626194 </i>
   <i name="e_wo_entrp">    -23.49819457 </i>
   <i name="e_0_energy">      0.00579791 </i>
  </energy>
  <time name="totalsc">   64.88   65.82</time>
 </calculation>
 <calculation>
  <scstep>
   <time name="dav">    1.14    1.14</time>
   <time name="total">    4.11    4.11</time>
   <energy>
    <i name="alphaZ">      1.06689490 </i>
    <i name="ewald">    273.11834945 </i>
    <i name="hartreedc">  -1121.69180064 </i>
    <i name="XCdc">     69.67513690 </i>
    <i name="pawpsdc">    756.97906255 </i>
    <i name="pawaedc">   -760.81549395 </i>
    <i name="eentropy">      0.00579791 </i>
    <i name="bandstr">   -246.31373054 </i>
    <i name="atom">   1004.59409663 </i>
    <i name="e_fr_energy">    -23.38168680 </i>
    <i name="e_wo_entrp">    -23.38748470 </i>
    <i name="e_0_energy">    -23.38361943 </i>
   </energy>
  </scstep>
  <scstep>
   <time name="dav">    1.41    1.42</time>
   <time name="total">    4.23    4.24</time>
   <energy>
    <i name="e_fr_energy">    -23.37618411 </i>
    <i name="e_wo_entrp">    -23.38198202 </i>
    <i name="e_0_energy">    -23.37811675 </i>
   </energy>
  </scstep>
  <scstep>
   <time name="dav">    1.41    1.41</time>
   <time name="total">    4.13    4.15</time>
   <energy>
    <i name="e_fr_energy">    -23.37620184 </i>
    <i name="e_wo_entrp">    -23.38199975 </i>
    <i name="e_0_energy">    -23.37813448 </i>
   </energy>
  </scstep>
  <scstep>
   <time name="dav">    1.28    1.28</time>
   <time name="total">    3.97    3.98</time>
   <energy>
    <i name="e_fr_energy">    -23.37968929 </i>
    <i name="e_wo_entrp">    -23.38548720 </i>
    <i name="e_0_energy">    -23.38162193 </i>
   </energy>
  </scstep>
  <scstep>
   <time name="dav">    1.28    1.28</time>
   <time name="total">    3.97    3.99</time>
   <energy>
    <i name="e_fr_energy">    -23.38082545 </i>
    <i name="e_wo_entrp">    -23.38662335 </i>
    <i name="e_0_energy">    -23.38275808 </i>
   </energy>
  </scstep>
  <scstep>
   <time name="dav">    1.02    1.02</time>
   <time name="total">    3.76    3.77</time>
   <energy>
    <i name="e_fr_energy">    -23.38114155 </i>
    <i name="e_wo_entrp">    -23.38693945 </i>
    <i name="e_0_energy">    -23.38307418 </i>
   </energy>
  </scstep>
  <scstep>
   <time name="dav">    1.03    1.03</time>
   <time name="total">    3.33    3.34</time>
   <energy>
    <i name="alphaZ">      1.06689490 </i>
    <i name="ewald">    273.11834945 </i>
    <i name="hartreedc">  -1114.97178272 </i>
    <i name="XCdc">     69.33486291 </i>
    <i name="pawpsdc">    724.63378014 </i>
    <i name="pawaedc">   -728.33659091 </i>
    <i name="eentropy">      0.00579791 </i>
    <i name="bandstr">   -252.82663889 </i>
    <i name="atom">   1004.59409663 </i>
    <i name="e_fr_energy">    -23.38123059 </i>
    <i name="e_wo_entrp">    -23.38702850 </i>
    <i name="e_0_energy">    -23.38316323 </i>
   </energy>
  </scstep>
  <structure>
   <crystal>
    <varray name="basis" >
     <v>      10.00000000       0.00000000       0.00000000 </v>
     <v>       0.00000000      10.00000000       0.00000000 </v>
     <v>       0.00000000       0.00000000      10.00000000 </v>
    </varray>
    <i name="volume">   1000.00000000 </i>
    <varray name="rec_basis" >
     <v>       0.10000000       0.00000000       0.00000000 </v>
     <v>       0.00000000       0.10000000       0.00000000 </v>
     <v>       0.00000000       0.00000000       0.10000000 </v>
    </varray>
   </crystal>
   <varray name="positions" >
    <v>       0.11600000       0.00000000       0.00000000 </v>
    <v>      -0.00475511       0.00000000       0.00000000 </v>
    <v>       0.23675511       0.00000000       0.00000000 </v>
   </varray>
  </structure>
  <varray name="forces" >
   <v>       0.00000000       0.00000000       0.00000000 </v>
   <v>       3.12669272       0.00000000       0.00000000 </v>
   <v>      -3.12669272       0.00000000       0.00000000 </v>
  </varray>
  <varray name="stress" >
   <v>     -46.92632104       0.00000000       0.00000000 </v>
   <v>       0.00000000     -36.75123826       0.00000000 </v>
   <v>       0.00000000       0.00000000     -36.75123826 </v>
  </varray>
  <energy>
   <i name="e_fr_energy">    -23.38123059 </i>
   <i name="e_wo_entrp">    -23.38316323 </i>
   <i name="e_0_energy">      0.00579791 </i>
  </energy>
  <time name="totalsc">   32.18   32.31</time>
 </calculation>
 <calculation>
  <scstep>
   <time name="dav">    1.14    1.14</time>
   <time name="total">    4.01    4.01</time>
   <energy>
    <i name="alphaZ">      1.06689490 </i>
    <i name="ewald">    296.84186322 </i>
    <i name="hartreedc">  -1131.32720639 </i>
    <i name="XCdc">     69.63704151 </i>
    <i name="pawpsdc">    724.69931500 </i>
    <i name="pawaedc">   -728.40261612 </i>
    <i name="eentropy">      0.00579791 </i>
    <i name="bandstr">   -260.61701462 </i>
    <i name="atom">   1004.59409663 </i>
    <i name="e_fr_energy">    -23.50182797 </i>
    <i name="e_wo_entrp">    -23.50762588 </i>
    <i name="e_0_energy">    -23.50376061 </i>
   </energy>
  </scstep>
  <scstep>
   <time name="dav">    1.27    1.28</time>
   <time name="total">    4.16    4.16</time>
   <energy>
    <i name="e_fr_energy">    -23.50162814 </i>
    <i name="e_wo_entrp">    -23.50742605 </i>
    <i name="e_0_energy">    -23.50356078 </i>
   </energy>
  </scstep>
  <scstep>
   <time name="dav">    1.27    1.27</time>
   <time name="total">    4.20    4.22</time>
   <energy>
    <i name="e_fr_energy">    -23.50186230 </i>
    <i name="e_wo_entrp">    -23.50766020 </i>
    <i name="e_0_energy">    -23.50379493 </i>
   </energy>
  </scstep>
  <scstep>
   <time name="dav">    1.27    1.28</time>
   <time name="total">    4.23    4.26</time>
   <energy>
    <i name="e_fr_energy">    -23.50443039 </i>
    <i name="e_wo_entrp">    -23.51022830 </i>
    <i name="e_0_energy">    -23.50636303 </i>
   </energy>
  </scstep>
  <scstep>
   <time name="dav">    1.02    1.02</time>
   <time name="total">    3.99    4.01</time>
   <energy>
    <i name="e_fr_energy">    -23.50516594 </i>
    <i name="e_wo_entrp">    -23.51096384 </i>
    <i name="e_0_energy">    -23.50709857 </i>
   </energy>
  </scstep>
  <scstep>
   <time name="dav">    1.02    1.02</time>
   <time name="total">    4.00    4.02</time>
   <energy>
    <i name="e_fr_energy">    -23.50544141 </i>
    <i name="e_wo_entrp">    -23.51123932 </i>
    <i name="e_0_energy">    -23.50737405 </i>
   </energy>
  </scstep>
  <scstep>
   <time name="dav">    1.02    1.02</time>
   <time name="total">    3.52    3.53</time>
   <energy>
    <i name="alphaZ">      1.06689490 </i>
    <i name="ewald">    296.84186322 </i>
    <i name="hartreedc">  -1136.48210116 </i>
    <i name="XCdc">     69.89461230 </i>
    <i name="pawpsdc">    748.81387796 </i>
    <i name="pawaedc">   -752.61487066 </i>
    <i name="eentropy">      0.00579791 </i>
    <i name="bandstr">   -255.62564315 </i>
    <i name="atom">   1004.59409663 </i>
    <i name="e_fr_energy">    -23.50547205 </i>
    <i name="e_wo_entrp">    -23.51126996 </i>
    <i name="e_0_energy">    -23.50740469 </i>
   </energy>
  </scstep>
  <structure>
   <crystal>
    <varray name="basis" >
     <v>      10.00000000       0.00000000       0.00000000 </v>
     <v>       0.00000000      10.00000000       0.00000000 </v>
     <v>       0.00000000       0.00000000      10.00000000 </v>
    </varray>
    <i name="volume">   1000.00000000 </i>
    <varray name="rec_basis" >
     <v>       0.10000000       0.00000000       0.00000000 </v>
     <v>       0.00000000       0.10000000       0.00000000 </v>
     <v>       0.00000000       0.00000000       0.10000000 </v>
    </varray>
   </crystal>
   <varray name="positions" >
    <v>       0.11600000       0.00000000       0.00000000 </v>
    <v>      -0.00113972       0.00000000       0.00000000 </v>
    <v>       0.23313972       0.00000000       0.00000000 </v>
   </varray>
  </structure>
  <varray name="forces" >
   <v>       0.00000000       0.00000000       0.00000000 </v>
   <v>       0.15319588       0.00000000       0.00000000 </v>
   <v>      -0.15319588       0.00000000       0.00000000 </v>
  </varray>
  <varray name="stress" >
   <v>     -33.93600653       0.00000000       0.00000000 </v>
   <v>       0.00000000     -36.65906279       0.00000000 </v>
   <v>       0.00000000       0.00000000     -36.65906279 </v>
  </varray>
  <energy>
   <i name="e_fr_energy">    -23.50547205 </i>
   <i name="e_wo_entrp">    -23.50740469 </i>
   <i name="e_0_energy">      0.00579791 </i>
  </energy>
  <time name="totalsc">   32.87   33.03</time>
 </calculation>
 <calculation>
  <scstep>
   <time name="dav">    1.14    1.15</time>
   <time name="total">    4.10    4.10</time>
   <energy>
    <i name="alphaZ">      1.06689490 </i>
    <i name="ewald">    298.10537214 </i>
    <i name="hartreedc">  -1137.40616524 </i>
    <i name="XCdc">     69.91250521 </i>
    <i name="pawpsdc">    748.75998674 </i>
    <i name="pawaedc">   -752.56053934 </i>
    <i name="eentropy">      0.00579791 </i>
    <i name="bandstr">   -255.98368142 </i>
    <i name="atom">   1004.59409663 </i>
    <i name="e_fr_energy">    -23.50573248 </i>
    <i name="e_wo_entrp">    -23.51153039 </i>
    <i name="e_0_energy">    -23.50766511 </i>
   </energy>
  </scstep>
  <scstep>
   <time name="dav">    1.14    1.15</time>
   <time name="total">    3.65    3.65</time>
   <energy>
    <i name="alphaZ">      1.06689490 </i>
    <i name="ewald">    298.10537214 </i>
    <i name="hartreedc">  -1137.56366962 </i>
    <i name="XCdc">     69.92109457 </i>
    <i name="pawpsdc">    749.40084061 </i>
    <i name="pawaedc">   -753.20304557 </i>
    <i name="eentropy">      0.00579791 </i>
    <i name="bandstr">   -255.83303189 </i>
    <i name="atom">   1004.59409663 </i>
    <i name="e_fr_energy">    -23.50565033 </i>
    <i name="e_wo_entrp">    -23.51144824 </i>
    <i name="e_0_energy">    -23.50758297 </i>
   </energy>
  </scstep>
  <structure>
   <crystal>
    <varray name="basis" >
     <v>      10.00000000       0.00000000       0.00000000 </v>
     <v>       0.00000000      10.00000000       0.00000000 </v>
     <v>       0.00000000       0.00000000      10.00000000 </v>
    </varray>
    <i name="volume">   1000.00000000 </i>
    <varray name="rec_basis" >
     <v>       0.10000000       0.00000000       0.00000000 </v>
     <v>       0.00000000       0.10000000       0.00000000 </v>
     <v>       0.00000000       0.00000000       0.10000000 </v>
    </varray>
   </crystal>
   <varray name="positions" >
    <v>       0.11600000       0.00000000       0.00000000 </v>
    <v>      -0.00095345       0.00000000       0.00000000 </v>
    <v>       0.23295345       0.00000000       0.00000000 </v>
   </varray>
  </structure>
  <varray name="forces" >
   <v>       0.00000000       0.00000000       0.00000000 </v>
   <v>      -0.01515819       0.00000000       0.00000000 </v>
   <v>       0.01515819       0.00000000       0.00000000 </v>
  </varray>
  <varray name="stress" >
   <v>     -33.19836403       0.00000000       0.00000000 </v>
   <v>       0.00000000     -36.55756983       0.00000000 </v>
   <v>       0.00000000       0.00000000     -36.55756983 </v>
  </varray>
  <energy>
   <i name="e_fr_energy">    -23.50565033 </i>
   <i name="e_wo_entrp">    -23.50758297 </i>
   <i name="e_0_energy">      0.00579791 </i>
  </energy>
  <time name="totalsc">   12.13   12.22</time>
  <eigenvalues>
   <array>
    <dimension dim="1">band</dimension>
    <dimension dim="2">kpoint</dimension>
    <dimension dim="3">spin</dimension>
    <field>eigene</field>
    <field>occ</field>
    <set>
     <set comment="spin 1">
      <set comment="kpoint 1">
       <r>  -29.5961    1.0000 </r>
       <r>  -28.5677    1.0000 </r>
       <r>  -13.9746    1.0000 </r>
       <r>  -12.6208    1.0000 </r>
       <r>  -12.6208    1.0000 </r>
       <r>  -12.5726    1.0000 </r>
       <r>   -8.9819    1.0000 </r>
       <r>   -8.9819    1.0000 </r>
       <r>   -0.9540    0.0000 </r>
       <r>   -0.1201    0.0000 </r>
       <r>   -0.1201    0.0000 </r>
       <r>    0.4373    0.0000 </r>
      </set>
     </set>
    </set>
   </array>
  </eigenvalues>
  <separator name="orbital magnetization" >
   <v name="MAGDIPOLOUT">      0.00000000      0.00000000      0.00000000</v>
  </separator>
 </calculation>
 <structure name="finalpos" >
  <crystal>
   <varray name="basis" >
    <v>      10.00000000       0.00000000       0.00000000 </v>
    <v>       0.00000000      10.00000000       0.00000000 </v>
    <v>       0.00000000       0.00000000      10.00000000 </v>
   </varray>
   <i name="volume">   1000.00000000 </i>
   <varray name="rec_basis" >
    <v>       0.10000000       0.00000000       0.00000000 </v>
    <v>       0.00000000       0.10000000       0.00000000 </v>
    <v>       0.00000000       0.00000000       0.10000000 </v>
   </varray>
  </crystal>
  <varray name="positions" >
   <v>       0.11600000       0.00000000       0.00000000 </v>
   <v>      -0.00095345       0.00000000       0.00000000 </v>
   <v>       0.23295345       0.00000000       0.00000000 </v>
  </varray>
 </structure>
</modeling>
