   2   2   1   0
  0.1090413E+02  0.3136019E-09  0.3136019E-09  0.3136019E-09  0.5000000E-15
  1.000000000000000E-004
  CAR 
 unknown system                          
     24.14036920     -7.44019588  301      8.61511299      1.00000000
     -7.440  0.0000E+00  0.0000E+00  0.0000E+00  0.0000E+00
     -7.335  0.0000E+00  0.0000E+00  0.0000E+00  0.0000E+00
     -7.230  0.0000E+00  0.0000E+00  0.0000E+00  0.0000E+00
     -7.124  0.0000E+00  0.0000E+00  0.0000E+00  0.0000E+00
     -7.019  0.0000E+00  0.0000E+00  0.0000E+00  0.0000E+00
     -6.914  0.0000E+00  0.0000E+00  0.0000E+00  0.0000E+00
     -6.809  0.0000E+00  0.0000E+00  0.0000E+00  0.0000E+00
     -6.703  0.0000E+00  0.0000E+00  0.0000E+00  0.0000E+00
     -6.598  0.0000E+00  0.0000E+00  0.0000E+00  0.0000E+00
     -6.493 -0.4254E-42 -0.3467E-42 -0.4478E-43 -0.3650E-43
     -6.388 -0.2810E-26 -0.2395E-26 -0.2958E-27 -0.2521E-27
     -6.282 -0.2344E-14 -0.2091E-14 -0.2468E-15 -0.2202E-15
     -6.177 -0.2321E-06 -0.2166E-06 -0.2443E-07 -0.2280E-07
     -6.072 -0.1251E-02 -0.1240E-02 -0.1317E-03 -0.1306E-03
     -5.966  0.3764E-01  0.3752E-01  0.3831E-02  0.3819E-02
     -5.861  0.6530E-03  0.7709E-03  0.3900E-02  0.3900E-02
     -5.756  0.1288E-01  0.1225E-01  0.5255E-02  0.5190E-02
     -5.651  0.1012E+00  0.1019E+00  0.1591E-01  0.1591E-01
     -5.545 -0.4578E-02 -0.4582E-02  0.1543E-01  0.1543E-01
     -5.440  0.8990E-01  0.8902E-01  0.2489E-01  0.2480E-01
     -5.335  0.2284E-01  0.2370E-01  0.2729E-01  0.2730E-01
     -5.230  0.5666E-01  0.5543E-01  0.3326E-01  0.3313E-01
     -5.124  0.9409E-01  0.9534E-01  0.4316E-01  0.4317E-01
     -5.019 -0.8827E-02 -0.9016E-02  0.4223E-01  0.4222E-01
     -4.914  0.2358E+00  0.2357E+00  0.6706E-01  0.6704E-01
     -4.808 -0.6994E-02 -0.6730E-02  0.6632E-01  0.6633E-01
     -4.703  0.6050E-01  0.5942E-01  0.7269E-01  0.7258E-01
     -4.598  0.1482E+00  0.1485E+00  0.8829E-01  0.8822E-01
     -4.493  0.5300E-01  0.5266E-01  0.9387E-01  0.9376E-01
     -4.387  0.1104E+00  0.1099E+00  0.1055E+00  0.1053E+00
     -4.282  0.1873E+00  0.1888E+00  0.1252E+00  0.1252E+00
     -4.177  0.1055E+00  0.1055E+00  0.1363E+00  0.1363E+00
     -4.072  0.2238E+00  0.2231E+00  0.1599E+00  0.1598E+00
     -3.966  0.1125E-02  0.1522E-02  0.1600E+00  0.1600E+00
     -3.861  0.5928E+00  0.5877E+00  0.2224E+00  0.2218E+00
     -3.756  0.2428E+00  0.2467E+00  0.2480E+00  0.2478E+00
     -3.651  0.5402E+00  0.5345E+00  0.3048E+00  0.3041E+00
     -3.545  0.4756E+00  0.4822E+00  0.3549E+00  0.3548E+00
     -3.440  0.1767E+00  0.1735E+00  0.3735E+00  0.3731E+00
     -3.335  0.6584E+00  0.6603E+00  0.4428E+00  0.4426E+00
     -3.229  0.4165E+00  0.4136E+00  0.4867E+00  0.4861E+00
     -3.124  0.7572E+00  0.7574E+00  0.5664E+00  0.5659E+00
     -3.019  0.4919E+00  0.4935E+00  0.6181E+00  0.6178E+00
     -2.914  0.7197E+00  0.7179E+00  0.6939E+00  0.6934E+00
     -2.808  0.4484E+00  0.4490E+00  0.7411E+00  0.7407E+00
     -2.703  0.5432E+00  0.5424E+00  0.7983E+00  0.7977E+00
     -2.598  0.8111E+00  0.8125E+00  0.8837E+00  0.8833E+00
     -2.493  0.2534E+00  0.2551E+00  0.9103E+00  0.9101E+00
     -2.387  0.1153E+00  0.1160E+00  0.9225E+00  0.9223E+00
     -2.282  0.1493E+00  0.1455E+00  0.9382E+00  0.9377E+00
     -2.177  0.3355E+00  0.3406E+00  0.9735E+00  0.9735E+00
     -2.071  0.4274E-01  0.4175E-01  0.9780E+00  0.9779E+00
     -1.966  0.1003E+00  0.1013E+00  0.9886E+00  0.9886E+00
     -1.861  0.2064E-01  0.1926E-01  0.9907E+00  0.9906E+00
     -1.756  0.9001E-01  0.9138E-01  0.1000E+01  0.1000E+01
     -1.650 -0.1902E-02 -0.1984E-02  0.1000E+01  0.1000E+01
     -1.545 -0.4462E-07 -0.5073E-07  0.1000E+01  0.1000E+01
     -1.440  0.0000E+00  0.0000E+00  0.1000E+01  0.1000E+01
     -1.335  0.0000E+00  0.0000E+00  0.1000E+01  0.1000E+01
     -1.229  0.0000E+00  0.0000E+00  0.1000E+01  0.1000E+01
     -1.124  0.0000E+00  0.0000E+00  0.1000E+01  0.1000E+01
     -1.019  0.0000E+00  0.0000E+00  0.1000E+01  0.1000E+01
     -0.914  0.0000E+00  0.0000E+00  0.1000E+01  0.1000E+01
     -0.808  0.0000E+00  0.0000E+00  0.1000E+01  0.1000E+01
     -0.703  0.0000E+00  0.0000E+00  0.1000E+01  0.1000E+01
     -0.598  0.0000E+00  0.0000E+00  0.1000E+01  0.1000E+01
     -0.492  0.0000E+00  0.0000E+00  0.1000E+01  0.1000E+01
     -0.387  0.0000E+00  0.0000E+00  0.1000E+01  0.1000E+01
     -0.282 -0.8382E-32 -0.7930E-32  0.1000E+01  0.1000E+01
     -0.177 -0.2819E-18 -0.2705E-18  0.1000E+01  0.1000E+01
     -0.071 -0.1132E-08 -0.1101E-08  0.1000E+01  0.1000E+01
      0.034 -0.4410E-03 -0.4356E-03  0.1000E+01  0.1000E+01
      0.139  0.4714E-01  0.4683E-01  0.1005E+01  0.1005E+01
      0.244  0.6548E-01  0.6580E-01  0.1012E+01  0.1012E+01
      0.350 -0.2559E-02 -0.2550E-02  0.1012E+01  0.1012E+01
      0.455  0.1028E+00  0.1023E+00  0.1022E+01  0.1022E+01
      0.560  0.4324E-01  0.4373E-01  0.1027E+01  0.1027E+01
      0.665  0.1899E+00  0.1893E+00  0.1047E+01  0.1047E+01
      0.771  0.6476E-01  0.6491E-01  0.1054E+01  0.1054E+01
      0.876  0.1991E+00  0.1996E+00  0.1075E+01  0.1075E+01
      0.981  0.5588E-01  0.5547E-01  0.1081E+01  0.1081E+01
      1.087  0.1623E+00  0.1626E+00  0.1098E+01  0.1098E+01
      1.192  0.1446E+00  0.1435E+00  0.1113E+01  0.1113E+01
      1.297  0.4170E+00  0.4175E+00  0.1157E+01  0.1157E+01
      1.402  0.4424E+00  0.4428E+00  0.1203E+01  0.1203E+01
      1.508 -0.1141E-01 -0.1108E-01  0.1202E+01  0.1202E+01
      1.613  0.3036E+00  0.3029E+00  0.1234E+01  0.1234E+01
      1.718  0.5355E+00  0.5343E+00  0.1290E+01  0.1290E+01
      1.823  0.5752E+00  0.5764E+00  0.1351E+01  0.1351E+01
      1.929  0.2415E+00  0.2414E+00  0.1376E+01  0.1376E+01
      2.034  0.2410E+00  0.2409E+00  0.1402E+01  0.1402E+01
      2.139  0.2457E+00  0.2458E+00  0.1428E+01  0.1428E+01
      2.245  0.5440E+00  0.5440E+00  0.1485E+01  0.1485E+01
      2.350  0.2928E+00  0.2923E+00  0.1516E+01  0.1516E+01
      2.455  0.7311E+00  0.7321E+00  0.1593E+01  0.1593E+01
      2.560  0.3958E+00  0.3936E+00  0.1634E+01  0.1634E+01
      2.666  0.1924E+00  0.1946E+00  0.1655E+01  0.1655E+01
      2.771  0.2169E+00  0.2168E+00  0.1677E+01  0.1677E+01
      2.876  0.5250E+00  0.5247E+00  0.1733E+01  0.1733E+01
      2.981  0.2426E+00  0.2432E+00  0.1758E+01  0.1758E+01
      3.087  0.1721E+00  0.1710E+00  0.1776E+01  0.1776E+01
      3.192  0.3432E+00  0.3431E+00  0.1813E+01  0.1812E+01
      3.297  0.2317E+00  0.2321E+00  0.1837E+01  0.1837E+01
      3.402  0.5391E+00  0.5377E+00  0.1894E+01  0.1893E+01
      3.508  0.8179E+00  0.8179E+00  0.1980E+01  0.1980E+01
      3.613  0.9416E+00  0.9400E+00  0.2079E+01  0.2078E+01
      3.718  0.1746E+01  0.1743E+01  0.2263E+01  0.2262E+01
      3.824  0.2773E+01  0.2778E+01  0.2555E+01  0.2554E+01
      3.929  0.1689E+01  0.1688E+01  0.2733E+01  0.2732E+01
      4.034  0.1799E+01  0.1799E+01  0.2922E+01  0.2921E+01
      4.139  0.1233E+01  0.1237E+01  0.3052E+01  0.3052E+01
      4.245  0.1066E+01  0.1067E+01  0.3164E+01  0.3164E+01
      4.350  0.9058E+00  0.9044E+00  0.3259E+01  0.3259E+01
      4.455  0.7153E+00  0.7160E+00  0.3335E+01  0.3334E+01
      4.560  0.8716E+00  0.8721E+00  0.3426E+01  0.3426E+01
      4.666  0.6658E+00  0.6658E+00  0.3496E+01  0.3496E+01
      4.771  0.4121E+00  0.4132E+00  0.3540E+01  0.3540E+01
      4.876  0.2952E+00  0.2957E+00  0.3571E+01  0.3571E+01
      4.981  0.1569E+00  0.1561E+00  0.3587E+01  0.3587E+01
      5.087  0.1790E+00  0.1794E+00  0.3606E+01  0.3606E+01
      5.192  0.4048E+00  0.4044E+00  0.3649E+01  0.3649E+01
      5.297  0.3895E+00  0.3877E+00  0.3690E+01  0.3690E+01
      5.403  0.4017E+00  0.4037E+00  0.3732E+01  0.3732E+01
      5.508  0.6143E+00  0.6134E+00  0.3797E+01  0.3797E+01
      5.613  0.8286E-01  0.8267E-01  0.3806E+01  0.3805E+01
      5.718  0.4662E+00  0.4662E+00  0.3855E+01  0.3855E+01
      5.824  0.1787E+00  0.1801E+00  0.3873E+01  0.3873E+01
      5.929  0.2058E+00  0.2060E+00  0.3895E+01  0.3895E+01
      6.034 -0.9064E-02 -0.9015E-02  0.3894E+01  0.3894E+01
      6.139  0.1301E+00  0.1289E+00  0.3908E+01  0.3908E+01
      6.245  0.1420E+00  0.1426E+00  0.3923E+01  0.3923E+01
      6.350  0.1739E+00  0.1732E+00  0.3941E+01  0.3941E+01
      6.455  0.1152E+00  0.1164E+00  0.3953E+01  0.3953E+01
      6.561  0.2326E-01  0.2206E-01  0.3956E+01  0.3956E+01
      6.666  0.3054E+00  0.3065E+00  0.3988E+01  0.3988E+01
      6.771  0.3328E+00  0.3320E+00  0.4023E+01  0.4023E+01
      6.876  0.6607E-01  0.6604E-01  0.4030E+01  0.4030E+01
      6.982  0.9083E-01  0.9124E-01  0.4039E+01  0.4039E+01
      7.087  0.2191E+00  0.2197E+00  0.4062E+01  0.4062E+01
      7.192  0.6626E-01  0.6607E-01  0.4069E+01  0.4069E+01
      7.297  0.7229E-02  0.7314E-02  0.4070E+01  0.4070E+01
      7.403  0.1234E+00  0.1224E+00  0.4083E+01  0.4083E+01
      7.508  0.5936E+00  0.5930E+00  0.4146E+01  0.4146E+01
      7.613  0.6510E+00  0.6518E+00  0.4214E+01  0.4214E+01
      7.718  0.1918E+00  0.1926E+00  0.4234E+01  0.4234E+01
      7.824  0.1323E+00  0.1327E+00  0.4248E+01  0.4248E+01
      7.929  0.3466E+00  0.3462E+00  0.4285E+01  0.4285E+01
      8.034  0.1010E+00  0.1013E+00  0.4295E+01  0.4295E+01
      8.140  0.5103E-01  0.5073E-01  0.4301E+01  0.4301E+01
      8.245 -0.7631E-03 -0.7617E-03  0.4301E+01  0.4301E+01
      8.350  0.2979E-01  0.3019E-01  0.4304E+01  0.4304E+01
      8.455  0.2439E+00  0.2434E+00  0.4330E+01  0.4330E+01
      8.561  0.1155E+01  0.1155E+01  0.4451E+01  0.4451E+01
      8.666  0.6477E+00  0.6479E+00  0.4519E+01  0.4519E+01
      8.771  0.3047E+00  0.3046E+00  0.4551E+01  0.4551E+01
      8.876  0.1705E+00  0.1705E+00  0.4569E+01  0.4569E+01
      8.982  0.1389E+00  0.1397E+00  0.4584E+01  0.4584E+01
      9.087  0.2490E+00  0.2489E+00  0.4610E+01  0.4610E+01
      9.192  0.1764E+00  0.1756E+00  0.4629E+01  0.4629E+01
      9.298  0.1211E+00  0.1208E+00  0.4641E+01  0.4641E+01
      9.403  0.1420E+00  0.1431E+00  0.4656E+01  0.4656E+01
      9.508  0.3362E+00  0.3354E+00  0.4692E+01  0.4692E+01
      9.613  0.2555E+00  0.2563E+00  0.4719E+01  0.4719E+01
      9.719  0.1158E+01  0.1159E+01  0.4841E+01  0.4841E+01
      9.824  0.8036E+00  0.8019E+00  0.4925E+01  0.4925E+01
      9.929  0.3065E+00  0.3077E+00  0.4957E+01  0.4958E+01
     10.034  0.1030E+00  0.1016E+00  0.4968E+01  0.4968E+01
     10.140  0.2201E+00  0.2201E+00  0.4991E+01  0.4991E+01
     10.245  0.5020E+00  0.5040E+00  0.5044E+01  0.5044E+01
     10.350  0.6482E+00  0.6461E+00  0.5113E+01  0.5113E+01
     10.455  0.2563E+00  0.2593E+00  0.5139E+01  0.5140E+01
     10.561  0.8275E+00  0.8256E+00  0.5227E+01  0.5227E+01
     10.666  0.4462E+00  0.4454E+00  0.5274E+01  0.5274E+01
     10.771  0.1368E+00  0.1378E+00  0.5288E+01  0.5288E+01
     10.877  0.6347E+00  0.6355E+00  0.5355E+01  0.5355E+01
     10.982  0.1035E+01  0.1039E+01  0.5464E+01  0.5464E+01
     11.087  0.5565E+00  0.5510E+00  0.5522E+01  0.5522E+01
     11.192  0.4662E+00  0.4667E+00  0.5571E+01  0.5572E+01
     11.298  0.4626E+00  0.4633E+00  0.5620E+01  0.5620E+01
     11.403  0.1455E+01  0.1459E+01  0.5773E+01  0.5774E+01
     11.508  0.8743E+00  0.8729E+00  0.5865E+01  0.5866E+01
     11.613  0.4960E+00  0.4937E+00  0.5918E+01  0.5918E+01
     11.719  0.5479E+00  0.5473E+00  0.5975E+01  0.5975E+01
     11.824  0.4798E+00  0.4821E+00  0.6026E+01  0.6026E+01
     11.929  0.9968E+00  0.9970E+00  0.6131E+01  0.6131E+01
     12.034  0.1386E+01  0.1386E+01  0.6277E+01  0.6277E+01
     12.140  0.6644E+00  0.6631E+00  0.6346E+01  0.6347E+01
     12.245  0.9351E+00  0.9368E+00  0.6445E+01  0.6445E+01
     12.350  0.9055E+00  0.9068E+00  0.6540E+01  0.6541E+01
     12.456  0.7888E+00  0.7843E+00  0.6623E+01  0.6623E+01
     12.561  0.1185E+01  0.1188E+01  0.6748E+01  0.6748E+01
     12.666  0.7457E+00  0.7460E+00  0.6826E+01  0.6827E+01
     12.771  0.5741E+00  0.5716E+00  0.6887E+01  0.6887E+01
     12.877  0.1478E+01  0.1484E+01  0.7042E+01  0.7043E+01
     12.982  0.1488E+01  0.1484E+01  0.7199E+01  0.7200E+01
     13.087  0.7262E+00  0.7229E+00  0.7276E+01  0.7276E+01
     13.192  0.3221E+00  0.3212E+00  0.7309E+01  0.7309E+01
     13.298 -0.1490E-01 -0.1470E-01  0.7308E+01  0.7308E+01
     13.403  0.3307E+00  0.3283E+00  0.7343E+01  0.7342E+01
     13.508  0.2758E+00  0.2775E+00  0.7372E+01  0.7372E+01
     13.614  0.5518E+00  0.5515E+00  0.7430E+01  0.7430E+01
     13.719  0.1386E+00  0.1388E+00  0.7444E+01  0.7444E+01
     13.824  0.2640E+00  0.2641E+00  0.7472E+01  0.7472E+01
     13.929  0.3045E+00  0.3041E+00  0.7504E+01  0.7504E+01
     14.035  0.1593E+00  0.1600E+00  0.7521E+01  0.7521E+01
     14.140  0.4395E+00  0.4399E+00  0.7567E+01  0.7567E+01
     14.245  0.2484E+00  0.2464E+00  0.7593E+01  0.7593E+01
     14.350  0.3000E+00  0.2993E+00  0.7625E+01  0.7625E+01
     14.456  0.2263E+00  0.2290E+00  0.7649E+01  0.7649E+01
     14.561  0.3180E-01  0.3012E-01  0.7652E+01  0.7652E+01
     14.666  0.4194E+00  0.4211E+00  0.7696E+01  0.7696E+01
     14.771  0.2944E+00  0.2912E+00  0.7727E+01  0.7727E+01
     14.877  0.6220E+00  0.6219E+00  0.7793E+01  0.7792E+01
     14.982  0.4173E+00  0.4204E+00  0.7837E+01  0.7837E+01
     15.087  0.2304E+00  0.2298E+00  0.7861E+01  0.7861E+01
     15.193  0.1269E+00  0.1274E+00  0.7874E+01  0.7874E+01
     15.298  0.3027E+00  0.3006E+00  0.7906E+01  0.7906E+01
     15.403  0.1541E+00  0.1559E+00  0.7922E+01  0.7922E+01
     15.508  0.4785E+00  0.4758E+00  0.7973E+01  0.7972E+01
     15.614  0.4227E+00  0.4251E+00  0.8017E+01  0.8017E+01
     15.719  0.7618E+00  0.7610E+00  0.8097E+01  0.8097E+01
     15.824  0.2403E+00  0.2400E+00  0.8123E+01  0.8123E+01
     15.929  0.9727E+00  0.9721E+00  0.8225E+01  0.8225E+01
     16.035  0.3847E+00  0.3874E+00  0.8266E+01  0.8266E+01
     16.140  0.7475E+00  0.7439E+00  0.8344E+01  0.8344E+01
     16.245  0.1846E+00  0.1861E+00  0.8364E+01  0.8364E+01
     16.350  0.7659E+00  0.7635E+00  0.8444E+01  0.8444E+01
     16.456  0.5130E+00  0.5170E+00  0.8498E+01  0.8498E+01
     16.561  0.4933E+00  0.4899E+00  0.8550E+01  0.8550E+01
     16.666  0.5997E+00  0.6015E+00  0.8613E+01  0.8613E+01
     16.772  0.9415E+00  0.9398E+00  0.8713E+01  0.8712E+01
     16.877  0.3574E+00  0.3612E+00  0.8750E+01  0.8750E+01
     16.982  0.3148E+00  0.3138E+00  0.8783E+01  0.8783E+01
     17.087  0.4341E+00  0.4351E+00  0.8829E+01  0.8829E+01
     17.193  0.8706E-01  0.8322E-01  0.8838E+01  0.8838E+01
     17.298  0.4814E+00  0.4856E+00  0.8889E+01  0.8889E+01
     17.403  0.6389E+00  0.6347E+00  0.8956E+01  0.8956E+01
     17.508  0.4248E+00  0.4280E+00  0.9001E+01  0.9001E+01
     17.614  0.2698E+00  0.2694E+00  0.9029E+01  0.9029E+01
     17.719  0.4743E+00  0.4753E+00  0.9079E+01  0.9079E+01
     17.824  0.2108E+00  0.2092E+00  0.9101E+01  0.9101E+01
     17.930  0.3386E+00  0.3371E+00  0.9137E+01  0.9137E+01
     18.035  0.2142E+00  0.2174E+00  0.9160E+01  0.9160E+01
     18.140  0.2314E+00  0.2311E+00  0.9184E+01  0.9184E+01
     18.245 -0.1548E-01 -0.1528E-01  0.9182E+01  0.9182E+01
     18.351  0.4189E+00  0.4164E+00  0.9226E+01  0.9226E+01
     18.456  0.7280E+00  0.7249E+00  0.9303E+01  0.9302E+01
     18.561  0.5555E+00  0.5591E+00  0.9362E+01  0.9361E+01
     18.666  0.2557E+00  0.2573E+00  0.9388E+01  0.9388E+01
     18.772  0.1112E-01  0.1162E-01  0.9390E+01  0.9390E+01
     18.877  0.5030E+00  0.4974E+00  0.9443E+01  0.9442E+01
     18.982  0.8551E+00  0.8589E+00  0.9533E+01  0.9532E+01
     19.087  0.3895E+00  0.3891E+00  0.9574E+01  0.9573E+01
     19.193  0.4522E+00  0.4529E+00  0.9621E+01  0.9621E+01
     19.298  0.1823E+00  0.1838E+00  0.9640E+01  0.9640E+01
     19.403  0.2202E+00  0.2178E+00  0.9664E+01  0.9663E+01
     19.509  0.5818E+00  0.5826E+00  0.9725E+01  0.9725E+01
     19.614  0.7966E+00  0.7953E+00  0.9809E+01  0.9808E+01
     19.719  0.5260E+00  0.5288E+00  0.9864E+01  0.9864E+01
     19.824  0.2627E+00  0.2633E+00  0.9892E+01  0.9892E+01
     19.930  0.1725E+00  0.1715E+00  0.9910E+01  0.9910E+01
     20.035  0.2322E+00  0.2323E+00  0.9934E+01  0.9934E+01
     20.140 -0.8498E-02 -0.8396E-02  0.9933E+01  0.9933E+01
     20.245  0.1157E+00  0.1158E+00  0.9946E+01  0.9946E+01
     20.351  0.7649E-01  0.7533E-01  0.9954E+01  0.9953E+01
     20.456  0.2486E+00  0.2500E+00  0.9980E+01  0.9980E+01
     20.561  0.4739E+00  0.4718E+00  0.1003E+02  0.1003E+02
     20.667  0.2032E+00  0.2027E+00  0.1005E+02  0.1005E+02
     20.772  0.6269E+00  0.6290E+00  0.1012E+02  0.1012E+02
     20.877  0.1307E+00  0.1304E+00  0.1013E+02  0.1013E+02
     20.982  0.8512E+00  0.8523E+00  0.1022E+02  0.1022E+02
     21.088  0.6425E+00  0.6412E+00  0.1029E+02  0.1029E+02
     21.193  0.3801E+01  0.3829E+01  0.1069E+02  0.1069E+02
     21.298  0.6365E+01  0.6376E+01  0.1136E+02  0.1136E+02
     21.403 -0.2752E-01 -0.2903E-01  0.1136E+02  0.1136E+02
     21.509  0.4468E+00  0.4473E+00  0.1140E+02  0.1141E+02
     21.614  0.1163E+01  0.1160E+01  0.1152E+02  0.1153E+02
     21.719  0.8126E+00  0.8134E+00  0.1161E+02  0.1161E+02
     21.824  0.9510E+00  0.9206E+00  0.1171E+02  0.1171E+02
     21.930  0.4992E+00  0.4950E+00  0.1176E+02  0.1176E+02
     22.035  0.9857E-01  0.9869E-01  0.1177E+02  0.1177E+02
     22.140  0.1367E+00  0.1389E+00  0.1179E+02  0.1179E+02
     22.246  0.4888E+00  0.4887E+00  0.1184E+02  0.1184E+02
     22.351  0.3281E+00  0.3276E+00  0.1187E+02  0.1187E+02
     22.456  0.3537E+00  0.3529E+00  0.1191E+02  0.1191E+02
     22.561  0.4168E+00  0.4177E+00  0.1195E+02  0.1196E+02
     22.667  0.2832E+00  0.2853E+00  0.1198E+02  0.1199E+02
     22.772  0.1493E+00  0.1454E+00  0.1200E+02  0.1200E+02
     22.877 -0.3966E-02 -0.3856E-02  0.1200E+02  0.1200E+02
     22.982 -0.6964E-06 -0.5828E-06  0.1200E+02  0.1200E+02
     23.088 -0.7045E-14 -0.5240E-14  0.1200E+02  0.1200E+02
     23.193  0.0000E+00  0.0000E+00  0.1200E+02  0.1200E+02
     23.298  0.0000E+00  0.0000E+00  0.1200E+02  0.1200E+02
     23.403  0.0000E+00  0.0000E+00  0.1200E+02  0.1200E+02
     23.509  0.0000E+00  0.0000E+00  0.1200E+02  0.1200E+02
     23.614  0.0000E+00  0.0000E+00  0.1200E+02  0.1200E+02
     23.719  0.0000E+00  0.0000E+00  0.1200E+02  0.1200E+02
     23.825  0.0000E+00  0.0000E+00  0.1200E+02  0.1200E+02
     23.930  0.0000E+00  0.0000E+00  0.1200E+02  0.1200E+02
     24.035  0.0000E+00  0.0000E+00  0.1200E+02  0.1200E+02
     24.140  0.0000E+00  0.0000E+00  0.1200E+02  0.1200E+02
     24.14036920     -7.44019588  301      8.61511299      1.00000000
     -7.440  0.0000E+00  0.0000E+00  0.0000E+00  0.0000E+00  0.0000E+00  0.0000E+00  0.0000E+00  0.0000E+00  0.0000E+00  0.0000E+00  0.0000E+00  0.0000E+00  0.0000E+00  0.0000E+00  0.0000E+00  0.0000E+00  0.0000E+00  0.0000E+00
     -7.335  0.0000E+00  0.0000E+00  0.0000E+00  0.0000E+00  0.0000E+00  0.0000E+00  0.0000E+00  0.0000E+00  0.0000E+00  0.0000E+00  0.0000E+00  0.0000E+00  0.0000E+00  0.0000E+00  0.0000E+00  0.0000E+00  0.0000E+00  0.0000E+00
     -7.230  0.0000E+00  0.0000E+00  0.0000E+00  0.0000E+00  0.0000E+00  0.0000E+00  0.0000E+00  0.0000E+00  0.0000E+00  0.0000E+00  0.0000E+00  0.0000E+00  0.0000E+00  0.0000E+00  0.0000E+00  0.0000E+00  0.0000E+00  0.0000E+00
     -7.124  0.0000E+00  0.0000E+00  0.0000E+00  0.0000E+00  0.0000E+00  0.0000E+00  0.0000E+00  0.0000E+00  0.0000E+00  0.0000E+00  0.0000E+00  0.0000E+00  0.0000E+00  0.0000E+00  0.0000E+00  0.0000E+00  0.0000E+00  0.0000E+00
     -7.019  0.0000E+00  0.0000E+00  0.0000E+00  0.0000E+00  0.0000E+00  0.0000E+00  0.0000E+00  0.0000E+00  0.0000E+00  0.0000E+00  0.0000E+00  0.0000E+00  0.0000E+00  0.0000E+00  0.0000E+00  0.0000E+00  0.0000E+00  0.0000E+00
     -6.914  0.0000E+00  0.0000E+00  0.0000E+00  0.0000E+00  0.0000E+00  0.0000E+00  0.0000E+00  0.0000E+00  0.0000E+00  0.0000E+00  0.0000E+00  0.0000E+00  0.0000E+00  0.0000E+00  0.0000E+00  0.0000E+00  0.0000E+00  0.0000E+00
     -6.809  0.0000E+00  0.0000E+00  0.0000E+00  0.0000E+00  0.0000E+00  0.0000E+00  0.0000E+00  0.0000E+00  0.0000E+00  0.0000E+00  0.0000E+00  0.0000E+00  0.0000E+00  0.0000E+00  0.0000E+00  0.0000E+00  0.0000E+00  0.0000E+00
     -6.703  0.0000E+00  0.0000E+00  0.0000E+00  0.0000E+00  0.0000E+00  0.0000E+00  0.0000E+00  0.0000E+00  0.0000E+00  0.0000E+00  0.0000E+00  0.0000E+00  0.0000E+00  0.0000E+00  0.0000E+00  0.0000E+00  0.0000E+00  0.0000E+00
     -6.598  0.0000E+00  0.0000E+00  0.0000E+00  0.0000E+00  0.0000E+00  0.0000E+00  0.0000E+00  0.0000E+00  0.0000E+00  0.0000E+00  0.0000E+00  0.0000E+00  0.0000E+00  0.0000E+00  0.0000E+00  0.0000E+00  0.0000E+00  0.0000E+00
     -6.493 -0.1348E-42 -0.1098E-42 -0.1054E-45 -0.8596E-46 -0.1054E-45 -0.8596E-46 -0.1054E-45 -0.8596E-46  0.0000E+00  0.0000E+00  0.0000E+00  0.0000E+00  0.0000E+00  0.0000E+00  0.0000E+00  0.0000E+00  0.0000E+00  0.0000E+00
     -6.388 -0.8903E-27 -0.7587E-27 -0.6965E-30 -0.5937E-30 -0.6965E-30 -0.5937E-30 -0.6965E-30 -0.5937E-30  0.0000E+00  0.0000E+00  0.0000E+00  0.0000E+00  0.0000E+00  0.0000E+00  0.0000E+00  0.0000E+00  0.0000E+00  0.0000E+00
     -6.282 -0.7428E-15 -0.6626E-15 -0.5812E-18 -0.5185E-18 -0.5812E-18 -0.5185E-18 -0.5812E-18 -0.5185E-18  0.0000E+00  0.0000E+00  0.0000E+00  0.0000E+00  0.0000E+00  0.0000E+00  0.0000E+00  0.0000E+00  0.0000E+00  0.0000E+00
     -6.177 -0.7354E-07 -0.6863E-07 -0.5753E-10 -0.5370E-10 -0.5753E-10 -0.5370E-10 -0.5753E-10 -0.5370E-10  0.0000E+00  0.0000E+00  0.0000E+00  0.0000E+00  0.0000E+00  0.0000E+00  0.0000E+00  0.0000E+00  0.0000E+00  0.0000E+00
     -6.072 -0.3964E-03 -0.3929E-03 -0.3101E-06 -0.3074E-06 -0.3101E-06 -0.3074E-06 -0.3101E-06 -0.3074E-06  0.0000E+00  0.0000E+00  0.0000E+00  0.0000E+00  0.0000E+00  0.0000E+00  0.0000E+00  0.0000E+00  0.0000E+00  0.0000E+00
     -5.966  0.1193E-01  0.1189E-01  0.9331E-05  0.9301E-05  0.9331E-05  0.9301E-05  0.9331E-05  0.9301E-05  0.0000E+00  0.0000E+00  0.0000E+00  0.0000E+00  0.0000E+00  0.0000E+00  0.0000E+00  0.0000E+00  0.0000E+00  0.0000E+00
     -5.861  0.2066E-03  0.2440E-03  0.1608E-06  0.1900E-06  0.1608E-06  0.1900E-06  0.4272E-07  0.7795E-07  0.0000E+00  0.0000E+00  0.0000E+00  0.0000E+00  0.0000E+00  0.0000E+00  0.0000E+00  0.0000E+00  0.0000E+00  0.0000E+00
     -5.756  0.4127E-02  0.3927E-02  0.3399E-05  0.3234E-05  0.3399E-05  0.3234E-05  0.2521E-04  0.2399E-04  0.0000E+00  0.0000E+00  0.0000E+00  0.0000E+00  0.0000E+00  0.0000E+00  0.0000E+00  0.0000E+00  0.0000E+00  0.0000E+00
     -5.651  0.3244E-01  0.3265E-01  0.2671E-04  0.2689E-04  0.2671E-04  0.2689E-04  0.1980E-03  0.1994E-03  0.0000E+00  0.0000E+00  0.0000E+00  0.0000E+00  0.0000E+00  0.0000E+00  0.0000E+00  0.0000E+00  0.0000E+00  0.0000E+00
     -5.545 -0.1474E-02 -0.1475E-02 -0.4664E-05 -0.4572E-05 -0.4664E-05 -0.4572E-05 -0.5784E-05 -0.5880E-05  0.0000E+00  0.0000E+00  0.0000E+00  0.0000E+00  0.0000E+00  0.0000E+00  0.0000E+00  0.0000E+00  0.0000E+00  0.0000E+00
     -5.440  0.2912E-01  0.2883E-01  0.1876E-03  0.1858E-03  0.1876E-03  0.1858E-03  0.2537E-04  0.2512E-04  0.0000E+00  0.0000E+00  0.0000E+00  0.0000E+00  0.0000E+00  0.0000E+00  0.0000E+00  0.0000E+00  0.0000E+00  0.0000E+00
     -5.335  0.7392E-02  0.7672E-02  0.4876E-04  0.5053E-04  0.4650E-04  0.4836E-04  0.6422E-05  0.6669E-05  0.0000E+00  0.0000E+00  0.0000E+00  0.0000E+00  0.0000E+00  0.0000E+00  0.0000E+00  0.0000E+00  0.0000E+00  0.0000E+00
     -5.230  0.1872E-01  0.1832E-01  0.1825E-04  0.1763E-04  0.2235E-03  0.2189E-03  0.1851E-04  0.1790E-04  0.0000E+00  0.0000E+00  0.0000E+00  0.0000E+00  0.0000E+00  0.0000E+00  0.0000E+00  0.0000E+00  0.0000E+00  0.0000E+00
     -5.124  0.3095E-01  0.3136E-01  0.9996E-04  0.1006E-03  0.3088E-03  0.3135E-03  0.9995E-04  0.1006E-03  0.0000E+00  0.0000E+00  0.0000E+00  0.0000E+00  0.0000E+00  0.0000E+00  0.0000E+00  0.0000E+00  0.0000E+00  0.0000E+00
     -5.019 -0.2930E-02 -0.2993E-02 -0.1904E-04 -0.1943E-04 -0.7446E-05 -0.7625E-05 -0.3248E-04 -0.3315E-04  0.0000E+00  0.0000E+00  0.0000E+00  0.0000E+00  0.0000E+00  0.0000E+00  0.0000E+00  0.0000E+00  0.0000E+00  0.0000E+00
     -4.914  0.7855E-01  0.7851E-01  0.5457E-03  0.5456E-03  0.7419E-04  0.7417E-04  0.1000E-02  0.1000E-02  0.0000E+00  0.0000E+00  0.0000E+00  0.0000E+00  0.0000E+00  0.0000E+00  0.0000E+00  0.0000E+00  0.0000E+00  0.0000E+00
     -4.808 -0.2331E-02 -0.2243E-02 -0.1633E-04 -0.1571E-04 -0.3927E-05 -0.3777E-05 -0.2991E-04 -0.2879E-04  0.0000E+00  0.0000E+00  0.0000E+00  0.0000E+00  0.0000E+00  0.0000E+00  0.0000E+00  0.0000E+00  0.0000E+00  0.0000E+00
     -4.703  0.2021E-01  0.1985E-01  0.1563E-03  0.1535E-03  0.1469E-03  0.1444E-03  0.2862E-03  0.2810E-03  0.0000E+00  0.0000E+00  0.0000E+00  0.0000E+00  0.0000E+00  0.0000E+00  0.0000E+00  0.0000E+00  0.0000E+00  0.0000E+00
     -4.598  0.5112E-01  0.5121E-01  0.1538E-03  0.1565E-03  0.5251E-03  0.5247E-03  0.2573E-03  0.2623E-03  0.0000E+00  0.0000E+00  0.0000E+00  0.0000E+00  0.0000E+00  0.0000E+00  0.0000E+00  0.0000E+00  0.0000E+00  0.0000E+00
     -4.493  0.1823E-01  0.1812E-01  0.1851E-03  0.1802E-03  0.2410E-03  0.2390E-03  0.1624E-04  0.1601E-04  0.0000E+00  0.0000E+00  0.0000E+00  0.0000E+00  0.0000E+00  0.0000E+00  0.0000E+00  0.0000E+00  0.0000E+00  0.0000E+00
     -4.387  0.3811E-01  0.3790E-01  0.4400E-03  0.4411E-03  0.5065E-03  0.5046E-03  0.3887E-04  0.3870E-04  0.0000E+00  0.0000E+00  0.0000E+00  0.0000E+00  0.0000E+00  0.0000E+00  0.0000E+00  0.0000E+00  0.0000E+00  0.0000E+00
     -4.282  0.6604E-01  0.6660E-01  0.4621E-03  0.4657E-03  0.8122E-03  0.8191E-03  0.5865E-04  0.5881E-04  0.0000E+00  0.0000E+00  0.0000E+00  0.0000E+00  0.0000E+00  0.0000E+00  0.0000E+00  0.0000E+00  0.0000E+00  0.0000E+00
     -4.177  0.3581E-01  0.3582E-01  0.5762E-03  0.5766E-03  0.5551E-03  0.5553E-03  0.3187E-03  0.3190E-03  0.0000E+00  0.0000E+00  0.0000E+00  0.0000E+00  0.0000E+00  0.0000E+00  0.0000E+00  0.0000E+00  0.0000E+00  0.0000E+00
     -4.072  0.8187E-01  0.8158E-01  0.3315E-03  0.3307E-03  0.7155E-03  0.7134E-03  0.3400E-03  0.3392E-03  0.0000E+00  0.0000E+00  0.0000E+00  0.0000E+00  0.0000E+00  0.0000E+00  0.0000E+00  0.0000E+00  0.0000E+00  0.0000E+00
     -3.966  0.7526E-03  0.8779E-03 -0.3723E-04 -0.3569E-04 -0.2162E-06  0.2161E-05 -0.3290E-04 -0.3149E-04  0.0000E+00  0.0000E+00  0.0000E+00  0.0000E+00  0.0000E+00  0.0000E+00  0.0000E+00  0.0000E+00  0.0000E+00  0.0000E+00
     -3.861  0.2275E+00  0.2255E+00  0.1432E-02  0.1421E-02  0.2909E-03  0.2859E-03  0.1149E-02  0.1143E-02  0.0000E+00  0.0000E+00  0.0000E+00  0.0000E+00  0.0000E+00  0.0000E+00  0.0000E+00  0.0000E+00  0.0000E+00  0.0000E+00
     -3.756  0.9346E-01  0.9494E-01  0.5298E-03  0.5380E-03  0.3881E-03  0.3913E-03  0.2562E-03  0.2603E-03  0.0000E+00  0.0000E+00  0.0000E+00  0.0000E+00  0.0000E+00  0.0000E+00  0.0000E+00  0.0000E+00  0.0000E+00  0.0000E+00
     -3.651  0.2146E+00  0.2124E+00  0.1327E-02  0.1307E-02  0.4744E-03  0.4667E-03  0.7979E-03  0.7850E-03  0.0000E+00  0.0000E+00  0.0000E+00  0.0000E+00  0.0000E+00  0.0000E+00  0.0000E+00  0.0000E+00  0.0000E+00  0.0000E+00
     -3.545  0.1862E+00  0.1888E+00  0.1298E-02  0.1320E-02  0.6204E-03  0.6301E-03  0.8122E-03  0.8263E-03  0.0000E+00  0.0000E+00  0.0000E+00  0.0000E+00  0.0000E+00  0.0000E+00  0.0000E+00  0.0000E+00  0.0000E+00  0.0000E+00
     -3.440  0.7298E-01  0.7170E-01  0.3208E-03  0.3103E-03  0.4241E-04  0.3927E-04  0.2196E-03  0.2168E-03  0.0000E+00  0.0000E+00  0.0000E+00  0.0000E+00  0.0000E+00  0.0000E+00  0.0000E+00  0.0000E+00  0.0000E+00  0.0000E+00
     -3.335  0.2675E+00  0.2682E+00  0.1893E-02  0.1897E-02  0.6780E-03  0.6750E-03  0.4492E-03  0.4523E-03  0.0000E+00  0.0000E+00  0.0000E+00  0.0000E+00  0.0000E+00  0.0000E+00  0.0000E+00  0.0000E+00  0.0000E+00  0.0000E+00
     -3.229  0.1724E+00  0.1712E+00  0.1174E-02  0.1165E-02  0.4018E-03  0.4011E-03  0.1795E-03  0.1724E-03  0.0000E+00  0.0000E+00  0.0000E+00  0.0000E+00  0.0000E+00  0.0000E+00  0.0000E+00  0.0000E+00  0.0000E+00  0.0000E+00
     -3.124  0.3084E+00  0.3084E+00  0.2541E-02  0.2550E-02  0.1188E-02  0.1190E-02  0.1617E-02  0.1620E-02  0.0000E+00  0.0000E+00  0.0000E+00  0.0000E+00  0.0000E+00  0.0000E+00  0.0000E+00  0.0000E+00  0.0000E+00  0.0000E+00
     -3.019  0.2063E+00  0.2070E+00  0.1186E-02  0.1187E-02  0.5383E-03  0.5441E-03  0.8121E-03  0.8127E-03  0.0000E+00  0.0000E+00  0.0000E+00  0.0000E+00  0.0000E+00  0.0000E+00  0.0000E+00  0.0000E+00  0.0000E+00  0.0000E+00
     -2.914  0.3101E+00  0.3093E+00  0.1101E-02  0.1098E-02  0.3170E-03  0.3129E-03  0.5907E-03  0.5929E-03  0.0000E+00  0.0000E+00  0.0000E+00  0.0000E+00  0.0000E+00  0.0000E+00  0.0000E+00  0.0000E+00  0.0000E+00  0.0000E+00
     -2.808  0.1942E+00  0.1944E+00  0.7716E-03  0.7784E-03  0.2422E-03  0.2432E-03  0.2019E-03  0.2032E-03  0.0000E+00  0.0000E+00  0.0000E+00  0.0000E+00  0.0000E+00  0.0000E+00  0.0000E+00  0.0000E+00  0.0000E+00  0.0000E+00
     -2.703  0.2346E+00  0.2343E+00  0.1110E-02  0.1103E-02  0.5937E-03  0.5874E-03  0.1074E-02  0.1067E-02  0.0000E+00  0.0000E+00  0.0000E+00  0.0000E+00  0.0000E+00  0.0000E+00  0.0000E+00  0.0000E+00  0.0000E+00  0.0000E+00
     -2.598  0.3477E+00  0.3482E+00  0.2009E-02  0.2015E-02  0.1680E-02  0.1687E-02  0.1505E-02  0.1510E-02  0.0000E+00  0.0000E+00  0.0000E+00  0.0000E+00  0.0000E+00  0.0000E+00  0.0000E+00  0.0000E+00  0.0000E+00  0.0000E+00
     -2.493  0.1141E+00  0.1148E+00  0.9609E-04  0.1015E-03  0.2292E-03  0.2298E-03  0.2353E-03  0.2376E-03  0.0000E+00  0.0000E+00  0.0000E+00  0.0000E+00  0.0000E+00  0.0000E+00  0.0000E+00  0.0000E+00  0.0000E+00  0.0000E+00
     -2.387  0.5198E-01  0.5229E-01  0.1552E-04  0.1564E-04  0.4897E-04  0.5110E-04  0.2151E-03  0.2141E-03  0.0000E+00  0.0000E+00  0.0000E+00  0.0000E+00  0.0000E+00  0.0000E+00  0.0000E+00  0.0000E+00  0.0000E+00  0.0000E+00
     -2.282  0.6683E-01  0.6513E-01  0.2450E-03  0.2340E-03  0.2928E-03  0.2791E-03  0.2825E-03  0.2767E-03  0.0000E+00  0.0000E+00  0.0000E+00  0.0000E+00  0.0000E+00  0.0000E+00  0.0000E+00  0.0000E+00  0.0000E+00  0.0000E+00
     -2.177  0.1488E+00  0.1510E+00  0.8158E-03  0.8268E-03  0.1044E-02  0.1058E-02  0.5550E-03  0.5632E-03  0.0000E+00  0.0000E+00  0.0000E+00  0.0000E+00  0.0000E+00  0.0000E+00  0.0000E+00  0.0000E+00  0.0000E+00  0.0000E+00