    2    2    1    2
  0.1090413E+02  0.3136019E-09  0.3136019E-09  0.3136019E-09  0.5000000E-15
  1.000000000000000E-004
  CAR 
 unknown system                          
    9   60   12
 
  0.6250000E-01  0.6250000E-01  0.6250000E-01  0.3906250E-02
   1       -6.004716     -6.004189
   2        6.815357      6.815398
   3        7.165250      7.165342
   4        7.165250      7.165342
   5        7.927445      7.927585
   6        7.927445      7.927585
   7        8.674323      8.674730
   8       10.298618     10.298907
   9       10.298618     10.298907
  10       15.754111     15.754487
  11       19.132924     19.131461
  12       21.209895     21.209657
 
  0.1875000E+00  0.6250000E-01  0.6250000E-01  0.1171875E-01
   1       -5.458588     -5.458034
   2        5.247084      5.247378
   3        5.705364      5.705712
   4        5.871696      5.871840
   5        7.900118      7.899840
   6        8.846260      8.846111
   7        9.504331      9.504519
   8       11.438546     11.438881
   9       13.005712     13.006212
  10       16.738113     16.738516
  11       20.479645     20.478226
  12       21.209824     21.209588
 
  0.3125000E+00  0.6250000E-01  0.6250000E-01  0.1171875E-01
   1       -4.233342     -4.232723
   2        3.029281      3.029580
   3        4.243524      4.243819
   4        4.557950      4.558204
   5        9.078543      9.078206
   6        9.674111      9.673924
   7       10.473946     10.473682
   8       14.221594     14.222111
   9       15.984084     15.984781
  10       17.660350     17.660559
  11       21.202644     21.202450
  12       22.096924     22.096043
 
  0.4375000E+00  0.6250000E-01  0.6250000E-01  0.1171875E-01
   1       -2.663780     -2.663054
   2        1.041870      1.042151
   3        3.440251      3.440529
   4        3.616338      3.616624
   5       10.628613     10.628150
   6       10.827426     10.827041
   7       11.803543     11.803090
   8       15.924023     15.923872
   9       17.041208     17.041906
  10       18.414270     18.415206
  11       21.200435     21.200259
  12       22.419725     22.420396
 
 -0.4375000E+00  0.6250000E-01  0.6250000E-01  0.1171875E-01
   1       -1.842399     -1.841528
   2        0.143919      0.144083
   3        3.286572      3.286862
   4        3.331233      3.331511
   5       11.158170     11.157664
   6       11.582439     11.581867
   7       12.443300     12.442845
   8       14.705867     14.705628
   9       18.450502     18.451410
  10       18.823526     18.824495
  11       21.196733     21.196599
  12       21.437041     21.437618
 
 -0.3125000E+00  0.6250000E-01  0.6250000E-01  0.1171875E-01
   1       -3.207413     -3.206733
   2        1.666990      1.667284
   3        3.642190      3.642471
   4        3.909717      3.910008
   5        9.714038      9.713705
   6       10.898457     10.898006
   7       11.255511     11.255155
   8       16.238105     16.238778
   9       16.554903     16.554935
  10       17.836674     17.837366
  11       21.198660     21.198493
  12       22.451867     22.451885
 
 -0.1875000E+00  0.6250000E-01  0.6250000E-01  0.1171875E-01
   1       -4.706704     -4.706110
   2        3.680851      3.681144
   3        4.713817      4.714060
   4        5.112052      5.112360
   5        8.362510      8.362281
   6        9.510818      9.510539
   7       10.084955     10.084840
   8       13.404196     13.404668
   9       14.750374     14.750961
  10       17.667673     17.668032
  11       21.205836     21.205620
  12       21.780276     21.779043
 
 -0.6250000E-01  0.6250000E-01  0.6250000E-01  0.1171875E-01
   1       -5.729517     -5.728976
   2        5.771700      5.772052
   3        6.360406      6.360517
   4        6.602990      6.603208
   5        7.437343      7.437149
   6        8.776799      8.776789
   7        9.332223      9.332458
   8       10.533620     10.533913
   9       12.000105     12.000520
  10       16.343444     16.343849
  11       19.849339     19.847899
  12       21.209916     21.209679
 
  0.1875000E+00  0.1875000E+00  0.6250000E-01  0.1171875E-01
   1       -5.229310     -5.228740
   2        4.248927      4.249261
   3        5.843386      5.843434
   4        6.250030      6.250333
   5        7.048027      7.047930
   6        9.579200      9.579111
   7       10.359387     10.359471
   8       11.056756     11.056996
   9       13.381641     13.382091
  10       17.586199     17.586682
  11       21.122459     21.121051
  12       21.209831     21.209594
 
  0.3125000E+00  0.1875000E+00  0.6250000E-01  0.2343750E-01
   1       -4.365258     -4.364636
   2        2.926957      2.927256
   3        4.798393      4.798472
   4        5.277645      5.277987
   5        7.596028      7.595949
   6       10.493305     10.493079
   7       11.311481     11.311377
   8       12.474293     12.474511
   9       15.255988     15.256524
  10       18.937172     18.937669
  11       21.206133     21.205923
  12       22.644756     22.643672
 
  0.4375000E+00  0.1875000E+00  0.6250000E-01  0.2343750E-01
   1       -3.175682     -3.174984
   2        1.707733      1.707981
   3        3.768445      3.768699
   4        4.315493      4.315805
   5        8.729067      8.728882
   6       11.499513     11.499063
   7       12.192956     12.192506
   8       14.790929     14.791403
   9       16.574131     16.574405
  10       19.020667     19.021280
  11       21.179066     21.179049
  12       21.700714     21.700927
 
 -0.4375000E+00  0.1875000E+00  0.6250000E-01  0.2343750E-01
   1       -2.270899     -2.270106
   2        0.796267      0.796445
   3        3.519170      3.519492
   4        3.698944      3.699261
   5       10.282644     10.282282
   6       11.407674     11.407157
   7       12.357868     12.357368
   8       16.071480     16.071521
   9       17.348743     17.349422
  10       18.300437     18.300984
  11       21.182413     21.182390
  12       21.615080     21.615574
 
 -0.3125000E+00  0.1875000E+00  0.6250000E-01  0.2343750E-01
   1       -2.680296     -2.679549
   2        1.200444      1.200669
   3        3.582790      3.583094
   4        3.844919      3.845186
   5        9.906819      9.906492
   6       11.356487     11.356067
   7       12.098047     12.097601
   8       15.307920     15.308418
   9       16.852323     16.852348
  10       18.939293     18.940185
  11       21.195874     21.195733
  12       22.190750     22.191304
 
 -0.1875000E+00  0.1875000E+00  0.6250000E-01  0.2343750E-01
   1       -3.897482     -3.896832
   2        2.552602      2.552903
   3        4.176909      4.177202
   4        4.452676      4.452824
   5        8.635003      8.634752
   6       10.858505     10.858377
   7       11.412350     11.412112
   8       13.008095     13.008356
   9       16.737003     16.737610
  10       18.416083     18.416508
  11       21.202532     21.202344
  12       22.538740     22.538084
 
 -0.6250000E-01  0.1875000E+00  0.6250000E-01  0.2343750E-01
   1       -4.965211     -4.964628
   2        4.027191      4.027517
   3        5.164461      5.164648
   4        5.445218      5.445466
   5        7.851641      7.851433
   6        9.626936      9.626738
   7       10.267587     10.267641
   8       11.939788     11.940095
   9       14.366428     14.366985
  10       17.656199     17.656630
  11       21.208378     21.208150
  12       21.546917     21.545546
 
  0.3125000E+00  0.3125000E+00  0.6250000E-01  0.1171875E-01
   1       -4.109145     -4.108506
   2        2.551742      2.552043
   3        4.968616      4.968382
   4        6.157031      6.157502
   5        6.621840      6.622154
   6       10.735394     10.735351
   7       12.357366     12.357093
   8       12.556974     12.556805
   9       15.145633     15.146141
  10       20.336357     20.337037
  11       21.202851     21.202666
  12       22.463844     22.463753
 
  0.4375000E+00  0.3125000E+00  0.6250000E-01  0.2343750E-01
   1       -3.636834     -3.636181
   2        2.542282      2.542608
   3        4.240680      4.240590
   4        5.464819      5.465305
   5        7.410306      7.410556
   6       11.839076     11.838867
   7       12.789308     12.788815
   8       13.138324     13.138193
   9       16.367361     16.367950
  10       19.581382     19.581763
  11       20.692495     20.692776
  12       21.224175     21.223852
 
 -0.4375000E+00  0.3125000E+00  0.6250000E-01  0.2343750E-01
   1       -3.093741     -3.093064
   2        2.331293      2.331519
   3        3.767993      3.768279
   4        4.621873      4.622275
   5        8.503510      8.503488
   6       11.932960     11.932400
   7       12.691743     12.691156
   8       14.920409     14.920844
   9       16.370900     16.371388
  10       19.155534     19.155705
  11       20.680949     20.681371
  12       21.228137     21.227805
 
 -0.3125000E+00  0.3125000E+00  0.6250000E-01  0.2343750E-01
   1       -2.697516     -2.696785
   2        1.697945      1.698165
   3        3.720224      3.720490
   4        4.013938      4.014303
   5       10.208618     10.208309
   6       10.791424     10.791002
   7       12.486018     12.485706
   8       14.612273     14.612620
   9       17.389326     17.389990
  10       19.664961     19.664945
  11       21.189873     21.189776
  12       21.652211     21.652107
 
 -0.1875000E+00  0.3125000E+00  0.6250000E-01  0.2343750E-01
   1       -2.914782     -2.914050
   2        1.571573      1.571817
   3        3.761236      3.761543
   4        3.908079      3.908273
   5        9.658750      9.658429
   6       11.673491     11.673177
   7       12.030368     12.030052
   8       13.784060     13.784398
   9       17.495368     17.495603
  10       19.066282     19.067102
  11       21.196414     21.196269
  12       22.236768     22.236150
 
 -0.6250000E-01  0.3125000E+00  0.6250000E-01  0.2343750E-01
   1       -3.654269     -3.653611
   2        2.214224      2.214510
   3        3.902877      3.903146
   4        4.330007      4.330278
   5        8.976124      8.975861
   6       10.566504     10.566201
   7       11.378249     11.377887
   8       14.581104     14.581603
   9       16.744420     16.744899
  10       18.093865     18.094256
  11       21.199375     21.199207
  12       22.325593     22.325361
 
  0.4375000E+00  0.4375000E+00  0.6250000E-01  0.1171875E-01
   1       -3.875127     -3.874514
   2        3.386900      3.387360
   3        4.274381      4.274012
   4        6.575533      6.576195
   5        6.895352      6.895985
   6       11.549689     11.549695
   7       12.987138     12.986472
   8       13.000566     12.999942
   9       16.610622     16.611377
  10       17.400762     17.400807
  11       21.175623     21.175680
  12       21.228479     21.228209
 
 -0.4375000E+00  0.4375000E+00  0.6250000E-01  0.2343750E-01
   1       -3.730431     -3.729820
   2        3.813533      3.813672
   3        3.977443      3.977624
   4        5.685553      5.686120
   5        7.576875      7.577366
   6       12.548919     12.548438
   7       12.759424     12.759371
   8       12.955592     12.954894
   9       15.924298     15.924545
  10       17.928669     17.929310
  11       20.972219     20.972070
  12       21.217263     21.216982
 
 -0.3125000E+00  0.4375000E+00  0.6250000E-01  0.2343750E-01
   1       -3.202555     -3.201896
   2        2.798565      2.798745
   3        3.812618      3.812985
   4        4.719833      4.720248
   5        8.439039      8.439037
   6       11.844320     11.843776
   7       12.828334     12.827787
   8       14.879027     14.879361
   9       15.510130     15.510567
  10       19.630762     19.631317
  11       21.033590     21.033465
  12       21.226295     21.225974
 
 -0.1875000E+00  0.4375000E+00  0.6250000E-01  0.2343750E-01
   1       -2.515426     -2.514672
   2        1.293710      1.293905
   3        3.656715      3.657025
   4        3.891095      3.891442
   5       10.237401     10.237085
   6       10.995828     10.995384
   7       12.297149     12.296686
   8       15.871794     15.872264
   9       17.222658     17.223231
  10       18.541386     18.541367
  11       21.185388     21.185340
  12       21.708015     21.708559
 
 -0.6250000E-01  0.4375000E+00  0.6250000E-01  0.2343750E-01
   1       -2.263709     -2.262920
   2        0.643509      0.643721
   3        3.397244      3.397540
   4        3.578404      3.578700
   5       10.448443     10.448038
   6       11.496848     11.496307
   7       12.244244     12.243784
   8       15.601301     15.601150
   9       17.222579     17.223291
  10       18.873074     18.874018
  11       21.196033     21.195892
  12       21.871424     21.872011
 
 -0.4375000E+00 -0.4375000E+00  0.6250000E-01  0.1171875E-01
   1       -3.936948     -3.936352
   2        3.995819      3.996321
   3        4.117779      4.117439
   4        6.741748      6.742476
   5        7.015638      7.016349
   6       11.763469     11.763511
   7       12.895159     12.894392
   8       12.947881     12.947122
   9       16.005072     16.005127
  10       17.190051     17.190815
  11       20.971530     20.971418
  12       21.216348     21.216072
 
 -0.3125000E+00 -0.4375000E+00  0.6250000E-01  0.2343750E-01
   1       -3.658027     -3.657398
   2        3.203474      3.203863
   3        4.052411      4.052284
   4        5.629419      5.629969
   5        7.498561      7.498963
   6       12.277652     12.277392
   7       12.856338     12.855876
   8       13.057949     13.057563
   9       16.697584     16.698211
  10       17.930001     17.930222
  11       20.968014     20.968137
  12       21.220124     21.219826
 
 -0.1875000E+00 -0.4375000E+00  0.6250000E-01  0.2343750E-01
   1       -3.008355     -3.007653
   2        1.804018      1.804249
   3        3.743527      3.743781
   4        4.446664      4.447027
   5        8.580326      8.580231
   6       11.978005     11.977432
   7       12.565518     12.564997
   8       14.866344     14.866804
   9       16.667885     16.668245
  10       19.434228     19.434696
  11       20.470474     20.470975
  12       21.232181     21.231827
 
 -0.3125000E+00 -0.3125000E+00  0.6250000E-01  0.1171875E-01
   1       -3.871649     -3.871012
   2        2.723457      2.723815
   3        4.571052      4.570726
   4        6.341493      6.342059
   5        6.718833      6.719330
   6       11.188044     11.188023
   7       12.874581     12.874090
   8       12.962045     12.961631
   9       15.907630     15.908223
  10       19.497511     19.497871
  11       21.192344     21.192355
  12       21.271330     21.271155
 
 -0.1875000E+00 -0.3125000E+00  0.6250000E-01  0.2343750E-01
   1       -3.859580     -3.858926
   2        2.382649      2.382935
   3        4.494105      4.494094
   4        5.309074      5.309490
   5        7.424465      7.424542
   6       11.243698     11.243482
   7       12.249819     12.249529
   8       12.957837     12.957882
   9       15.825388     15.825913
  10       19.982632     19.983174
  11       21.187528     21.187445
  12       21.857117     21.857199
 
 -0.1875000E+00 -0.1875000E+00  0.6250000E-01  0.1171875E-01
   1       -4.622586     -4.621977
   2        3.095736      3.096036
   3        5.404034      5.403950
   4        6.109277      6.109661
   5        6.724810      6.724904
   6       10.214557     10.214481
   7       11.446078     11.446000
   8       11.826417     11.826483
   9       14.351248     14.351718
  10       19.144789     19.145363
  11       21.208343     21.208118
  12       22.704889     22.703536
 
  0.1875000E+00  0.1875000E+00  0.1875000E+00  0.3906250E-02
   1       -5.192516     -5.191948
   2        4.639084      4.639328
   3        5.397642      5.397951
   4        5.397642      5.397951
   5        8.564853      8.564598
   6        8.564853      8.564598
   7        9.447293      9.447308
   8       13.146724     13.147218
   9       13.146724     13.147218
  10       17.014400     17.014787
  11       20.987549     20.986187
  12       21.210939     21.210689
 
  0.3125000E+00  0.1875000E+00  0.1875000E+00  0.1171875E-01
   1       -4.483335     -4.482725
   2        3.447906      3.448242
   3        4.431442      4.431755
   4        4.798521      4.798634
   5        8.526531      8.526198
   6       10.092925     10.092875
   7       10.603411     10.603297
   8       12.512098     12.512398
   9       15.901330     15.902027
  10       17.813277     17.813605
  11       21.206439     21.206224
  12       22.152532     22.151308
 
  0.4375000E+00  0.1875000E+00  0.1875000E+00  0.1171875E-01
   1       -3.338535     -3.337842
   2        1.958135      1.958421
   3        3.772240      3.772546
   4        4.083444      4.083590
   5        9.425036      9.424633
   6       11.107703     11.107701
   7       11.876508     11.876114
   8       13.445106     13.445396
   9       17.575036     17.575191
  10       18.305033     18.305958
  11       21.200939     21.200763
  12       22.453946     22.453250
 
 -0.4375000E+00  0.1875000E+00  0.1875000E+00  0.1171875E-01
   1       -2.401036     -2.400254
   2        0.976759      0.976950
   3        3.628046      3.628360
   4        3.673560      3.673849
   5       10.842289     10.841774
   6       10.989634     10.989234
   7       11.829554     11.829258
   8       15.634088     15.634564
   9       17.435282     17.435163
  10       18.543949     18.544838
  11       21.197616     21.197465
  12       21.978335     21.978780
 
 -0.3125000E+00  0.1875000E+00  0.1875000E+00  0.1171875E-01
   1       -2.623499     -2.622759
   2        1.251538      1.251742
   3        3.582081      3.582402
   4        4.058123      4.058460
   5        9.245016      9.244778
   6       11.881401     11.880793
   7       12.506035     12.505523
   8       16.270024     16.270179
   9       16.298570     16.299200
  10       18.886083     18.886612
  11       20.846270     20.846931
  12       21.249421     21.249039
 
 -0.1875000E+00  0.1875000E+00  0.1875000E+00  0.1171875E-01
   1       -3.614674     -3.614007
   2        2.143761      2.144023
   3        4.108298      4.108452
   4        5.003511      5.003884
   5        7.774668      7.774611
   6       11.386033     11.385634
   7       12.165337     12.164955
   8       13.929966     13.930296
   9       16.129478     16.129956
  10       19.503682     19.504096
  11       21.169829     21.169875
  12       21.591225     21.591264
 
  0.3125000E+00  0.3125000E+00  0.1875000E+00  0.1171875E-01
   1       -4.113695     -4.113062
   2        2.683212      2.683499
   3        4.329988      4.330176
   4        4.976199      4.976532
   5        8.031772      8.031613
   6       10.504122     10.503790
   7       11.157339     11.157106
   8       13.709498     13.709915
   9       15.691893     15.692438
  10       18.648319     18.648700
  11       21.202365     21.202175
  12       22.349197     22.348611
 
  0.4375000E+00  0.3125000E+00  0.1875000E+00  0.2343750E-01
   1       -3.414376     -3.413690
   2        2.035503      2.035775
   3        4.064842      4.065001
   4        4.371390      4.371694
   5        8.532000      8.531889
   6       11.662836     11.662517
   7       12.171790     12.171465
   8       13.383527     13.383749
   9       16.777456     16.777916
  10       19.370567     19.371159
  11       21.184597     21.184539
  12       21.806982     21.807281
 
 -0.4375000E+00  0.3125000E+00  0.1875000E+00  0.2343750E-01
   1       -2.832952     -2.832228
   2        1.774356      1.774598
   3        3.764278      3.764475
   4        4.016520      4.016878
   5        9.684345      9.684170
   6       11.370507     11.370071
   7       12.519861     12.519474
   8       14.081207     14.081535
   9       17.387600     17.388112
  10       19.569108     19.569354
  11       21.172030     21.172090
  12       21.592220     21.592567
 
 -0.3125000E+00  0.3125000E+00  0.1875000E+00  0.2343750E-01
   1       -2.794353     -2.793640
   2        1.904964      1.905183
   3        3.703663      3.703960
   4        4.141155      4.141519
   5        9.733392      9.733215
   6       10.972673     10.972317
   7       12.653345     12.652730
   8       15.633549     15.633986
   9       16.117876     16.118398
  10       19.566594     19.566475
  11       21.163142     21.163289
  12       21.495985     21.496307
 
 -0.1875000E+00  0.3125000E+00  0.1875000E+00  0.2343750E-01
   1       -3.233925     -3.233240
   2        2.184117      2.184396
   3        3.933207      3.933299
   4        4.514762      4.515168
   5        8.488000      8.488037
   6       12.060429     12.059929
   7       12.635675     12.635242
   8       13.526376     13.526608
   9       16.929434     16.929944
  10       19.788246     19.788709
  11       20.556801     20.557270
  12       21.232210     21.231851
 
  0.4375000E+00  0.4375000E+00  0.1875000E+00  0.1171875E-01
   1       -3.405639     -3.404970
   2        2.266982      2.267256
   3        3.972685      3.972808
   4        5.156555      5.156980
   5        7.651041      7.651109
   6       12.030332     12.029834
   7       12.712269     12.711731
   8       13.952921     13.953195
   9       16.499538     16.500056
  10       19.659715     19.660146
  11       20.187282     20.187577
  12       21.223876     21.223557
 
 -0.4375000E+00  0.4375000E+00  0.1875000E+00  0.2343750E-01
   1       -3.300165     -3.299505
   2        2.834388      2.834704
   3        3.842468      3.842543
   4        4.638496      4.638947
   5        8.527619      8.527794
   6       11.988402     11.987901
   7       12.863340     12.862739
   8       13.600141     13.600350
   9       16.557118     16.557645
  10       19.213590     19.213931
  11       20.945489     20.945736
  12       21.228948     21.228618
 
 -0.3125000E+00  0.4375000E+00  0.1875000E+00  0.2343750E-01
   1       -3.121383     -3.120713
   2        3.114153      3.114440
   3        3.741600      3.741839
   4        4.032119      4.032452
   5        9.763695      9.763743
   6       10.956914     10.956738
   7       12.933812     12.933056
   8       14.066148     14.066264
   9       15.439728     15.440266
  10       21.057043     21.057708
  11       21.291726     21.291428
  12       21.755640     21.755493
 
 -0.1875000E+00  0.4375000E+00  0.1875000E+00  0.2343750E-01
   1       -2.983738     -2.983047
   2        2.425516      2.425782
   3        3.736212      3.736403
   4        4.164045      4.164441
   5        9.721521      9.721479
   6       10.963686     10.963371
   7       12.844202     12.843579
   8       14.259370     14.259634
   9       16.300575     16.301118
  10       20.447620     20.447609
  11       21.172354     21.172430
  12       21.484647     21.484943
 
 -0.4375000E+00 -0.4375000E+00  0.1875000E+00  0.1171875E-01
   1       -3.527549     -3.526922
   2        3.347880      3.347964
   3        3.916310      3.916705
   4        5.502963      5.503477
   5        7.531739      7.531926
   6       12.384732     12.384019
   7       12.884252     12.883675
   8       13.862963     13.863290
   9       15.740421     15.740710
  10       18.477608     18.478216
  11       20.909133     20.908962
  12       21.218146     21.217858
 
 -0.3125000E+00 -0.4375000E+00  0.1875000E+00  0.2343750E-01
   1       -3.397452     -3.396811
   2        3.492829      3.493021
   3        3.837549      3.837812
   4        4.554348      4.554771
   5        8.578990      8.579254
   6       11.956237     11.955810
   7       12.931539     12.930795
   8       13.580762     13.580939
   9       15.688509     15.688920
  10       19.454243     19.454876
  11       21.185305     21.185134
  12       21.233940     21.233621
 
 -0.3125000E+00 -0.3125000E+00  0.1875000E+00  0.1171875E-01
   1       -3.444468     -3.443822
   2        2.851367      2.851628
   3        3.900112      3.900278
   4        5.358418      5.358895
   5        7.597728      7.597897
   6       12.343578     12.342944
   7       12.809614     12.809009
   8       13.878021     13.878323
   9       16.573315     16.573856
  10       18.369604     18.369887
  11       20.680127     20.680303
  12       21.220081     21.219784
 
  0.3125000E+00  0.3125000E+00  0.3125000E+00  0.3906250E-02
   1       -3.773529     -3.772887
   2        2.393201      2.393511
   3        4.028988      4.029273
   4        4.028988      4.029273
   5        9.957917      9.957541
   6        9.957917      9.957541
   7       10.354843     10.354612
   8       16.118619     16.119310
   9       16.118619     16.119310
  10       17.293859     17.293879
  11       21.199294     21.199119
  12       22.218222     22.217737
 
  0.4375000E+00  0.3125000E+00  0.3125000E+00  0.1171875E-01
   1       -3.100485     -3.099783
   2        1.597516      1.597792
   3        3.624658      3.624950
   4        3.950685      3.950923
   5        9.894074      9.893655
   6       10.580433     10.580225
   7       11.920221     11.919761
   8       15.027221     15.027726
   9       17.012437     17.012436
  10       18.348206     18.349137
  11       21.199856     21.199684
  12       22.562138     22.562035
 
 -0.4375000E+00  0.3125000E+00  0.3125000E+00  0.1171875E-01
   1       -2.621078     -2.620319
   2        1.360839      1.361057
   3        3.755031      3.755253
   4        3.762363      3.762694
   5       10.480906     10.480407
   6       11.109521     11.109107
   7       12.029852     12.029762
   8       14.214913     14.215274
   9       18.412726     18.412716
  10       18.589217     18.590108
  11       21.198028     21.197874
  12       21.788518     21.788087
 
 -0.3125000E+00  0.3125000E+00  0.3125000E+00  0.1171875E-01
   1       -2.899154     -2.898459
   2        2.119737      2.119949
   3        3.749163      3.749498
   4        4.375745      4.376138
   5        9.068838      9.068649
   6       11.535697     11.535084
   7       12.612142     12.611833
   8       15.068700     15.069050
   9       16.480865     16.481457
  10       19.832907     19.833128
  11       21.092272     21.092421
  12       21.251309     21.250955
 
  0.4375000E+00  0.4375000E+00  0.3125000E+00  0.1171875E-01
   1       -2.745844     -2.745115
   2        1.183767      1.184010
   3        3.526006      3.526296
   4        3.925649      3.925958
   5        9.424512      9.424217
   6       11.618389     11.617843
   7       12.215846     12.215385
   8       16.065790     16.065783
   9       16.277168     16.277818
  10       18.838228     18.839037
  11       21.184459     21.184403
  12       21.754084     21.754393
 
 -0.4375000E+00  0.4375000E+00  0.3125000E+00  0.2343750E-01
   1       -2.618111     -2.617365
   2        1.358838      1.359048
   3        3.646860      3.647158
   4        3.954048      3.954372
   5        9.790219      9.789976
   6       11.361207     11.360738
   7       12.377395     12.376896
   8       15.497119     15.497613
   9       17.001663     17.001957
  10       18.914562     18.914906
  11       21.171547     21.171608
  12       21.580434     21.580790
 
 -0.3125000E+00  0.4375000E+00  0.3125000E+00  0.2343750E-01
   1       -2.945483     -2.944792
   2        2.389681      2.389921
   3        3.735553      3.735838
   4        4.207960      4.208326
   5        9.690865      9.690713
   6       10.899294     10.899019
   7       12.821216     12.820624
   8       14.786682     14.786935
   9       15.883414     15.883983
  10       20.752774     20.752880
  11       21.188959     21.188865
  12       21.565002     21.565236
 
 -0.4375000E+00 -0.4375000E+00  0.3125000E+00  0.1171875E-01
   1       -2.762035     -2.761320
   2        1.714878      1.715087
   3        3.688091      3.688422
   4        4.241493      4.241863
   5        9.148163      9.147970
   6       11.740889     11.740272
   7       12.418043     12.417609
   8       16.125260     16.125715
   9       16.390988     16.391594
  10       18.815398     18.815342
  11       20.939085     20.939781
  12       21.253557     21.253198
 
  0.4375000E+00  0.4375000E+00  0.4375000E+00  0.3906250E-02
   1       -2.142747     -2.141961
   2        0.447391      0.447648
   3        3.325782      3.326054
   4        3.325782      3.326054
   5       11.308377     11.307845
   6       11.308377     11.307845
   7       11.934574     11.934183
   8       15.019809     15.019544
   9       18.456114     18.457043
  10       18.456114     18.457043
  11       21.799523     21.207007
  12       21.799523     21.800168
 
 -0.4375000E+00  0.4375000E+00  0.4375000E+00  0.1171875E-01
   1       -2.044830     -2.043994
   2        0.442781      0.442948
   3        3.451073      3.451366
   4        3.465685      3.465992
   5       10.970758     10.970292
   6       11.334641     11.334090
   7       12.147938     12.147541
   8       15.630016     15.629847
   9       17.770610     17.771280
  10       18.478622     18.479513
  11       21.196096     21.195962
  12       21.704759     21.705404
