       N       E                     dE             d eps       ncg     rms          rms(c)
DAV:   1     0.109793420376E+02    0.10979E+02   -0.39599E+03  2904   0.594E+02
DAV:   2    -0.181262949771E+02   -0.29106E+02   -0.27590E+02  3720   0.118E+02
DAV:   3    -0.190064636039E+02   -0.88017E+00   -0.87624E+00  3528   0.188E+01
DAV:   4    -0.190090970243E+02   -0.26334E-02   -0.26332E-02  3276   0.120E+00
DAV:   5    -0.190091048658E+02   -0.78415E-05   -0.78412E-05  3580   0.588E-02    0.190E+01
DAV:   6    -0.220777686464E+02   -0.30687E+01   -0.16118E+01  3244   0.197E+01    0.440E+00
DAV:   7    -0.223017177238E+02   -0.22395E+00   -0.59724E-01  3480   0.554E+00    0.155E+00
DAV:   8    -0.222446303210E+02    0.57087E-01   -0.67965E-02  3208   0.173E+00    0.851E-01
DAV:   9    -0.222353672462E+02    0.92631E-02   -0.23995E-02  3404   0.112E+00    0.252E-01
DAV:  10    -0.222332270311E+02    0.21402E-02   -0.11349E-03  3192   0.282E-01    0.551E-02
DAV:  11    -0.222330774308E+02    0.14960E-03   -0.12844E-04  2668   0.812E-02    0.309E-02
DAV:  12    -0.222330478084E+02    0.29622E-04   -0.34294E-05  1624   0.431E-02
   1 F= -.22233048E+02 E0= -.22233090E+02  d E =0.127677E-03  mag=    -0.0001
