 vasp.5.2.12 11Nov11 complex                                                    
  
 executed on             LinuxIFC date 2012.10.17  12:38:11
 running on    1 nodes
 distr:  one band on    1 nodes,    1 groups


--------------------------------------------------------------------------------------------------------


 INCAR:
 POTCAR:   PAW_PBE C 08Apr2002                    
 POTCAR:    PAW_PBE Ta 17Jan2003                  
 POTCAR:   PAW_PBE C 08Apr2002                    
   VRHFIN =C: s2p2                                                              
   LEXCH  = PE                                                                  
   EATOM  =   147.1560 eV,   10.8157 Ry                                         
                                                                                
   TITEL  = PAW_PBE C 08Apr2002                                                 
   LULTRA =        F    use ultrasoft PP ?                                      
   IUNSCR =        0    unscreen: 0-lin 1-nonlin 2-no                           
   RPACOR =     .000    partial core radius                                     
   POMASS =   12.011; ZVAL   =    4.000    mass and valenz                      
   RCORE  =    1.500    outmost cutoff radius                                   
   RWIGS  =    1.630; RWIGS  =     .863    wigner-seitz radius (au A)           
   ENMAX  =  400.000; ENMIN  =  300.000 eV                                      
   ICORE  =        2    local potential                                         
   LCOR   =        T    correct aug charges                                     
   LPAW   =        T    paw PP                                                  
   EAUG   =  644.873                                                            
   DEXC   =     .000                                                            
   RMAX   =    2.266    core radius for proj-oper                               
   RAUG   =    1.300    factor for augmentation sphere                          
   RDEP   =    1.501    radius for radial grids                                 
   RDEPT  =    1.300    core radius for aug-charge                              
   QCUT   =   -5.516; QGAM   =   11.032    optimization parameters              
                                                                                
   Description                                                                  
     l     E      TYP  RCUT    TYP  RCUT                                        
     0   .000     23  1.200                                                     
     0   .000     23  1.200                                                     
     1   .000     23  1.500                                                     
     1  2.500     23  1.500                                                     
     2   .000      7  1.500                                                     
  local pseudopotential read in
  atomic valenz-charges read in
  non local Contribution for L=           0  read in
    real space projection operators read in
  non local Contribution for L=           0  read in
    real space projection operators read in
  non local Contribution for L=           1  read in
    real space projection operators read in
  non local Contribution for L=           1  read in
    real space projection operators read in
    PAW grid and wavefunctions read in
 
   number of l-projection  operators is LMAX  =           4
   number of lm-projection operators is LMMAX =           8
 
 POTCAR:    PAW_PBE Ta 17Jan2003                  
   VRHFIN =Ta:  6s5d                                                            
   LEXCH  = PE                                                                  
   EATOM  =   130.6506 eV,    9.6025 Ry                                         
                                                                                
   TITEL  = PAW_PBE Ta 17Jan2003                                                
   LULTRA =        F    use ultrasoft PP ?                                      
   IUNSCR =        1    unscreen: 0-lin 1-nonlin 2-no                           
   RPACOR =    2.330    partial core radius                                     
   POMASS =  180.948; ZVAL   =    5.000    mass and valenz                      
   RCORE  =    2.900    outmost cutoff radius                                   
   RWIGS  =    2.840; RWIGS  =    1.503    wigner-seitz radius (au A)           
   ENMAX  =  223.667; ENMIN  =  167.750 eV                                      
   RCLOC  =    2.205    cutoff for local pot                                    
   LCOR   =        T    correct aug charges                                     
   LPAW   =        T    paw PP                                                  
   EAUG   =  332.075                                                            
   DEXC   =    -.049                                                            
   RMAX   =    3.083    core radius for proj-oper                               
   RAUG   =    1.300    factor for augmentation sphere                          
   RDEP   =    3.060    radius for radial grids                                 
   QCUT   =   -4.055; QGAM   =    8.109    optimization parameters              
                                                                                
   Description                                                                  
     l     E      TYP  RCUT    TYP  RCUT                                        
     2   .000     23  2.500                                                     
     2   .000     23  2.500                                                     
     0   .000     23  2.500                                                     
     0   .000     23  2.500                                                     
     1   .000     23  2.900                                                     
     1  2.000     23  2.900                                                     
     3   .000      7   .000                                                     
  local pseudopotential read in
  partial core-charges read in
  atomic valenz-charges read in
  non local Contribution for L=           2  read in
    real space projection operators read in
  non local Contribution for L=           2  read in
    real space projection operators read in
  non local Contribution for L=           0  read in
    real space projection operators read in
  non local Contribution for L=           0  read in
    real space projection operators read in
  non local Contribution for L=           1  read in
    real space projection operators read in
  non local Contribution for L=           1  read in
    real space projection operators read in
    PAW grid and wavefunctions read in
 
   number of l-projection  operators is LMAX  =           6
   number of lm-projection operators is LMMAX =          18
 
 PAW_PBE C 08Apr2002                    :
 energy of atom  1       EATOM= -147.1560
 kinetic energy error for atom=    0.0116 (will be added to EATOM!!)
  PAW_PBE Ta 17Jan2003                  :
 energy of atom  2       EATOM= -130.6506
 kinetic energy error for atom=    0.0016 (will be added to EATOM!!)
 
 
 POSCAR:  C Ta                                   
  positions in cartesian coordinates
  No initial velocities read in
 exchange correlation table for  LEXCH =        8
   RHO(1)=    0.500       N(1)  =     2000
   RHO(2)=  100.500       N(2)  =     4000
 


--------------------------------------------------------------------------------------------------------


 ion  position               nearest neighbor table
   1  0.500  0.500  0.500-   2 2.22   2 2.22   2 2.22   2 2.22   2 2.22   2 2.22
   2  0.000  0.000  0.000-   1 2.22   1 2.22   1 2.22   1 2.22   1 2.22   1 2.22
 
  LATTYP: Found a face centered cubic cell.
 ALAT       =     4.4350000000
  
  Lattice vectors:
  
 A1 = (   0.0000000000,   2.2175000000,   2.2175000000)
 A2 = (   2.2175000000,   0.0000000000,   2.2175000000)
 A3 = (   2.2175000000,   2.2175000000,   0.0000000000)
 Subroutine PRICEL returns:
 Original cell was already a primitive cell.
 

Analysis of symmetry for initial positions (statically):

 Routine SETGRP: Setting up the symmetry group for a 
 face centered cubic supercell.


 Subroutine GETGRP returns: Found 48 space group operations
 (whereof 48 operations were pure point group operations)
 out of a pool of 48 trial point group operations.


The static configuration has the point symmetry O_h .

Analysis of symmetry for dynamics (positions and initial velocities):

 Subroutine DYNSYM returns: Found 48 space group operations
 (whereof 48 operations were pure point group operations)
 out of a pool of 48 trial space group operations
 (whereof 48 operations were pure point group operations)
 and found also     1 'primitive' translations


The dynamic configuration has the point symmetry O_h .

Analysis of magnetic symmetry:

 Subroutine MAGSYM returns: Found 48 space group operations
 (whereof 48 operations were pure point group operations)
 out of a pool of 48 trial space group operations
 (whereof 48 operations were pure point group operations)
 and found also     1 'primitive' translations


The magnetic configuration has the point symmetry O_h .
 
 
 KPOINTS: KPOINTS created by Atomic Simulation Env

Automatic generation of k-mesh.
 
 Subroutine IBZKPT returns following result:
 ===========================================
 
 Found     60 irreducible k-points:
 
 Following reciprocal coordinates:
            Coordinates               Weight
  0.062500  0.062500  0.062500     96.000000
  0.187500  0.062500  0.062500    288.000000
  0.312500  0.062500  0.062500    288.000000
  0.437500  0.062500  0.062500    288.000000
 -0.437500  0.062500  0.062500    288.000000
 -0.312500  0.062500  0.062500    288.000000
 -0.187500  0.062500  0.062500    288.000000
 -0.062500  0.062500  0.062500    288.000000
  0.187500  0.187500  0.062500    288.000000
  0.312500  0.187500  0.062500    576.000000
  0.437500  0.187500  0.062500    576.000000
 -0.437500  0.187500  0.062500    576.000000
 -0.312500  0.187500  0.062500    576.000000
 -0.187500  0.187500  0.062500    576.000000
 -0.062500  0.187500  0.062500    576.000000
  0.312500  0.312500  0.062500    288.000000
  0.437500  0.312500  0.062500    576.000000
 -0.437500  0.312500  0.062500    576.000000
 -0.312500  0.312500  0.062500    576.000000
 -0.187500  0.312500  0.062500    576.000000
 -0.062500  0.312500  0.062500    576.000000
  0.437500  0.437500  0.062500    288.000000
 -0.437500  0.437500  0.062500    576.000000
 -0.312500  0.437500  0.062500    576.000000
 -0.187500  0.437500  0.062500    576.000000
 -0.062500  0.437500  0.062500    576.000000
 -0.437500 -0.437500  0.062500    288.000000
 -0.312500 -0.437500  0.062500    576.000000
 -0.187500 -0.437500  0.062500    576.000000
 -0.312500 -0.312500  0.062500    288.000000
 -0.187500 -0.312500  0.062500    576.000000
 -0.187500 -0.187500  0.062500    288.000000
  0.187500  0.187500  0.187500     96.000000
  0.312500  0.187500  0.187500    288.000000
  0.437500  0.187500  0.187500    288.000000
 -0.437500  0.187500  0.187500    288.000000
 -0.312500  0.187500  0.187500    288.000000
 -0.187500  0.187500  0.187500    288.000000
  0.312500  0.312500  0.187500    288.000000
  0.437500  0.312500  0.187500    576.000000
 -0.437500  0.312500  0.187500    576.000000
 -0.312500  0.312500  0.187500    576.000000
 -0.187500  0.312500  0.187500    576.000000
  0.437500  0.437500  0.187500    288.000000
 -0.437500  0.437500  0.187500    576.000000
 -0.312500  0.437500  0.187500    576.000000
 -0.187500  0.437500  0.187500    576.000000
 -0.437500 -0.437500  0.187500    288.000000
 -0.312500 -0.437500  0.187500    576.000000
 -0.312500 -0.312500  0.187500    288.000000
  0.312500  0.312500  0.312500     96.000000
  0.437500  0.312500  0.312500    288.000000
 -0.437500  0.312500  0.312500    288.000000
 -0.312500  0.312500  0.312500    288.000000
  0.437500  0.437500  0.312500    288.000000
 -0.437500  0.437500  0.312500    576.000000
 -0.312500  0.437500  0.312500    576.000000
 -0.437500 -0.437500  0.312500    288.000000
  0.437500  0.437500  0.437500     96.000000
 -0.437500  0.437500  0.437500    288.000000
 
 Following cartesian coordinates:
            Coordinates               Weight
  0.014092  0.014092  0.014092     96.000000
 -0.014092  0.042277  0.042277    288.000000
 -0.042277  0.070462  0.070462    288.000000
 -0.070462  0.098647  0.098647    288.000000
  0.126832 -0.098647 -0.098647    288.000000
  0.098647 -0.070462 -0.070462    288.000000
  0.070462 -0.042277 -0.042277    288.000000
  0.042277 -0.014092 -0.014092    288.000000
  0.014092  0.014092  0.070462    288.000000
 -0.014092  0.042277  0.098647    576.000000
 -0.042277  0.070462  0.126832    576.000000
  0.155017 -0.126832 -0.070462    576.000000
  0.126832 -0.098647 -0.042277    576.000000
  0.098647 -0.070462 -0.014092    576.000000
  0.070462 -0.042277  0.014092    576.000000
  0.014092  0.014092  0.126832    288.000000
 -0.014092  0.042277  0.155017    576.000000
  0.183202 -0.155017 -0.042277    576.000000
  0.155017 -0.126832 -0.014092    576.000000
  0.126832 -0.098647  0.014092    576.000000
  0.098647 -0.070462  0.042277    576.000000
  0.014092  0.014092  0.183202    288.000000
  0.211387 -0.183202 -0.014092    576.000000
  0.183202 -0.155017  0.014092    576.000000
  0.155017 -0.126832  0.042277    576.000000
  0.126832 -0.098647  0.070462    576.000000
  0.014092  0.014092 -0.211387    288.000000
 -0.014092  0.042277 -0.183202    576.000000
 -0.042277  0.070462 -0.155017    576.000000
  0.014092  0.014092 -0.155017    288.000000
 -0.014092  0.042277 -0.126832    576.000000
  0.014092  0.014092 -0.098647    288.000000
  0.042277  0.042277  0.042277     96.000000
  0.014092  0.070462  0.070462    288.000000
 -0.014092  0.098647  0.098647    288.000000
  0.183202 -0.098647 -0.098647    288.000000
  0.155017 -0.070462 -0.070462    288.000000
  0.126832 -0.042277 -0.042277    288.000000
  0.042277  0.042277  0.098647    288.000000
  0.014092  0.070462  0.126832    576.000000
  0.211387 -0.126832 -0.070462    576.000000
  0.183202 -0.098647 -0.042277    576.000000
  0.155017 -0.070462 -0.014092    576.000000
  0.042277  0.042277  0.155017    288.000000
  0.239572 -0.155017 -0.042277    576.000000
  0.211387 -0.126832 -0.014092    576.000000
  0.183202 -0.098647  0.014092    576.000000
  0.042277  0.042277 -0.239572    288.000000
  0.014092  0.070462 -0.211387    576.000000
  0.042277  0.042277 -0.183202    288.000000
  0.070462  0.070462  0.070462     96.000000
  0.042277  0.098647  0.098647    288.000000
  0.239572 -0.098647 -0.098647    288.000000
  0.211387 -0.070462 -0.070462    288.000000
  0.070462  0.070462  0.126832    288.000000
  0.267756 -0.126832 -0.070462    576.000000
  0.239572 -0.098647 -0.042277    576.000000
  0.070462  0.070462 -0.267756    288.000000
  0.098647  0.098647  0.098647     96.000000
  0.295941 -0.098647 -0.098647    288.000000
 


--------------------------------------------------------------------------------------------------------




 Dimension of arrays:
   k-points           NKPTS =     60   k-points in BZ     NKDIM =     60   number of bands    NBANDS=     12
   number of dos      NEDOS =    301   number of ions     NIONS =      2
   non local maximal  LDIM  =      6   non local SUM 2l+1 LMDIM =     18
   total plane-waves  NPLWV =  13824
   max r-space proj   IRMAX =      1   max aug-charges    IRDMAX=  43344
   dimension x,y,z NGX =    24 NGY =   24 NGZ =   24
   dimension x,y,z NGXF=    48 NGYF=   48 NGZF=   48
   support grid    NGXF=    48 NGYF=   48 NGZF=   48
   ions per type =               1   1
 NGX,Y,Z   is equivalent  to a cutoff of  12.72, 12.72, 12.72 a.u.
 NGXF,Y,Z  is equivalent  to a cutoff of  25.45, 25.45, 25.45 a.u.


 I would recommend the setting:
   dimension x,y,z NGX =    22 NGY =   22 NGZ =   22
 SYSTEM =  unknown system                          
 POSCAR =   C Ta                                   

 Startparameter for this run:
   NWRITE =      2    write-flag & timer
   PREC   = accura    normal or accurate (medium, high low for compatibility)
   ISTART =      0    job   : 0-new  1-cont  2-samecut
   ICHARG =      2    charge: 1-file 2-atom 10-const
   ISPIN  =      2    spin polarized calculation?
   LNONCOLLINEAR =      F non collinear calculations
   LSORBIT =      F    spin-orbit coupling
   INIWAV =      1    electr: 0-lowe 1-rand  2-diag
   LASPH  =      F    aspherical Exc in radial PAW
   METAGGA=      F    non-selfconsistent MetaGGA calc.

 Electronic Relaxation 1
   ENCUT  =  450.0 eV  33.07 Ry    5.75 a.u.   5.42  5.42  5.42*2*pi/ulx,y,z
   ENINI  =  450.0     initial cutoff
   ENAUG  =  644.9 eV  augmentation charge cutoff
   NELM   =     60;   NELMIN=  2; NELMDL= -5     # of ELM steps 
   EDIFF  = 0.1E-03   stopping-criterion for ELM
   LREAL  =      F    real-space projection
   NLSPLINE    = F    spline interpolate recip. space projectors
   LCOMPAT=      F    compatible to vasp.4.4
   GGA_COMPAT  = T    GGA compatible to vasp.4.4-vasp.4.6
   LMAXPAW     = -100 max onsite density
   LMAXMIX     =    2 max onsite mixed and CHGCAR
   VOSKOWN=      0    Vosko Wilk Nusair interpolation
   ROPT   =    0.00000   0.00000
 Ionic relaxation
   EDIFFG = 0.1E-02   stopping-criterion for IOM
   NSW    =      0    number of steps for IOM
   NBLOCK =      1;   KBLOCK =      1    inner block; outer block 
   IBRION =     -1    ionic relax: 0-MD 1-quasi-New 2-CG
   NFREE  =      0    steps in history (QN), initial steepest desc. (CG)
   ISIF   =      2    stress and relaxation
   IWAVPR =     10    prediction:  0-non 1-charg 2-wave 3-comb
   ISYM   =      2    0-nonsym 1-usesym 2-fastsym
   LCORR  =      T    Harris-Foulkes like correction to forces

   POTIM  = 0.5000    time-step for ionic-motion
   TEIN   =    0.0    initial temperature
   TEBEG  =    0.0;   TEEND  =   0.0 temperature during run
   SMASS  =  -3.00    Nose mass-parameter (am)
   estimated Nose-frequenzy (Omega)   =  0.10E-29 period in steps =****** mass=  -0.225E-27a.u.
   SCALEE = 1.0000    scale energy and forces
   NPACO  =    256;   APACO  = 16.0  distance and # of slots for P.C.
   PSTRESS=    0.0 pullay stress

  Mass of Ions in am
   POMASS =  12.01180.95
  Ionic Valenz
   ZVAL   =   4.00  5.00
  Atomic Wigner-Seitz radii
   RWIGS  =  -1.00 -1.00
  virtual crystal weights 
   VCA    =   1.00  1.00
   NELECT =       9.0000    total number of electrons
   NUPDOWN=      -1.0000    fix difference up-down

 DOS related values:
   EMIN   =  10.00;   EMAX   =-10.00  energy-range for DOS
   EFERMI =   0.00
   ISMEAR =     1;   SIGMA  =   0.05  broadening in eV -4-tet -1-fermi 0-gaus

 Electronic relaxation 2 (details)
   IALGO  =     38    algorithm
   LDIAG  =      T    sub-space diagonalisation (order eigenvalues)
   LSUBROT=      T    optimize rotation matrix (better conditioning)
   TURBO    =      0    0=normal 1=particle mesh
   IRESTART =      0    0=no restart 2=restart with 2 vectors
   NREBOOT  =      0    no. of reboots
   NMIN     =      0    reboot dimension
   EREF     =   0.00    reference energy to select bands
   IMIX   =      4    mixing-type and parameters
     AMIX     =   0.40;   BMIX     =  1.00
     AMIX_MAG =   1.60;   BMIX_MAG =  1.00
     AMIN     =   0.10
     WC   =   100.;   INIMIX=   1;  MIXPRE=   1

 Intra band minimization:
   WEIMIN = 0.0000     energy-eigenvalue tresh-hold
   EBREAK =  0.21E-05  absolut break condition
   DEPER  =   0.30     relativ break condition  

   TIME   =   0.40     timestep for ELM

  volume/ion in A,a.u.               =      10.90        73.58
  Fermi-wavevector in a.u.,A,eV,Ry     =   1.218846  2.303284 20.212607  1.485585
  Thomas-Fermi vector in A             =   2.354118
 
 Write flags
   LWAVE  =      T    write WAVECAR
   LCHARG =      T    write CHGCAR
   LVTOT  =      F    write LOCPOT, total local potential
   LVHAR  =      F    write LOCPOT, Hartree potential only
   LELF   =      F    write electronic localiz. function (ELF)
   LORBIT =     11    0 simple, 1 ext, 2 COOP (PROOUT)


 Dipole corrections
   LMONO  =      F    monopole corrections only (constant potential shift)
   LDIPOL =      F    correct potential (dipole corrections)
   IDIPOL =      0    1-x, 2-y, 3-z, 4-all directions 
   EPSILON=  1.0000000 bulk dielectric constant

 Exchange correlation treatment:
   GGA     =    --    GGA type
   LEXCH   =     8    internal setting for exchange type
   VOSKOWN=      0    Vosko Wilk Nusair interpolation
   LHFCALC =     F    Hartree Fock is set to
   LHFONE  =     F    Hartree Fock one center treatment
   AEXX    =    0.0000 exact exchange contribution

 Linear response parameters
   LEPSILON=     F    determine dielectric tensor
   LRPA    =     F    only Hartree local field effects (RPA)
   LNABLA  =     F    use nabla operator in PAW spheres
   LVEL    =     F    velocity operator in full k-point grid
   LINTERFAST=   F  fast interpolation
   KINTER  =     0    interpolate to denser k-point grid
   CSHIFT  =0.1000    complex shift for real part using Kramers Kronig
   OMEGAMAX=  -1.0    maximum frequency
   RTIME   =    0.100 relaxation time in fs

 Orbital magnetization related:
   ORBITALMAG=     F  switch on orbital magnetization
   LCHIMAG   =     F  perturbation theory with respect to B field
   DQ        =  0.001000  dq finite difference perturbation B field



--------------------------------------------------------------------------------------------------------


 Static calculation
 charge density and potential will be updated during run
 spin polarized calculation
 Variant of blocked Davidson
 Davidson routine will perform the subspace rotation
 perform sub-space diagonalisation
    after iterative eigenvector-optimisation
 modified Broyden-mixing scheme, WC =      100.0
 initial mixing is a Kerker type mixing with AMIX =  0.4000 and BMIX =      1.0000
 Hartree-type preconditioning will be used
 using additional bands            7
 reciprocal scheme for non local part
 use partial core corrections
 calculate Harris-corrections to forces 
   (improved forces if not selfconsistent)
 use gradient corrections 
 use of overlap-Matrix (Vanderbilt PP)
 Methfessel and Paxton  Order N= 1 SIGMA  =   0.05


--------------------------------------------------------------------------------------------------------


  energy-cutoff  :      450.00
  volume of cell :       21.81
      direct lattice vectors                 reciprocal lattice vectors
     0.000000000  2.217500000  2.217500000    -0.225479143  0.225479143  0.225479143
     2.217500000  0.000000000  2.217500000     0.225479143 -0.225479143  0.225479143
     2.217500000  2.217500000  0.000000000     0.225479143  0.225479143 -0.225479143

  length of vectors
     3.136018575  3.136018575  3.136018575     0.390541332  0.390541332  0.390541332


 
 k-points in units of 2pi/SCALE and weight: KPOINTS created by Atomic Simulation Env
   0.01409245  0.01409245  0.01409245       0.004
  -0.01409245  0.04227734  0.04227734       0.012
  -0.04227734  0.07046223  0.07046223       0.012
  -0.07046223  0.09864713  0.09864713       0.012
   0.12683202 -0.09864713 -0.09864713       0.012
   0.09864713 -0.07046223 -0.07046223       0.012
   0.07046223 -0.04227734 -0.04227734       0.012
   0.04227734 -0.01409245 -0.01409245       0.012
   0.01409245  0.01409245  0.07046223       0.012
  -0.01409245  0.04227734  0.09864713       0.023
  -0.04227734  0.07046223  0.12683202       0.023
   0.15501691 -0.12683202 -0.07046223       0.023
   0.12683202 -0.09864713 -0.04227734       0.023
   0.09864713 -0.07046223 -0.01409245       0.023
   0.07046223 -0.04227734  0.01409245       0.023
   0.01409245  0.01409245  0.12683202       0.012
  -0.01409245  0.04227734  0.15501691       0.023
   0.18320180 -0.15501691 -0.04227734       0.023
   0.15501691 -0.12683202 -0.01409245       0.023
   0.12683202 -0.09864713  0.01409245       0.023
   0.09864713 -0.07046223  0.04227734       0.023
   0.01409245  0.01409245  0.18320180       0.012
   0.21138670 -0.18320180 -0.01409245       0.023
   0.18320180 -0.15501691  0.01409245       0.023
   0.15501691 -0.12683202  0.04227734       0.023
   0.12683202 -0.09864713  0.07046223       0.023
   0.01409245  0.01409245 -0.21138670       0.012
  -0.01409245  0.04227734 -0.18320180       0.023
  -0.04227734  0.07046223 -0.15501691       0.023
   0.01409245  0.01409245 -0.15501691       0.012
  -0.01409245  0.04227734 -0.12683202       0.023
   0.01409245  0.01409245 -0.09864713       0.012
   0.04227734  0.04227734  0.04227734       0.004
   0.01409245  0.07046223  0.07046223       0.012
  -0.01409245  0.09864713  0.09864713       0.012
   0.18320180 -0.09864713 -0.09864713       0.012
   0.15501691 -0.07046223 -0.07046223       0.012
   0.12683202 -0.04227734 -0.04227734       0.012
   0.04227734  0.04227734  0.09864713       0.012
   0.01409245  0.07046223  0.12683202       0.023
   0.21138670 -0.12683202 -0.07046223       0.023
   0.18320180 -0.09864713 -0.04227734       0.023
   0.15501691 -0.07046223 -0.01409245       0.023
   0.04227734  0.04227734  0.15501691       0.012
   0.23957159 -0.15501691 -0.04227734       0.023
   0.21138670 -0.12683202 -0.01409245       0.023
   0.18320180 -0.09864713  0.01409245       0.023
   0.04227734  0.04227734 -0.23957159       0.012
   0.01409245  0.07046223 -0.21138670       0.023
   0.04227734  0.04227734 -0.18320180       0.012
   0.07046223  0.07046223  0.07046223       0.004
   0.04227734  0.09864713  0.09864713       0.012
   0.23957159 -0.09864713 -0.09864713       0.012
   0.21138670 -0.07046223 -0.07046223       0.012
   0.07046223  0.07046223  0.12683202       0.012
   0.26775648 -0.12683202 -0.07046223       0.023
   0.23957159 -0.09864713 -0.04227734       0.023
   0.07046223  0.07046223 -0.26775648       0.012
   0.09864713  0.09864713  0.09864713       0.004
   0.29594138 -0.09864713 -0.09864713       0.012
 
 k-points in reciprocal lattice and weights: KPOINTS created by Atomic Simulation Env
   0.06250000  0.06250000  0.06250000       0.004
   0.18750000  0.06250000  0.06250000       0.012
   0.31250000  0.06250000  0.06250000       0.012
   0.43750000  0.06250000  0.06250000       0.012
  -0.43750000  0.06250000  0.06250000       0.012
  -0.31250000  0.06250000  0.06250000       0.012
  -0.18750000  0.06250000  0.06250000       0.012
  -0.06250000  0.06250000  0.06250000       0.012
   0.18750000  0.18750000  0.06250000       0.012
   0.31250000  0.18750000  0.06250000       0.023
   0.43750000  0.18750000  0.06250000       0.023
  -0.43750000  0.18750000  0.06250000       0.023
  -0.31250000  0.18750000  0.06250000       0.023
  -0.18750000  0.18750000  0.06250000       0.023
  -0.06250000  0.18750000  0.06250000       0.023
   0.31250000  0.31250000  0.06250000       0.012
   0.43750000  0.31250000  0.06250000       0.023
  -0.43750000  0.31250000  0.06250000       0.023
  -0.31250000  0.31250000  0.06250000       0.023
  -0.18750000  0.31250000  0.06250000       0.023
  -0.06250000  0.31250000  0.06250000       0.023
   0.43750000  0.43750000  0.06250000       0.012
  -0.43750000  0.43750000  0.06250000       0.023
  -0.31250000  0.43750000  0.06250000       0.023
  -0.18750000  0.43750000  0.06250000       0.023
  -0.06250000  0.43750000  0.06250000       0.023
  -0.43750000 -0.43750000  0.06250000       0.012
  -0.31250000 -0.43750000  0.06250000       0.023
  -0.18750000 -0.43750000  0.06250000       0.023
  -0.31250000 -0.31250000  0.06250000       0.012
  -0.18750000 -0.31250000  0.06250000       0.023
  -0.18750000 -0.18750000  0.06250000       0.012
   0.18750000  0.18750000  0.18750000       0.004
   0.31250000  0.18750000  0.18750000       0.012
   0.43750000  0.18750000  0.18750000       0.012
  -0.43750000  0.18750000  0.18750000       0.012
  -0.31250000  0.18750000  0.18750000       0.012
  -0.18750000  0.18750000  0.18750000       0.012
   0.31250000  0.31250000  0.18750000       0.012
   0.43750000  0.31250000  0.18750000       0.023
  -0.43750000  0.31250000  0.18750000       0.023
  -0.31250000  0.31250000  0.18750000       0.023
  -0.18750000  0.31250000  0.18750000       0.023
   0.43750000  0.43750000  0.18750000       0.012
  -0.43750000  0.43750000  0.18750000       0.023
  -0.31250000  0.43750000  0.18750000       0.023
  -0.18750000  0.43750000  0.18750000       0.023
  -0.43750000 -0.43750000  0.18750000       0.012
  -0.31250000 -0.43750000  0.18750000       0.023
  -0.31250000 -0.31250000  0.18750000       0.012
   0.31250000  0.31250000  0.31250000       0.004
   0.43750000  0.31250000  0.31250000       0.012
  -0.43750000  0.31250000  0.31250000       0.012
  -0.31250000  0.31250000  0.31250000       0.012
   0.43750000  0.43750000  0.31250000       0.012
  -0.43750000  0.43750000  0.31250000       0.023
  -0.31250000  0.43750000  0.31250000       0.023
  -0.43750000 -0.43750000  0.31250000       0.012
   0.43750000  0.43750000  0.43750000       0.004
  -0.43750000  0.43750000  0.43750000       0.012
 
 position of ions in fractional coordinates (direct lattice) 
   0.50000000  0.50000000  0.50000000
   0.00000000  0.00000000  0.00000000
 
 position of ions in cartesian coordinates  (Angst):
   2.21750000  2.21750000  2.21750000
   0.00000000  0.00000000  0.00000000
 


--------------------------------------------------------------------------------------------------------


 k-point  1 :  0.06250.06250.0625  plane waves:     495
 k-point  2 :  0.18750.06250.0625  plane waves:     483
 k-point  3 :  0.31250.06250.0625  plane waves:     479
 k-point  4 :  0.43750.06250.0625  plane waves:     475
 k-point  5 :  -.43750.06250.0625  plane waves:     470
 k-point  6 :  -.31250.06250.0625  plane waves:     480
 k-point  7 :  -.18750.06250.0625  plane waves:     481
 k-point  8 :  -.06250.06250.0625  plane waves:     488
 k-point  9 :  0.18750.18750.0625  plane waves:     481
 k-point 10 :  0.31250.18750.0625  plane waves:     476
 k-point 11 :  0.43750.18750.0625  plane waves:     472
 k-point 12 :  -.43750.18750.0625  plane waves:     467
 k-point 13 :  -.31250.18750.0625  plane waves:     471
 k-point 14 :  -.18750.18750.0625  plane waves:     475
 k-point 15 :  -.06250.18750.0625  plane waves:     484
 k-point 16 :  0.31250.31250.0625  plane waves:     471
 k-point 17 :  0.43750.31250.0625  plane waves:     471
 k-point 18 :  -.43750.31250.0625  plane waves:     471
 k-point 19 :  -.31250.31250.0625  plane waves:     469
 k-point 20 :  -.18750.31250.0625  plane waves:     476
 k-point 21 :  -.06250.31250.0625  plane waves:     476
 k-point 22 :  0.43750.43750.0625  plane waves:     463
 k-point 23 :  -.43750.43750.0625  plane waves:     468
 k-point 24 :  -.31250.43750.0625  plane waves:     473
 k-point 25 :  -.18750.43750.0625  plane waves:     470
 k-point 26 :  -.06250.43750.0625  plane waves:     467
 k-point 27 :  -.4375-.43750.0625  plane waves:     466
 k-point 28 :  -.3125-.43750.0625  plane waves:     469
 k-point 29 :  -.1875-.43750.0625  plane waves:     470
 k-point 30 :  -.3125-.31250.0625  plane waves:     468
 k-point 31 :  -.1875-.31250.0625  plane waves:     473
 k-point 32 :  -.1875-.18750.0625  plane waves:     480
 k-point 33 :  0.18750.18750.1875  plane waves:     483
 k-point 34 :  0.31250.18750.1875  plane waves:     481
 k-point 35 :  0.43750.18750.1875  plane waves:     475
 k-point 36 :  -.43750.18750.1875  plane waves:     468
 k-point 37 :  -.31250.18750.1875  plane waves:     468
 k-point 38 :  -.18750.18750.1875  plane waves:     468
 k-point 39 :  0.31250.31250.1875  plane waves:     476
 k-point 40 :  0.43750.31250.1875  plane waves:     473
 k-point 41 :  -.43750.31250.1875  plane waves:     473
 k-point 42 :  -.31250.31250.1875  plane waves:     472
 k-point 43 :  -.18750.31250.1875  plane waves:     473
 k-point 44 :  0.43750.43750.1875  plane waves:     467
 k-point 45 :  -.43750.43750.1875  plane waves:     472
 k-point 46 :  -.31250.43750.1875  plane waves:     472
 k-point 47 :  -.18750.43750.1875  plane waves:     476
 k-point 48 :  -.4375-.43750.1875  plane waves:     471
 k-point 49 :  -.3125-.43750.1875  plane waves:     472
 k-point 50 :  -.3125-.31250.1875  plane waves:     470
 k-point 51 :  0.31250.31250.3125  plane waves:     483
 k-point 52 :  0.43750.31250.3125  plane waves:     475
 k-point 53 :  -.43750.31250.3125  plane waves:     471
 k-point 54 :  -.31250.31250.3125  plane waves:     465
 k-point 55 :  0.43750.43750.3125  plane waves:     470
 k-point 56 :  -.43750.43750.3125  plane waves:     472
 k-point 57 :  -.31250.43750.3125  plane waves:     471
 k-point 58 :  -.4375-.43750.3125  plane waves:     465
 k-point 59 :  0.43750.43750.4375  plane waves:     470
 k-point 60 :  -.43750.43750.4375  plane waves:     468

 maximum and minimum number of plane-waves per node :       495      463

 maximum number of plane-waves:       495
 maximum index in each direction: 
   IXMAX=    5   IYMAX=    5   IZMAX=    5
   IXMIN=   -5   IYMIN=   -5   IZMIN=   -5

 NGX is ok and might be reduce to  22
 NGY is ok and might be reduce to  22
 NGZ is ok and might be reduce to  22

 serial   3D FFT for wavefunctions
 parallel 3D FFT for charge:
    minimum data exchange during FFTs selected (reduces bandwidth)


 total amount of memory used by VASP on root node    64816. kBytes
========================================================================

   base      :      30000. kBytes
   nonl-proj :       8569. kBytes
   fftplans  :       3916. kBytes
   grid      :      10266. kBytes
   one-center:         62. kBytes
   wavefun   :      12003. kBytes
 
 Broyden mixing: mesh for mixing (old mesh)
   NGX = 11   NGY = 11   NGZ = 11
  (NGX  = 48   NGY  = 48   NGZ  = 48)
  gives a total of   1331 points

 initial charge density was supplied:
 charge density of overlapping atoms calculated
 number of electron       9.0000000 magnetization       8.0000000
 keeping initial charge density in first step


--------------------------------------------------------------------------------------------------------


 Maximum index for augmentation-charges        41907 (set IRDMAX)


--------------------------------------------------------------------------------------------------------


 First call to EWALD:  gamma=   0.634
 Maximum number of real-space cells 3x 3x 3
 Maximum number of reciprocal cells 3x 3x 3

    FEWALD:  cpu time    0.00: real time    0.00


----------------------------------------- Iteration    1(   1)  ---------------------------------------


    POTLOK:  cpu time    0.38: real time    0.38
    SETDIJ:  cpu time    0.07: real time    0.07
     EDDAV:  cpu time    6.43: real time    6.43
       DOS:  cpu time    0.01: real time    0.01
    --------------------------------------------
      LOOP:  cpu time    6.89: real time    6.89

 eigenvalue-minimisations  :  2904
 total energy-change (2. order) : 0.1097934E+02  (-0.3959947E+03)
 number of electron       9.0000000 magnetization       8.0000000
 augmentation part        9.0000000 magnetization       8.0000000

 Free energy of the ion-electron system (eV)
  ---------------------------------------------------
  alpha Z        PSCENC =        54.17748121
  Ewald energy   TEWEN  =      -375.93454926
  -1/2 Hartree   DENC   =       -15.33444702
  -exchange  EXHF       =         0.00000000
  -V(xc)+E(xc)   XCENC  =       -48.09373511
  PAW double counting   =       180.96821906     -107.89329025
  entropy T*S    EENTRO =         0.00007877
  eigenvalues    EBANDS =        45.29616338
  atomic energy  EATOM  =       277.79342126
  ---------------------------------------------------
  free energy    TOTEN  =        10.97934204 eV

  energy without entropy =       10.97926327  energy(sigma->0) =       10.97931578


--------------------------------------------------------------------------------------------------------




----------------------------------------- Iteration    1(   2)  ---------------------------------------


     EDDAV:  cpu time    7.84: real time    7.84
       DOS:  cpu time    0.01: real time    0.01
    --------------------------------------------
      LOOP:  cpu time    7.84: real time    7.90

 eigenvalue-minimisations  :  3720
 total energy-change (2. order) :-0.2910564E+02  (-0.2758964E+02)
 number of electron       9.0000000 magnetization       8.0000000
 augmentation part        9.0000000 magnetization       8.0000000

 Free energy of the ion-electron system (eV)
  ---------------------------------------------------
  alpha Z        PSCENC =        54.17748121
  Ewald energy   TEWEN  =      -375.93454926
  -1/2 Hartree   DENC   =       -15.33444702
  -exchange  EXHF       =         0.00000000
  -V(xc)+E(xc)   XCENC  =       -48.09373511
  PAW double counting   =       180.96821906     -107.89329025
  entropy T*S    EENTRO =         0.00021374
  eigenvalues    EBANDS =        16.19039139
  atomic energy  EATOM  =       277.79342126
  ---------------------------------------------------
  free energy    TOTEN  =       -18.12629498 eV

  energy without entropy =      -18.12650872  energy(sigma->0) =      -18.12636623


--------------------------------------------------------------------------------------------------------




----------------------------------------- Iteration    1(   3)  ---------------------------------------


     EDDAV:  cpu time    7.53: real time    7.53
       DOS:  cpu time    0.01: real time    0.01
    --------------------------------------------
      LOOP:  cpu time    7.54: real time    7.55

 eigenvalue-minimisations  :  3528
 total energy-change (2. order) :-0.8801686E+00  (-0.8762366E+00)
 number of electron       9.0000000 magnetization       8.0000000
 augmentation part        9.0000000 magnetization       8.0000000

 Free energy of the ion-electron system (eV)
  ---------------------------------------------------
  alpha Z        PSCENC =        54.17748121
  Ewald energy   TEWEN  =      -375.93454926
  -1/2 Hartree   DENC   =       -15.33444702
  -exchange  EXHF       =         0.00000000
  -V(xc)+E(xc)   XCENC  =       -48.09373511
  PAW double counting   =       180.96821906     -107.89329025
  entropy T*S    EENTRO =         0.00002196
  eigenvalues    EBANDS =        15.31041455
  atomic energy  EATOM  =       277.79342126
  ---------------------------------------------------
  free energy    TOTEN  =       -19.00646360 eV

  energy without entropy =      -19.00648556  energy(sigma->0) =      -19.00647092


--------------------------------------------------------------------------------------------------------




----------------------------------------- Iteration    1(   4)  ---------------------------------------


     EDDAV:  cpu time    7.15: real time    7.15
       DOS:  cpu time    0.01: real time    0.01
    --------------------------------------------
      LOOP:  cpu time    7.16: real time    7.16

 eigenvalue-minimisations  :  3276
 total energy-change (2. order) :-0.2633420E-02  (-0.2633172E-02)
 number of electron       9.0000000 magnetization       8.0000000
 augmentation part        9.0000000 magnetization       8.0000000

 Free energy of the ion-electron system (eV)
  ---------------------------------------------------
  alpha Z        PSCENC =        54.17748121
  Ewald energy   TEWEN  =      -375.93454926
  -1/2 Hartree   DENC   =       -15.33444702
  -exchange  EXHF       =         0.00000000
  -V(xc)+E(xc)   XCENC  =       -48.09373511
  PAW double counting   =       180.96821906     -107.89329025
  entropy T*S    EENTRO =         0.00002168
  eigenvalues    EBANDS =        15.30778141
  atomic energy  EATOM  =       277.79342126
  ---------------------------------------------------
  free energy    TOTEN  =       -19.00909702 eV

  energy without entropy =      -19.00911870  energy(sigma->0) =      -19.00910425


--------------------------------------------------------------------------------------------------------




----------------------------------------- Iteration    1(   5)  ---------------------------------------


     EDDAV:  cpu time    8.05: real time    8.05
       DOS:  cpu time    0.01: real time    0.01
    CHARGE:  cpu time    0.48: real time    0.48
    MIXING:  cpu time    0.01: real time    0.01
    --------------------------------------------
      LOOP:  cpu time    8.55: real time    8.56

 eigenvalue-minimisations  :  3580
 total energy-change (2. order) :-0.7841516E-05  (-0.7841202E-05)
 number of electron       9.0000001 magnetization      -1.7334193
 augmentation part        0.3939825 magnetization      -2.5602390

 Broyden mixing:
  rms(total) = 0.18976E+01    rms(broyden)= 0.18975E+01
  rms(prec ) = 0.43579E+01
  weight for this iteration     100.00

 Free energy of the ion-electron system (eV)
  ---------------------------------------------------
  alpha Z        PSCENC =        54.17748121
  Ewald energy   TEWEN  =      -375.93454926
  -1/2 Hartree   DENC   =       -15.33444702
  -exchange  EXHF       =         0.00000000
  -V(xc)+E(xc)   XCENC  =       -48.09373511
  PAW double counting   =       180.96821906     -107.89329025
  entropy T*S    EENTRO =         0.00002169
  eigenvalues    EBANDS =        15.30777355
  atomic energy  EATOM  =       277.79342126
  ---------------------------------------------------
  free energy    TOTEN  =       -19.00910487 eV

  energy without entropy =      -19.00912656  energy(sigma->0) =      -19.00911210


--------------------------------------------------------------------------------------------------------




----------------------------------------- Iteration    1(   6)  ---------------------------------------


    POTLOK:  cpu time    0.40: real time    0.41
    SETDIJ:  cpu time    0.09: real time    0.09
     EDDAV:  cpu time    7.25: real time    7.25
       DOS:  cpu time    0.01: real time    0.01
    CHARGE:  cpu time    0.51: real time    0.51
    MIXING:  cpu time    0.01: real time    0.01
    --------------------------------------------
      LOOP:  cpu time    8.27: real time    8.29

 eigenvalue-minimisations  :  3244
 total energy-change (2. order) :-0.3068664E+01  (-0.1611776E+01)
 number of electron       9.0000001 magnetization       0.1524352
 augmentation part        0.4634829 magnetization       0.3858594

 Broyden mixing:
  rms(total) = 0.43969E+00    rms(broyden)= 0.43958E+00
  rms(prec ) = 0.75116E+00
  weight for this iteration     100.00

 eigenvalues of (default mixing * dielectric matrix)
  average eigenvalue GAMMA=   0.8180
  0.8180

 Free energy of the ion-electron system (eV)
  ---------------------------------------------------
  alpha Z        PSCENC =        54.17748121
  Ewald energy   TEWEN  =      -375.93454926
  -1/2 Hartree   DENC   =       -23.77402432
  -exchange  EXHF       =         0.00000000
  -V(xc)+E(xc)   XCENC  =       -51.03619829
  PAW double counting   =       215.47605180     -142.92856463
  entropy T*S    EENTRO =        -0.00008677
  eigenvalues    EBANDS =        24.14870035
  atomic energy  EATOM  =       277.79342126
  ---------------------------------------------------
  free energy    TOTEN  =       -22.07776865 eV

  energy without entropy =      -22.07768188  energy(sigma->0) =      -22.07773972


--------------------------------------------------------------------------------------------------------




----------------------------------------- Iteration    1(   7)  ---------------------------------------


    POTLOK:  cpu time    0.40: real time    0.40
    SETDIJ:  cpu time    0.09: real time    0.09
     EDDAV:  cpu time    7.62: real time    7.63
       DOS:  cpu time    0.01: real time    0.01
    CHARGE:  cpu time    0.49: real time    0.50
    MIXING:  cpu time    0.01: real time    0.01
    --------------------------------------------
      LOOP:  cpu time    8.63: real time    8.64

 eigenvalue-minimisations  :  3480
 total energy-change (2. order) :-0.2239491E+00  (-0.5972441E-01)
 number of electron       9.0000001 magnetization      -0.1212958
 augmentation part        0.4581471 magnetization      -0.1191728

 Broyden mixing:
  rms(total) = 0.15480E+00    rms(broyden)= 0.15477E+00
  rms(prec ) = 0.43711E+00
  weight for this iteration     100.00

 eigenvalues of (default mixing * dielectric matrix)
  average eigenvalue GAMMA=   0.8213
  0.8213  0.8213

 Free energy of the ion-electron system (eV)
  ---------------------------------------------------
  alpha Z        PSCENC =        54.17748121
  Ewald energy   TEWEN  =      -375.93454926
  -1/2 Hartree   DENC   =       -22.77547020
  -exchange  EXHF       =         0.00000000
  -V(xc)+E(xc)   XCENC  =       -51.21926945
  PAW double counting   =       234.45693374     -162.14199919
  entropy T*S    EENTRO =         0.00029159
  eigenvalues    EBANDS =        23.34144257
  atomic energy  EATOM  =       277.79342126
  ---------------------------------------------------
  free energy    TOTEN  =       -22.30171772 eV

  energy without entropy =      -22.30200932  energy(sigma->0) =      -22.30181492


--------------------------------------------------------------------------------------------------------




----------------------------------------- Iteration    1(   8)  ---------------------------------------


    POTLOK:  cpu time    0.40: real time    0.40
    SETDIJ:  cpu time    0.09: real time    0.09
     EDDAV:  cpu time    7.20: real time    7.20
       DOS:  cpu time    0.01: real time    0.01
    CHARGE:  cpu time    0.50: real time    0.50
    MIXING:  cpu time    0.01: real time    0.01
    --------------------------------------------
      LOOP:  cpu time    8.21: real time    8.23

 eigenvalue-minimisations  :  3208
 total energy-change (2. order) : 0.5708740E-01  (-0.6796523E-02)
 number of electron       9.0000001 magnetization       0.0307207
 augmentation part        0.4648044 magnetization       0.0235350

 Broyden mixing:
  rms(total) = 0.85074E-01    rms(broyden)= 0.85074E-01
  rms(prec ) = 0.17297E+00
  weight for this iteration     100.00

 eigenvalues of (default mixing * dielectric matrix)
  average eigenvalue GAMMA=   1.2400
  2.1435  0.8511  0.7256

 Free energy of the ion-electron system (eV)
  ---------------------------------------------------
  alpha Z        PSCENC =        54.17748121
  Ewald energy   TEWEN  =      -375.93454926
  -1/2 Hartree   DENC   =       -22.36343388
  -exchange  EXHF       =         0.00000000
  -V(xc)+E(xc)   XCENC  =       -51.10434350
  PAW double counting   =       256.28063863     -184.19884266
  entropy T*S    EENTRO =         0.00029877
  eigenvalues    EBANDS =        23.10469911
  atomic energy  EATOM  =       277.79342126
  ---------------------------------------------------
  free energy    TOTEN  =       -22.24463032 eV

  energy without entropy =      -22.24492909  energy(sigma->0) =      -22.24472991


--------------------------------------------------------------------------------------------------------




----------------------------------------- Iteration    1(   9)  ---------------------------------------


    POTLOK:  cpu time    0.40: real time    0.40
    SETDIJ:  cpu time    0.09: real time    0.09
     EDDAV:  cpu time    7.52: real time    7.52
       DOS:  cpu time    0.01: real time    0.01
    CHARGE:  cpu time    0.50: real time    0.50
    MIXING:  cpu time    0.01: real time    0.01
    --------------------------------------------
      LOOP:  cpu time    8.53: real time    8.55

 eigenvalue-minimisations  :  3404
 total energy-change (2. order) : 0.9263075E-02  (-0.2399485E-02)
 number of electron       9.0000001 magnetization      -0.0003543
 augmentation part        0.4703710 magnetization       0.0045140

 Broyden mixing:
  rms(total) = 0.25203E-01    rms(broyden)= 0.25202E-01
  rms(prec ) = 0.35066E-01
  weight for this iteration     100.00

 eigenvalues of (default mixing * dielectric matrix)
  average eigenvalue GAMMA=   1.2049
  2.3948  0.8808  0.8808  0.6634

 Free energy of the ion-electron system (eV)
  ---------------------------------------------------
  alpha Z        PSCENC =        54.17748121
  Ewald energy   TEWEN  =      -375.93454926
  -1/2 Hartree   DENC   =       -22.24857962
  -exchange  EXHF       =         0.00000000
  -V(xc)+E(xc)   XCENC  =       -51.02181151
  PAW double counting   =       272.83899647     -200.92249616
  entropy T*S    EENTRO =         0.00010294
  eigenvalues    EBANDS =        23.08206744
  atomic energy  EATOM  =       277.79342126
  ---------------------------------------------------
  free energy    TOTEN  =       -22.23536725 eV

  energy without entropy =      -22.23547018  energy(sigma->0) =      -22.23540156


--------------------------------------------------------------------------------------------------------




----------------------------------------- Iteration    1(  10)  ---------------------------------------


    POTLOK:  cpu time    0.40: real time    0.40
    SETDIJ:  cpu time    0.09: real time    0.09
     EDDAV:  cpu time    7.18: real time    7.18
       DOS:  cpu time    0.01: real time    0.01
    CHARGE:  cpu time    0.50: real time    0.50
    MIXING:  cpu time    0.01: real time    0.01
    --------------------------------------------
      LOOP:  cpu time    8.20: real time    8.21

 eigenvalue-minimisations  :  3192
 total energy-change (2. order) : 0.2140215E-02  (-0.1134938E-03)
 number of electron       9.0000001 magnetization      -0.0002650
 augmentation part        0.4698473 magnetization      -0.0016198

 Broyden mixing:
  rms(total) = 0.55077E-02    rms(broyden)= 0.55075E-02
  rms(prec ) = 0.10577E-01
  weight for this iteration     100.00

 eigenvalues of (default mixing * dielectric matrix)
  average eigenvalue GAMMA=   1.1171
  2.3399  0.9301  0.9301  0.7490  0.6366

 Free energy of the ion-electron system (eV)
  ---------------------------------------------------
  alpha Z        PSCENC =        54.17748121
  Ewald energy   TEWEN  =      -375.93454926
  -1/2 Hartree   DENC   =       -22.27543427
  -exchange  EXHF       =         0.00000000
  -V(xc)+E(xc)   XCENC  =       -51.03267630
  PAW double counting   =       272.23123987     -200.30833663
  entropy T*S    EENTRO =         0.00013342
  eigenvalues    EBANDS =        23.11549366
  atomic energy  EATOM  =       277.79342126
  ---------------------------------------------------
  free energy    TOTEN  =       -22.23322703 eV

  energy without entropy =      -22.23336045  energy(sigma->0) =      -22.23327150


--------------------------------------------------------------------------------------------------------




----------------------------------------- Iteration    1(  11)  ---------------------------------------


    POTLOK:  cpu time    0.41: real time    0.41
    SETDIJ:  cpu time    0.09: real time    0.09
     EDDAV:  cpu time    6.31: real time    6.31
       DOS:  cpu time    0.01: real time    0.01
    CHARGE:  cpu time    0.50: real time    0.50
    MIXING:  cpu time    0.01: real time    0.01
    --------------------------------------------
      LOOP:  cpu time    7.34: real time    7.34

 eigenvalue-minimisations  :  2668
 total energy-change (2. order) : 0.1496003E-03  (-0.1284408E-04)
 number of electron       9.0000001 magnetization      -0.0005156
 augmentation part        0.4697692 magnetization      -0.0003100

 Broyden mixing:
  rms(total) = 0.30918E-02    rms(broyden)= 0.30918E-02
  rms(prec ) = 0.59412E-02
  weight for this iteration     100.00

 eigenvalues of (default mixing * dielectric matrix)
  average eigenvalue GAMMA=   1.2155
  2.2644  1.8540  0.9155  0.9155  0.7190  0.6244

 Free energy of the ion-electron system (eV)
  ---------------------------------------------------
  alpha Z        PSCENC =        54.17748121
  Ewald energy   TEWEN  =      -375.93454926
  -1/2 Hartree   DENC   =       -22.28931163
  -exchange  EXHF       =         0.00000000
  -V(xc)+E(xc)   XCENC  =       -51.03428182
  PAW double counting   =       273.17883480     -201.26415699
  entropy T*S    EENTRO =         0.00013507
  eigenvalues    EBANDS =        23.13934993
  atomic energy  EATOM  =       277.79342126
  ---------------------------------------------------
  free energy    TOTEN  =       -22.23307743 eV

  energy without entropy =      -22.23321250  energy(sigma->0) =      -22.23312245


--------------------------------------------------------------------------------------------------------




----------------------------------------- Iteration    1(  12)  ---------------------------------------


    POTLOK:  cpu time    0.42: real time    0.42
    SETDIJ:  cpu time    0.10: real time    0.10
     EDDAV:  cpu time    5.02: real time    5.02
       DOS:  cpu time    0.01: real time    0.01
    --------------------------------------------
      LOOP:  cpu time    5.55: real time    5.57

 eigenvalue-minimisations  :  1624
 total energy-change (2. order) : 0.2962247E-04  (-0.3429420E-05)
 number of electron       9.0000001 magnetization      -0.0005156
 augmentation part        0.4697692 magnetization      -0.0003100

 Free energy of the ion-electron system (eV)
  ---------------------------------------------------
  alpha Z        PSCENC =        54.17748121
  Ewald energy   TEWEN  =      -375.93454926
  -1/2 Hartree   DENC   =       -22.29866173
  -exchange  EXHF       =         0.00000000
  -V(xc)+E(xc)   XCENC  =       -51.03327378
  PAW double counting   =       274.40196036     -202.49781124
  entropy T*S    EENTRO =         0.00012768
  eigenvalues    EBANDS =        23.15825770
  atomic energy  EATOM  =       277.79342126
  ---------------------------------------------------
  free energy    TOTEN  =       -22.23304781 eV

  energy without entropy =      -22.23317549  energy(sigma->0) =      -22.23309037


--------------------------------------------------------------------------------------------------------




 average (electrostatic) potential at core
  the test charge radii are     0.6991  1.2538
  (the norm of the test charge is              1.0000)
       1 -46.2645       2 -33.6548
 
 
 
 E-fermi :   8.6151     XC(G=0): -13.0965     alpha+bet :-15.8307


 spin component 1

 k-point   1 :       0.0625    0.0625    0.0625
  band No.  band energies     occupation 
      1      -6.0047      1.00000
      2       6.8154      1.00000
      3       7.1653      1.00000
      4       7.1653      1.00000
      5       7.9274      1.00000
      6       7.9274      1.00000
      7       8.6743     -0.03519
      8      10.2986      0.00000
      9      10.2986      0.00000
     10      15.7541      0.00000
     11      19.1329      0.00000
     12      21.2099      0.00000

 k-point   2 :       0.1875    0.0625    0.0625
  band No.  band energies     occupation 
      1      -5.4586      1.00000
      2       5.2471      1.00000
      3       5.7054      1.00000
      4       5.8717      1.00000
      5       7.9001      1.00000
      6       8.8463      0.00000
      7       9.5043      0.00000
      8      11.4385      0.00000
      9      13.0057      0.00000
     10      16.7381      0.00000
     11      20.4796      0.00000
     12      21.2098      0.00000

 k-point   3 :       0.3125    0.0625    0.0625
  band No.  band energies     occupation 
      1      -4.2333      1.00000
      2       3.0293      1.00000
      3       4.2435      1.00000
      4       4.5579      1.00000
      5       9.0785      0.00000
      6       9.6741      0.00000
      7      10.4739      0.00000
      8      14.2216      0.00000
      9      15.9841      0.00000
     10      17.6603      0.00000
     11      21.2026      0.00000
     12      22.0969      0.00000

 k-point   4 :       0.4375    0.0625    0.0625
  band No.  band energies     occupation 
      1      -2.6638      1.00000
      2       1.0419      1.00000
      3       3.4403      1.00000
      4       3.6163      1.00000
      5      10.6286      0.00000
      6      10.8274      0.00000
      7      11.8035      0.00000
      8      15.9240      0.00000
      9      17.0412      0.00000
     10      18.4143      0.00000
     11      21.2004      0.00000
     12      22.4197      0.00000

 k-point   5 :      -0.4375    0.0625    0.0625
  band No.  band energies     occupation 
      1      -1.8424      1.00000
      2       0.1439      1.00000
      3       3.2866      1.00000
      4       3.3312      1.00000
      5      11.1582      0.00000
      6      11.5824      0.00000
      7      12.4433      0.00000
      8      14.7059      0.00000
      9      18.4505      0.00000
     10      18.8235      0.00000
     11      21.1967      0.00000
     12      21.4370      0.00000

 k-point   6 :      -0.3125    0.0625    0.0625
  band No.  band energies     occupation 
      1      -3.2074      1.00000
      2       1.6670      1.00000
      3       3.6422      1.00000
      4       3.9097      1.00000
      5       9.7140      0.00000
      6      10.8985      0.00000
      7      11.2555      0.00000
      8      16.2381      0.00000
      9      16.5549      0.00000
     10      17.8367      0.00000
     11      21.1987      0.00000
     12      22.4519      0.00000

 k-point   7 :      -0.1875    0.0625    0.0625
  band No.  band energies     occupation 
      1      -4.7067      1.00000
      2       3.6809      1.00000
      3       4.7138      1.00000
      4       5.1121      1.00000
      5       8.3625      1.00000
      6       9.5108      0.00000
      7      10.0850      0.00000
      8      13.4042      0.00000
      9      14.7504      0.00000
     10      17.6677      0.00000
     11      21.2058      0.00000
     12      21.7803      0.00000

 k-point   8 :      -0.0625    0.0625    0.0625
  band No.  band energies     occupation 
      1      -5.7295      1.00000
      2       5.7717      1.00000
      3       6.3604      1.00000
      4       6.6030      1.00000
      5       7.4373      1.00000
      6       8.7768     -0.00002
      7       9.3322      0.00000
      8      10.5336      0.00000
      9      12.0001      0.00000
     10      16.3434      0.00000
     11      19.8493      0.00000
     12      21.2099      0.00000

 k-point   9 :       0.1875    0.1875    0.0625
  band No.  band energies     occupation 
      1      -5.2293      1.00000
      2       4.2489      1.00000
      3       5.8434      1.00000
      4       6.2500      1.00000
      5       7.0480      1.00000
      6       9.5792      0.00000
      7      10.3594      0.00000
      8      11.0568      0.00000
      9      13.3816      0.00000
     10      17.5862      0.00000
     11      21.1225      0.00000
     12      21.2098      0.00000

 k-point  10 :       0.3125    0.1875    0.0625
  band No.  band energies     occupation 
      1      -4.3653      1.00000
      2       2.9270      1.00000
      3       4.7984      1.00000
      4       5.2776      1.00000
      5       7.5960      1.00000
      6      10.4933      0.00000
      7      11.3115      0.00000
      8      12.4743      0.00000
      9      15.2560      0.00000
     10      18.9372      0.00000
     11      21.2061      0.00000
     12      22.6448      0.00000

 k-point  11 :       0.4375    0.1875    0.0625
  band No.  band energies     occupation 
      1      -3.1757      1.00000
      2       1.7077      1.00000
      3       3.7684      1.00000
      4       4.3155      1.00000
      5       8.7291     -0.00293
      6      11.4995      0.00000
      7      12.1930      0.00000
      8      14.7909      0.00000
      9      16.5741      0.00000
     10      19.0207      0.00000
     11      21.1791      0.00000
     12      21.7007      0.00000

 k-point  12 :      -0.4375    0.1875    0.0625
  band No.  band energies     occupation 
      1      -2.2709      1.00000
      2       0.7963      1.00000
      3       3.5192      1.00000
      4       3.6989      1.00000
      5      10.2826      0.00000
      6      11.4077      0.00000
      7      12.3579      0.00000
      8      16.0715      0.00000
      9      17.3487      0.00000
     10      18.3004      0.00000
     11      21.1824      0.00000
     12      21.6151      0.00000

 k-point  13 :      -0.3125    0.1875    0.0625
  band No.  band energies     occupation 
      1      -2.6803      1.00000
      2       1.2004      1.00000
      3       3.5828      1.00000
      4       3.8449      1.00000
      5       9.9068      0.00000
      6      11.3565      0.00000
      7      12.0980      0.00000
      8      15.3079      0.00000
      9      16.8523      0.00000
     10      18.9393      0.00000
     11      21.1959      0.00000
     12      22.1907      0.00000

 k-point  14 :      -0.1875    0.1875    0.0625
  band No.  band energies     occupation 
      1      -3.8975      1.00000
      2       2.5526      1.00000
      3       4.1769      1.00000
      4       4.4527      1.00000
      5       8.6350      0.19107
      6      10.8585      0.00000
      7      11.4124      0.00000
      8      13.0081      0.00000
      9      16.7370      0.00000
     10      18.4161      0.00000
     11      21.2025      0.00000
     12      22.5387      0.00000

 k-point  15 :      -0.0625    0.1875    0.0625
  band No.  band energies     occupation 
      1      -4.9652      1.00000
      2       4.0272      1.00000
      3       5.1645      1.00000
      4       5.4452      1.00000
      5       7.8516      1.00000
      6       9.6269      0.00000
      7      10.2676      0.00000
      8      11.9398      0.00000
      9      14.3664      0.00000
     10      17.6562      0.00000
     11      21.2084      0.00000
     12      21.5469      0.00000

 k-point  16 :       0.3125    0.3125    0.0625
  band No.  band energies     occupation 
      1      -4.1091      1.00000
      2       2.5517      1.00000
      3       4.9686      1.00000
      4       6.1570      1.00000
      5       6.6218      1.00000
      6      10.7354      0.00000
      7      12.3574      0.00000
      8      12.5570      0.00000
      9      15.1456      0.00000
     10      20.3364      0.00000
     11      21.2029      0.00000
     12      22.4638      0.00000

 k-point  17 :       0.4375    0.3125    0.0625
  band No.  band energies     occupation 
      1      -3.6368      1.00000
      2       2.5423      1.00000
      3       4.2407      1.00000
      4       5.4648      1.00000
      5       7.4103      1.00000
      6      11.8391      0.00000
      7      12.7893      0.00000
      8      13.1383      0.00000
      9      16.3674      0.00000
     10      19.5814      0.00000
     11      20.6925      0.00000
     12      21.2242      0.00000

 k-point  18 :      -0.4375    0.3125    0.0625
  band No.  band energies     occupation 
      1      -3.0937      1.00000
      2       2.3313      1.00000
      3       3.7680      1.00000
      4       4.6219      1.00000
      5       8.5035      1.00352
      6      11.9330      0.00000
      7      12.6917      0.00000
      8      14.9204      0.00000
      9      16.3709      0.00000
     10      19.1555      0.00000
     11      20.6809      0.00000
     12      21.2281      0.00000

 k-point  19 :      -0.3125    0.3125    0.0625
  band No.  band energies     occupation 
      1      -2.6975      1.00000
      2       1.6979      1.00000
      3       3.7202      1.00000
      4       4.0139      1.00000
      5      10.2086      0.00000
      6      10.7914      0.00000
      7      12.4860      0.00000
      8      14.6123      0.00000
      9      17.3893      0.00000
     10      19.6650      0.00000
     11      21.1899      0.00000
     12      21.6522      0.00000

 k-point  20 :      -0.1875    0.3125    0.0625
  band No.  band energies     occupation 
      1      -2.9148      1.00000
      2       1.5716      1.00000
      3       3.7612      1.00000
      4       3.9081      1.00000
      5       9.6587      0.00000
      6      11.6735      0.00000
      7      12.0304      0.00000
      8      13.7841      0.00000
      9      17.4954      0.00000
     10      19.0663      0.00000
     11      21.1964      0.00000
     12      22.2368      0.00000

 k-point  21 :      -0.0625    0.3125    0.0625
  band No.  band energies     occupation 
      1      -3.6543      1.00000
      2       2.2142      1.00000
      3       3.9029      1.00000
      4       4.3300      1.00000
      5       8.9761      0.00000
      6      10.5665      0.00000
      7      11.3782      0.00000
      8      14.5811      0.00000
      9      16.7444      0.00000
     10      18.0939      0.00000
     11      21.1994      0.00000
     12      22.3256      0.00000

 k-point  22 :       0.4375    0.4375    0.0625
  band No.  band energies     occupation 
      1      -3.8751      1.00000
      2       3.3869      1.00000
      3       4.2744      1.00000
      4       6.5755      1.00000
      5       6.8954      1.00000
      6      11.5497      0.00000
      7      12.9871      0.00000
      8      13.0006      0.00000
      9      16.6106      0.00000
     10      17.4008      0.00000
     11      21.1756      0.00000
     12      21.2285      0.00000

 k-point  23 :      -0.4375    0.4375    0.0625
  band No.  band energies     occupation 
      1      -3.7304      1.00000
      2       3.8135      1.00000
      3       3.9774      1.00000
      4       5.6856      1.00000
      5       7.5769      1.00000
      6      12.5489      0.00000
      7      12.7594      0.00000
      8      12.9556      0.00000
      9      15.9243      0.00000
     10      17.9287      0.00000
     11      20.9722      0.00000
     12      21.2173      0.00000

 k-point  24 :      -0.3125    0.4375    0.0625
  band No.  band energies     occupation 
      1      -3.2026      1.00000
      2       2.7986      1.00000
      3       3.8126      1.00000
      4       4.7198      1.00000
      5       8.4390      1.00000
      6      11.8443      0.00000
      7      12.8283      0.00000
      8      14.8790      0.00000
      9      15.5101      0.00000
     10      19.6308      0.00000
     11      21.0336      0.00000
     12      21.2263      0.00000

 k-point  25 :      -0.1875    0.4375    0.0625
  band No.  band energies     occupation 
      1      -2.5154      1.00000
      2       1.2937      1.00000
      3       3.6567      1.00000
      4       3.8911      1.00000
      5      10.2374      0.00000
      6      10.9958      0.00000
      7      12.2971      0.00000
      8      15.8718      0.00000
      9      17.2227      0.00000
     10      18.5414      0.00000
     11      21.1854      0.00000
     12      21.7080      0.00000

 k-point  26 :      -0.0625    0.4375    0.0625
  band No.  band energies     occupation 
      1      -2.2637      1.00000
      2       0.6435      1.00000
      3       3.3972      1.00000
      4       3.5784      1.00000
      5      10.4484      0.00000
      6      11.4968      0.00000
      7      12.2442      0.00000
      8      15.6013      0.00000
      9      17.2226      0.00000
     10      18.8731      0.00000
     11      21.1960      0.00000
     12      21.8714      0.00000

 k-point  27 :      -0.4375   -0.4375    0.0625
  band No.  band energies     occupation 
      1      -3.9369      1.00000
      2       3.9958      1.00000
      3       4.1178      1.00000
      4       6.7417      1.00000
      5       7.0156      1.00000
      6      11.7635      0.00000
      7      12.8952      0.00000
      8      12.9479      0.00000
      9      16.0051      0.00000
     10      17.1901      0.00000
     11      20.9715      0.00000
     12      21.2163      0.00000

 k-point  28 :      -0.3125   -0.4375    0.0625
  band No.  band energies     occupation 
      1      -3.6580      1.00000
      2       3.2035      1.00000
      3       4.0524      1.00000
      4       5.6294      1.00000
      5       7.4986      1.00000
      6      12.2777      0.00000
      7      12.8563      0.00000
      8      13.0579      0.00000
      9      16.6976      0.00000
     10      17.9300      0.00000
     11      20.9680      0.00000
     12      21.2201      0.00000

 k-point  29 :      -0.1875   -0.4375    0.0625
  band No.  band energies     occupation 
      1      -3.0084      1.00000
      2       1.8040      1.00000
      3       3.7435      1.00000
      4       4.4467      1.00000
      5       8.5803      0.95838
      6      11.9780      0.00000
      7      12.5655      0.00000
      8      14.8663      0.00000
      9      16.6679      0.00000
     10      19.4342      0.00000
     11      20.4705      0.00000
     12      21.2322      0.00000

 k-point  30 :      -0.3125   -0.3125    0.0625
  band No.  band energies     occupation 
      1      -3.8716      1.00000
      2       2.7235      1.00000
      3       4.5711      1.00000
      4       6.3415      1.00000
      5       6.7188      1.00000
      6      11.1880      0.00000
      7      12.8746      0.00000
      8      12.9620      0.00000
      9      15.9076      0.00000
     10      19.4975      0.00000
     11      21.1923      0.00000
     12      21.2713      0.00000

 k-point  31 :      -0.1875   -0.3125    0.0625
  band No.  band energies     occupation 
      1      -3.8596      1.00000
      2       2.3826      1.00000
      3       4.4941      1.00000
      4       5.3091      1.00000
      5       7.4245      1.00000
      6      11.2437      0.00000
      7      12.2498      0.00000
      8      12.9578      0.00000
      9      15.8254      0.00000
     10      19.9826      0.00000
     11      21.1875      0.00000
     12      21.8571      0.00000

 k-point  32 :      -0.1875   -0.1875    0.0625
  band No.  band energies     occupation 
      1      -4.6226      1.00000
      2       3.0957      1.00000
      3       5.4040      1.00000
      4       6.1093      1.00000
      5       6.7248      1.00000
      6      10.2146      0.00000
      7      11.4461      0.00000
      8      11.8264      0.00000
      9      14.3512      0.00000
     10      19.1448      0.00000
     11      21.2083      0.00000
     12      22.7049      0.00000

 k-point  33 :       0.1875    0.1875    0.1875
  band No.  band energies     occupation 
      1      -5.1925      1.00000
      2       4.6391      1.00000
      3       5.3976      1.00000
      4       5.3976      1.00000
      5       8.5649      1.02566
      6       8.5649      1.02566
      7       9.4473      0.00000
      8      13.1467      0.00000
      9      13.1467      0.00000
     10      17.0144      0.00000
     11      20.9875      0.00000
     12      21.2109      0.00000

 k-point  34 :       0.3125    0.1875    0.1875
  band No.  band energies     occupation 
      1      -4.4833      1.00000
      2       3.4479      1.00000
      3       4.4314      1.00000
      4       4.7985      1.00000
      5       8.5265      1.01555
      6      10.0929      0.00000
      7      10.6034      0.00000
      8      12.5121      0.00000
      9      15.9013      0.00000
     10      17.8133      0.00000
     11      21.2064      0.00000
     12      22.1525      0.00000

 k-point  35 :       0.4375    0.1875    0.1875
  band No.  band energies     occupation 
      1      -3.3385      1.00000
      2       1.9581      1.00000
      3       3.7722      1.00000
      4       4.0834      1.00000
      5       9.4250      0.00000
      6      11.1077      0.00000
      7      11.8765      0.00000
      8      13.4451      0.00000
      9      17.5750      0.00000
     10      18.3050      0.00000
     11      21.2009      0.00000
     12      22.4539      0.00000

 k-point  36 :      -0.4375    0.1875    0.1875
  band No.  band energies     occupation 
      1      -2.4010      1.00000
      2       0.9768      1.00000
      3       3.6280      1.00000
      4       3.6736      1.00000
      5      10.8423      0.00000
      6      10.9896      0.00000
      7      11.8296      0.00000
      8      15.6341      0.00000
      9      17.4353      0.00000
     10      18.5439      0.00000
     11      21.1976      0.00000
     12      21.9783      0.00000

 k-point  37 :      -0.3125    0.1875    0.1875
  band No.  band energies     occupation 
      1      -2.6235      1.00000
      2       1.2515      1.00000
      3       3.5821      1.00000
      4       4.0581      1.00000
      5       9.2450      0.00000
      6      11.8814      0.00000
      7      12.5060      0.00000
      8      16.2700      0.00000
      9      16.2986      0.00000
     10      18.8861      0.00000
     11      20.8463      0.00000
     12      21.2494      0.00000

 k-point  38 :      -0.1875    0.1875    0.1875
  band No.  band energies     occupation 
      1      -3.6147      1.00000
      2       2.1438      1.00000
      3       4.1083      1.00000
      4       5.0035      1.00000
      5       7.7747      1.00000
      6      11.3860      0.00000
      7      12.1653      0.00000
      8      13.9300      0.00000
      9      16.1295      0.00000
     10      19.5037      0.00000
     11      21.1698      0.00000
     12      21.5912      0.00000

 k-point  39 :       0.3125    0.3125    0.1875
  band No.  band energies     occupation 
      1      -4.1137      1.00000
      2       2.6832      1.00000
      3       4.3300      1.00000
      4       4.9762      1.00000
      5       8.0318      1.00000
      6      10.5041      0.00000
      7      11.1573      0.00000
      8      13.7095      0.00000
      9      15.6919      0.00000
     10      18.6483      0.00000
     11      21.2024      0.00000
     12      22.3492      0.00000

 k-point  40 :       0.4375    0.3125    0.1875
  band No.  band energies     occupation 
      1      -3.4144      1.00000
      2       2.0355      1.00000
      3       4.0648      1.00000
      4       4.3714      1.00000
      5       8.5320      1.02022
      6      11.6628      0.00000
      7      12.1718      0.00000
      8      13.3835      0.00000
      9      16.7775      0.00000
     10      19.3706      0.00000
     11      21.1846      0.00000
     12      21.8070      0.00000

 k-point  41 :      -0.4375    0.3125    0.1875
  band No.  band energies     occupation 
      1      -2.8330      1.00000
      2       1.7744      1.00000
      3       3.7643      1.00000
      4       4.0165      1.00000
      5       9.6843      0.00000
      6      11.3705      0.00000
      7      12.5199      0.00000
      8      14.0812      0.00000
      9      17.3876      0.00000
     10      19.5691      0.00000
     11      21.1720      0.00000
     12      21.5922      0.00000

 k-point  42 :      -0.3125    0.3125    0.1875
  band No.  band energies     occupation 
      1      -2.7944      1.00000
      2       1.9050      1.00000
      3       3.7037      1.00000
      4       4.1412      1.00000
      5       9.7334      0.00000
      6      10.9727      0.00000
      7      12.6533      0.00000
      8      15.6335      0.00000
      9      16.1179      0.00000
     10      19.5666      0.00000
     11      21.1631      0.00000
     12      21.4960      0.00000

 k-point  43 :      -0.1875    0.3125    0.1875
  band No.  band energies     occupation 
      1      -3.2339      1.00000
      2       2.1841      1.00000
      3       3.9332      1.00000
      4       4.5148      1.00000
      5       8.4880      1.00096
      6      12.0604      0.00000
      7      12.6357      0.00000
      8      13.5264      0.00000
      9      16.9294      0.00000
     10      19.7882      0.00000
     11      20.5568      0.00000
     12      21.2322      0.00000

 k-point  44 :       0.4375    0.4375    0.1875
  band No.  band energies     occupation 
      1      -3.4056      1.00000
      2       2.2670      1.00000
      3       3.9727      1.00000
      4       5.1566      1.00000
      5       7.6510      1.00000
      6      12.0303      0.00000
      7      12.7123      0.00000
      8      13.9529      0.00000
      9      16.4995      0.00000
     10      19.6597      0.00000
     11      20.1873      0.00000
     12      21.2239      0.00000

 k-point  45 :      -0.4375    0.4375    0.1875
  band No.  band energies     occupation 
      1      -3.3002      1.00000
      2       2.8344      1.00000
      3       3.8425      1.00000
      4       4.6385      1.00000
      5       8.5276      1.01643
      6      11.9884      0.00000
      7      12.8633      0.00000
      8      13.6001      0.00000
      9      16.5571      0.00000
     10      19.2136      0.00000
     11      20.9455      0.00000
     12      21.2289      0.00000

 k-point  46 :      -0.3125    0.4375    0.1875
  band No.  band energies     occupation 
      1      -3.1214      1.00000
      2       3.1142      1.00000
      3       3.7416      1.00000
      4       4.0321      1.00000
      5       9.7637      0.00000
      6      10.9569      0.00000
      7      12.9338      0.00000
      8      14.0661      0.00000
      9      15.4397      0.00000
     10      21.0570      0.00000
     11      21.2917      0.00000
     12      21.7556      0.00000

 k-point  47 :      -0.1875    0.4375    0.1875
  band No.  band energies     occupation 
      1      -2.9837      1.00000
      2       2.4255      1.00000
      3       3.7362      1.00000
      4       4.1640      1.00000
      5       9.7215      0.00000
      6      10.9637      0.00000
      7      12.8442      0.00000
      8      14.2594      0.00000
      9      16.3006      0.00000
     10      20.4476      0.00000
     11      21.1724      0.00000
     12      21.4846      0.00000

 k-point  48 :      -0.4375   -0.4375    0.1875
  band No.  band energies     occupation 
      1      -3.5275      1.00000
      2       3.3479      1.00000
      3       3.9163      1.00000
      4       5.5030      1.00000
      5       7.5317      1.00000
      6      12.3847      0.00000
      7      12.8843      0.00000
      8      13.8630      0.00000
      9      15.7404      0.00000
     10      18.4776      0.00000
     11      20.9091      0.00000
     12      21.2181      0.00000

 k-point  49 :      -0.3125   -0.4375    0.1875
  band No.  band energies     occupation 
      1      -3.3975      1.00000
      2       3.4928      1.00000
      3       3.8375      1.00000
      4       4.5543      1.00000
      5       8.5790      0.96747
      6      11.9562      0.00000
      7      12.9315      0.00000
      8      13.5808      0.00000
      9      15.6885      0.00000
     10      19.4542      0.00000
     11      21.1853      0.00000
     12      21.2339      0.00000

 k-point  50 :      -0.3125   -0.3125    0.1875
  band No.  band energies     occupation 
      1      -3.4445      1.00000
      2       2.8514      1.00000
      3       3.9001      1.00000
      4       5.3584      1.00000
      5       7.5977      1.00000
      6      12.3436      0.00000
      7      12.8096      0.00000
      8      13.8780      0.00000
      9      16.5733      0.00000
     10      18.3696      0.00000
     11      20.6801      0.00000
     12      21.2201      0.00000

 k-point  51 :       0.3125    0.3125    0.3125
  band No.  band energies     occupation 
      1      -3.7735      1.00000
      2       2.3932      1.00000
      3       4.0290      1.00000
      4       4.0290      1.00000
      5       9.9579      0.00000
      6       9.9579      0.00000
      7      10.3548      0.00000
      8      16.1186      0.00000
      9      16.1186      0.00000
     10      17.2939      0.00000
     11      21.1993      0.00000
     12      22.2182      0.00000

 k-point  52 :       0.4375    0.3125    0.3125
  band No.  band energies     occupation 
      1      -3.1005      1.00000
      2       1.5975      1.00000
      3       3.6247      1.00000
      4       3.9507      1.00000
      5       9.8941      0.00000
[...]
      5       8.0316      1.00000
      6      10.5038      0.00000
      7      11.1571      0.00000
      8      13.7099      0.00000
      9      15.6924      0.00000
     10      18.6487      0.00000
     11      21.2022      0.00000
     12      22.3486      0.00000

 k-point  40 :       0.4375    0.3125    0.1875
  band No.  band energies     occupation 
      1      -3.4137      1.00000
      2       2.0358      1.00000
      3       4.0650      1.00000
      4       4.3717      1.00000
      5       8.5319      1.02012
      6      11.6625      0.00000
      7      12.1715      0.00000
      8      13.3837      0.00000
      9      16.7779      0.00000
     10      19.3712      0.00000
     11      21.1845      0.00000
     12      21.8073      0.00000

 k-point  41 :      -0.4375    0.3125    0.1875
  band No.  band energies     occupation 
      1      -2.8322      1.00000
      2       1.7746      1.00000
      3       3.7645      1.00000
      4       4.0169      1.00000
      5       9.6842      0.00000
      6      11.3701      0.00000
      7      12.5195      0.00000
      8      14.0815      0.00000
      9      17.3881      0.00000
     10      19.5694      0.00000
     11      21.1721      0.00000
     12      21.5926      0.00000

 k-point  42 :      -0.3125    0.3125    0.1875
  band No.  band energies     occupation 
      1      -2.7936      1.00000
      2       1.9052      1.00000
      3       3.7040      1.00000
      4       4.1415      1.00000
      5       9.7332      0.00000
      6      10.9723      0.00000
      7      12.6527      0.00000
      8      15.6340      0.00000
      9      16.1184      0.00000
     10      19.5665      0.00000
     11      21.1633      0.00000
     12      21.4963      0.00000

 k-point  43 :      -0.1875    0.3125    0.1875
  band No.  band energies     occupation 
      1      -3.2332      1.00000
      2       2.1844      1.00000
      3       3.9333      1.00000
      4       4.5152      1.00000
      5       8.4880      1.00096
      6      12.0599      0.00000
      7      12.6352      0.00000
      8      13.5266      0.00000
      9      16.9299      0.00000
     10      19.7887      0.00000
     11      20.5573      0.00000
     12      21.2319      0.00000

 k-point  44 :       0.4375    0.4375    0.1875
  band No.  band energies     occupation 
      1      -3.4050      1.00000
      2       2.2673      1.00000
      3       3.9728      1.00000
      4       5.1570      1.00000
      5       7.6511      1.00000
      6      12.0298      0.00000
      7      12.7117      0.00000
      8      13.9532      0.00000
      9      16.5001      0.00000
     10      19.6601      0.00000
     11      20.1876      0.00000
     12      21.2236      0.00000

 k-point  45 :      -0.4375    0.4375    0.1875
  band No.  band energies     occupation 
      1      -3.2995      1.00000
      2       2.8347      1.00000
      3       3.8425      1.00000
      4       4.6389      1.00000
      5       8.5278      1.01657
      6      11.9879      0.00000
      7      12.8627      0.00000
      8      13.6004      0.00000
      9      16.5576      0.00000
     10      19.2139      0.00000
     11      20.9457      0.00000
     12      21.2286      0.00000

 k-point  46 :      -0.3125    0.4375    0.1875
  band No.  band energies     occupation 
      1      -3.1207      1.00000
      2       3.1144      1.00000
      3       3.7418      1.00000
      4       4.0325      1.00000
      5       9.7637      0.00000
      6      10.9567      0.00000
      7      12.9331      0.00000
      8      14.0663      0.00000
      9      15.4403      0.00000
     10      21.0577      0.00000
     11      21.2914      0.00000
     12      21.7555      0.00000

 k-point  47 :      -0.1875    0.4375    0.1875
  band No.  band energies     occupation 
      1      -2.9830      1.00000
      2       2.4258      1.00000
      3       3.7364      1.00000
      4       4.1644      1.00000
      5       9.7215      0.00000
      6      10.9634      0.00000
      7      12.8436      0.00000
      8      14.2596      0.00000
      9      16.3011      0.00000
     10      20.4476      0.00000
     11      21.1724      0.00000
     12      21.4849      0.00000

 k-point  48 :      -0.4375   -0.4375    0.1875
  band No.  band energies     occupation 
      1      -3.5269      1.00000
      2       3.3480      1.00000
      3       3.9167      1.00000
      4       5.5035      1.00000
      5       7.5319      1.00000
      6      12.3840      0.00000
      7      12.8837      0.00000
      8      13.8633      0.00000
      9      15.7407      0.00000
     10      18.4782      0.00000
     11      20.9090      0.00000
     12      21.2179      0.00000

 k-point  49 :      -0.3125   -0.4375    0.1875
  band No.  band energies     occupation 
      1      -3.3968      1.00000
      2       3.4930      1.00000
      3       3.8378      1.00000
      4       4.5548      1.00000
      5       8.5793      0.96573
      6      11.9558      0.00000
      7      12.9308      0.00000
      8      13.5809      0.00000
      9      15.6889      0.00000
     10      19.4549      0.00000
     11      21.1851      0.00000
     12      21.2336      0.00000

 k-point  50 :      -0.3125   -0.3125    0.1875
  band No.  band energies     occupation 
      1      -3.4438      1.00000
      2       2.8516      1.00000
      3       3.9003      1.00000
      4       5.3589      1.00000
      5       7.5979      1.00000
      6      12.3429      0.00000
      7      12.8090      0.00000
      8      13.8783      0.00000
      9      16.5739      0.00000
     10      18.3699      0.00000
     11      20.6803      0.00000
     12      21.2198      0.00000

 k-point  51 :       0.3125    0.3125    0.3125
  band No.  band energies     occupation 
      1      -3.7729      1.00000
      2       2.3935      1.00000
      3       4.0293      1.00000
      4       4.0293      1.00000
      5       9.9575      0.00000
      6       9.9575      0.00000
      7      10.3546      0.00000
      8      16.1193      0.00000
      9      16.1193      0.00000
     10      17.2939      0.00000
     11      21.1991      0.00000
     12      22.2177      0.00000

 k-point  52 :       0.4375    0.3125    0.3125
  band No.  band energies     occupation 
      1      -3.0998      1.00000
      2       1.5978      1.00000
      3       3.6250      1.00000
      4       3.9509      1.00000
      5       9.8937      0.00000
      6      10.5802      0.00000
      7      11.9198      0.00000
      8      15.0277      0.00000
      9      17.0124      0.00000
     10      18.3491      0.00000
     11      21.1997      0.00000
     12      22.5620      0.00000

 k-point  53 :      -0.4375    0.3125    0.3125
  band No.  band energies     occupation 
      1      -2.6203      1.00000
      2       1.3611      1.00000
      3       3.7553      1.00000
      4       3.7627      1.00000
      5      10.4804      0.00000
      6      11.1091      0.00000
      7      12.0298      0.00000
      8      14.2153      0.00000
      9      18.4127      0.00000
     10      18.5901      0.00000
     11      21.1979      0.00000
     12      21.7881      0.00000

 k-point  54 :      -0.3125    0.3125    0.3125
  band No.  band energies     occupation 
      1      -2.8985      1.00000
      2       2.1199      1.00000
      3       3.7495      1.00000
      4       4.3761      1.00000
      5       9.0686      0.00000
      6      11.5351      0.00000
      7      12.6118      0.00000
      8      15.0690      0.00000
      9      16.4815      0.00000
     10      19.8331      0.00000
     11      21.0924      0.00000
     12      21.2510      0.00000

 k-point  55 :       0.4375    0.4375    0.3125
  band No.  band energies     occupation 
      1      -2.7451      1.00000
      2       1.1840      1.00000
      3       3.5263      1.00000
      4       3.9260      1.00000
      5       9.4242      0.00000
      6      11.6178      0.00000
      7      12.2154      0.00000
      8      16.0658      0.00000
      9      16.2778      0.00000
     10      18.8390      0.00000
     11      21.1844      0.00000
     12      21.7544      0.00000

 k-point  56 :      -0.4375    0.4375    0.3125
  band No.  band energies     occupation 
      1      -2.6174      1.00000
      2       1.3590      1.00000
      3       3.6472      1.00000
      4       3.9544      1.00000
      5       9.7900      0.00000
      6      11.3607      0.00000
      7      12.3769      0.00000
      8      15.4976      0.00000
      9      17.0020      0.00000
     10      18.9149      0.00000
     11      21.1716      0.00000
     12      21.5808      0.00000

 k-point  57 :      -0.3125    0.4375    0.3125
  band No.  band energies     occupation 
      1      -2.9448      1.00000
      2       2.3899      1.00000
      3       3.7358      1.00000
      4       4.2083      1.00000
      5       9.6907      0.00000
      6      10.8990      0.00000
      7      12.8206      0.00000
      8      14.7869      0.00000
      9      15.8840      0.00000
     10      20.7529      0.00000
     11      21.1889      0.00000
     12      21.5652      0.00000

 k-point  58 :      -0.4375   -0.4375    0.3125
  band No.  band energies     occupation 
      1      -2.7613      1.00000
      2       1.7151      1.00000
      3       3.6884      1.00000
      4       4.2419      1.00000
      5       9.1480      0.00000
      6      11.7403      0.00000
      7      12.4176      0.00000
      8      16.1257      0.00000
      9      16.3916      0.00000
     10      18.8153      0.00000
     11      20.9398      0.00000
     12      21.2532      0.00000

 k-point  59 :       0.4375    0.4375    0.4375
  band No.  band energies     occupation 
      1      -2.1420      1.00000
      2       0.4476      1.00000
      3       3.3261      1.00000
      4       3.3261      1.00000
      5      11.3078      0.00000
      6      11.3078      0.00000
      7      11.9342      0.00000
      8      15.0195      0.00000
      9      18.4570      0.00000
     10      18.4570      0.00000
     11      21.2070      0.00000
     12      21.8002      0.00000

 k-point  60 :      -0.4375    0.4375    0.4375
  band No.  band energies     occupation 
      1      -2.0440      1.00000
      2       0.4429      1.00000
      3       3.4514      1.00000
      4       3.4660      1.00000
      5      10.9703      0.00000
      6      11.3341      0.00000
      7      12.1475      0.00000
      8      15.6298      0.00000
      9      17.7713      0.00000
     10      18.4795      0.00000
     11      21.1960      0.00000
     12      21.7054      0.00000


--------------------------------------------------------------------------------------------------------


 soft charge-density along one line, spin component           1
         0         1         2         3         4         5         6         7         8         9
 total charge-density along one line
 
 soft charge-density along one line, spin component           2
         0         1         2         3         4         5         6         7         8         9
 total charge-density along one line
 
 pseudopotential strength for first ion, spin component:           1
  9.496  -0.003   0.000   0.000   0.000   0.000   0.000   0.000
 -0.003  -0.002   0.000   0.000   0.000   0.000   0.000   0.000
  0.000   0.000  -3.707   0.000   0.000  -0.008   0.000   0.000
  0.000   0.000   0.000  -3.707   0.000   0.000  -0.008   0.000
  0.000   0.000   0.000   0.000  -3.707   0.000   0.000  -0.008
  0.000   0.000  -0.008   0.000   0.000  -0.758   0.000   0.000
  0.000   0.000   0.000  -0.008   0.000   0.000  -0.758   0.000
  0.000   0.000   0.000   0.000  -0.008   0.000   0.000  -0.758
 pseudopotential strength for first ion, spin component:           2
  9.496  -0.003   0.000   0.000   0.000   0.000   0.000   0.000
 -0.003  -0.002   0.000   0.000   0.000   0.000   0.000   0.000
  0.000   0.000  -3.707   0.000   0.000  -0.008   0.000   0.000
  0.000   0.000   0.000  -3.707   0.000   0.000  -0.008   0.000
  0.000   0.000   0.000   0.000  -3.707   0.000   0.000  -0.008
  0.000   0.000  -0.008   0.000   0.000  -0.758   0.000   0.000
  0.000   0.000   0.000  -0.008   0.000   0.000  -0.758   0.000
  0.000   0.000   0.000   0.000  -0.008   0.000   0.000  -0.758
 total augmentation occupancy for first ion, spin component:           1
  1.524  -0.840   0.000   0.000   0.000   0.000   0.000   0.000
 -0.840   0.528   0.000   0.000   0.000   0.000   0.000   0.000
  0.000   0.000   1.038   0.000   0.000   0.132   0.000   0.000
  0.000   0.000   0.000   1.038   0.000   0.000   0.132   0.000
  0.000   0.000   0.000   0.000   1.038   0.000   0.000   0.132
  0.000   0.000   0.132   0.000   0.000   0.018   0.000   0.000
  0.000   0.000   0.000   0.132   0.000   0.000   0.018   0.000
  0.000   0.000   0.000   0.000   0.132   0.000   0.000   0.018
 total augmentation occupancy for first ion, spin component:           2
  0.000   0.000   0.000   0.000   0.000   0.000   0.000   0.000
  0.000   0.000   0.000   0.000   0.000   0.000   0.000   0.000
  0.000   0.000   0.000   0.000   0.000   0.000   0.000   0.000
  0.000   0.000   0.000   0.000   0.000   0.000   0.000   0.000
  0.000   0.000   0.000   0.000   0.000   0.000   0.000   0.000
  0.000   0.000   0.000   0.000   0.000   0.000   0.000   0.000
  0.000   0.000   0.000   0.000   0.000   0.000   0.000   0.000
  0.000   0.000   0.000   0.000   0.000   0.000   0.000   0.000


------------------------ aborting loop because EDIFF is reached ----------------------------------------


 


 total charge     
 
# of ion     s       p       d       tot
----------------------------------------
  1        0.870   1.596   0.000   2.466
  2        0.602   1.028   3.603   5.233
------------------------------------------------
tot        1.472   2.624   3.603   7.699
 


 magnetization (x)
 
# of ion     s       p       d       tot
----------------------------------------
  1        0.000   0.000   0.000   0.000
  2        0.000   0.000   0.000   0.000
------------------------------------------------
tot        0.000   0.000   0.000   0.000
 
    CHARGE:  cpu time    0.51: real time    0.51
    FORLOC:  cpu time    0.01: real time    0.01
    FORNL :  cpu time    0.87: real time    0.87
    STRESS:  cpu time    1.59: real time    1.59
    FORCOR:  cpu time    0.39: real time    0.39
    FORHAR:  cpu time    0.05: real time    0.05
    MIXING:  cpu time    0.01: real time    0.01

  FORCE on cell =-STRESS in cart. coord.  units (eV):
  Direction    XX          YY          ZZ          XY          YZ          ZX
  --------------------------------------------------------------------------------------
  Alpha Z    54.17748    54.17748    54.17748
  Ewald    -125.31156  -125.31156  -125.31156     0.00000     0.00000     0.00000
  Hartree     7.43218     7.43218     7.43218     0.00000     0.00000     0.00000
  E(xc)     -38.09703   -38.09703   -38.09703     0.00000     0.00000     0.00000
  Local     -13.42452   -13.42452   -13.42452     0.00000     0.00000     0.00000
  n-local    -5.34237    -8.59238    -1.78398     0.79894    -0.85432    -0.01209
  augment     2.60489     2.60489     2.60489     0.00000     0.00000     0.00000
  Kinetic   122.16859   125.25920   110.05369     3.72416    -4.24212     0.00333
  Fock        0.00000     0.00000     0.00000     0.00000     0.00000     0.00000
  -------------------------------------------------------------------------------------
  Total       1.30236     1.30236     1.30236     0.00000     0.00000     0.00000
  in kB      95.68018    95.68018    95.68018     0.00000     0.00000     0.00000
  external pressure =       95.68 kB  Pullay stress =        0.00 kB


 VOLUME and BASIS-vectors are now :
 -----------------------------------------------------------------------------
  energy-cutoff  :      450.00
  volume of cell :       21.81
      direct lattice vectors                 reciprocal lattice vectors
     0.000000000  2.217500000  2.217500000    -0.225479143  0.225479143  0.225479143
     2.217500000  0.000000000  2.217500000     0.225479143 -0.225479143  0.225479143
     2.217500000  2.217500000  0.000000000     0.225479143  0.225479143 -0.225479143

  length of vectors
     3.136018575  3.136018575  3.136018575     0.390541332  0.390541332  0.390541332


 FORCES acting on ions
    electron-ion (+dipol)            ewald-force                    non-local-force                 convergence-correction
 -----------------------------------------------------------------------------------------------
   -.327E-13 -.207E-12 0.903E-13   0.134E-14 0.838E-15 0.102E-14   0.000E+00 0.103E-24 0.517E-25   -.377E-14 -.206E-14 -.429E-14
   -.200E-14 -.315E-14 -.276E-14   -.138E-14 -.119E-14 -.119E-14   0.000E+00 0.000E+00 -.310E-24   0.400E-15 0.603E-15 0.156E-15
 -----------------------------------------------------------------------------------------------
   -.347E-13 -.210E-12 0.875E-13   -.355E-16 -.349E-15 -.163E-15   0.000E+00 0.103E-24 -.258E-24   -.337E-14 -.146E-14 -.413E-14
 
 
 POSITION                                       TOTAL-FORCE (eV/Angst)
 -----------------------------------------------------------------------------------
      2.21750      2.21750      2.21750         0.000000      0.000000      0.000000
      0.00000      0.00000      0.00000         0.000000      0.000000      0.000000
 -----------------------------------------------------------------------------------
    total drift:                                0.000000      0.000000      0.000000


--------------------------------------------------------------------------------------------------------



  FREE ENERGIE OF THE ION-ELECTRON SYSTEM (eV)
  ---------------------------------------------------
  free  energy   TOTEN  =       -22.233048 eV

  energy  without entropy=      -22.233175  energy(sigma->0) =      -22.233090
 


--------------------------------------------------------------------------------------------------------


    POTLOK:  cpu time    0.53: real time    0.53


--------------------------------------------------------------------------------------------------------


 writing wavefunctions
     LOOP+:  cpu time   97.29: real time   97.64
    4ORBIT:  cpu time    0.00: real time    0.00
 


 total charge     
 
# of ion     s       p       d       tot
----------------------------------------
  1        0.870   1.596   0.000   2.466
  2        0.602   1.028   3.603   5.233
------------------------------------------------
tot        1.472   2.624   3.603   7.699
 


 magnetization (x)
 
# of ion     s       p       d       tot
----------------------------------------
  1        0.000   0.000   0.000   0.000
  2        0.000   0.000   0.000   0.000
------------------------------------------------
tot        0.000   0.000   0.000   0.000
 

 total amount of memory used by VASP on root node    64816. kBytes
========================================================================

   base      :      30000. kBytes
   nonl-proj :       8569. kBytes
   fftplans  :       3916. kBytes
   grid      :      10266. kBytes
   one-center:         62. kBytes
   wavefun   :      12003. kBytes
 
  
  
 General timing and accounting informations for this job:
 ========================================================
  
                  Total CPU time used (sec):       98.675
                            User time (sec):       98.437
                          System time (sec):        0.238
                         Elapsed time (sec):       99.099
  
                   Maximum memory used (kb):           0.
                   Average memory used (kb):           0.
  
                          Minor page faults:        20424
                          Major page faults:            0
                 Voluntary context switches:         5417
