PROCAR lm decomposed
# of k-points:   60         # of bands:  12         # of ions:   2

 k-point    1 :    0.06250000 0.06250000 0.06250000     weight = 0.00390625

band   1 # energy   -6.00471565 # occ.  1.00000000
 
ion      s     py     pz     px    dxy    dyz    dz2    dxz    dx2    tot
  1  0.317  0.000  0.000  0.000  0.000  0.000  0.000  0.000  0.000  0.318
  2  0.451  0.002  0.002  0.002  0.000  0.000  0.000  0.000  0.000  0.459
tot  0.768  0.003  0.003  0.003  0.000  0.000  0.000  0.000  0.000  0.776
 
band   2 # energy    6.81535722 # occ.  1.00000000
 
ion      s     py     pz     px    dxy    dyz    dz2    dxz    dx2    tot
  1  0.005  0.049  0.049  0.049  0.000  0.000  0.000  0.000  0.000  0.151
  2  0.004  0.012  0.012  0.012  0.221  0.221  0.000  0.221  0.000  0.704
tot  0.008  0.061  0.061  0.061  0.221  0.221  0.000  0.221  0.000  0.855
 
band   3 # energy    7.16525013 # occ.  1.00000000
 
ion      s     py     pz     px    dxy    dyz    dz2    dxz    dx2    tot
  1  0.000  0.056  0.014  0.104  0.000  0.000  0.000  0.000  0.000  0.175
  2  0.000  0.009  0.002  0.017  0.045  0.324  0.013  0.175  0.093  0.677
tot  0.000  0.065  0.017  0.121  0.045  0.324  0.013  0.175  0.093  0.852
 
band   4 # energy    7.16525013 # occ.  1.00000000
 
ion      s     py     pz     px    dxy    dyz    dz2    dxz    dx2    tot
  1  0.000  0.060  0.102  0.012  0.000  0.000  0.000  0.000  0.000  0.175
  2  0.000  0.010  0.017  0.002  0.317  0.038  0.093  0.187  0.013  0.677
tot  0.000  0.070  0.119  0.014  0.317  0.038  0.093  0.187  0.013  0.852
 
band   5 # energy    7.92744499 # occ.  1.00000000
 
ion      s     py     pz     px    dxy    dyz    dz2    dxz    dx2    tot
  1  0.000  0.065  0.017  0.121  0.000  0.000  0.000  0.000  0.000  0.203
  2  0.000  0.006  0.002  0.012  0.032  0.234  0.027  0.126  0.194  0.632
tot  0.000  0.071  0.018  0.133  0.032  0.234  0.027  0.126  0.194  0.835
 
band   6 # energy    7.92744499 # occ.  1.00000000
 
ion      s     py     pz     px    dxy    dyz    dz2    dxz    dx2    tot
  1  0.000  0.070  0.119  0.014  0.000  0.000  0.000  0.000  0.000  0.203
  2  0.000  0.007  0.011  0.001  0.229  0.028  0.194  0.135  0.027  0.632
tot  0.000  0.077  0.130  0.016  0.229  0.028  0.194  0.135  0.027  0.835
 
band   7 # energy    8.67432311 # occ. -0.03519030
 
ion      s     py     pz     px    dxy    dyz    dz2    dxz    dx2    tot
  1  0.013  0.123  0.123  0.123  0.000  0.000  0.000  0.000  0.000  0.382
  2  0.011  0.014  0.014  0.014  0.090  0.090  0.000  0.090  0.000  0.324
tot  0.025  0.137  0.137  0.137  0.090  0.090  0.000  0.090  0.000  0.705
 
band   8 # energy   10.29861787 # occ.  0.00000000
 
ion      s     py     pz     px    dxy    dyz    dz2    dxz    dx2    tot
  1  0.000  0.053  0.014  0.098  0.000  0.000  0.000  0.000  0.000  0.165
  2  0.000  0.012  0.003  0.022  0.000  0.003  0.081  0.002  0.577  0.699
tot  0.000  0.065  0.016  0.120  0.000  0.003  0.081  0.002  0.577  0.864
 
band   9 # energy   10.29861787 # occ.  0.00000000
 
ion      s     py     pz     px    dxy    dyz    dz2    dxz    dx2    tot
  1  0.000  0.057  0.096  0.012  0.000  0.000  0.000  0.000  0.000  0.165
  2  0.000  0.013  0.021  0.003  0.003  0.000  0.577  0.002  0.081  0.699
tot  0.000  0.069  0.117  0.014  0.003  0.000  0.577  0.002  0.081  0.864
 
band  10 # energy   15.75411149 # occ.  0.00000000
 
ion      s     py     pz     px    dxy    dyz    dz2    dxz    dx2    tot
  1  0.398  0.010  0.010  0.010  0.000  0.000  0.000  0.000  0.000  0.428
  2  0.264  0.003  0.003  0.003  0.000  0.000  0.000  0.000  0.000  0.273
tot  0.662  0.013  0.013  0.013  0.000  0.000  0.000  0.000  0.000  0.701
 
band  11 # energy   19.13292373 # occ.  0.00000000
 
ion      s     py     pz     px    dxy    dyz    dz2    dxz    dx2    tot
  1  0.000  0.000  0.000  0.000  0.000  0.000  0.000  0.000  0.000  0.000
  2  0.000  0.000  0.000  0.000  0.005  0.005  0.000  0.005  0.000  0.015
tot  0.000  0.000  0.000  0.000  0.005  0.005  0.000  0.005  0.000  0.015
 
band  12 # energy   21.20989476 # occ.  0.00000000
 
ion      s     py     pz     px    dxy    dyz    dz2    dxz    dx2    tot
  1  0.000  0.000  0.000  0.000  0.000  0.000  0.000  0.000  0.000  0.000
  2 43.976  0.000  0.000  0.000  0.000  0.000  0.000  0.000  0.000 43.976
tot 43.976  0.000  0.000  0.000  0.000  0.000  0.000  0.000  0.000 43.976
 

 k-point    2 :    0.18750000 0.06250000 0.06250000     weight = 0.01171875

band   1 # energy   -5.45858848 # occ.  1.00000000
 
ion      s     py     pz     px    dxy    dyz    dz2    dxz    dx2    tot
  1  0.324  0.002  0.002  0.000  0.000  0.000  0.000  0.000  0.000  0.328
  2  0.412  0.020  0.020  0.002  0.000  0.001  0.000  0.000  0.001  0.457
tot  0.736  0.022  0.022  0.003  0.000  0.001  0.000  0.000  0.001  0.785
 
band   2 # energy    5.24708404 # occ.  1.00000000
 
ion      s     py     pz     px    dxy    dyz    dz2    dxz    dx2    tot
  1  0.036  0.111  0.111  0.011  0.000  0.000  0.000  0.000  0.000  0.269
  2  0.034  0.022  0.022  0.009  0.056  0.227  0.029  0.056  0.086  0.540
tot  0.070  0.132  0.132  0.020  0.056  0.227  0.029  0.056  0.086  0.809
 
band   3 # energy    5.70536443 # occ.  1.00000000
 
ion      s     py     pz     px    dxy    dyz    dz2    dxz    dx2    tot
  1  0.000  0.149  0.149  0.000  0.000  0.000  0.000  0.000  0.000  0.299
  2  0.000  0.007  0.007  0.000  0.015  0.000  0.370  0.015  0.123  0.538
tot  0.000  0.156  0.156  0.000  0.015  0.000  0.370  0.015  0.123  0.837
 
band   4 # energy    5.87169565 # occ.  1.00000000
 
ion      s     py     pz     px    dxy    dyz    dz2    dxz    dx2    tot
  1  0.000  0.015  0.015  0.167  0.000  0.000  0.000  0.000  0.000  0.197
  2  0.001  0.001  0.001  0.056  0.231  0.029  0.025  0.231  0.075  0.649
tot  0.001  0.016  0.016  0.223  0.231  0.029  0.025  0.231  0.075  0.846
 
band   5 # energy    7.90011826 # occ.  1.00000000
 
ion      s     py     pz     px    dxy    dyz    dz2    dxz    dx2    tot
  1  0.000  0.003  0.003  0.000  0.000  0.000  0.000  0.000  0.000  0.007
  2  0.000  0.000  0.000  0.000  0.451  0.000  0.017  0.451  0.006  0.924
tot  0.000  0.004  0.004  0.000  0.451  0.000  0.017  0.451  0.006  0.931
 
band   6 # energy    8.84625964 # occ.  0.00000000
 
ion      s     py     pz     px    dxy    dyz    dz2    dxz    dx2    tot
  1  0.000  0.011  0.011  0.044  0.000  0.000  0.000  0.000  0.000  0.067
  2  0.001  0.001  0.001  0.002  0.046  0.493  0.063  0.046  0.189  0.841
tot  0.001  0.012  0.012  0.046  0.046  0.493  0.063  0.046  0.189  0.907
 
band   7 # energy    9.50433094 # occ.  0.00000000
 
ion      s     py     pz     px    dxy    dyz    dz2    dxz    dx2    tot
  1  0.025  0.027  0.027  0.236  0.000  0.000  0.000  0.000  0.000  0.315
  2  0.025  0.000  0.000  0.021  0.111  0.139  0.000  0.111  0.001  0.410
tot  0.050  0.028  0.028  0.257  0.111  0.139  0.000  0.111  0.001  0.725
 
band   8 # energy   11.43854584 # occ.  0.00000000
 
ion      s     py     pz     px    dxy    dyz    dz2    dxz    dx2    tot
  1  0.029  0.047  0.047  0.081  0.000  0.000  0.000  0.000  0.000  0.205
  2  0.023  0.010  0.010  0.018  0.005  0.040  0.129  0.005  0.387  0.626
tot  0.052  0.057  0.057  0.099  0.005  0.040  0.129  0.005  0.387  0.830
 
band   9 # energy   13.00571181 # occ.  0.00000000
 
ion      s     py     pz     px    dxy    dyz    dz2    dxz    dx2    tot
  1  0.000  0.125  0.125  0.000  0.000  0.000  0.000  0.000  0.000  0.251
  2  0.000  0.035  0.035  0.000  0.001  0.000  0.367  0.001  0.122  0.560
tot  0.000  0.160  0.160  0.000  0.001  0.000  0.367  0.001  0.122  0.811
 
band  10 # energy   16.73811272 # occ.  0.00000000
 
ion      s     py     pz     px    dxy    dyz    dz2    dxz    dx2    tot
  1  0.299  0.072  0.072  0.006  0.000  0.000  0.000  0.000  0.000  0.449
  2  0.188  0.027  0.027  0.003  0.000  0.004  0.001  0.000  0.004  0.256
tot  0.488  0.100  0.100  0.008  0.000  0.004  0.001  0.000  0.004  0.706
 
band  11 # energy   20.47964470 # occ.  0.00000000
 
ion      s     py     pz     px    dxy    dyz    dz2    dxz    dx2    tot
  1  0.000  0.000  0.000  0.000  0.000  0.000  0.000  0.000  0.000  0.001
  2  0.001  0.000  0.000  0.002  0.045  0.006  0.000  0.045  0.000  0.099
tot  0.001  0.000  0.000  0.003  0.045  0.006  0.000  0.045  0.000  0.100
 
band  12 # energy   21.20982393 # occ.  0.00000000
 
ion      s     py     pz     px    dxy    dyz    dz2    dxz    dx2    tot
  1  0.000  0.000  0.000  0.000  0.000  0.000  0.000  0.000  0.000  0.000
  2 43.943  0.000  0.000  0.000  0.000  0.000  0.000  0.000  0.000 43.943
tot 43.943  0.000  0.000  0.000  0.000  0.000  0.000  0.000  0.000 43.943
 

 k-point    3 :    0.31250000 0.06250000 0.06250000     weight = 0.01171875

band   1 # energy   -4.23334236 # occ.  1.00000000
 
ion      s     py     pz     px    dxy    dyz    dz2    dxz    dx2    tot
  1  0.342  0.005  0.005  0.003  0.000  0.000  0.000  0.000  0.000  0.355
  2  0.316  0.049  0.049  0.018  0.003  0.005  0.001  0.003  0.003  0.447
tot  0.658  0.054  0.054  0.021  0.003  0.005  0.001  0.003  0.003  0.802
 
band   2 # energy    3.02928076 # occ.  1.00000000
 
ion      s     py     pz     px    dxy    dyz    dz2    dxz    dx2    tot
  1  0.076  0.085  0.085  0.021  0.000  0.000  0.000  0.000  0.000  0.267
  2  0.090  0.021  0.021  0.027  0.085  0.157  0.017  0.085  0.052  0.557
tot  0.166  0.106  0.106  0.048  0.085  0.157  0.017  0.085  0.052  0.823
 
band   3 # energy    4.24352407 # occ.  1.00000000
 
ion      s     py     pz     px    dxy    dyz    dz2    dxz    dx2    tot
  1  0.000  0.138  0.138  0.000  0.000  0.000  0.000  0.000  0.000  0.276
  2  0.000  0.001  0.001  0.000  0.035  0.000  0.407  0.035  0.136  0.615
tot  0.000  0.139  0.139  0.000  0.035  0.000  0.407  0.035  0.136  0.891
 
band   4 # energy    4.55794971 # occ.  1.00000000
 
ion      s     py     pz     px    dxy    dyz    dz2    dxz    dx2    tot
  1  0.000  0.024  0.024  0.194  0.000  0.000  0.000  0.000  0.000  0.243
  2  0.000  0.000  0.000  0.053  0.112  0.035  0.080  0.112  0.239  0.632
tot  0.000  0.024  0.024  0.248  0.112  0.035  0.080  0.112  0.239  0.875
 
band   5 # energy    9.07854318 # occ.  0.00000000
 
ion      s     py     pz     px    dxy    dyz    dz2    dxz    dx2    tot
  1  0.000  0.007  0.007  0.000  0.000  0.000  0.000  0.000  0.000  0.014
  2  0.000  0.002  0.002  0.000  0.426  0.000  0.039  0.426  0.013  0.908
tot  0.000  0.009  0.009  0.000  0.426  0.000  0.039  0.426  0.013  0.922
 
band   6 # energy    9.67411077 # occ.  0.00000000
 
ion      s     py     pz     px    dxy    dyz    dz2    dxz    dx2    tot
  1  0.024  0.002  0.002  0.099  0.000  0.000  0.000  0.000  0.000  0.127
  2  0.027  0.001  0.001  0.000  0.206  0.114  0.038  0.206  0.114  0.708
tot  0.052  0.003  0.003  0.099  0.206  0.114  0.038  0.206  0.114  0.835
 
band   7 # energy   10.47394579 # occ.  0.00000000
 
ion      s     py     pz     px    dxy    dyz    dz2    dxz    dx2    tot
  1  0.031  0.031  0.031  0.029  0.000  0.000  0.000  0.000  0.000  0.123
  2  0.053  0.005  0.005  0.002  0.012  0.587  0.008  0.012  0.024  0.707
tot  0.083  0.036  0.036  0.031  0.012  0.587  0.008  0.012  0.024  0.830
 
band   8 # energy   14.22159397 # occ.  0.00000000
 
ion      s     py     pz     px    dxy    dyz    dz2    dxz    dx2    tot
  1  0.023  0.026  0.026  0.194  0.000  0.000  0.000  0.000  0.000  0.269
  2  0.017  0.007  0.007  0.059  0.010  0.021  0.107  0.010  0.320  0.557
tot  0.040  0.033  0.033  0.252  0.010  0.021  0.107  0.010  0.320  0.826
 
band   9 # energy   15.98408389 # occ.  0.00000000
 
ion      s     py     pz     px    dxy    dyz    dz2    dxz    dx2    tot
  1  0.000  0.149  0.149  0.000  0.000  0.000  0.000  0.000  0.000  0.299
  2  0.000  0.036  0.036  0.000  0.003  0.000  0.344  0.003  0.115  0.537
tot  0.000  0.185  0.185  0.000  0.003  0.000  0.344  0.003  0.115  0.835
 
band  10 # energy   17.66034962 # occ.  0.00000000
 
ion      s     py     pz     px    dxy    dyz    dz2    dxz    dx2    tot
  1  0.154  0.105  0.105  0.018  0.000  0.000  0.000  0.000  0.000  0.382
  2  0.049  0.088  0.088  0.026  0.015  0.026  0.002  0.015  0.007  0.316
tot  0.203  0.193  0.193  0.044  0.015  0.026  0.002  0.015  0.007  0.699
 
band  11 # energy   21.20264405 # occ.  0.00000000
 
ion      s     py     pz     px    dxy    dyz    dz2    dxz    dx2    tot
  1  0.000  0.000  0.000  0.000  0.000  0.000  0.000  0.000  0.000  0.000
  2 43.281  0.000  0.000  0.000  0.001  0.000  0.000  0.001  0.000 43.284
tot 43.282  0.000  0.000  0.000  0.001  0.000  0.000  0.001  0.000 43.284
 
band  12 # energy   22.09692429 # occ.  0.00000000
 
ion      s     py     pz     px    dxy    dyz    dz2    dxz    dx2    tot
  1  0.022  0.019  0.019  0.005  0.000  0.000  0.000  0.000  0.000  0.064
  2  0.719  0.010  0.010  0.022  0.101  0.049  0.001  0.101  0.002  1.015
tot  0.740  0.028  0.028  0.027  0.101  0.049  0.001  0.101  0.002  1.078
 

 k-point    4 :    0.43750000 0.06250000 0.06250000     weight = 0.01171875

band   1 # energy   -2.66377986 # occ.  1.00000000
 
ion      s     py     pz     px    dxy    dyz    dz2    dxz    dx2    tot
  1  0.386  0.006  0.006  0.007  0.000  0.000  0.000  0.000  0.000  0.405
  2  0.162  0.081  0.081  0.045  0.008  0.010  0.004  0.008  0.011  0.408
tot  0.548  0.087  0.087  0.052  0.008  0.010  0.004  0.008  0.011  0.813
 
band   2 # energy    1.04187009 # occ.  1.00000000
 
ion      s     py     pz     px    dxy    dyz    dz2    dxz    dx2    tot
  1  0.081  0.065  0.065  0.033  0.000  0.000  0.000  0.000  0.000  0.244
  2  0.198  0.014  0.014  0.037  0.091  0.123  0.007  0.091  0.021  0.597
tot  0.279  0.080  0.080  0.069  0.091  0.123  0.007  0.091  0.021  0.841
 
band   3 # energy    3.44025146 # occ.  1.00000000
 
ion      s     py     pz     px    dxy    dyz    dz2    dxz    dx2    tot
  1  0.000  0.134  0.134  0.000  0.000  0.000  0.000  0.000  0.000  0.268
  2  0.000  0.000  0.000  0.000  0.047  0.000  0.421  0.047  0.140  0.655
tot  0.000  0.134  0.134  0.000  0.047  0.000  0.421  0.047  0.140  0.923
 
band   4 # energy    3.61633840 # occ.  1.00000000
 
ion      s     py     pz     px    dxy    dyz    dz2    dxz    dx2    tot
  1  0.002  0.034  0.034  0.189  0.000  0.000  0.000  0.000  0.000  0.258
  2  0.000  0.002  0.002  0.036  0.052  0.056  0.113  0.052  0.340  0.653
tot  0.002  0.035  0.035  0.225  0.052  0.056  0.113  0.052  0.340  0.911
 
band   5 # energy   10.62861291 # occ.  0.00000000
 
ion      s     py     pz     px    dxy    dyz    dz2    dxz    dx2    tot
  1  0.000  0.012  0.012  0.000  0.000  0.000  0.000  0.000  0.000  0.023
  2  0.000  0.003  0.003  0.000  0.424  0.000  0.047  0.424  0.016  0.917
tot  0.000  0.014  0.014  0.000  0.424  0.000  0.047  0.424  0.016  0.940
 
band   6 # energy   10.82742612 # occ.  0.00000000
 
ion      s     py     pz     px    dxy    dyz    dz2    dxz    dx2    tot
  1  0.025  0.002  0.002  0.072  0.000  0.000  0.000  0.000  0.000  0.100
  2  0.041  0.001  0.001  0.008  0.249  0.104  0.024  0.249  0.071  0.747
tot  0.065  0.003  0.003  0.080  0.249  0.104  0.024  0.249  0.071  0.847
 
band   7 # energy   11.80354324 # occ.  0.00000000
 
ion      s     py     pz     px    dxy    dyz    dz2    dxz    dx2    tot
  1  0.014  0.039  0.039  0.012  0.000  0.000  0.000  0.000  0.000  0.103
  2  0.071  0.006  0.006  0.001  0.009  0.664  0.007  0.009  0.020  0.793
tot  0.085  0.045  0.045  0.013  0.009  0.664  0.007  0.009  0.020  0.896
 
band   8 # energy   15.92402346 # occ.  0.00000000
 
ion      s     py     pz     px    dxy    dyz    dz2    dxz    dx2    tot
  1  0.087  0.017  0.017  0.056  0.000  0.000  0.000  0.000  0.000  0.177
  2  0.001  0.091  0.091  0.097  0.061  0.006  0.006  0.061  0.019  0.434
tot  0.088  0.109  0.109  0.153  0.061  0.006  0.006  0.061  0.019  0.611
 
band   9 # energy   17.04120843 # occ.  0.00000000
 
ion      s     py     pz     px    dxy    dyz    dz2    dxz    dx2    tot
  1  0.000  0.048  0.048  0.177  0.000  0.000  0.000  0.000  0.000  0.274
  2  0.009  0.042  0.042  0.037  0.000  0.016  0.107  0.000  0.320  0.573
tot  0.009  0.090  0.090  0.215  0.000  0.016  0.107  0.000  0.320  0.847
 
band  10 # energy   18.41427021 # occ.  0.00000000
 
ion      s     py     pz     px    dxy    dyz    dz2    dxz    dx2    tot
  1  0.000  0.173  0.173  0.000  0.000  0.000  0.000  0.000  0.000  0.346
  2  0.000  0.012  0.012  0.000  0.003  0.000  0.396  0.003  0.132  0.558
tot  0.000  0.185  0.185  0.000  0.003  0.000  0.396  0.003  0.132  0.905
 
band  11 # energy   21.20043499 # occ.  0.00000000
 
ion      s     py     pz     px    dxy    dyz    dz2    dxz    dx2    tot
  1  0.000  0.001  0.001  0.000  0.000  0.000  0.000  0.000  0.000  0.002
  2 43.191  0.000  0.000  0.000  0.000  0.000  0.000  0.000  0.000 43.192
tot 43.191  0.001  0.001  0.000  0.000  0.000  0.000  0.000  0.000 43.194
 
band  12 # energy   22.41972461 # occ.  0.00000000
 
ion      s     py     pz     px    dxy    dyz    dz2    dxz    dx2    tot
  1  0.001  0.037  0.037  0.003  0.000  0.000  0.000  0.000  0.000  0.077
  2  0.199  0.053  0.053  0.203  0.012  0.008  0.020  0.012  0.060  0.618
tot  0.200  0.090  0.090  0.206  0.012  0.008  0.020  0.012  0.060  0.696
 

 k-point    5 :   -0.43750000 0.06250000 0.06250000     weight = 0.01171875

band   1 # energy   -1.84239927 # occ.  1.00000000
 
ion      s     py     pz     px    dxy    dyz    dz2    dxz    dx2    tot
  1  0.471  0.002  0.002  0.000  0.000  0.000  0.000  0.000  0.000  0.475
  2  0.015  0.092  0.092  0.099  0.001  0.002  0.008  0.001  0.024  0.334
tot  0.486  0.094  0.094  0.099  0.001  0.002  0.008  0.001  0.024  0.809
 
band   2 # energy    0.14391893 # occ.  1.00000000
 
ion      s     py     pz     px    dxy    dyz    dz2    dxz    dx2    tot
  1  0.011  0.056  0.056  0.061  0.000  0.000  0.000  0.000  0.000  0.183
  2  0.328  0.008  0.008  0.001  0.107  0.110  0.000  0.107  0.001  0.671
tot  0.339  0.064  0.064  0.062  0.107  0.110  0.000  0.107  0.001  0.854
 
band   3 # energy    3.28657227 # occ.  1.00000000
 
ion      s     py     pz     px    dxy    dyz    dz2    dxz    dx2    tot
  1  0.002  0.044  0.044  0.172  0.000  0.000  0.000  0.000  0.000  0.263
  2  0.000  0.005  0.005  0.019  0.018  0.086  0.128  0.018  0.383  0.662
tot  0.002  0.050  0.050  0.190  0.018  0.086  0.128  0.018  0.383  0.925
 
band   4 # energy    3.33123340 # occ.  1.00000000
 
ion      s     py     pz     px    dxy    dyz    dz2    dxz    dx2    tot
  1  0.000  0.133  0.133  0.000  0.000  0.000  0.000  0.000  0.000  0.265
  2  0.000  0.003  0.003  0.000  0.057  0.000  0.407  0.057  0.136  0.662
tot  0.000  0.135  0.135  0.000  0.057  0.000  0.407  0.057  0.136  0.928
 
band   5 # energy   11.15817039 # occ.  0.00000000
 
ion      s     py     pz     px    dxy    dyz    dz2    dxz    dx2    tot
  1  0.009  0.015  0.015  0.012  0.000  0.000  0.000  0.000  0.000  0.052
  2  0.006  0.004  0.004  0.000  0.073  0.625  0.020  0.073  0.061  0.868
tot  0.015  0.019  0.019  0.012  0.073  0.625  0.020  0.073  0.061  0.920
 
band   6 # energy   11.58243869 # occ.  0.00000000
 
ion      s     py     pz     px    dxy    dyz    dz2    dxz    dx2    tot
  1  0.000  0.015  0.015  0.000  0.000  0.000  0.000  0.000  0.000  0.031
  2  0.000  0.000  0.000  0.000  0.432  0.000  0.061  0.432  0.020  0.946
tot  0.000  0.015  0.015  0.000  0.432  0.000  0.061  0.432  0.020  0.976
 
band   7 # energy   12.44330038 # occ.  0.00000000
 
ion      s     py     pz     px    dxy    dyz    dz2    dxz    dx2    tot
  1  0.001  0.047  0.047  0.066  0.000  0.000  0.000  0.000  0.000  0.161
  2  0.128  0.001  0.001  0.000  0.281  0.070  0.001  0.281  0.003  0.765
tot  0.129  0.048  0.048  0.066  0.281  0.070  0.001  0.281  0.003  0.926
 
band   8 # energy   14.70586716 # occ.  0.00000000
 
ion      s     py     pz     px    dxy    dyz    dz2    dxz    dx2    tot
  1  0.092  0.003  0.003  0.001  0.000  0.000  0.000  0.000  0.000  0.099
  2  0.001  0.097  0.097  0.116  0.001  0.067  0.001  0.001  0.002  0.384
tot  0.094  0.100  0.100  0.118  0.001  0.067  0.001  0.001  0.002  0.483
 
band   9 # energy   18.45050222 # occ.  0.00000000
 
ion      s     py     pz     px    dxy    dyz    dz2    dxz    dx2    tot
  1  0.000  0.155  0.155  0.000  0.000  0.000  0.000  0.000  0.000  0.309
  2  0.000  0.031  0.031  0.000  0.002  0.000  0.397  0.002  0.132  0.596
tot  0.000  0.185  0.185  0.000  0.002  0.000  0.397  0.002  0.132  0.905
 
band  10 # energy   18.82352604 # occ.  0.00000000
 
ion      s     py     pz     px    dxy    dyz    dz2    dxz    dx2    tot
  1  0.003  0.049  0.049  0.233  0.000  0.000  0.000  0.000  0.000  0.334
  2  0.000  0.005  0.005  0.005  0.001  0.000  0.142  0.001  0.427  0.586
tot  0.003  0.054  0.054  0.238  0.001  0.000  0.142  0.001  0.427  0.920
 
band  11 # energy   21.19673344 # occ.  0.00000000
 
ion      s     py     pz     px    dxy    dyz    dz2    dxz    dx2    tot
  1  0.000  0.002  0.002  0.000  0.000  0.000  0.000  0.000  0.000  0.005
  2 41.986  0.002  0.002  0.007  0.000  0.000  0.000  0.000  0.000 41.997
tot 41.987  0.004  0.004  0.007  0.000  0.000  0.000  0.000  0.000 42.002
 
band  12 # energy   21.43704079 # occ.  0.00000000
 
ion      s     py     pz     px    dxy    dyz    dz2    dxz    dx2    tot
  1  0.001  0.021  0.021  0.000  0.000  0.000  0.000  0.000  0.000  0.044
  2  1.474  0.076  0.076  0.283  0.000  0.016  0.001  0.000  0.003  1.930
tot  1.475  0.097  0.097  0.284  0.000  0.016  0.001  0.000  0.003  1.974
 

 k-point    6 :   -0.31250000 0.06250000 0.06250000     weight = 0.01171875

band   1 # energy   -3.20741277 # occ.  1.00000000
 
ion      s     py     pz     px    dxy    dyz    dz2    dxz    dx2    tot
  1  0.365  0.006  0.006  0.006  0.000  0.000  0.000  0.000  0.000  0.383
  2  0.221  0.046  0.046  0.081  0.008  0.006  0.003  0.008  0.010  0.428
tot  0.586  0.052  0.052  0.087  0.008  0.006  0.003  0.008  0.010  0.812
 
band   2 # energy    1.66698969 # occ.  1.00000000
 
ion      s     py     pz     px    dxy    dyz    dz2    dxz    dx2    tot
  1  0.086  0.038  0.038  0.093  0.000  0.000  0.000  0.000  0.000  0.256
  2  0.152  0.032  0.032  0.009  0.111  0.087  0.011  0.111  0.034  0.580
tot  0.238  0.071  0.071  0.102  0.111  0.087  0.011  0.111  0.034  0.836
 
band   3 # energy    3.64219006 # occ.  1.00000000
 
ion      s     py     pz     px    dxy    dyz    dz2    dxz    dx2    tot
  1  0.003  0.058  0.058  0.143  0.000  0.000  0.000  0.000  0.000  0.262
  2  0.000  0.011  0.011  0.007  0.001  0.130  0.122  0.001  0.365  0.647
tot  0.003  0.069  0.069  0.149  0.001  0.130  0.122  0.001  0.365  0.909
 
band   4 # energy    3.90971720 # occ.  1.00000000
 
ion      s     py     pz     px    dxy    dyz    dz2    dxz    dx2    tot
  1  0.000  0.133  0.133  0.000  0.000  0.000  0.000  0.000  0.000  0.266
  2  0.000  0.009  0.009  0.000  0.069  0.000  0.362  0.069  0.121  0.639
tot  0.000  0.142  0.142  0.000  0.069  0.000  0.362  0.069  0.121  0.905
 
band   5 # energy    9.71403838 # occ.  0.00000000
 
ion      s     py     pz     px    dxy    dyz    dz2    dxz    dx2    tot
  1  0.016  0.028  0.028  0.002  0.000  0.000  0.000  0.000  0.000  0.074
  2  0.023  0.002  0.002  0.001  0.026  0.642  0.017  0.026  0.051  0.789
tot  0.039  0.030  0.030  0.003  0.026  0.642  0.017  0.026  0.051  0.863
 
band   6 # energy   10.89845733 # occ.  0.00000000
 
ion      s     py     pz     px    dxy    dyz    dz2    dxz    dx2    tot
  1  0.000  0.013  0.013  0.000  0.000  0.000  0.000  0.000  0.000  0.026
  2  0.000  0.004  0.004  0.000  0.394  0.000  0.095  0.394  0.032  0.924
tot  0.000  0.017  0.017  0.000  0.394  0.000  0.095  0.394  0.032  0.950
 
band   7 # energy   11.25551107 # occ.  0.00000000
 
ion      s     py     pz     px    dxy    dyz    dz2    dxz    dx2    tot
  1  0.032  0.029  0.029  0.037  0.000  0.000  0.000  0.000  0.000  0.128
  2  0.081  0.002  0.002  0.011  0.298  0.000  0.001  0.298  0.003  0.696
tot  0.112  0.032  0.032  0.048  0.298  0.000  0.001  0.298  0.003  0.824
 
band   8 # energy   16.23810491 # occ.  0.00000000
 
ion      s     py     pz     px    dxy    dyz    dz2    dxz    dx2    tot
  1  0.000  0.145  0.145  0.000  0.000  0.000  0.000  0.000  0.000  0.289
  2  0.000  0.049  0.049  0.000  0.016  0.000  0.331  0.016  0.110  0.571
tot  0.000  0.194  0.194  0.000  0.016  0.000  0.331  0.016  0.110  0.860
 
band   9 # energy   16.55490327 # occ.  0.00000000
 
ion      s     py     pz     px    dxy    dyz    dz2    dxz    dx2    tot
  1  0.101  0.069  0.069  0.005  0.000  0.000  0.000  0.000  0.000  0.244
  2  0.003  0.089  0.089  0.062  0.025  0.054  0.021  0.025  0.063  0.431
tot  0.103  0.158  0.158  0.067  0.025  0.054  0.021  0.025  0.063  0.675
 
band  10 # energy   17.83667442 # occ.  0.00000000
 
ion      s     py     pz     px    dxy    dyz    dz2    dxz    dx2    tot
  1  0.001  0.027  0.027  0.250  0.000  0.000  0.000  0.000  0.000  0.306
  2  0.004  0.001  0.001  0.093  0.011  0.001  0.100  0.011  0.301  0.523
tot  0.005  0.028  0.028  0.344  0.011  0.001  0.100  0.011  0.301  0.829
 
band  11 # energy   21.19865967 # occ.  0.00000000
 
ion      s     py     pz     px    dxy    dyz    dz2    dxz    dx2    tot
  1  0.000  0.001  0.001  0.001  0.000  0.000  0.000  0.000  0.000  0.003
  2 43.004  0.000  0.000  0.000  0.000  0.000  0.000  0.000  0.000 43.005
tot 43.004  0.001  0.001  0.002  0.000  0.000  0.000  0.000  0.000 43.008
 
band  12 # energy   22.45186666 # occ.  0.00000000
 
ion      s     py     pz     px    dxy    dyz    dz2    dxz    dx2    tot
  1  0.034  0.053  0.053  0.124  0.000  0.000  0.000  0.000  0.000  0.264
  2  1.299  0.000  0.000  0.029  0.043  0.041  0.006  0.043  0.018  1.480
tot  1.332  0.054  0.054  0.153  0.043  0.041  0.006  0.043  0.018  1.744
 

 k-point    7 :   -0.18750000 0.06250000 0.06250000     weight = 0.01171875

band   1 # energy   -4.70670408 # occ.  1.00000000
 
ion      s     py     pz     px    dxy    dyz    dz2    dxz    dx2    tot
  1  0.335  0.002  0.002  0.005  0.000  0.000  0.000  0.000  0.000  0.344
  2  0.353  0.019  0.019  0.051  0.002  0.001  0.001  0.002  0.003  0.452
tot  0.688  0.021  0.021  0.055  0.002  0.001  0.001  0.002  0.003  0.796
 
band   2 # energy    3.68085120 # occ.  1.00000000
 
ion      s     py     pz     px    dxy    dyz    dz2    dxz    dx2    tot
  1  0.057  0.021  0.021  0.172  0.000  0.000  0.000  0.000  0.000  0.271
  2  0.065  0.019  0.019  0.012  0.112  0.055  0.040  0.112  0.121  0.556
tot  0.123  0.040  0.040  0.183  0.112  0.055  0.040  0.112  0.121  0.827
 
band   3 # energy    4.71381702 # occ.  1.00000000
 
ion      s     py     pz     px    dxy    dyz    dz2    dxz    dx2    tot
  1  0.004  0.078  0.078  0.085  0.000  0.000  0.000  0.000  0.000  0.245
  2  0.001  0.021  0.021  0.001  0.014  0.210  0.085  0.014  0.254  0.621
tot  0.005  0.099  0.099  0.086  0.014  0.210  0.085  0.014  0.254  0.867
 
band   4 # energy    5.11205210 # occ.  1.00000000
 
ion      s     py     pz     px    dxy    dyz    dz2    dxz    dx2    tot
  1  0.000  0.134  0.134  0.000  0.000  0.000  0.000  0.000  0.000  0.268
  2  0.000  0.018  0.018  0.000  0.098  0.000  0.271  0.098  0.090  0.593
tot  0.000  0.152  0.152  0.000  0.098  0.000  0.271  0.098  0.090  0.861
 
band   5 # energy    8.36250998 # occ.  1.00000000
 
ion      s     py     pz     px    dxy    dyz    dz2    dxz    dx2    tot
  1  0.008  0.026  0.026  0.002  0.000  0.000  0.000  0.000  0.000  0.062
  2  0.007  0.000  0.000  0.003  0.066  0.615  0.016  0.066  0.047  0.822
tot  0.015  0.027  0.027  0.006  0.066  0.615  0.016  0.066  0.047  0.884
 
band   6 # energy    9.51081835 # occ.  0.00000000
 
ion      s     py     pz     px    dxy    dyz    dz2    dxz    dx2    tot
  1  0.000  0.014  0.014  0.000  0.000  0.000  0.000  0.000  0.000  0.029
  2  0.000  0.003  0.003  0.000  0.344  0.000  0.153  0.344  0.051  0.898
tot  0.000  0.018  0.018  0.000  0.344  0.000  0.153  0.344  0.051  0.927
 
band   7 # energy   10.08495509 # occ.  0.00000000
 
ion      s     py     pz     px    dxy    dyz    dz2    dxz    dx2    tot
  1  0.047  0.061  0.061  0.026  0.000  0.000  0.000  0.000  0.000  0.196
  2  0.061  0.000  0.000  0.001  0.252  0.007  0.000  0.252  0.000  0.576
tot  0.108  0.061  0.061  0.028  0.252  0.007  0.000  0.252  0.000  0.771
 
band   8 # energy   13.40419628 # occ.  0.00000000
 
ion      s     py     pz     px    dxy    dyz    dz2    dxz    dx2    tot
  1  0.000  0.131  0.131  0.000  0.000  0.000  0.000  0.000  0.000  0.263
  2  0.000  0.035  0.035  0.000  0.024  0.000  0.328  0.024  0.109  0.557
tot  0.000  0.167  0.167  0.000  0.024  0.000  0.328  0.024  0.109  0.820
 
band   9 # energy   14.75037446 # occ.  0.00000000
 
ion      s     py     pz     px    dxy    dyz    dz2    dxz    dx2    tot
  1  0.041  0.064  0.064  0.111  0.000  0.000  0.000  0.000  0.000  0.280
  2  0.026  0.019  0.019  0.028  0.000  0.006  0.109  0.000  0.326  0.532
tot  0.066  0.084  0.084  0.138  0.000  0.006  0.109  0.000  0.326  0.812
 
band  10 # energy   17.66767258 # occ.  0.00000000
 
ion      s     py     pz     px    dxy    dyz    dz2    dxz    dx2    tot
  1  0.187  0.028  0.028  0.191  0.000  0.000  0.000  0.000  0.000  0.434
  2  0.092  0.024  0.024  0.087  0.010  0.005  0.007  0.010  0.022  0.282
tot  0.279  0.052  0.052  0.278  0.010  0.005  0.007  0.010  0.022  0.716
 
band  11 # energy   21.20583633 # occ.  0.00000000
 
ion      s     py     pz     px    dxy    dyz    dz2    dxz    dx2    tot
  1  0.000  0.000  0.000  0.000  0.000  0.000  0.000  0.000  0.000  0.000
  2 43.506  0.000  0.000  0.000  0.000  0.001  0.000  0.000  0.000 43.508
tot 43.506  0.000  0.000  0.000  0.000  0.001  0.000  0.000  0.000 43.508
 
band  12 # energy   21.78027592 # occ.  0.00000000
 
ion      s     py     pz     px    dxy    dyz    dz2    dxz    dx2    tot
  1  0.008  0.001  0.001  0.005  0.000  0.000  0.000  0.000  0.000  0.015