<?xml version="1.0" encoding="ISO-8859-1"?>
<modeling>
 <generator>
  <i name="program" type="string">vasp </i>
  <i name="version" type="string">5.2.12  </i>
  <i name="subversion" type="string">11Nov11 complex                                                      parallel </i>
  <i name="platform" type="string">LinuxIFC </i>
  <i name="date" type="string">2012 10 17 </i>
  <i name="time" type="string">12:38:11 </i>
 </generator>
 <incar>
  <i type="int" name="ISTART">     0</i>
  <i type="string" name="PREC">accurate</i>
  <i type="int" name="ISPIN">     2</i>
  <i name="ENCUT">    450.00000000</i>
  <i type="int" name="NBANDS">    12</i>
  <v name="MAGMOM">      2.00000000      6.00000000</v>
  <i type="logical" name="LREAL"> F  </i>
  <i type="int" name="ISMEAR">     1</i>
  <i name="SIGMA">      0.05000000</i>
  <i type="logical" name="LORBIT"> F  </i>
 </incar>
 <kpoints>
  <generation param="Monkhorst-Pack">
   <v type="int" name="divisions">       8        8        8 </v>
   <v name="usershift">      0.00000000       0.00000000       0.00000000 </v>
   <v name="genvec1">      0.12500000       0.00000000       0.00000000 </v>
   <v name="genvec2">      0.00000000       0.12500000       0.00000000 </v>
   <v name="genvec3">      0.00000000       0.00000000       0.12500000 </v>
   <v name="shift">      0.50000000       0.50000000       0.50000000 </v>
  </generation>
  <varray name="kpointlist" >
   <v>       0.06250000       0.06250000       0.06250000 </v>
   <v>       0.18750000       0.06250000       0.06250000 </v>
   <v>       0.31250000       0.06250000       0.06250000 </v>
   <v>       0.43750000       0.06250000       0.06250000 </v>
   <v>      -0.43750000       0.06250000       0.06250000 </v>
   <v>      -0.31250000       0.06250000       0.06250000 </v>
   <v>      -0.18750000       0.06250000       0.06250000 </v>
   <v>      -0.06250000       0.06250000       0.06250000 </v>
   <v>       0.18750000       0.18750000       0.06250000 </v>
   <v>       0.31250000       0.18750000       0.06250000 </v>
   <v>       0.43750000       0.18750000       0.06250000 </v>
   <v>      -0.43750000       0.18750000       0.06250000 </v>
   <v>      -0.31250000       0.18750000       0.06250000 </v>
   <v>      -0.18750000       0.18750000       0.06250000 </v>
   <v>      -0.06250000       0.18750000       0.06250000 </v>
   <v>       0.31250000       0.31250000       0.06250000 </v>
   <v>       0.43750000       0.31250000       0.06250000 </v>
   <v>      -0.43750000       0.31250000       0.06250000 </v>
   <v>      -0.31250000       0.31250000       0.06250000 </v>
   <v>      -0.18750000       0.31250000       0.06250000 </v>
   <v>      -0.06250000       0.31250000       0.06250000 </v>
   <v>       0.43750000       0.43750000       0.06250000 </v>
   <v>      -0.43750000       0.43750000       0.06250000 </v>
   <v>      -0.31250000       0.43750000       0.06250000 </v>
   <v>      -0.18750000       0.43750000       0.06250000 </v>
   <v>      -0.06250000       0.43750000       0.06250000 </v>
   <v>      -0.43750000      -0.43750000       0.06250000 </v>
   <v>      -0.31250000      -0.43750000       0.06250000 </v>
   <v>      -0.18750000      -0.43750000       0.06250000 </v>
   <v>      -0.31250000      -0.31250000       0.06250000 </v>
   <v>      -0.18750000      -0.31250000       0.06250000 </v>
   <v>      -0.18750000      -0.18750000       0.06250000 </v>
   <v>       0.18750000       0.18750000       0.18750000 </v>
   <v>       0.31250000       0.18750000       0.18750000 </v>
   <v>       0.43750000       0.18750000       0.18750000 </v>
   <v>      -0.43750000       0.18750000       0.18750000 </v>
   <v>      -0.31250000       0.18750000       0.18750000 </v>
   <v>      -0.18750000       0.18750000       0.18750000 </v>
   <v>       0.31250000       0.31250000       0.18750000 </v>
   <v>       0.43750000       0.31250000       0.18750000 </v>
   <v>      -0.43750000       0.31250000       0.18750000 </v>
   <v>      -0.31250000       0.31250000       0.18750000 </v>
   <v>      -0.18750000       0.31250000       0.18750000 </v>
   <v>       0.43750000       0.43750000       0.18750000 </v>
   <v>      -0.43750000       0.43750000       0.18750000 </v>
   <v>      -0.31250000       0.43750000       0.18750000 </v>
   <v>      -0.18750000       0.43750000       0.18750000 </v>
   <v>      -0.43750000      -0.43750000       0.18750000 </v>
   <v>      -0.31250000      -0.43750000       0.18750000 </v>
   <v>      -0.31250000      -0.31250000       0.18750000 </v>
   <v>       0.31250000       0.31250000       0.31250000 </v>
   <v>       0.43750000       0.31250000       0.31250000 </v>
   <v>      -0.43750000       0.31250000       0.31250000 </v>
   <v>      -0.31250000       0.31250000       0.31250000 </v>
   <v>       0.43750000       0.43750000       0.31250000 </v>
   <v>      -0.43750000       0.43750000       0.31250000 </v>
   <v>      -0.31250000       0.43750000       0.31250000 </v>
   <v>      -0.43750000      -0.43750000       0.31250000 </v>
   <v>       0.43750000       0.43750000       0.43750000 </v>
   <v>      -0.43750000       0.43750000       0.43750000 </v>
  </varray>
  <varray name="weights" >
   <v>       0.00390625 </v>
   <v>       0.01171875 </v>
   <v>       0.01171875 </v>
   <v>       0.01171875 </v>
   <v>       0.01171875 </v>
   <v>       0.01171875 </v>
   <v>       0.01171875 </v>
   <v>       0.01171875 </v>
   <v>       0.01171875 </v>
   <v>       0.02343750 </v>
   <v>       0.02343750 </v>
   <v>       0.02343750 </v>
   <v>       0.02343750 </v>
   <v>       0.02343750 </v>
   <v>       0.02343750 </v>
   <v>       0.01171875 </v>
   <v>       0.02343750 </v>
   <v>       0.02343750 </v>
   <v>       0.02343750 </v>
   <v>       0.02343750 </v>
   <v>       0.02343750 </v>
   <v>       0.01171875 </v>
   <v>       0.02343750 </v>
   <v>       0.02343750 </v>
   <v>       0.02343750 </v>
   <v>       0.02343750 </v>
   <v>       0.01171875 </v>
   <v>       0.02343750 </v>
   <v>       0.02343750 </v>
   <v>       0.01171875 </v>
   <v>       0.02343750 </v>
   <v>       0.01171875 </v>
   <v>       0.00390625 </v>
   <v>       0.01171875 </v>
   <v>       0.01171875 </v>
   <v>       0.01171875 </v>
   <v>       0.01171875 </v>
   <v>       0.01171875 </v>
   <v>       0.01171875 </v>
   <v>       0.02343750 </v>
   <v>       0.02343750 </v>
   <v>       0.02343750 </v>
   <v>       0.02343750 </v>
   <v>       0.01171875 </v>
   <v>       0.02343750 </v>
   <v>       0.02343750 </v>
   <v>       0.02343750 </v>
   <v>       0.01171875 </v>
   <v>       0.02343750 </v>
   <v>       0.01171875 </v>
   <v>       0.00390625 </v>
   <v>       0.01171875 </v>
   <v>       0.01171875 </v>
   <v>       0.01171875 </v>
   <v>       0.01171875 </v>
   <v>       0.02343750 </v>
   <v>       0.02343750 </v>
   <v>       0.01171875 </v>
   <v>       0.00390625 </v>
   <v>       0.01171875 </v>
  </varray>
 </kpoints>
 <parameters>
  <separator name="general" >
   <i type="string" name="SYSTEM">unknown system</i>
   <i type="logical" name="LCOMPAT"> F  </i>
  </separator>
  <separator name="electronic" >
   <i type="string" name="PREC">accura</i>
   <i name="ENMAX">    450.00000000</i>
   <i name="ENAUG">    644.87300000</i>
   <i name="EDIFF">      0.00010000</i>
   <i type="int" name="IALGO">    38</i>
   <i type="int" name="IWAVPR">    10</i>
   <i type="int" name="NBANDS">    12</i>
   <i name="NELECT">      9.00000000</i>
   <i type="int" name="TURBO">     0</i>
   <i type="int" name="IRESTART">     0</i>
   <i type="int" name="NREBOOT">     0</i>
   <i type="int" name="NMIN">     0</i>
   <i name="EREF">      0.00000000</i>
   <separator name="electronic smearing" >
    <i type="int" name="ISMEAR">     1</i>
    <i name="SIGMA">      0.05000000</i>
    <i name="KSPACING">      0.50000000</i>
    <i type="logical" name="KGAMMA"> T  </i>
   </separator>
   <separator name="electronic projectors" >
    <i type="logical" name="LREAL"> F  </i>
    <v name="ROPT">      0.00000000      0.00000000</v>
    <i type="int" name="LMAXPAW">  -100</i>
    <i type="int" name="LMAXMIX">     2</i>
    <i type="logical" name="NLSPLINE"> F  </i>
   </separator>
   <separator name="electronic startup" >
    <i type="int" name="ISTART">     0</i>
    <i type="int" name="ICHARG">     2</i>
    <i type="int" name="INIWAV">     1</i>
   </separator>
   <separator name="electronic spin" >
    <i type="int" name="ISPIN">     2</i>
    <i type="logical" name="LNONCOLLINEAR"> F  </i>
    <v name="MAGMOM">      2.00000000      6.00000000</v>
    <i name="NUPDOWN">     -1.00000000</i>
    <i type="logical" name="LSORBIT"> F  </i>
    <v name="SAXIS">      0.00000000      0.00000000      1.00000000</v>
    <i type="logical" name="LSPIRAL"> F  </i>
    <v name="QSPIRAL">      0.00000000      0.00000000      0.00000000</v>
    <i type="logical" name="LZEROZ"> F  </i>
   </separator>
   <separator name="electronic exchange-correlation" >
    <i type="logical" name="LASPH"> F  </i>
    <i type="logical" name="LMETAGGA"> F  </i>
   </separator>
   <separator name="electronic convergence" >
    <i type="int" name="NELM">    60</i>
    <i type="int" name="NELMDL">    -5</i>
    <i type="int" name="NELMIN">     2</i>
    <i name="ENINI">    450.00000000</i>
    <separator name="electronic convergence detail" >
     <i type="logical" name="LDIAG"> T  </i>
     <i type="logical" name="LSUBROT"> T  </i>
     <i name="WEIMIN">      0.00000000</i>
     <i name="EBREAK">      0.00000208</i>
     <i name="DEPER">      0.30000000</i>
     <i type="int" name="NRMM">     4</i>
     <i name="TIME">      0.40000000</i>
    </separator>
   </separator>
   <separator name="electronic mixer" >
    <i name="AMIX">      0.40000000</i>
    <i name="BMIX">      1.00000000</i>
    <i name="AMIN">      0.10000000</i>
    <i name="AMIX_MAG">      1.60000000</i>
    <i name="BMIX_MAG">      1.00000000</i>
    <separator name="electronic mixer details" >
     <i type="int" name="IMIX">     4</i>
     <i type="int" name="MAXMIX">   -45</i>
     <i name="WC">    100.00000000</i>
     <i type="int" name="INIMIX">     1</i>
     <i type="int" name="MIXPRE">     1</i>
     <i type="int" name="MREMOVE">     5</i>
    </separator>
   </separator>
   <separator name="electronic dipolcorrection" >
    <i type="logical" name="LDIPOL"> F  </i>
    <i type="logical" name="LMONO"> F  </i>
    <i type="int" name="IDIPOL">     0</i>
    <i name="EPSILON">      1.00000000</i>
    <v name="DIPOL">   -100.00000000   -100.00000000   -100.00000000</v>
    <i name="EFIELD">      0.00000000</i>
   </separator>
  </separator>
  <separator name="grids" >
   <i type="int" name="NGX">    24</i>
   <i type="int" name="NGY">    24</i>
   <i type="int" name="NGZ">    24</i>
   <i type="int" name="NGXF">    48</i>
   <i type="int" name="NGYF">    48</i>
   <i type="int" name="NGZF">    48</i>
   <i type="logical" name="ADDGRID"> F  </i>
  </separator>
  <separator name="ionic" >
   <i type="int" name="NSW">     0</i>
   <i type="int" name="IBRION">    -1</i>
   <i type="int" name="ISIF">     2</i>
   <i name="PSTRESS">      0.00000000</i>
   <i name="EDIFFG">      0.00100000</i>
   <i type="int" name="NFREE">     0</i>
   <i name="POTIM">      0.50000000</i>
   <i name="SMASS">     -3.00000000</i>
   <i name="SCALEE">      1.00000000</i>
  </separator>
  <separator name="ionic md" >
   <i name="TEBEG">      0.00010000</i>
   <i name="TEEND">      0.00010000</i>
   <i type="int" name="NBLOCK">     1</i>
   <i type="int" name="KBLOCK">     1</i>
   <i type="int" name="NPACO">   256</i>
   <i name="APACO">     16.00000000</i>
  </separator>
  <separator name="symmetry" >
   <i type="int" name="ISYM">     2</i>
   <i name="SYMPREC">      0.00001000</i>
  </separator>
  <separator name="dos" >
   <i type="logical" name="LORBIT"> F  </i>
   <v name="RWIGS">     -1.00000000     -1.00000000</v>
   <i type="int" name="NEDOS">   301</i>
   <i name="EMIN">     10.00000000</i>
   <i name="EMAX">    -10.00000000</i>
   <i name="EFERMI">      0.00000000</i>
  </separator>
  <separator name="writing" >
   <i type="int" name="NWRITE">     2</i>
   <i type="logical" name="LWAVE"> T  </i>
   <i type="logical" name="LCHARG"> T  </i>
   <i type="logical" name="LPARD"> F  </i>
   <i type="logical" name="LVTOT"> F  </i>
   <i type="logical" name="LVHAR"> F  </i>
   <i type="logical" name="LELF"> F  </i>
   <i type="logical" name="LOPTICS"> F  </i>
   <v name="STM">      0.00000000      0.00000000      0.00000000      0.00000000      0.00000000      0.00000000      0.00000000</v>
  </separator>
  <separator name="performance" >
   <i type="int" name="NPAR">     1</i>
   <i type="int" name="NSIM">     4</i>
   <i type="int" name="NBLK">    -1</i>
   <i type="logical" name="LPLANE"> T  </i>
   <i type="logical" name="LSCALAPACK"> F  </i>
   <i type="logical" name="LSCAAWARE"> F  </i>
   <i type="logical" name="LSCALU"> F  </i>
   <i type="logical" name="LASYNC"> F  </i>
   <i type="logical" name="LORBITALREAL"> F  </i>
  </separator>
  <separator name="miscellaneous" >
   <i type="int" name="IDIOT">     3</i>
   <i type="logical" name="LMUSIC"> F  </i>
   <v name="POMASS">     12.01100000    180.94800000</v>
   <v name="DARWINR">      0.00000000      0.00000000</v>
   <v name="DARWINV">      1.00000000      1.00000000</v>
   <i type="logical" name="LCORR"> T  </i>
  </separator>
  <i type="logical" name="GGA_COMPAT"> T  </i>
  <i type="logical" name="LBERRY"> F  </i>
  <i type="int" name="ICORELEVEL">     0</i>
  <i type="logical" name="LDAU"> F  </i>
  <i type="int" name="I_CONSTRAINED_M">     0</i>
  <separator name="electronic exchange-correlation" >
   <i type="string" name="GGA">--</i>
   <i type="int" name="VOSKOWN">     0</i>
   <i type="logical" name="LHFCALC"> F  </i>
   <i type="string" name="PRECFOCK"></i>
   <i type="logical" name="LHFONE"> F  </i>
   <i type="logical" name="LRHFCALC"> F  </i>
   <i type="logical" name="LTHOMAS"> F  </i>
   <i type="logical" name="LMODELHF"> F  </i>
   <i name="ENCUT4O">     -1.00000000</i>
   <i type="int" name="EXXOEP">     0</i>
   <i type="int" name="FOURORBIT">     0</i>
   <i name="AEXX">      0.00000000</i>
   <i name="HFALPHA">      0.00000000</i>
   <i name="ALDAX">      1.00000000</i>
   <i name="AGGAX">      1.00000000</i>
   <i name="ALDAC">      1.00000000</i>
   <i name="AGGAC">      1.00000000</i>
   <i type="int" name="NKREDX">     1</i>
   <i type="int" name="NKREDY">     1</i>
   <i type="int" name="NKREDZ">     1</i>
   <i type="logical" name="SHIFTRED"> F  </i>
   <i type="logical" name="ODDONLY"> F  </i>
   <i type="logical" name="EVENONLY"> F  </i>
   <i type="int" name="LMAXFOCK">     0</i>
   <i type="int" name="NMAXFOCKAE">     0</i>
   <i type="logical" name="LFOCKAEDFT"> F  </i>
   <i name="HFSCREEN">      0.00000000</i>
   <i name="HFSCREENC">      0.00000000</i>
  </separator>
  <separator name="vdW DFT" >
   <i type="logical" name="LUSE_VDW"> F  </i>
   <i name="Zab_VDW">     -0.84910000</i>
   <i name="PARAM1">      0.12340000</i>
   <i name="PARAM2">      1.00000000</i>
   <i name="PARAM3">      0.00000000</i>
  </separator>
  <separator name="model GW" >
   <i type="int" name="MODEL_GW">     0</i>
   <i name="MODEL_EPS0">      6.54247597</i>
   <i name="MODEL_ALPHA">      1.00000000</i>
  </separator>
  <separator name="linear response parameters" >
   <i type="logical" name="LEPSILON"> F  </i>
   <i type="logical" name="LRPA"> F  </i>
   <i type="logical" name="LNABLA"> F  </i>
   <i type="logical" name="LVEL"> F  </i>
   <i type="int" name="KINTER">     0</i>
   <i name="CSHIFT">      0.10000000</i>
   <i name="OMEGAMAX">     -1.00000000</i>
  </separator>
  <separator name="orbital magnetization" >
   <i type="logical" name="NUCIND"> F  </i>
   <v name="MAGPOS">      0.00000000      0.00000000      0.00000000</v>
   <i type="logical" name="LNICSALL"> T  </i>
   <i type="logical" name="ORBITALMAG"> F  </i>
   <i type="logical" name="LMAGBLOCH"> F  </i>
   <i type="logical" name="LCHIMAG"> F  </i>
   <i type="logical" name="LGAUGE"> T  </i>
   <i type="int" name="MAGATOM">     0</i>
   <v name="MAGDIPOL">      0.00000000      0.00000000      0.00000000</v>
   <v name="AVECCONST">      0.00000000      0.00000000      0.00000000</v>
  </separator>
  <separator name="response functions" >
   <i type="logical" name="LADDER"> F  </i>
   <i type="logical" name="LHARTREE"> T  </i>
   <i type="int" name="IBSE">     0</i>
   <i type="logical" name="LTCTE"> F  </i>
   <i type="logical" name="LTETE"> F  </i>
   <i type="logical" name="LFXCEPS"> F  </i>
   <i type="logical" name="L2ORDER"> F  </i>
   <i type="logical" name="LUSEW"> F  </i>
   <i name="ENCUTGW">     -2.00000000</i>
   <i name="ENCUTGWSOFT">     -2.00000000</i>
   <i name="ENCUTLF">     -1.00000000</i>
   <i type="int" name="LMAXMP2">    -1</i>
   <i name="SCISSOR">      0.00000000</i>
   <i type="int" name="NOMEGA">     0</i>
   <i type="int" name="NOMEGAR">     0</i>
   <i type="int" name="NBANDSGW">    -1</i>
   <i type="int" name="NBANDSO">    -1</i>
   <i type="int" name="NBANDSV">    -1</i>
   <i name="OPTEMAX">      0.00000000</i>
   <i type="int" name="NELM">     1</i>
   <i type="int" name="DIM">     3</i>
   <i type="int" name="ANTIRES">     0</i>
   <i name="OMEGAMAX">    -30.00000000</i>
   <i name="OMEGATL">   -200.00000000</i>
   <i type="int" name="OMEGAGRID">     0</i>
   <i name="CSHIFT">     -0.10000000</i>
   <i type="logical" name="SELFENERGY"> F  </i>
   <i type="logical" name="LSPECTRAL"> F  </i>
   <i type="logical" name="ODDONLYGW"> F  </i>
   <i type="logical" name="EVENONLYGW"> F  </i>
   <i type="int" name="NKREDLFX">     1</i>
   <i type="int" name="NKREDLFY">     1</i>
   <i type="int" name="NKREDLFZ">     1</i>
   <i type="int" name="MAXMEM">  1800</i>
   <i type="int" name="TELESCOPE">     0</i>
  </separator>
 </parameters>
 <atominfo>
  <atoms>       2 </atoms>
  <types>       2 </types>
  <array name="atoms" >
   <dimension dim="1">ion</dimension>
   <field type="string">element</field>
   <field type="int">atomtype</field>
   <set>
    <rc><c>C </c><c>   1</c></rc>
    <rc><c>Ta</c><c>   2</c></rc>
   </set>
  </array>
  <array name="atomtypes" >
   <dimension dim="1">type</dimension>
   <field type="int">atomspertype</field>
   <field type="string">element</field>
   <field>mass</field>
   <field>valence</field>
   <field type="string">pseudopotential</field>
   <set>
    <rc><c>   1</c><c>C </c><c>     12.01100000</c><c>      4.00000000</c><c> PAW_PBE C 08Apr2002                    </c></rc>
    <rc><c>   1</c><c>Ta</c><c>    180.94800000</c><c>      5.00000000</c><c>  PAW_PBE Ta 17Jan2003                  </c></rc>
   </set>
  </array>
 </atominfo>
 <structure name="initialpos" >
  <crystal>
   <varray name="basis" >
    <v>       0.00000000       2.21750000       2.21750000 </v>
    <v>       2.21750000       0.00000000       2.21750000 </v>
    <v>       2.21750000       2.21750000       0.00000000 </v>
   </varray>
   <i name="volume">     21.80825322 </i>
   <varray name="rec_basis" >
    <v>      -0.22547914       0.22547914       0.22547914 </v>
    <v>       0.22547914      -0.22547914       0.22547914 </v>
    <v>       0.22547914       0.22547914      -0.22547914 </v>
   </varray>
  </crystal>
  <varray name="positions" >
   <v>       0.50000000       0.50000000       0.50000000 </v>
   <v>       0.00000000       0.00000000       0.00000000 </v>
  </varray>
 </structure>
 <calculation>
  <scstep>
   <time name="dav">    6.43    6.43</time>
   <time name="total">    6.89    6.89</time>
   <energy>
    <i name="alphaZ">     54.17748121 </i>
    <i name="ewald">   -375.93454926 </i>
    <i name="hartreedc">    -15.33444702 </i>
    <i name="XCdc">    -48.09373511 </i>
    <i name="pawpsdc">    180.96821906 </i>
    <i name="pawaedc">   -107.89329025 </i>
    <i name="eentropy">      0.00007877 </i>
    <i name="bandstr">     45.29616338 </i>
    <i name="atom">    277.79342126 </i>
    <i name="e_fr_energy">     10.97934204 </i>
    <i name="e_wo_entrp">     10.97926327 </i>
    <i name="e_0_energy">     10.97931578 </i>
   </energy>
  </scstep>
  <scstep>
   <time name="dav">    7.84    7.84</time>
   <time name="total">    7.84    7.90</time>
   <energy>
    <i name="e_fr_energy">    -18.12629498 </i>
    <i name="e_wo_entrp">    -18.12650872 </i>
    <i name="e_0_energy">    -18.12636623 </i>
   </energy>
  </scstep>
  <scstep>
   <time name="dav">    7.53    7.53</time>
   <time name="total">    7.54    7.55</time>
   <energy>
    <i name="e_fr_energy">    -19.00646360 </i>
    <i name="e_wo_entrp">    -19.00648556 </i>
    <i name="e_0_energy">    -19.00647092 </i>
   </energy>
  </scstep>
  <scstep>
   <time name="dav">    7.15    7.15</time>
   <time name="total">    7.16    7.16</time>
   <energy>
    <i name="e_fr_energy">    -19.00909702 </i>
    <i name="e_wo_entrp">    -19.00911870 </i>
    <i name="e_0_energy">    -19.00910425 </i>
   </energy>
  </scstep>
  <scstep>
   <time name="dav">    8.05    8.05</time>
   <time name="total">    8.55    8.56</time>
   <energy>
    <i name="e_fr_energy">    -19.00910487 </i>
    <i name="e_wo_entrp">    -19.00912656 </i>
    <i name="e_0_energy">    -19.00911210 </i>
   </energy>
  </scstep>
  <scstep>
   <time name="dav">    7.25    7.25</time>
   <time name="total">    8.27    8.29</time>
   <energy>
    <i name="e_fr_energy">    -22.07776865 </i>
    <i name="e_wo_entrp">    -22.07768188 </i>
    <i name="e_0_energy">    -22.07773972 </i>
   </energy>
  </scstep>
  <scstep>
   <time name="dav">    7.62    7.63</time>
   <time name="total">    8.63    8.64</time>
   <energy>
    <i name="e_fr_energy">    -22.30171772 </i>
    <i name="e_wo_entrp">    -22.30200932 </i>
    <i name="e_0_energy">    -22.30181492 </i>
   </energy>
  </scstep>
  <scstep>
   <time name="dav">    7.20    7.20</time>
   <time name="total">    8.21    8.23</time>
   <energy>
    <i name="e_fr_energy">    -22.24463032 </i>
    <i name="e_wo_entrp">    -22.24492909 </i>
    <i name="e_0_energy">    -22.24472991 </i>
   </energy>
  </scstep>
  <scstep>
   <time name="dav">    7.52    7.52</time>
   <time name="total">    8.53    8.55</time>
   <energy>
    <i name="e_fr_energy">    -22.23536725 </i>
    <i name="e_wo_entrp">    -22.23547018 </i>
    <i name="e_0_energy">    -22.23540156 </i>
   </energy>
  </scstep>
  <scstep>
   <time name="dav">    7.18    7.18</time>
   <time name="total">    8.20    8.21</time>
   <energy>
    <i name="e_fr_energy">    -22.23322703 </i>
    <i name="e_wo_entrp">    -22.23336045 </i>
    <i name="e_0_energy">    -22.23327150 </i>
   </energy>
  </scstep>
  <scstep>
   <time name="dav">    6.31    6.31</time>
   <time name="total">    7.34    7.34</time>
   <energy>
    <i name="e_fr_energy">    -22.23307743 </i>
    <i name="e_wo_entrp">    -22.23321250 </i>
    <i name="e_0_energy">    -22.23312245 </i>
   </energy>
  </scstep>
  <scstep>
   <time name="dav">    5.02    5.02</time>
   <time name="total">    5.55    5.57</time>
   <energy>
    <i name="alphaZ">     54.17748121 </i>
    <i name="ewald">   -375.93454926 </i>
    <i name="hartreedc">    -22.29866173 </i>
    <i name="XCdc">    -51.03327378 </i>
    <i name="pawpsdc">    274.40196036 </i>
    <i name="pawaedc">   -202.49781124 </i>
    <i name="eentropy">      0.00012768 </i>
    <i name="bandstr">     23.15825770 </i>
    <i name="atom">    277.79342126 </i>
    <i name="e_fr_energy">    -22.23304781 </i>
    <i name="e_wo_entrp">    -22.23317549 </i>
    <i name="e_0_energy">    -22.23309037 </i>
   </energy>
  </scstep>
  <parameters_embedded>
   <separator name="dft+d2" >
    <i type="logical" name="LVDW"> F  </i>
   </separator>
  </parameters_embedded>
  <structure>
   <crystal>
    <varray name="basis" >
     <v>       0.00000000       2.21750000       2.21750000 </v>
     <v>       2.21750000       0.00000000       2.21750000 </v>
     <v>       2.21750000       2.21750000       0.00000000 </v>
    </varray>
    <i name="volume">     21.80825322 </i>
    <varray name="rec_basis" >
     <v>      -0.22547914       0.22547914       0.22547914 </v>
     <v>       0.22547914      -0.22547914       0.22547914 </v>
     <v>       0.22547914       0.22547914      -0.22547914 </v>
    </varray>
   </crystal>
   <varray name="positions" >
    <v>       0.50000000       0.50000000       0.50000000 </v>
    <v>       0.00000000       0.00000000       0.00000000 </v>
   </varray>
  </structure>
  <varray name="forces" >
   <v>       0.00000000       0.00000000       0.00000000 </v>
   <v>       0.00000000       0.00000000       0.00000000 </v>
  </varray>
  <varray name="stress" >
   <v>      95.68018406       0.00000000       0.00000000 </v>
   <v>       0.00000000      95.68018406       0.00000000 </v>
   <v>       0.00000000       0.00000000      95.68018406 </v>
  </varray>
  <energy>
   <i name="e_fr_energy">    -22.23304781 </i>
   <i name="e_wo_entrp">    -22.23309037 </i>
   <i name="e_0_energy">      0.00012768 </i>
  </energy>
  <time name="totalsc">   97.29   97.64</time>
  <eigenvalues>
   <array>
    <dimension dim="1">band</dimension>
    <dimension dim="2">kpoint</dimension>
    <dimension dim="3">spin</dimension>
    <field>eigene</field>
    <field>occ</field>
    <set>
     <set comment="spin 1">
      <set comment="kpoint 1">
       <r>   -6.0047    1.0000 </r>
       <r>    6.8154    1.0000 </r>
       <r>    7.1653    1.0000 </r>
       <r>    7.1653    1.0000 </r>
       <r>    7.9274    1.0000 </r>
       <r>    7.9274    1.0000 </r>
       <r>    8.6743   -0.0352 </r>
       <r>   10.2986    0.0000 </r>
       <r>   10.2986    0.0000 </r>
       <r>   15.7541    0.0000 </r>
       <r>   19.1329    0.0000 </r>
       <r>   21.2099    0.0000 </r>
      </set>
      <set comment="kpoint 2">
       <r>   -5.4586    1.0000 </r>
       <r>    5.2471    1.0000 </r>
       <r>    5.7054    1.0000 </r>
       <r>    5.8717    1.0000 </r>
       <r>    7.9001    1.0000 </r>
       <r>    8.8463    0.0000 </r>
       <r>    9.5043    0.0000 </r>
       <r>   11.4385    0.0000 </r>
       <r>   13.0057    0.0000 </r>
       <r>   16.7381    0.0000 </r>
       <r>   20.4796    0.0000 </r>
       <r>   21.2098    0.0000 </r>
      </set>
      <set comment="kpoint 3">
       <r>   -4.2333    1.0000 </r>
       <r>    3.0293    1.0000 </r>
       <r>    4.2435    1.0000 </r>
       <r>    4.5579    1.0000 </r>
       <r>    9.0785    0.0000 </r>
       <r>    9.6741    0.0000 </r>
       <r>   10.4739    0.0000 </r>
       <r>   14.2216    0.0000 </r>
       <r>   15.9841    0.0000 </r>
       <r>   17.6603    0.0000 </r>
       <r>   21.2026    0.0000 </r>
       <r>   22.0969    0.0000 </r>
      </set>
      <set comment="kpoint 4">
       <r>   -2.6638    1.0000 </r>
       <r>    1.0419    1.0000 </r>
       <r>    3.4403    1.0000 </r>
       <r>    3.6163    1.0000 </r>
       <r>   10.6286    0.0000 </r>
       <r>   10.8274    0.0000 </r>
       <r>   11.8035    0.0000 </r>
       <r>   15.9240    0.0000 </r>
       <r>   17.0412    0.0000 </r>
       <r>   18.4143    0.0000 </r>
       <r>   21.2004    0.0000 </r>
       <r>   22.4197    0.0000 </r>
      </set>
      <set comment="kpoint 5">
       <r>   -1.8424    1.0000 </r>
       <r>    0.1439    1.0000 </r>
       <r>    3.2866    1.0000 </r>
       <r>    3.3312    1.0000 </r>
       <r>   11.1582    0.0000 </r>
       <r>   11.5824    0.0000 </r>
       <r>   12.4433    0.0000 </r>
       <r>   14.7059    0.0000 </r>
       <r>   18.4505    0.0000 </r>
       <r>   18.8235    0.0000 </r>
       <r>   21.1967    0.0000 </r>
       <r>   21.4370    0.0000 </r>
      </set>
      <set comment="kpoint 6">
       <r>   -3.2074    1.0000 </r>
       <r>    1.6670    1.0000 </r>
       <r>    3.6422    1.0000 </r>
       <r>    3.9097    1.0000 </r>
       <r>    9.7140    0.0000 </r>
       <r>   10.8985    0.0000 </r>
       <r>   11.2555    0.0000 </r>
       <r>   16.2381    0.0000 </r>
       <r>   16.5549    0.0000 </r>
       <r>   17.8367    0.0000 </r>
       <r>   21.1987    0.0000 </r>
       <r>   22.4519    0.0000 </r>
      </set>
      <set comment="kpoint 7">
       <r>   -4.7067    1.0000 </r>
       <r>    3.6809    1.0000 </r>
       <r>    4.7138    1.0000 </r>
       <r>    5.1121    1.0000 </r>
       <r>    8.3625    1.0000 </r>
       <r>    9.5108    0.0000 </r>
       <r>   10.0850    0.0000 </r>
       <r>   13.4042    0.0000 </r>
       <r>   14.7504    0.0000 </r>
       <r>   17.6677    0.0000 </r>
       <r>   21.2058    0.0000 </r>
       <r>   21.7803    0.0000 </r>
      </set>
      <set comment="kpoint 8">
       <r>   -5.7295    1.0000 </r>
       <r>    5.7717    1.0000 </r>
       <r>    6.3604    1.0000 </r>
       <r>    6.6030    1.0000 </r>
       <r>    7.4373    1.0000 </r>
       <r>    8.7768    0.0000 </r>
       <r>    9.3322    0.0000 </r>
       <r>   10.5336    0.0000 </r>
       <r>   12.0001    0.0000 </r>
       <r>   16.3434    0.0000 </r>
       <r>   19.8493    0.0000 </r>
       <r>   21.2099    0.0000 </r>
      </set>
      <set comment="kpoint 9">
       <r>   -5.2293    1.0000 </r>
       <r>    4.2489    1.0000 </r>
       <r>    5.8434    1.0000 </r>
       <r>    6.2500    1.0000 </r>
       <r>    7.0480    1.0000 </r>
       <r>    9.5792    0.0000 </r>
       <r>   10.3594    0.0000 </r>
       <r>   11.0568    0.0000 </r>
       <r>   13.3816    0.0000 </r>
       <r>   17.5862    0.0000 </r>
       <r>   21.1225    0.0000 </r>
       <r>   21.2098    0.0000 </r>
      </set>
      <set comment="kpoint 10">
       <r>   -4.3653    1.0000 </r>
       <r>    2.9270    1.0000 </r>
       <r>    4.7984    1.0000 </r>
       <r>    5.2776    1.0000 </r>
       <r>    7.5960    1.0000 </r>
       <r>   10.4933    0.0000 </r>
       <r>   11.3115    0.0000 </r>
       <r>   12.4743    0.0000 </r>
       <r>   15.2560    0.0000 </r>
       <r>   18.9372    0.0000 </r>
       <r>   21.2061    0.0000 </r>
       <r>   22.6448    0.0000 </r>
      </set>
      <set comment="kpoint 11">
       <r>   -3.1757    1.0000 </r>
       <r>    1.7077    1.0000 </r>
       <r>    3.7684    1.0000 </r>
       <r>    4.3155    1.0000 </r>
       <r>    8.7291   -0.0029 </r>
       <r>   11.4995    0.0000 </r>
       <r>   12.1930    0.0000 </r>
       <r>   14.7909    0.0000 </r>
       <r>   16.5741    0.0000 </r>
       <r>   19.0207    0.0000 </r>
       <r>   21.1791    0.0000 </r>
       <r>   21.7007    0.0000 </r>
      </set>
      <set comment="kpoint 12">
       <r>   -2.2709    1.0000 </r>
       <r>    0.7963    1.0000 </r>
       <r>    3.5192    1.0000 </r>
       <r>    3.6989    1.0000 </r>
       <r>   10.2826    0.0000 </r>
       <r>   11.4077    0.0000 </r>
       <r>   12.3579    0.0000 </r>
       <r>   16.0715    0.0000 </r>
       <r>   17.3487    0.0000 </r>
       <r>   18.3004    0.0000 </r>
       <r>   21.1824    0.0000 </r>
       <r>   21.6151    0.0000 </r>
      </set>
      <set comment="kpoint 13">
       <r>   -2.6803    1.0000 </r>
       <r>    1.2004    1.0000 </r>
       <r>    3.5828    1.0000 </r>
       <r>    3.8449    1.0000 </r>
       <r>    9.9068    0.0000 </r>
       <r>   11.3565    0.0000 </r>
       <r>   12.0980    0.0000 </r>
       <r>   15.3079    0.0000 </r>
       <r>   16.8523    0.0000 </r>
       <r>   18.9393    0.0000 </r>
       <r>   21.1959    0.0000 </r>
       <r>   22.1907    0.0000 </r>
      </set>
      <set comment="kpoint 14">
       <r>   -3.8975    1.0000 </r>
       <r>    2.5526    1.0000 </r>
       <r>    4.1769    1.0000 </r>
       <r>    4.4527    1.0000 </r>
       <r>    8.6350    0.1911 </r>
       <r>   10.8585    0.0000 </r>
       <r>   11.4124    0.0000 </r>
       <r>   13.0081    0.0000 </r>
       <r>   16.7370    0.0000 </r>
       <r>   18.4161    0.0000 </r>
       <r>   21.2025    0.0000 </r>
       <r>   22.5387    0.0000 </r>
      </set>
      <set comment="kpoint 15">
       <r>   -4.9652    1.0000 </r>
       <r>    4.0272    1.0000 </r>
       <r>    5.1645    1.0000 </r>
       <r>    5.4452    1.0000 </r>
       <r>    7.8516    1.0000 </r>
       <r>    9.6269    0.0000 </r>
       <r>   10.2676    0.0000 </r>
       <r>   11.9398    0.0000 </r>
       <r>   14.3664    0.0000 </r>
       <r>   17.6562    0.0000 </r>
       <r>   21.2084    0.0000 </r>
       <r>   21.5469    0.0000 </r>
      </set>
      <set comment="kpoint 16">
       <r>   -4.1091    1.0000 </r>
       <r>    2.5517    1.0000 </r>
       <r>    4.9686    1.0000 </r>
       <r>    6.1570    1.0000 </r>
       <r>    6.6218    1.0000 </r>
       <r>   10.7354    0.0000 </r>
       <r>   12.3574    0.0000 </r>
       <r>   12.5570    0.0000 </r>
       <r>   15.1456    0.0000 </r>
       <r>   20.3364    0.0000 </r>
       <r>   21.2029    0.0000 </r>
       <r>   22.4638    0.0000 </r>
      </set>
      <set comment="kpoint 17">
       <r>   -3.6368    1.0000 </r>
       <r>    2.5423    1.0000 </r>
       <r>    4.2407    1.0000 </r>
       <r>    5.4648    1.0000 </r>
       <r>    7.4103    1.0000 </r>
       <r>   11.8391    0.0000 </r>
       <r>   12.7893    0.0000 </r>
       <r>   13.1383    0.0000 </r>
       <r>   16.3674    0.0000 </r>
       <r>   19.5814    0.0000 </r>
       <r>   20.6925    0.0000 </r>
       <r>   21.2242    0.0000 </r>
      </set>
      <set comment="kpoint 18">
       <r>   -3.0937    1.0000 </r>
       <r>    2.3313    1.0000 </r>
       <r>    3.7680    1.0000 </r>
       <r>    4.6219    1.0000 </r>
       <r>    8.5035    1.0035 </r>
       <r>   11.9330    0.0000 </r>
       <r>   12.6917    0.0000 </r>
       <r>   14.9204    0.0000 </r>
       <r>   16.3709    0.0000 </r>
       <r>   19.1555    0.0000 </r>
       <r>   20.6809    0.0000 </r>
       <r>   21.2281    0.0000 </r>
      </set>
      <set comment="kpoint 19">
       <r>   -2.6975    1.0000 </r>
       <r>    1.6979    1.0000 </r>
       <r>    3.7202    1.0000 </r>
       <r>    4.0139    1.0000 </r>
       <r>   10.2086    0.0000 </r>
       <r>   10.7914    0.0000 </r>
       <r>   12.4860    0.0000 </r>
       <r>   14.6123    0.0000 </r>
       <r>   17.3893    0.0000 </r>
       <r>   19.6650    0.0000 </r>
       <r>   21.1899    0.0000 </r>
       <r>   21.6522    0.0000 </r>
      </set>
      <set comment="kpoint 20">
       <r>   -2.9148    1.0000 </r>
       <r>    1.5716    1.0000 </r>
       <r>    3.7612    1.0000 </r>
       <r>    3.9081    1.0000 </r>
       <r>    9.6587    0.0000 </r>
       <r>   11.6735    0.0000 </r>
       <r>   12.0304    0.0000 </r>
       <r>   13.7841    0.0000 </r>
       <r>   17.4954    0.0000 </r>
       <r>   19.0663    0.0000 </r>
       <r>   21.1964    0.0000 </r>
       <r>   22.2368    0.0000 </r>
      </set>
      <set comment="kpoint 21">
       <r>   -3.6543    1.0000 </r>
       <r>    2.2142    1.0000 </r>
       <r>    3.9029    1.0000 </r>
       <r>    4.3300    1.0000 </r>
       <r>    8.9761    0.0000 </r>
       <r>   10.5665    0.0000 </r>
       <r>   11.3782    0.0000 </r>
       <r>   14.5811    0.0000 </r>
       <r>   16.7444    0.0000 </r>
       <r>   18.0939    0.0000 </r>
       <r>   21.1994    0.0000 </r>
       <r>   22.3256    0.0000 </r>
      </set>
      <set comment="kpoint 22">
       <r>   -3.8751    1.0000 </r>
       <r>    3.3869    1.0000 </r>
       <r>    4.2744    1.0000 </r>
       <r>    6.5755    1.0000 </r>
       <r>    6.8954    1.0000 </r>
       <r>   11.5497    0.0000 </r>
       <r>   12.9871    0.0000 </r>
       <r>   13.0006    0.0000 </r>
       <r>   16.6106    0.0000 </r>
       <r>   17.4008    0.0000 </r>
       <r>   21.1756    0.0000 </r>
       <r>   21.2285    0.0000 </r>
      </set>
      <set comment="kpoint 23">
       <r>   -3.7304    1.0000 </r>
       <r>    3.8135    1.0000 </r>
       <r>    3.9774    1.0000 </r>
       <r>    5.6856    1.0000 </r>
       <r>    7.5769    1.0000 </r>
       <r>   12.5489    0.0000 </r>
       <r>   12.7594    0.0000 </r>
       <r>   12.9556    0.0000 </r>
       <r>   15.9243    0.0000 </r>
       <r>   17.9287    0.0000 </r>
       <r>   20.9722    0.0000 </r>
       <r>   21.2173    0.0000 </r>
      </set>
      <set comment="kpoint 24">
       <r>   -3.2026    1.0000 </r>
       <r>    2.7986    1.0000 </r>
       <r>    3.8126    1.0000 </r>
       <r>    4.7198    1.0000 </r>
       <r>    8.4390    1.0000 </r>
       <r>   11.8443    0.0000 </r>
       <r>   12.8283    0.0000 </r>
       <r>   14.8790    0.0000 </r>
       <r>   15.5101    0.0000 </r>
       <r>   19.6308    0.0000 </r>
       <r>   21.0336    0.0000 </r>
       <r>   21.2263    0.0000 </r>
      </set>
      <set comment="kpoint 25">
       <r>   -2.5154    1.0000 </r>
       <r>    1.2937    1.0000 </r>
       <r>    3.6567    1.0000 </r>
       <r>    3.8911    1.0000 </r>
       <r>   10.2374    0.0000 </r>
       <r>   10.9958    0.0000 </r>
       <r>   12.2971    0.0000 </r>
       <r>   15.8718    0.0000 </r>
       <r>   17.2227    0.0000 </r>
       <r>   18.5414    0.0000 </r>
       <r>   21.1854    0.0000 </r>
       <r>   21.7080    0.0000 </r>
      </set>
      <set comment="kpoint 26">
       <r>   -2.2637    1.0000 </r>
       <r>    0.6435    1.0000 </r>
       <r>    3.3972    1.0000 </r>
       <r>    3.5784    1.0000 </r>
       <r>   10.4484    0.0000 </r>
       <r>   11.4968    0.0000 </r>
       <r>   12.2442    0.0000 </r>
       <r>   15.6013    0.0000 </r>
       <r>   17.2226    0.0000 </r>
       <r>   18.8731    0.0000 </r>
       <r>   21.1960    0.0000 </r>
       <r>   21.8714    0.0000 </r>
      </set>
      <set comment="kpoint 27">
       <r>   -3.9369    1.0000 </r>
       <r>    3.9958    1.0000 </r>
       <r>    4.1178    1.0000 </r>
       <r>    6.7417    1.0000 </r>
       <r>    7.0156    1.0000 </r>
       <r>   11.7635    0.0000 </r>
       <r>   12.8952    0.0000 </r>
       <r>   12.9479    0.0000 </r>
       <r>   16.0051    0.0000 </r>
       <r>   17.1901    0.0000 </r>
       <r>   20.9715    0.0000 </r>
       <r>   21.2163    0.0000 </r>
      </set>
      <set comment="kpoint 28">
       <r>   -3.6580    1.0000 </r>
       <r>    3.2035    1.0000 </r>
       <r>    4.0524    1.0000 </r>
       <r>    5.6294    1.0000 </r>
       <r>    7.4986    1.0000 </r>
       <r>   12.2777    0.0000 </r>
       <r>   12.8563    0.0000 </r>
       <r>   13.0579    0.0000 </r>
       <r>   16.6976    0.0000 </r>
       <r>   17.9300    0.0000 </r>
       <r>   20.9680    0.0000 </r>
       <r>   21.2201    0.0000 </r>
      </set>
      <set comment="kpoint 29">
       <r>   -3.0084    1.0000 </r>
       <r>    1.8040    1.0000 </r>
       <r>    3.7435    1.0000 </r>
       <r>    4.4467    1.0000 </r>
       <r>    8.5803    0.9584 </r>
       <r>   11.9780    0.0000 </r>
       <r>   12.5655    0.0000 </r>
       <r>   14.8663    0.0000 </r>
       <r>   16.6679    0.0000 </r>
       <r>   19.4342    0.0000 </r>
       <r>   20.4705    0.0000 </r>
       <r>   21.2322    0.0000 </r>
      </set>
      <set comment="kpoint 30">
       <r>   -3.8716    1.0000 </r>
       <r>    2.7235    1.0000 </r>
       <r>    4.5711    1.0000 </r>
       <r>    6.3415    1.0000 </r>
       <r>    6.7188    1.0000 </r>
       <r>   11.1880    0.0000 </r>
       <r>   12.8746    0.0000 </r>
       <r>   12.9620    0.0000 </r>
       <r>   15.9076    0.0000 </r>
       <r>   19.4975    0.0000 </r>
       <r>   21.1923    0.0000 </r>
       <r>   21.2713    0.0000 </r>
      </set>
      <set comment="kpoint 31">
       <r>   -3.8596    1.0000 </r>
       <r>    2.3826    1.0000 </r>
       <r>    4.4941    1.0000 </r>
       <r>    5.3091    1.0000 </r>
       <r>    7.4245    1.0000 </r>
       <r>   11.2437    0.0000 </r>
       <r>   12.2498    0.0000 </r>
       <r>   12.9578    0.0000 </r>
       <r>   15.8254    0.0000 </r>
       <r>   19.9826    0.0000 </r>
       <r>   21.1875    0.0000 </r>
       <r>   21.8571    0.0000 </r>
      </set>
      <set comment="kpoint 32">
       <r>   -4.6226    1.0000 </r>
       <r>    3.0957    1.0000 </r>
       <r>    5.4040    1.0000 </r>
       <r>    6.1093    1.0000 </r>
       <r>    6.7248    1.0000 </r>
       <r>   10.2146    0.0000 </r>
       <r>   11.4461    0.0000 </r>
       <r>   11.8264    0.0000 </r>
       <r>   14.3512    0.0000 </r>
       <r>   19.1448    0.0000 </r>
       <r>   21.2083    0.0000 </r>
       <r>   22.7049    0.0000 </r>
      </set>
      <set comment="kpoint 33">
       <r>   -5.1925    1.0000 </r>
       <r>    4.6391    1.0000 </r>
       <r>    5.3976    1.0000 </r>
       <r>    5.3976    1.0000 </r>
       <r>    8.5649    1.0257 </r>
       <r>    8.5649    1.0257 </r>
       <r>    9.4473    0.0000 </r>
       <r>   13.1467    0.0000 </r>
       <r>   13.1467    0.0000 </r>
       <r>   17.0144    0.0000 </r>
       <r>   20.9875    0.0000 </r>
       <r>   21.2109    0.0000 </r>
      </set>
      <set comment="kpoint 34">
       <r>   -4.4833    1.0000 </r>
       <r>    3.4479    1.0000 </r>
       <r>    4.4314    1.0000 </r>
       <r>    4.7985    1.0000 </r>
       <r>    8.5265    1.0155 </r>
       <r>   10.0929    0.0000 </r>
       <r>   10.6034    0.0000 </r>
       <r>   12.5121    0.0000 </r>
       <r>   15.9013    0.0000 </r>
       <r>   17.8133    0.0000 </r>
       <r>   21.2064    0.0000 </r>
       <r>   22.1525    0.0000 </r>
      </set>
      <set comment="kpoint 35">
       <r>   -3.3385    1.0000 </r>
       <r>    1.9581    1.0000 </r>
       <r>    3.7722    1.0000 </r>
       <r>    4.0834    1.0000 </r>
       <r>    9.4250    0.0000 </r>
       <r>   11.1077    0.0000 </r>
       <r>   11.8765    0.0000 </r>
       <r>   13.4451    0.0000 </r>
       <r>   17.5750    0.0000 </r>
       <r>   18.3050    0.0000 </r>
       <r>   21.2009    0.0000 </r>
       <r>   22.4539    0.0000 </r>
      </set>
      <set comment="kpoint 36">
       <r>   -2.4010    1.0000 </r>
       <r>    0.9768    1.0000 </r>
       <r>    3.6280    1.0000 </r>
       <r>    3.6736    1.0000 </r>
       <r>   10.8423    0.0000 </r>
       <r>   10.9896    0.0000 </r>
       <r>   11.8296    0.0000 </r>
       <r>   15.6341    0.0000 </r>
       <r>   17.4353    0.0000 </r>
       <r>   18.5439    0.0000 </r>
       <r>   21.1976    0.0000 </r>
       <r>   21.9783    0.0000 </r>
      </set>
      <set comment="kpoint 37">
       <r>   -2.6235    1.0000 </r>
       <r>    1.2515    1.0000 </r>
       <r>    3.5821    1.0000 </r>
       <r>    4.0581    1.0000 </r>
       <r>    9.2450    0.0000 </r>
       <r>   11.8814    0.0000 </r>
       <r>   12.5060    0.0000 </r>
       <r>   16.2700    0.0000 </r>
       <r>   16.2986    0.0000 </r>
       <r>   18.8861    0.0000 </r>
       <r>   20.8463    0.0000 </r>
       <r>   21.2494    0.0000 </r>
      </set>
      <set comment="kpoint 38">
       <r>   -3.6147    1.0000 </r>
       <r>    2.1438    1.0000 </r>
       <r>    4.1083    1.0000 </r>
       <r>    5.0035    1.0000 </r>
       <r>    7.7747    1.0000 </r>
       <r>   11.3860    0.0000 </r>
       <r>   12.1653    0.0000 </r>
       <r>   13.9300    0.0000 </r>
       <r>   16.1295    0.0000 </r>
       <r>   19.5037    0.0000 </r>
       <r>   21.1698    0.0000 </r>
       <r>   21.5912    0.0000 </r>
      </set>
      <set comment="kpoint 39">
       <r>   -4.1137    1.0000 </r>
       <r>    2.6832    1.0000 </r>
       <r>    4.3300    1.0000 </r>
       <r>    4.9762    1.0000 </r>
       <r>    8.0318    1.0000 </r>
       <r>   10.5041    0.0000 </r>
       <r>   11.1573    0.0000 </r>
       <r>   13.7095    0.0000 </r>
       <r>   15.6919    0.0000 </r>
       <r>   18.6483    0.0000 </r>
       <r>   21.2024    0.0000 </r>
       <r>   22.3492    0.0000 </r>
      </set>
      <set comment="kpoint 40">
       <r>   -3.4144    1.0000 </r>
       <r>    2.0355    1.0000 </r>
       <r>    4.0648    1.0000 </r>
       <r>    4.3714    1.0000 </r>
       <r>    8.5320    1.0202 </r>
       <r>   11.6628    0.0000 </r>
       <r>   12.1718    0.0000 </r>
       <r>   13.3835    0.0000 </r>
       <r>   16.7775    0.0000 </r>
       <r>   19.3706    0.0000 </r>
       <r>   21.1846    0.0000 </r>
       <r>   21.8070    0.0000 </r>
      </set>
      <set comment="kpoint 41">
       <r>   -2.8330    1.0000 </r>
       <r>    1.7744    1.0000 </r>
       <r>    3.7643    1.0000 </r>
       <r>    4.0165    1.0000 </r>
       <r>    9.6843    0.0000 </r>
       <r>   11.3705    0.0000 </r>
       <r>   12.5199    0.0000 </r>
       <r>   14.0812    0.0000 </r>
       <r>   17.3876    0.0000 </r>
       <r>   19.5691    0.0000 </r>
       <r>   21.1720    0.0000 </r>
       <r>   21.5922    0.0000 </r>
      </set>
      <set comment="kpoint 42">
       <r>   -2.7944    1.0000 </r>
       <r>    1.9050    1.0000 </r>
       <r>    3.7037    1.0000 </r>
       <r>    4.1412    1.0000 </r>
       <r>    9.7334    0.0000 </r>
       <r>   10.9727    0.0000 </r>
       <r>   12.6533    0.0000 </r>
       <r>   15.6335    0.0000 </r>
       <r>   16.1179    0.0000 </r>
       <r>   19.5666    0.0000 </r>
       <r>   21.1631    0.0000 </r>
       <r>   21.4960    0.0000 </r>
      </set>
      <set comment="kpoint 43">
       <r>   -3.2339    1.0000 </r>
       <r>    2.1841    1.0000 </r>
       <r>    3.9332    1.0000 </r>
       <r>    4.5148    1.0000 </r>
       <r>    8.4880    1.0010 </r>
       <r>   12.0604    0.0000 </r>
       <r>   12.6357    0.0000 </r>
       <r>   13.5264    0.0000 </r>
       <r>   16.9294    0.0000 </r>
       <r>   19.7882    0.0000 </r>
       <r>   20.5568    0.0000 </r>
       <r>   21.2322    0.0000 </r>
      </set>
      <set comment="kpoint 44">
       <r>   -3.4056    1.0000 </r>
       <r>    2.2670    1.0000 </r>
       <r>    3.9727    1.0000 </r>
       <r>    5.1566    1.0000 </r>
       <r>    7.6510    1.0000 </r>
       <r>   12.0303    0.0000 </r>
       <r>   12.7123    0.0000 </r>
       <r>   13.9529    0.0000 </r>
       <r>   16.4995    0.0000 </r>
       <r>   19.6597    0.0000 </r>
       <r>   20.1873    0.0000 </r>
       <r>   21.2239    0.0000 </r>
      </set>
      <set comment="kpoint 45">
       <r>   -3.3002    1.0000 </r>
       <r>    2.8344    1.0000 </r>
       <r>    3.8425    1.0000 </r>
       <r>    4.6385    1.0000 </r>
       <r>    8.5276    1.0164 </r>
       <r>   11.9884    0.0000 </r>
       <r>   12.8633    0.0000 </r>
       <r>   13.6001    0.0000 </r>
       <r>   16.5571    0.0000 </r>
       <r>   19.2136    0.0000 </r>
       <r>   20.9455    0.0000 </r>
       <r>   21.2289    0.0000 </r>
      </set>
      <set comment="kpoint 46">
       <r>   -3.1214    1.0000 </r>
       <r>    3.1142    1.0000 </r>
       <r>    3.7416    1.0000 </r>
       <r>    4.0321    1.0000 </r>
       <r>    9.7637    0.0000 </r>
       <r>   10.9569    0.0000 </r>
       <r>   12.9338    0.0000 </r>
       <r>   14.0661    0.0000 </r>
       <r>   15.4397    0.0000 </r>
       <r>   21.0570    0.0000 </r>
       <r>   21.2917    0.0000 </r>
       <r>   21.7556    0.0000 </r>
      </set>
      <set comment="kpoint 47">
       <r>   -2.9837    1.0000 </r>
       <r>    2.4255    1.0000 </r>
       <r>    3.7362    1.0000 </r>
       <r>    4.1640    1.0000 </r>
       <r>    9.7215    0.0000 </r>
       <r>   10.9637    0.0000 </r>
       <r>   12.8442    0.0000 </r>
       <r>   14.2594    0.0000 </r>
       <r>   16.3006    0.0000 </r>
       <r>   20.4476    0.0000 </r>
       <r>   21.1724    0.0000 </r>
       <r>   21.4846    0.0000 </r>
      </set>
      <set comment="kpoint 48">
       <r>   -3.5275    1.0000 </r>
       <r>    3.3479    1.0000 </r>
       <r>    3.9163    1.0000 </r>
       <r>    5.5030    1.0000 </r>
       <r>    7.5317    1.0000 </r>
       <r>   12.3847    0.0000 </r>
       <r>   12.8843    0.0000 </r>
       <r>   13.8630    0.0000 </r>
       <r>   15.7404    0.0000 </r>
       <r>   18.4776    0.0000 </r>
       <r>   20.9091    0.0000 </r>
       <r>   21.2181    0.0000 </r>
      </set>
      <set comment="kpoint 49">
       <r>   -3.3975    1.0000 </r>
       <r>    3.4928    1.0000 </r>
       <r>    3.8375    1.0000 </r>
       <r>    4.5543    1.0000 </r>
       <r>    8.5790    0.9675 </r>
       <r>   11.9562    0.0000 </r>
       <r>   12.9315    0.0000 </r>
       <r>   13.5808    0.0000 </r>
       <r>   15.6885    0.0000 </r>
       <r>   19.4542    0.0000 </r>
       <r>   21.1853    0.0000 </r>
       <r>   21.2339    0.0000 </r>
      </set>
      <set comment="kpoint 50">
       <r>   -3.4445    1.0000 </r>
       <r>    2.8514    1.0000 </r>
       <r>    3.9001    1.0000 </r>
       <r>    5.3584    1.0000 </r>
       <r>    7.5977    1.0000 </r>
       <r>   12.3436    0.0000 </r>
       <r>   12.8096    0.0000 </r>
       <r>   13.8780    0.0000 </r>
       <r>   16.5733    0.0000 </r>
       <r>   18.3696    0.0000 </r>
       <r>   20.6801    0.0000 </r>
       <r>   21.2201    0.0000 </r>
      </set>
      <set comment="kpoint 51">
       <r>   -3.7735    1.0000 </r>
       <r>    2.3932    1.0000 </r>
       <r>    4.0290    1.0000 </r>
       <r>    4.0290    1.0000 </r>
       <r>    9.9579    0.0000 </r>
       <r>    9.9579    0.0000 </r>
       <r>   10.3548    0.0000 </r>
       <r>   16.1186    0.0000 </r>
       <r>   16.1186    0.0000 </r>
       <r>   17.2939    0.0000 </r>
       <r>   21.1993    0.0000 </r>
       <r>   22.2182    0.0000 </r>
      </set>
      <set comment="kpoint 52">
       <r>   -3.1005    1.0000 </r>
       <r>    1.5975    1.0000 </r>
       <r>    3.6247    1.0000 </r>
       <r>    3.9507    1.0000 </r>
       <r>    9.8941    0.0000 </r>
       <r>   10.5804    0.0000 </r>
       <r>   11.9202    0.0000 </r>
       <r>   15.0272    0.0000 </r>
       <r>   17.0124    0.0000 </r>
       <r>   18.3482    0.0000 </r>
       <r>   21.1999    0.0000 </r>
       <r>   22.5621    0.0000 </r>
      </set>
      <set comment="kpoint 53">
       <r>   -2.6211    1.0000 </r>
       <r>    1.3608    1.0000 </r>
       <r>    3.7550    1.0000 </r>
       <r>    3.7624    1.0000 </r>
       <r>   10.4809    0.0000 </r>
       <r>   11.1095    0.0000 </r>
       <r>   12.0299    0.0000 </r>
       <r>   14.2149    0.0000 </r>
       <r>   18.4127    0.0000 </r>
       <r>   18.5892    0.0000 </r>
       <r>   21.1980    0.0000 </r>
       <r>   21.7885    0.0000 </r>
      </set>
      <set comment="kpoint 54">
       <r>   -2.8992    1.0000 </r>
       <r>    2.1197    1.0000 </r>
       <r>    3.7492    1.0000 </r>
       <r>    4.3757    1.0000 </r>
       <r>    9.0688    0.0000 </r>
       <r>   11.5357    0.0000 </r>
       <r>   12.6121    0.0000 </r>
       <r>   15.0687    0.0000 </r>
       <r>   16.4809    0.0000 </r>
       <r>   19.8329    0.0000 </r>
       <r>   21.0923    0.0000 </r>
       <r>   21.2513    0.0000 </r>
      </set>
      <set comment="kpoint 55">
       <r>   -2.7458    1.0000 </r>
       <r>    1.1838    1.0000 </r>
       <r>    3.5260    1.0000 </r>
       <r>    3.9256    1.0000 </r>
       <r>    9.4245    0.0000 </r>
       <r>   11.6184    0.0000 </r>
       <r>   12.2158    0.0000 </r>
       <r>   16.0658    0.0000 </r>
       <r>   16.2772    0.0000 </r>
       <r>   18.8382    0.0000 </r>
       <r>   21.1845    0.0000 </r>
       <r>   21.7541    0.0000 </r>
      </set>
      <set comment="kpoint 56">
       <r>   -2.6181    1.0000 </r>
       <r>    1.3588    1.0000 </r>
       <r>    3.6469    1.0000 </r>
       <r>    3.9540    1.0000 </r>
       <r>    9.7902    0.0000 </r>
       <r>   11.3612    0.0000 </r>
       <r>   12.3774    0.0000 </r>
       <r>   15.4971    0.0000 </r>
       <r>   17.0017    0.0000 </r>
       <r>   18.9146    0.0000 </r>
       <r>   21.1715    0.0000 </r>
       <r>   21.5804    0.0000 </r>
      </set>
      <set comment="kpoint 57">
       <r>   -2.9455    1.0000 </r>
       <r>    2.3897    1.0000 </r>
       <r>    3.7356    1.0000 </r>
       <r>    4.2080    1.0000 </r>
       <r>    9.6909    0.0000 </r>
       <r>   10.8993    0.0000 </r>
       <r>   12.8212    0.0000 </r>
       <r>   14.7867    0.0000 </r>
       <r>   15.8834    0.0000 </r>
       <r>   20.7528    0.0000 </r>
       <r>   21.1890    0.0000 </r>
       <r>   21.5650    0.0000 </r>
      </set>
      <set comment="kpoint 58">
       <r>   -2.7620    1.0000 </r>
       <r>    1.7149    1.0000 </r>
       <r>    3.6881    1.0000 </r>
       <r>    4.2415    1.0000 </r>
       <r>    9.1482    0.0000 </r>
       <r>   11.7409    0.0000 </r>
       <r>   12.4180    0.0000 </r>
       <r>   16.1253    0.0000 </r>
       <r>   16.3910    0.0000 </r>
       <r>   18.8154    0.0000 </r>
       <r>   20.9391    0.0000 </r>
       <r>   21.2536    0.0000 </r>
      </set>
      <set comment="kpoint 59">
       <r>   -2.1427    1.0000 </r>
       <r>    0.4474    1.0000 </r>
       <r>    3.3258    1.0000 </r>
       <r>    3.3258    1.0000 </r>
       <r>   11.3084    0.0000 </r>
       <r>   11.3084    0.0000 </r>
       <r>   11.9346    0.0000 </r>
       <r>   15.0198    0.0000 </r>
       <r>   18.4561    0.0000 </r>
       <r>   18.4561    0.0000 </r>
       <r>   21.7995    0.0000 </r>
       <r>   21.7995    0.0000 </r>
      </set>
      <set comment="kpoint 60">
       <r>   -2.0448    1.0000 </r>
       <r>    0.4428    1.0000 </r>
       <r>    3.4511    1.0000 </r>
       <r>    3.4657    1.0000 </r>
       <r>   10.9708    0.0000 </r>
       <r>   11.3346    0.0000 </r>
       <r>   12.1479    0.0000 </r>
       <r>   15.6300    0.0000 </r>
       <r>   17.7706    0.0000 </r>
       <r>   18.4786    0.0000 </r>
       <r>   21.1961    0.0000 </r>
       <r>   21.7048    0.0000 </r>
      </set>
     </set>
     <set comment="spin 2">
      <set comment="kpoint 1">
       <r>   -6.0042    1.0000 </r>
       <r>    6.8154    1.0000 </r>
       <r>    7.1653    1.0000 </r>
       <r>    7.1653    1.0000 </r>
       <r>    7.9276    1.0000 </r>
       <r>    7.9276    1.0000 </r>
       <r>    8.6747   -0.0353 </r>
       <r>   10.2989    0.0000 </r>
       <r>   10.2989    0.0000 </r>
       <r>   15.7545    0.0000 </r>
       <r>   19.1315    0.0000 </r>
       <r>   21.2097    0.0000 </r>
      </set>
      <set comment="kpoint 2">
       <r>   -5.4580    1.0000 </r>
       <r>    5.2474    1.0000 </r>
       <r>    5.7057    1.0000 </r>
       <r>    5.8718    1.0000 </r>
       <r>    7.8998    1.0000 </r>
       <r>    8.8461    0.0000 </r>
       <r>    9.5045    0.0000 </r>
       <r>   11.4389    0.0000 </r>
       <r>   13.0062    0.0000 </r>
       <r>   16.7385    0.0000 </r>
       <r>   20.4782    0.0000 </r>
       <r>   21.2096    0.0000 </r>
      </set>
      <set comment="kpoint 3">
       <r>   -4.2327    1.0000 </r>
       <r>    3.0296    1.0000 </r>
       <r>    4.2438    1.0000 </r>
       <r>    4.5582    1.0000 </r>
       <r>    9.0782    0.0000 </r>
       <r>    9.6739    0.0000 </r>
       <r>   10.4737    0.0000 </r>
       <r>   14.2221    0.0000 </r>
       <r>   15.9848    0.0000 </r>
       <r>   17.6606    0.0000 </r>
       <r>   21.2024    0.0000 </r>
       <r>   22.0960    0.0000 </r>
      </set>
      <set comment="kpoint 4">
       <r>   -2.6631    1.0000 </r>
       <r>    1.0422    1.0000 </r>
       <r>    3.4405    1.0000 </r>
       <r>    3.6166    1.0000 </r>
       <r>   10.6282    0.0000 </r>
       <r>   10.8270    0.0000 </r>
       <r>   11.8031    0.0000 </r>
       <r>   15.9239    0.0000 </r>
       <r>   17.0419    0.0000 </r>
       <r>   18.4152    0.0000 </r>
       <r>   21.2003    0.0000 </r>
       <r>   22.4204    0.0000 </r>
      </set>
      <set comment="kpoint 5">
       <r>   -1.8415    1.0000 </r>
       <r>    0.1441    1.0000 </r>
       <r>    3.2869    1.0000 </r>
       <r>    3.3315    1.0000 </r>
       <r>   11.1577    0.0000 </r>
       <r>   11.5819    0.0000 </r>
       <r>   12.4428    0.0000 </r>
       <r>   14.7056    0.0000 </r>
       <r>   18.4514    0.0000 </r>
       <r>   18.8245    0.0000 </r>
       <r>   21.1966    0.0000 </r>
       <r>   21.4376    0.0000 </r>
      </set>
      <set comment="kpoint 6">
       <r>   -3.2067    1.0000 </r>
       <r>    1.6673    1.0000 </r>
       <r>    3.6425    1.0000 </r>
       <r>    3.9100    1.0000 </r>
       <r>    9.7137    0.0000 </r>
       <r>   10.8980    0.0000 </r>
       <r>   11.2552    0.0000 </r>
       <r>   16.2388    0.0000 </r>
       <r>   16.5549    0.0000 </r>
       <r>   17.8374    0.0000 </r>
       <r>   21.1985    0.0000 </r>
       <r>   22.4519    0.0000 </r>
      </set>
      <set comment="kpoint 7">
       <r>   -4.7061    1.0000 </r>
       <r>    3.6811    1.0000 </r>
       <r>    4.7141    1.0000 </r>
       <r>    5.1124    1.0000 </r>
       <r>    8.3623    1.0000 </r>
       <r>    9.5105    0.0000 </r>
       <r>   10.0848    0.0000 </r>
       <r>   13.4047    0.0000 </r>
       <r>   14.7510    0.0000 </r>
       <r>   17.6680    0.0000 </r>
       <r>   21.2056    0.0000 </r>
       <r>   21.7790    0.0000 </r>
      </set>
      <set comment="kpoint 8">
       <r>   -5.7290    1.0000 </r>
       <r>    5.7721    1.0000 </r>
       <r>    6.3605    1.0000 </r>
       <r>    6.6032    1.0000 </r>
       <r>    7.4371    1.0000 </r>
       <r>    8.7768    0.0000 </r>
       <r>    9.3325    0.0000 </r>
       <r>   10.5339    0.0000 </r>
       <r>   12.0005    0.0000 </r>
       <r>   16.3438    0.0000 </r>
       <r>   19.8479    0.0000 </r>
       <r>   21.2097    0.0000 </r>
      </set>
      <set comment="kpoint 9">
       <r>   -5.2287    1.0000 </r>
       <r>    4.2493    1.0000 </r>
       <r>    5.8434    1.0000 </r>
       <r>    6.2503    1.0000 </r>
       <r>    7.0479    1.0000 </r>
       <r>    9.5791    0.0000 </r>
       <r>   10.3595    0.0000 </r>
       <r>   11.0570    0.0000 </r>
       <r>   13.3821    0.0000 </r>
       <r>   17.5867    0.0000 </r>
       <r>   21.1211    0.0000 </r>
       <r>   21.2096    0.0000 </r>
      </set>
      <set comment="kpoint 10">
       <r>   -4.3646    1.0000 </r>
       <r>    2.9273    1.0000 </r>
       <r>    4.7985    1.0000 </r>
       <r>    5.2780    1.0000 </r>
       <r>    7.5959    1.0000 </r>
       <r>   10.4931    0.0000 </r>
       <r>   11.3114    0.0000 </r>
       <r>   12.4745    0.0000 </r>
       <r>   15.2565    0.0000 </r>
       <r>   18.9377    0.0000 </r>
       <r>   21.2059    0.0000 </r>
       <r>   22.6437    0.0000 </r>
      </set>
      <set comment="kpoint 11">
       <r>   -3.1750    1.0000 </r>
       <r>    1.7080    1.0000 </r>
       <r>    3.7687    1.0000 </r>
       <r>    4.3158    1.0000 </r>
       <r>    8.7289   -0.0030 </r>
       <r>   11.4991    0.0000 </r>
       <r>   12.1925    0.0000 </r>
       <r>   14.7914    0.0000 </r>
       <r>   16.5744    0.0000 </r>
       <r>   19.0213    0.0000 </r>
       <r>   21.1790    0.0000 </r>
       <r>   21.7009    0.0000 </r>
      </set>
      <set comment="kpoint 12">
       <r>   -2.2701    1.0000 </r>
       <r>    0.7964    1.0000 </r>
       <r>    3.5195    1.0000 </r>
       <r>    3.6993    1.0000 </r>
       <r>   10.2823    0.0000 </r>
       <r>   11.4072    0.0000 </r>
       <r>   12.3574    0.0000 </r>
       <r>   16.0715    0.0000 </r>
       <r>   17.3494    0.0000 </r>
       <r>   18.3010    0.0000 </r>
       <r>   21.1824    0.0000 </r>
       <r>   21.6156    0.0000 </r>
      </set>
      <set comment="kpoint 13">
       <r>   -2.6795    1.0000 </r>
       <r>    1.2007    1.0000 </r>
       <r>    3.5831    1.0000 </r>
       <r>    3.8452    1.0000 </r>
       <r>    9.9065    0.0000 </r>
       <r>   11.3561    0.0000 </r>
       <r>   12.0976    0.0000 </r>
       <r>   15.3084    0.0000 </r>
       <r>   16.8523    0.0000 </r>
       <r>   18.9402    0.0000 </r>
       <r>   21.1957    0.0000 </r>
       <r>   22.1913    0.0000 </r>
      </set>
      <set comment="kpoint 14">
       <r>   -3.8968    1.0000 </r>
       <r>    2.5529    1.0000 </r>
       <r>    4.1772    1.0000 </r>
       <r>    4.4528    1.0000 </r>
       <r>    8.6348    0.1943 </r>
       <r>   10.8584    0.0000 </r>
       <r>   11.4121    0.0000 </r>
       <r>   13.0084    0.0000 </r>
       <r>   16.7376    0.0000 </r>
       <r>   18.4165    0.0000 </r>
       <r>   21.2023    0.0000 </r>
       <r>   22.5381    0.0000 </r>
      </set>
      <set comment="kpoint 15">
       <r>   -4.9646    1.0000 </r>
       <r>    4.0275    1.0000 </r>
       <r>    5.1646    1.0000 </r>
       <r>    5.4455    1.0000 </r>
       <r>    7.8514    1.0000 </r>
       <r>    9.6267    0.0000 </r>
       <r>   10.2676    0.0000 </r>
       <r>   11.9401    0.0000 </r>
       <r>   14.3670    0.0000 </r>
       <r>   17.6566    0.0000 </r>
       <r>   21.2082    0.0000 </r>
       <r>   21.5455    0.0000 </r>
      </set>
      <set comment="kpoint 16">
       <r>   -4.1085    1.0000 </r>
       <r>    2.5520    1.0000 </r>
       <r>    4.9684    1.0000 </r>
       <r>    6.1575    1.0000 </r>
       <r>    6.6222    1.0000 </r>
       <r>   10.7354    0.0000 </r>
       <r>   12.3571    0.0000 </r>
       <r>   12.5568    0.0000 </r>
       <r>   15.1461    0.0000 </r>
       <r>   20.3370    0.0000 </r>
       <r>   21.2027    0.0000 </r>
       <r>   22.4638    0.0000 </r>
      </set>
      <set comment="kpoint 17">
       <r>   -3.6362    1.0000 </r>
       <r>    2.5426    1.0000 </r>
       <r>    4.2406    1.0000 </r>
       <r>    5.4653    1.0000 </r>
       <r>    7.4106    1.0000 </r>
       <r>   11.8389    0.0000 </r>
       <r>   12.7888    0.0000 </r>
       <r>   13.1382    0.0000 </r>
       <r>   16.3680    0.0000 </r>
       <r>   19.5818    0.0000 </r>
       <r>   20.6928    0.0000 </r>
       <r>   21.2239    0.0000 </r>
      </set>
      <set comment="kpoint 18">
       <r>   -3.0931    1.0000 </r>
       <r>    2.3315    1.0000 </r>
       <r>    3.7683    1.0000 </r>
       <r>    4.6223    1.0000 </r>
       <r>    8.5035    1.0035 </r>
       <r>   11.9324    0.0000 </r>
       <r>   12.6912    0.0000 </r>
       <r>   14.9208    0.0000 </r>
       <r>   16.3714    0.0000 </r>
       <r>   19.1557    0.0000 </r>
       <r>   20.6814    0.0000 </r>
       <r>   21.2278    0.0000 </r>
      </set>
      <set comment="kpoint 19">
       <r>   -2.6968    1.0000 </r>
       <r>    1.6982    1.0000 </r>
       <r>    3.7205    1.0000 </r>
       <r>    4.0143    1.0000 </r>
       <r>   10.2083    0.0000 </r>
       <r>   10.7910    0.0000 </r>
       <r>   12.4857    0.0000 </r>
       <r>   14.6126    0.0000 </r>
       <r>   17.3900    0.0000 </r>
       <r>   19.6649    0.0000 </r>
       <r>   21.1898    0.0000 </r>
       <r>   21.6521    0.0000 </r>
      </set>
      <set comment="kpoint 20">
       <r>   -2.9140    1.0000 </r>
       <r>    1.5718    1.0000 </r>
       <r>    3.7615    1.0000 </r>
       <r>    3.9083    1.0000 </r>
       <r>    9.6584    0.0000 </r>
       <r>   11.6732    0.0000 </r>
       <r>   12.0301    0.0000 </r>
       <r>   13.7844    0.0000 </r>
       <r>   17.4956    0.0000 </r>
       <r>   19.0671    0.0000 </r>
       <r>   21.1963    0.0000 </r>
       <r>   22.2361    0.0000 </r>
      </set>
      <set comment="kpoint 21">
       <r>   -3.6536    1.0000 </r>
       <r>    2.2145    1.0000 </r>
       <r>    3.9031    1.0000 </r>
       <r>    4.3303    1.0000 </r>
       <r>    8.9759    0.0000 </r>
       <r>   10.5662    0.0000 </r>
       <r>   11.3779    0.0000 </r>
       <r>   14.5816    0.0000 </r>
       <r>   16.7449    0.0000 </r>
       <r>   18.0943    0.0000 </r>
       <r>   21.1992    0.0000 </r>
       <r>   22.3254    0.0000 </r>
      </set>
      <set comment="kpoint 22">
       <r>   -3.8745    1.0000 </r>
       <r>    3.3874    1.0000 </r>
       <r>    4.2740    1.0000 </r>
       <r>    6.5762    1.0000 </r>
       <r>    6.8960    1.0000 </r>
       <r>   11.5497    0.0000 </r>
       <r>   12.9865    0.0000 </r>
       <r>   12.9999    0.0000 </r>
       <r>   16.6114    0.0000 </r>
       <r>   17.4008    0.0000 </r>
       <r>   21.1757    0.0000 </r>
       <r>   21.2282    0.0000 </r>
      </set>
      <set comment="kpoint 23">
       <r>   -3.7298    1.0000 </r>
       <r>    3.8137    1.0000 </r>
       <r>    3.9776    1.0000 </r>
       <r>    5.6861    1.0000 </r>
       <r>    7.5774    1.0000 </r>
       <r>   12.5484    0.0000 </r>
       <r>   12.7594    0.0000 </r>
       <r>   12.9549    0.0000 </r>
       <r>   15.9245    0.0000 </r>
       <r>   17.9293    0.0000 </r>
       <r>   20.9721    0.0000 </r>
       <r>   21.2170    0.0000 </r>
      </set>
      <set comment="kpoint 24">
       <r>   -3.2019    1.0000 </r>
       <r>    2.7987    1.0000 </r>
       <r>    3.8130    1.0000 </r>
       <r>    4.7202    1.0000 </r>
       <r>    8.4390    1.0000 </r>
       <r>   11.8438    0.0000 </r>
       <r>   12.8278    0.0000 </r>
       <r>   14.8794    0.0000 </r>
       <r>   15.5106    0.0000 </r>
       <r>   19.6313    0.0000 </r>
       <r>   21.0335    0.0000 </r>
       <r>   21.2260    0.0000 </r>
      </set>
      <set comment="kpoint 25">
       <r>   -2.5147    1.0000 </r>
       <r>    1.2939    1.0000 </r>
       <r>    3.6570    1.0000 </r>
       <r>    3.8914    1.0000 </r>
       <r>   10.2371    0.0000 </r>
       <r>   10.9954    0.0000 </r>
       <r>   12.2967    0.0000 </r>
       <r>   15.8723    0.0000 </r>
       <r>   17.2232    0.0000 </r>
       <r>   18.5414    0.0000 </r>
       <r>   21.1853    0.0000 </r>
       <r>   21.7086    0.0000 </r>
      </set>
      <set comment="kpoint 26">
       <r>   -2.2629    1.0000 </r>
       <r>    0.6437    1.0000 </r>
       <r>    3.3975    1.0000 </r>
       <r>    3.5787    1.0000 </r>
       <r>   10.4480    0.0000 </r>
       <r>   11.4963    0.0000 </r>
       <r>   12.2438    0.0000 </r>
       <r>   15.6012    0.0000 </r>
       <r>   17.2233    0.0000 </r>
       <r>   18.8740    0.0000 </r>
       <r>   21.1959    0.0000 </r>
       <r>   21.8720    0.0000 </r>
      </set>
      <set comment="kpoint 27">
       <r>   -3.9364    1.0000 </r>
       <r>    3.9963    1.0000 </r>
       <r>    4.1174    1.0000 </r>
       <r>    6.7425    1.0000 </r>
       <r>    7.0163    1.0000 </r>
       <r>   11.7635    0.0000 </r>
       <r>   12.8944    0.0000 </r>
       <r>   12.9471    0.0000 </r>
       <r>   16.0051    0.0000 </r>
       <r>   17.1908    0.0000 </r>
       <r>   20.9714    0.0000 </r>
       <r>   21.2161    0.0000 </r>
      </set>
      <set comment="kpoint 28">
       <r>   -3.6574    1.0000 </r>
       <r>    3.2039    1.0000 </r>
       <r>    4.0523    1.0000 </r>
       <r>    5.6300    1.0000 </r>
       <r>    7.4990    1.0000 </r>
       <r>   12.2774    0.0000 </r>
       <r>   12.8559    0.0000 </r>
       <r>   13.0576    0.0000 </r>
       <r>   16.6982    0.0000 </r>
       <r>   17.9302    0.0000 </r>
       <r>   20.9681    0.0000 </r>
       <r>   21.2198    0.0000 </r>
      </set>
      <set comment="kpoint 29">
       <r>   -3.0077    1.0000 </r>
       <r>    1.8042    1.0000 </r>
       <r>    3.7438    1.0000 </r>
       <r>    4.4470    1.0000 </r>
       <r>    8.5802    0.9591 </r>
       <r>   11.9774    0.0000 </r>
       <r>   12.5650    0.0000 </r>
       <r>   14.8668    0.0000 </r>
       <r>   16.6682    0.0000 </r>
       <r>   19.4347    0.0000 </r>
       <r>   20.4710    0.0000 </r>
       <r>   21.2318    0.0000 </r>
      </set>
      <set comment="kpoint 30">
       <r>   -3.8710    1.0000 </r>
       <r>    2.7238    1.0000 </r>
       <r>    4.5707    1.0000 </r>
       <r>    6.3421    1.0000 </r>
       <r>    6.7193    1.0000 </r>
       <r>   11.1880    0.0000 </r>
       <r>   12.8741    0.0000 </r>
       <r>   12.9616    0.0000 </r>
       <r>   15.9082    0.0000 </r>
       <r>   19.4979    0.0000 </r>
       <r>   21.1924    0.0000 </r>
       <r>   21.2712    0.0000 </r>
      </set>
      <set comment="kpoint 31">
       <r>   -3.8589    1.0000 </r>
       <r>    2.3829    1.0000 </r>
       <r>    4.4941    1.0000 </r>
       <r>    5.3095    1.0000 </r>
       <r>    7.4245    1.0000 </r>
       <r>   11.2435    0.0000 </r>
       <r>   12.2495    0.0000 </r>
       <r>   12.9579    0.0000 </r>
       <r>   15.8259    0.0000 </r>
       <r>   19.9832    0.0000 </r>
       <r>   21.1874    0.0000 </r>
       <r>   21.8572    0.0000 </r>
      </set>
      <set comment="kpoint 32">
       <r>   -4.6220    1.0000 </r>
       <r>    3.0960    1.0000 </r>
       <r>    5.4039    1.0000 </r>
       <r>    6.1097    1.0000 </r>
       <r>    6.7249    1.0000 </r>
       <r>   10.2145    0.0000 </r>
       <r>   11.4460    0.0000 </r>
       <r>   11.8265    0.0000 </r>
       <r>   14.3517    0.0000 </r>
       <r>   19.1454    0.0000 </r>
       <r>   21.2081    0.0000 </r>
       <r>   22.7035    0.0000 </r>
      </set>
      <set comment="kpoint 33">
       <r>   -5.1919    1.0000 </r>
       <r>    4.6393    1.0000 </r>
       <r>    5.3980    1.0000 </r>
       <r>    5.3980    1.0000 </r>
       <r>    8.5646    1.0262 </r>
       <r>    8.5646    1.0262 </r>
       <r>    9.4473    0.0000 </r>
       <r>   13.1472    0.0000 </r>
       <r>   13.1472    0.0000 </r>
       <r>   17.0148    0.0000 </r>
       <r>   20.9862    0.0000 </r>
       <r>   21.2107    0.0000 </r>
      </set>
      <set comment="kpoint 34">
       <r>   -4.4827    1.0000 </r>
       <r>    3.4482    1.0000 </r>
       <r>    4.4318    1.0000 </r>
       <r>    4.7986    1.0000 </r>
       <r>    8.5262    1.0153 </r>
       <r>   10.0929    0.0000 </r>
       <r>   10.6033    0.0000 </r>
       <r>   12.5124    0.0000 </r>
       <r>   15.9020    0.0000 </r>
       <r>   17.8136    0.0000 </r>
       <r>   21.2062    0.0000 </r>
       <r>   22.1513    0.0000 </r>
      </set>
      <set comment="kpoint 35">
       <r>   -3.3378    1.0000 </r>
       <r>    1.9584    1.0000 </r>
       <r>    3.7725    1.0000 </r>
       <r>    4.0836    1.0000 </r>
       <r>    9.4246    0.0000 </r>
       <r>   11.1077    0.0000 </r>
       <r>   11.8761    0.0000 </r>
       <r>   13.4454    0.0000 </r>
       <r>   17.5752    0.0000 </r>
       <r>   18.3060    0.0000 </r>
       <r>   21.2008    0.0000 </r>
       <r>   22.4533    0.0000 </r>
      </set>
      <set comment="kpoint 36">
       <r>   -2.4003    1.0000 </r>
       <r>    0.9770    1.0000 </r>
       <r>    3.6284    1.0000 </r>
       <r>    3.6738    1.0000 </r>
       <r>   10.8418    0.0000 </r>
       <r>   10.9892    0.0000 </r>
       <r>   11.8293    0.0000 </r>
       <r>   15.6346    0.0000 </r>
       <r>   17.4352    0.0000 </r>
       <r>   18.5448    0.0000 </r>
       <r>   21.1975    0.0000 </r>
       <r>   21.9788    0.0000 </r>
      </set>
      <set comment="kpoint 37">
       <r>   -2.6228    1.0000 </r>
       <r>    1.2517    1.0000 </r>
       <r>    3.5824    1.0000 </r>
       <r>    4.0585    1.0000 </r>
       <r>    9.2448    0.0000 </r>
       <r>   11.8808    0.0000 </r>
       <r>   12.5055    0.0000 </r>
       <r>   16.2702    0.0000 </r>
       <r>   16.2992    0.0000 </r>
       <r>   18.8866    0.0000 </r>
       <r>   20.8469    0.0000 </r>
       <r>   21.2490    0.0000 </r>
      </set>
      <set comment="kpoint 38">
       <r>   -3.6140    1.0000 </r>
       <r>    2.1440    1.0000 </r>
       <r>    4.1085    1.0000 </r>
       <r>    5.0039    1.0000 </r>
       <r>    7.7746    1.0000 </r>
       <r>   11.3856    0.0000 </r>
       <r>   12.1650    0.0000 </r>
       <r>   13.9303    0.0000 </r>
       <r>   16.1300    0.0000 </r>
       <r>   19.5041    0.0000 </r>
       <r>   21.1699    0.0000 </r>
       <r>   21.5913    0.0000 </r>
      </set>
      <set comment="kpoint 39">
       <r>   -4.1131    1.0000 </r>
       <r>    2.6835    1.0000 </r>
       <r>    4.3302    1.0000 </r>
       <r>    4.9765    1.0000 </r>
       <r>    8.0316    1.0000 </r>
       <r>   10.5038    0.0000 </r>
       <r>   11.1571    0.0000 </r>
       <r>   13.7099    0.0000 </r>
       <r>   15.6924    0.0000 </r>
       <r>   18.6487    0.0000 </r>
       <r>   21.2022    0.0000 </r>
       <r>   22.3486    0.0000 </r>
      </set>
      <set comment="kpoint 40">
       <r>   -3.4137    1.0000 </r>
       <r>    2.0358    1.0000 </r>
       <r>    4.0650    1.0000 </r>
       <r>    4.3717    1.0000 </r>
       <r>    8.5319    1.0201 </r>
       <r>   11.6625    0.0000 </r>
       <r>   12.1715    0.0000 </r>
       <r>   13.3837    0.0000 </r>
       <r>   16.7779    0.0000 </r>
       <r>   19.3712    0.0000 </r>
       <r>   21.1845    0.0000 </r>
       <r>   21.8073    0.0000 </r>
      </set>
      <set comment="kpoint 41">
       <r>   -2.8322    1.0000 </r>
       <r>    1.7746    1.0000 </r>
       <r>    3.7645    1.0000 </r>
       <r>    4.0169    1.0000 </r>
       <r>    9.6842    0.0000 </r>
       <r>   11.3701    0.0000 </r>
       <r>   12.5195    0.0000 </r>
       <r>   14.0815    0.0000 </r>
       <r>   17.3881    0.0000 </r>
       <r>   19.5694    0.0000 </r>
       <r>   21.1721    0.0000 </r>
       <r>   21.5926    0.0000 </r>
      </set>
      <set comment="kpoint 42">
       <r>   -2.7936    1.0000 </r>
       <r>    1.9052    1.0000 </r>
       <r>    3.7040    1.0000 </r>
       <r>    4.1415    1.0000 </r>
       <r>    9.7332    0.0000 </r>
       <r>   10.9723    0.0000 </r>
       <r>   12.6527    0.0000 </r>
       <r>   15.6340    0.0000 </r>
       <r>   16.1184    0.0000 </r>
       <r>   19.5665    0.0000 </r>
       <r>   21.1633    0.0000 </r>
       <r>   21.4963    0.0000 </r>
      </set>
      <set comment="kpoint 43">
       <r>   -3.2332    1.0000 </r>
       <r>    2.1844    1.0000 </r>
       <r>    3.9333    1.0000 </r>
       <r>    4.5152    1.0000 </r>
       <r>    8.4880    1.0010 </r>
       <r>   12.0599    0.0000 </r>
       <r>   12.6352    0.0000 </r>
       <r>   13.5266    0.0000 </r>
       <r>   16.9299    0.0000 </r>
       <r>   19.7887    0.0000 </r>
       <r>   20.5573    0.0000 </r>
       <r>   21.2319    0.0000 </r>
      </set>
      <set comment="kpoint 44">
       <r>   -3.4050    1.0000 </r>
       <r>    2.2673    1.0000 </r>
       <r>    3.9728    1.0000 </r>
       <r>    5.1570    1.0000 </r>
       <r>    7.6511    1.0000 </r>
       <r>   12.0298    0.0000 </r>
       <r>   12.7117    0.0000 </r>
       <r>   13.9532    0.0000 </r>
       <r>   16.5001    0.0000 </r>
       <r>   19.6601    0.0000 </r>
       <r>   20.1876    0.0000 </r>
       <r>   21.2236    0.0000 </r>
      </set>
      <set comment="kpoint 45">
       <r>   -3.2995    1.0000 </r>
       <r>    2.8347    1.0000 </r>
       <r>    3.8425    1.0000 </r>
       <r>    4.6389    1.0000 </r>
       <r>    8.5278    1.0166 </r>
       <r>   11.9879    0.0000 </r>
       <r>   12.8627    0.0000 </r>
       <r>   13.6004    0.0000 </r>
       <r>   16.5576    0.0000 </r>
       <r>   19.2139    0.0000 </r>
       <r>   20.9457    0.0000 </r>
       <r>   21.2286    0.0000 </r>
      </set>
      <set comment="kpoint 46">
       <r>   -3.1207    1.0000 </r>
       <r>    3.1144    1.0000 </r>
       <r>    3.7418    1.0000 </r>
       <r>    4.0325    1.0000 </r>
       <r>    9.7637    0.0000 </r>
       <r>   10.9567    0.0000 </r>
       <r>   12.9331    0.0000 </r>
       <r>   14.0663    0.0000 </r>
       <r>   15.4403    0.0000 </r>
       <r>   21.0577    0.0000 </r>
       <r>   21.2914    0.0000 </r>
       <r>   21.7555    0.0000 </r>
      </set>
      <set comment="kpoint 47">
       <r>   -2.9830    1.0000 </r>
       <r>    2.4258    1.0000 </r>
       <r>    3.7364    1.0000 </r>
       <r>    4.1644    1.0000 </r>
       <r>    9.7215    0.0000 </r>
       <r>   10.9634    0.0000 </r>
       <r>   12.8436    0.0000 </r>
       <r>   14.2596    0.0000 </r>
       <r>   16.3011    0.0000 </r>
       <r>   20.4476    0.0000 </r>
       <r>   21.1724    0.0000 </r>
       <r>   21.4849    0.0000 </r>
      </set>
      <set comment="kpoint 48">
       <r>   -3.5269    1.0000 </r>
       <r>    3.3480    1.0000 </r>
       <r>    3.9167    1.0000 </r>
       <r>    5.5035    1.0000 </r>
       <r>    7.5319    1.0000 </r>
       <r>   12.3840    0.0000 </r>
       <r>   12.8837    0.0000 </r>
       <r>   13.8633    0.0000 </r>
       <r>   15.7407    0.0000 </r>
       <r>   18.4782    0.0000 </r>
       <r>   20.9090    0.0000 </r>
       <r>   21.2179    0.0000 </r>
      </set>
      <set comment="kpoint 49">
       <r>   -3.3968    1.0000 </r>
       <r>    3.4930    1.0000 </r>
       <r>    3.8378    1.0000 </r>
       <r>    4.5548    1.0000 </r>
       <r>    8.5793    0.9657 </r>
       <r>   11.9558    0.0000 </r>
       <r>   12.9308    0.0000 </r>
       <r>   13.5809    0.0000 </r>
       <r>   15.6889    0.0000 </r>
       <r>   19.4549    0.0000 </r>
       <r>   21.1851    0.0000 </r>
       <r>   21.2336    0.0000 </r>
      </set>
      <set comment="kpoint 50">
       <r>   -3.4438    1.0000 </r>
       <r>    2.8516    1.0000 </r>
       <r>    3.9003    1.0000 </r>
       <r>    5.3589    1.0000 </r>
       <r>    7.5979    1.0000 </r>
       <r>   12.3429    0.0000 </r>
       <r>   12.8090    0.0000 </r>
       <r>   13.8783    0.0000 </r>
       <r>   16.5739    0.0000 </r>
       <r>   18.3699    0.0000 </r>
       <r>   20.6803    0.0000 </r>
       <r>   21.2198    0.0000 </r>
      </set>
      <set comment="kpoint 51">
       <r>   -3.7729    1.0000 </r>
       <r>    2.3935    1.0000 </r>
       <r>    4.0293    1.0000 </r>
       <r>    4.0293    1.0000 </r>
       <r>    9.9575    0.0000 </r>
       <r>    9.9575    0.0000 </r>
       <r>   10.3546    0.0000 </r>
       <r>   16.1193    0.0000 </r>
       <r>   16.1193    0.0000 </r>
       <r>   17.2939    0.0000 </r>
       <r>   21.1991    0.0000 </r>
       <r>   22.2177    0.0000 </r>
      </set>
      <set comment="kpoint 52">
       <r>   -3.0998    1.0000 </r>
       <r>    1.5978    1.0000 </r>
       <r>    3.6250    1.0000 </r>
       <r>    3.9509    1.0000 </r>
       <r>    9.8937    0.0000 </r>
       <r>   10.5802    0.0000 </r>
       <r>   11.9198    0.0000 </r>
       <r>   15.0277    0.0000 </r>
       <r>   17.0124    0.0000 </r>
       <r>   18.3491    0.0000 </r>
       <r>   21.1997    0.0000 </r>
       <r>   22.5620    0.0000 </r>
      </set>
      <set comment="kpoint 53">
       <r>   -2.6203    1.0000 </r>
       <r>    1.3611    1.0000 </r>
       <r>    3.7553    1.0000 </r>
       <r>    3.7627    1.0000 </r>
       <r>   10.4804    0.0000 </r>
       <r>   11.1091    0.0000 </r>
       <r>   12.0298    0.0000 </r>
       <r>   14.2153    0.0000 </r>
       <r>   18.4127    0.0000 </r>
       <r>   18.5901    0.0000 </r>
       <r>   21.1979    0.0000 </r>
       <r>   21.7881    0.0000 </r>
      </set>
      <set comment="kpoint 54">
       <r>   -2.8985    1.0000 </r>
       <r>    2.1199    1.0000 </r>
       <r>    3.7495    1.0000 </r>
       <r>    4.3761    1.0000 </r>
       <r>    9.0686    0.0000 </r>
       <r>   11.5351    0.0000 </r>
       <r>   12.6118    0.0000 </r>
       <r>   15.0690    0.0000 </r>
       <r>   16.4815    0.0000 </r>
       <r>   19.8331    0.0000 </r>
       <r>   21.0924    0.0000 </r>
       <r>   21.2510    0.0000 </r>
      </set>
      <set comment="kpoint 55">
       <r>   -2.7451    1.0000 </r>
       <r>    1.1840    1.0000 </r>
       <r>    3.5263    1.0000 </r>
[...]
        <r>  0.0117  0.0097  0.0097  0.2068  0.1554  0.0088  0.0015  0.1554  0.0044 </r>
       </set>
      </set>
      <set comment="kpoint 54">
       <set comment="band 1">
        <r>  0.4379  0.0013  0.0013  0.0001  0.0000  0.0000  0.0000  0.0000  0.0000 </r>
        <r>  0.0041  0.0506  0.0506  0.0026  0.0000  0.0004  0.0837  0.0000  0.2510 </r>
       </set>
       <set comment="band 2">
        <r>  0.0059  0.0922  0.0922  0.0074  0.0000  0.0000  0.0000  0.0000  0.0000 </r>
        <r>  0.1977  0.0565  0.0565  0.0102  0.0100  0.2811  0.0094  0.0100  0.0281 </r>
       </set>
       <set comment="band 3">
        <r>  0.0010  0.0040  0.0040  0.2199  0.0000  0.0000  0.0000  0.0000  0.0000 </r>
        <r>  0.0000  0.0043  0.0043  0.3487  0.1143  0.0184  0.0053  0.1143  0.0160 </r>
       </set>
       <set comment="band 4">
        <r>  0.0000  0.1537  0.1537  0.0000  0.0000  0.0000  0.0000  0.0000  0.0000 </r>
        <r>  0.0000  0.0373  0.0373  0.0000  0.0027  0.0000  0.3713  0.0027  0.1238 </r>
       </set>
       <set comment="band 5">
        <r>  0.0109  0.0655  0.0655  0.0011  0.0000  0.0000  0.0000  0.0000  0.0000 </r>
        <r>  0.1019  0.0007  0.0007  0.0014  0.0002  0.5419  0.0065  0.0002  0.0194 </r>
       </set>
       <set comment="band 6">
        <r>  0.0000  0.0007  0.0007  0.0000  0.0000  0.0000  0.0000  0.0000  0.0000 </r>
        <r>  0.0000  0.0001  0.0001  0.0000  0.4691  0.0000  0.0028  0.4691  0.0009 </r>
       </set>
       <set comment="band 7">
        <r>  0.0036  0.0007  0.0007  0.1950  0.0000  0.0000  0.0000  0.0000  0.0000 </r>
        <r>  0.0204  0.0001  0.0001  0.0287  0.3062  0.0001  0.0059  0.3062  0.0177 </r>
       </set>
       <set comment="band 8">
        <r>  0.0991  0.0000  0.0000  0.0207  0.0000  0.0000  0.0000  0.0000  0.0000 </r>
        <r>  0.1705  0.0065  0.0065  0.0193  0.0089  0.0003  0.1490  0.0089  0.4470 </r>
       </set>
       <set comment="band 9">
        <r>  0.0000  0.0944  0.0944  0.0000  0.0000  0.0000  0.0000  0.0000  0.0000 </r>
        <r>  0.0000  0.0652  0.0652  0.0000  0.0001  0.0000  0.4534  0.0001  0.1511 </r>
       </set>
       <set comment="band 10">
        <r>  0.0757  0.0244  0.0244  0.0303  0.0000  0.0000  0.0000  0.0000  0.0000 </r>
        <r>  0.1325  0.1412  0.1412  0.0193  0.0182  0.0873  0.0041  0.0182  0.0124 </r>
       </set>
       <set comment="band 11">
        <r>  0.0068  0.0440  0.0440  0.0785  0.0000  0.0000  0.0000  0.0000  0.0000 </r>
        <r>  9.2667  0.0011  0.0011  0.1107  0.0541  0.0009  0.0119  0.0541  0.0358 </r>
       </set>
       <set comment="band 12">
        <r>  0.0044  0.0119  0.0119  0.0252  0.0000  0.0000  0.0000  0.0000  0.0000 </r>
        <r> 34.6234  0.0041  0.0041  0.0370  0.0175  0.0009  0.0030  0.0176  0.0089 </r>
       </set>
      </set>
      <set comment="kpoint 55">
       <set comment="band 1">
        <r>  0.4023  0.0056  0.0019  0.0056  0.0000  0.0000  0.0000  0.0000  0.0000 </r>
        <r>  0.1285  0.0470  0.0947  0.0470  0.0052  0.0052  0.0780  0.0052  0.0000 </r>
       </set>
       <set comment="band 2">
        <r>  0.0501  0.0366  0.1034  0.0366  0.0000  0.0000  0.0000  0.0000  0.0000 </r>
        <r>  0.2104  0.0277  0.0027  0.0277  0.0858  0.1010  0.0671  0.1010  0.0000 </r>
       </set>
       <set comment="band 3">
        <r>  0.0080  0.0576  0.1329  0.0576  0.0000  0.0000  0.0000  0.0000  0.0000 </r>
        <r>  0.0002  0.0247  0.0439  0.0247  0.1594  0.0009  0.3914  0.0009  0.0000 </r>
       </set>
       <set comment="band 4">
        <r>  0.0000  0.1358  0.0000  0.1358  0.0000  0.0000  0.0000  0.0000  0.0000 </r>
        <r>  0.0000  0.0157  0.0000  0.0157  0.0000  0.0628  0.0000  0.0628  0.4745 </r>
       </set>
       <set comment="band 5">
        <r>  0.0202  0.0383  0.0047  0.0383  0.0000  0.0000  0.0000  0.0000  0.0000 </r>
        <r>  0.0303  0.0005  0.0016  0.0005  0.5950  0.0202  0.0677  0.0202  0.0000 </r>
       </set>
       <set comment="band 6">
        <r>  0.0000  0.0124  0.0000  0.0124  0.0000  0.0000  0.0000  0.0000  0.0000 </r>
        <r>  0.0000  0.0018  0.0000  0.0018  0.0000  0.4107  0.0000  0.4107  0.1235 </r>
       </set>
       <set comment="band 7">
        <r>  0.0105  0.0322  0.0439  0.0322  0.0000  0.0000  0.0000  0.0000  0.0000 </r>
        <r>  0.0863  0.0007  0.0047  0.0007  0.0001  0.3492  0.0041  0.3492  0.0000 </r>
       </set>
       <set comment="band 8">
        <r>  0.1104  0.0266  0.0073  0.0266  0.0000  0.0000  0.0000  0.0000  0.0000 </r>
        <r>  0.0000  0.0774  0.1140  0.0774  0.0618  0.0045  0.0868  0.0045  0.0000 </r>
       </set>
       <set comment="band 9">
        <r>  0.0000  0.1290  0.0000  0.1290  0.0000  0.0000  0.0000  0.0000  0.0000 </r>
        <r>  0.0000  0.0624  0.0000  0.0624  0.0000  0.0160  0.0000  0.0160  0.4565 </r>
       </set>
       <set comment="band 10">
        <r>  0.0048  0.0464  0.2274  0.0464  0.0000  0.0000  0.0000  0.0000  0.0000 </r>
        <r>  0.0062  0.0035  0.0295  0.0035  0.0051  0.0022  0.4738  0.0022  0.0000 </r>
       </set>
       <set comment="band 11">
        <r>  0.0005  0.0029  0.0054  0.0029  0.0000  0.0000  0.0000  0.0000  0.0000 </r>
        <r> 40.7627  0.0008  0.0060  0.0008  0.0000  0.0002  0.0022  0.0002  0.0000 </r>
       </set>
       <set comment="band 12">
        <r>  0.0117  0.0589  0.0890  0.0589  0.0000  0.0000  0.0000  0.0000  0.0000 </r>
        <r>  3.5455  0.0254  0.1594  0.0254  0.0007  0.0054  0.0409  0.0054  0.0000 </r>
       </set>
      </set>
      <set comment="kpoint 56">
       <set comment="band 1">
        <r>  0.4416  0.0014  0.0001  0.0020  0.0000  0.0000  0.0000  0.0000  0.0000 </r>
        <r>  0.0280  0.0822  0.0621  0.0190  0.0010  0.0008  0.1783  0.0004  0.0375 </r>
       </set>
       <set comment="band 2">
        <r>  0.0069  0.0798  0.0879  0.0250  0.0000  0.0000  0.0000  0.0000  0.0000 </r>
        <r>  0.2528  0.0025  0.0424  0.0291  0.0795  0.1489  0.0142  0.0450  0.0415 </r>
       </set>
       <set comment="band 3">
        <r>  0.0069  0.0262  0.1243  0.0851  0.0000  0.0000  0.0000  0.0000  0.0000 </r>
        <r>  0.0000  0.0084  0.0906  0.0934  0.1721  0.0350  0.2384  0.0029  0.0002 </r>
       </set>
       <set comment="band 4">
        <r>  0.0000  0.1528  0.0234  0.0992  0.0000  0.0000  0.0000  0.0000  0.0000 </r>
        <r>  0.0011  0.0003  0.0089  0.0714  0.0254  0.0123  0.0686  0.0642  0.3647 </r>
       </set>
       <set comment="band 5">
        <r>  0.0141  0.0114  0.0062  0.0946  0.0000  0.0000  0.0000  0.0000  0.0000 </r>
        <r>  0.0259  0.0003  0.0030  0.0066  0.5589  0.0038  0.0451  0.0599  0.0112 </r>
       </set>
       <set comment="band 6">
        <r>  0.0071  0.0263  0.0461  0.0022  0.0000  0.0000  0.0000  0.0000  0.0000 </r>
        <r>  0.0339  0.0008  0.0000  0.0001  0.0034  0.6455  0.0216  0.0789  0.0445 </r>
       </set>
       <set comment="band 7">
        <r>  0.0030  0.0077  0.0270  0.0578  0.0000  0.0000  0.0000  0.0000  0.0000 </r>
        <r>  0.0727  0.0009  0.0000  0.0001  0.0016  0.0427  0.0014  0.6797  0.0419 </r>
       </set>
       <set comment="band 8">
        <r>  0.0596  0.0197  0.0001  0.1208  0.0000  0.0000  0.0000  0.0000  0.0000 </r>
        <r>  0.0505  0.0118  0.0002  0.0924  0.0154  0.0073  0.0672  0.0264  0.4153 </r>
       </set>
       <set comment="band 9">
        <r>  0.0739  0.0362  0.0207  0.0061  0.0000  0.0000  0.0000  0.0000  0.0000 </r>
        <r>  0.0168  0.0461  0.1734  0.0047  0.0195  0.0567  0.2348  0.0000  0.0704 </r>
       </set>
       <set comment="band 10">
        <r>  0.0011  0.0132  0.1978  0.0096  0.0000  0.0000  0.0000  0.0000  0.0000 </r>
        <r>  0.0108  0.1146  0.0071  0.0290  0.0321  0.0252  0.3129  0.0035  0.0012 </r>
       </set>
       <set comment="band 11">
        <r>  0.0004  0.0288  0.0016  0.0017  0.0000  0.0000  0.0000  0.0000  0.0000 </r>
        <r> 38.0234  0.0014  0.0074  0.0005  0.0000  0.0000  0.0013  0.0002  0.0082 </r>
       </set>
       <set comment="band 12">
        <r>  0.0039  0.2637  0.0142  0.0126  0.0000  0.0000  0.0000  0.0000  0.0000 </r>
        <r>  6.3555  0.0161  0.0845  0.0105  0.0002  0.0003  0.0077  0.0014  0.0703 </r>
       </set>
      </set>
      <set comment="kpoint 57">
       <set comment="band 1">
        <r>  0.4393  0.0002  0.0009  0.0001  0.0000  0.0000  0.0000  0.0000  0.0000 </r>
        <r>  0.0007  0.0779  0.0205  0.0025  0.0000  0.0001  0.2013  0.0000  0.1431 </r>
       </set>
       <set comment="band 2">
        <r>  0.0019  0.1247  0.0735  0.0099  0.0000  0.0000  0.0000  0.0000  0.0000 </r>
        <r>  0.1896  0.0113  0.0916  0.0149  0.0220  0.2249  0.0038  0.0064  0.0821 </r>
       </set>
       <set comment="band 3">
        <r>  0.0010  0.0003  0.0181  0.1965  0.0000  0.0000  0.0000  0.0000  0.0000 </r>
        <r>  0.0000  0.0016  0.0227  0.3089  0.2238  0.0329  0.0124  0.0306  0.0084 </r>
       </set>
       <set comment="band 4">
        <r>  0.0002  0.1560  0.1220  0.0090  0.0000  0.0000  0.0000  0.0000  0.0000 </r>
        <r>  0.0110  0.0019  0.1093  0.0120  0.0019  0.0513  0.2082  0.0078  0.1841 </r>
       </set>
       <set comment="band 5">
        <r>  0.0078  0.0160  0.1390  0.0003  0.0000  0.0000  0.0000  0.0000  0.0000 </r>
        <r>  0.0746  0.0001  0.0165  0.0007  0.0006  0.5294  0.0327  0.0033  0.0014 </r>
       </set>
       <set comment="band 6">
        <r>  0.0018  0.0010  0.0012  0.1276  0.0000  0.0000  0.0000  0.0000  0.0000 </r>
        <r>  0.0062  0.0000  0.0007  0.0312  0.5921  0.0002  0.0057  0.0925  0.0039 </r>
       </set>
       <set comment="band 7">
        <r>  0.0010  0.0005  0.0017  0.0760  0.0000  0.0000  0.0000  0.0000  0.0000 </r>
        <r>  0.0160  0.0000  0.0001  0.0108  0.0143  0.0000  0.0001  0.8166  0.0172 </r>
       </set>
       <set comment="band 8">
        <r>  0.0452  0.0117  0.0169  0.0198  0.0000  0.0000  0.0000  0.0000  0.0000 </r>
        <r>  0.2326  0.0026  0.0262  0.0182  0.0054  0.0009  0.0024  0.0109  0.5502 </r>
       </set>
       <set comment="band 9">
        <r>  0.0927  0.0172  0.0665  0.0004  0.0000  0.0000  0.0000  0.0000  0.0000 </r>
        <r>  0.0167  0.0224  0.0653  0.0009  0.0009  0.0110  0.6293  0.0001  0.0021 </r>
       </set>
       <set comment="band 10">
        <r>  0.0311  0.0722  0.0135  0.0492  0.0000  0.0000  0.0000  0.0000  0.0000 </r>
        <r>  0.4536  0.1398  0.0832  0.0445  0.0586  0.0859  0.0283  0.0071  0.0208 </r>
       </set>
       <set comment="band 11">
        <r>  0.0001  0.0115  0.0050  0.0057  0.0000  0.0000  0.0000  0.0000  0.0000 </r>
        <r> 38.8642  0.0031  0.0022  0.0085  0.0075  0.0051  0.0000  0.0010  0.0082 </r>
       </set>
       <set comment="band 12">
        <r>  0.0036  0.2210  0.0258  0.0378  0.0000  0.0000  0.0000  0.0000  0.0000 </r>
        <r>  4.9564  0.0006  0.0006  0.0718  0.0517  0.0033  0.0037  0.0076  0.1141 </r>
       </set>
      </set>
      <set comment="kpoint 58">
       <set comment="band 1">
        <r>  0.4387  0.0019  0.0004  0.0019  0.0000  0.0000  0.0000  0.0000  0.0000 </r>
        <r>  0.0121  0.0505  0.0238  0.0505  0.0008  0.0001  0.2916  0.0001  0.0000 </r>
       </set>
       <set comment="band 2">
        <r>  0.0061  0.0699  0.0479  0.0699  0.0000  0.0000  0.0000  0.0000  0.0000 </r>
        <r>  0.2285  0.0370  0.0469  0.0370  0.1907  0.0583  0.0021  0.0583  0.0000 </r>
       </set>
       <set comment="band 3">
        <r>  0.0064  0.0257  0.1822  0.0257  0.0000  0.0000  0.0000  0.0000  0.0000 </r>
        <r>  0.0000  0.0240  0.2277  0.0240  0.1068  0.0520  0.1446  0.0520  0.0000 </r>
       </set>
       <set comment="band 4">
        <r>  0.0000  0.1485  0.0000  0.1485  0.0000  0.0000  0.0000  0.0000  0.0000 </r>
        <r>  0.0000  0.0319  0.0000  0.0319  0.0000  0.0208  0.0000  0.0208  0.4861 </r>
       </set>
       <set comment="band 5">
        <r>  0.0161  0.0614  0.0066  0.0614  0.0000  0.0000  0.0000  0.0000  0.0000 </r>
        <r>  0.0694  0.0005  0.0059  0.0005  0.5410  0.0037  0.0469  0.0037  0.0000 </r>
       </set>
       <set comment="band 6">
        <r>  0.0000  0.0055  0.0000  0.0055  0.0000  0.0000  0.0000  0.0000  0.0000 </r>
        <r>  0.0000  0.0002  0.0000  0.0002  0.0000  0.4572  0.0000  0.4572  0.0325 </r>
       </set>
       <set comment="band 7">
        <r>  0.0061  0.0086  0.1163  0.0086  0.0000  0.0000  0.0000  0.0000  0.0000 </r>
        <r>  0.0774  0.0000  0.0028  0.0000  0.0018  0.3194  0.0507  0.3194  0.0000 </r>
       </set>
       <set comment="band 8">
        <r>  0.1086  0.0007  0.0539  0.0007  0.0000  0.0000  0.0000  0.0000  0.0000 </r>
        <r>  0.0589  0.0004  0.1074  0.0004  0.0076  0.0290  0.4919  0.0290  0.0000 </r>
       </set>
       <set comment="band 9">
        <r>  0.0000  0.0979  0.0000  0.0979  0.0000  0.0000  0.0000  0.0000  0.0000 </r>
        <r>  0.0000  0.0685  0.0000  0.0685  0.0000  0.0013  0.0000  0.0013  0.5721 </r>
       </set>
       <set comment="band 10">
        <r>  0.0296  0.0016  0.1155  0.0016  0.0000  0.0000  0.0000  0.0000  0.0000 </r>
        <r>  0.0865  0.1223  0.0161  0.1223  0.0734  0.0191  0.0368  0.0191  0.0000 </r>
       </set>
       <set comment="band 11">
        <r>  0.0191  0.1141  0.0171  0.1141  0.0000  0.0000  0.0000  0.0000  0.0000 </r>
        <r>  4.2711  0.0075  0.0839  0.0075  0.0004  0.0081  0.0998  0.0081  0.0000 </r>
       </set>
       <set comment="band 12">
        <r>  0.0034  0.0164  0.0024  0.0164  0.0000  0.0000  0.0000  0.0000  0.0000 </r>
        <r> 40.0550  0.0026  0.0143  0.0026  0.0000  0.0012  0.0122  0.0012  0.0000 </r>
       </set>
      </set>
      <set comment="kpoint 59">
       <set comment="band 1">
        <r>  0.4145  0.0057  0.0057  0.0057  0.0000  0.0000  0.0000  0.0000  0.0000 </r>
        <r>  0.1025  0.0826  0.0826  0.0826  0.0087  0.0087  0.0000  0.0087  0.0000 </r>
       </set>
       <set comment="band 2">
        <r>  0.0672  0.0529  0.0529  0.0529  0.0000  0.0000  0.0000  0.0000  0.0000 </r>
        <r>  0.2533  0.0182  0.0182  0.0182  0.1034  0.1034  0.0000  0.1034  0.0000 </r>
       </set>
       <set comment="band 3">
        <r>  0.0000  0.0497  0.1449  0.0688  0.0000  0.0000  0.0000  0.0000  0.0000 </r>
        <r>  0.0000  0.0002  0.0005  0.0002  0.0645  0.0306  0.4509  0.0222  0.0956 </r>
       </set>
       <set comment="band 4">
        <r>  0.0000  0.1258  0.0307  0.1068  0.0000  0.0000  0.0000  0.0000  0.0000 </r>
        <r>  0.0000  0.0004  0.0001  0.0004  0.0137  0.0476  0.0956  0.0561  0.4509 </r>
       </set>
       <set comment="band 5">
        <r>  0.0000  0.0129  0.0062  0.0112  0.0000  0.0000  0.0000  0.0000  0.0000 </r>
        <r>  0.0000  0.0012  0.0006  0.0010  0.1726  0.3139  0.0257  0.3616  0.0586 </r>
       </set>
       <set comment="band 6">
        <r>  0.0000  0.0073  0.0140  0.0090  0.0000  0.0000  0.0000  0.0000  0.0000 </r>
        <r>  0.0000  0.0007  0.0013  0.0008  0.3928  0.2515  0.0586  0.2038  0.0257 </r>
       </set>
       <set comment="band 7">
        <r>  0.0269  0.0435  0.0435  0.0435  0.0000  0.0000  0.0000  0.0000  0.0000 </r>
        <r>  0.1163  0.0110  0.0110  0.0110  0.1687  0.1687  0.0000  0.1687  0.0000 </r>
       </set>
       <set comment="band 8">
        <r>  0.0782  0.0185  0.0185  0.0185  0.0000  0.0000  0.0000  0.0000  0.0000 </r>
        <r>  0.0093  0.0972  0.0972  0.0972  0.0389  0.0389  0.0000  0.0389  0.0000 </r>
       </set>
       <set comment="band 9">
        <r>  0.0000  0.1611  0.0402  0.1372  0.0000  0.0000  0.0000  0.0000  0.0000 </r>
        <r>  0.0000  0.0195  0.0049  0.0166  0.0010  0.0034  0.0925  0.0040  0.4267 </r>
       </set>
       <set comment="band 10">
        <r>  0.0000  0.0645  0.1854  0.0885  0.0000  0.0000  0.0000  0.0000  0.0000 </r>
        <r>  0.0000  0.0078  0.0224  0.0107  0.0046  0.0022  0.4267  0.0016  0.0925 </r>
       </set>
       <set comment="band 11">
        <r>  0.0001  0.0016  0.0015  0.0016  0.0000  0.0000  0.0000  0.0000  0.0000 </r>
        <r> 42.7861  0.0000  0.0000  0.0000  0.0002  0.0002  0.0000  0.0002  0.0000 </r>
       </set>
       <set comment="band 12">
        <r>  0.0000  0.0047  0.0012  0.0040  0.0000  0.0000  0.0000  0.0000  0.0000 </r>
        <r>  0.0000  0.2025  0.0506  0.1724  0.0020  0.0069  0.0074  0.0081  0.0342 </r>
       </set>
      </set>
      <set comment="kpoint 60">
       <set comment="band 1">
        <r>  0.4675  0.0000  0.0000  0.0025  0.0000  0.0000  0.0000  0.0000  0.0000 </r>
        <r>  0.0061  0.0935  0.0935  0.0566  0.0005  0.0003  0.0260  0.0005  0.0780 </r>
       </set>
       <set comment="band 2">
        <r>  0.0027  0.0674  0.0674  0.0441  0.0000  0.0000  0.0000  0.0000  0.0000 </r>
        <r>  0.3183  0.0026  0.0026  0.0236  0.0913  0.1334  0.0027  0.0913  0.0081 </r>
       </set>
       <set comment="band 3">
        <r>  0.0000  0.1362  0.1362  0.0000  0.0000  0.0000  0.0000  0.0000  0.0000 </r>
        <r>  0.0000  0.0066  0.0066  0.0000  0.0427  0.0000  0.4133  0.0427  0.1378 </r>
       </set>
       <set comment="band 4">
        <r>  0.0058  0.0350  0.0350  0.1813  0.0000  0.0000  0.0000  0.0000  0.0000 </r>
        <r>  0.0000  0.0122  0.0122  0.0836  0.0439  0.0745  0.0945  0.0439  0.2836 </r>
       </set>
       <set comment="band 5">
        <r>  0.0182  0.0168  0.0168  0.0256  0.0000  0.0000  0.0000  0.0000  0.0000 </r>
        <r>  0.0032  0.0032  0.0032  0.0004  0.0818  0.5269  0.0267  0.0818  0.0800 </r>
       </set>
       <set comment="band 6">
        <r>  0.0000  0.0119  0.0119  0.0000  0.0000  0.0000  0.0000  0.0000  0.0000 </r>
        <r>  0.0000  0.0009  0.0009  0.0000  0.4384  0.0000  0.0423  0.4384  0.0141 </r>
       </set>
       <set comment="band 7">
        <r>  0.0038  0.0424  0.0424  0.0740  0.0000  0.0000  0.0000  0.0000  0.0000 </r>
        <r>  0.1370  0.0001  0.0001  0.0019  0.2121  0.1582  0.0022  0.2121  0.0066 </r>
       </set>
       <set comment="band 8">
        <r>  0.0955  0.0001  0.0001  0.0105  0.0000  0.0000  0.0000  0.0000  0.0000 </r>
        <r>  0.0000  0.0830  0.0830  0.1182  0.0471  0.0663  0.0084  0.0471  0.0251 </r>
       </set>
       <set comment="band 9">
        <r>  0.0037  0.0193  0.0193  0.1938  0.0000  0.0000  0.0000  0.0000  0.0000 </r>
        <r>  0.0193  0.0461  0.0461  0.0330  0.0004  0.0044  0.1166  0.0004  0.3498 </r>
       </set>
       <set comment="band 10">
        <r>  0.0000  0.1445  0.1445  0.0000  0.0000  0.0000  0.0000  0.0000  0.0000 </r>
        <r>  0.0000  0.0296  0.0296  0.0000  0.0004  0.0000  0.4273  0.0004  0.1425 </r>
       </set>
       <set comment="band 11">
        <r>  0.0000  0.0031  0.0031  0.0000  0.0000  0.0000  0.0000  0.0000  0.0000 </r>
        <r> 42.4071  0.0005  0.0005  0.0018  0.0000  0.0000  0.0004  0.0000  0.0012 </r>
       </set>
       <set comment="band 12">
        <r>  0.0028  0.0729  0.0729  0.0106  0.0000  0.0000  0.0000  0.0000  0.0000 </r>
        <r>  1.1549  0.0547  0.0547  0.1923  0.0077  0.0150  0.0169  0.0077  0.0506 </r>
       </set>
      </set>
     </set>
    </set>
   </array>
  </projected>
 </calculation>
 <structure name="finalpos" >
  <crystal>
   <varray name="basis" >
    <v>       0.00000000       2.21750000       2.21750000 </v>
    <v>       2.21750000       0.00000000       2.21750000 </v>
    <v>       2.21750000       2.21750000       0.00000000 </v>
   </varray>
   <i name="volume">     21.80825322 </i>
   <varray name="rec_basis" >
    <v>      -0.22547914       0.22547914       0.22547914 </v>
    <v>       0.22547914      -0.22547914       0.22547914 </v>
    <v>       0.22547914       0.22547914      -0.22547914 </v>
   </varray>
  </crystal>
  <varray name="positions" >
   <v>       0.50000000       0.50000000       0.50000000 </v>
   <v>       0.00000000       0.00000000       0.00000000 </v>
  </varray>
 </structure>
</modeling>
