    3    3   50    1
  0.3333333E+03  0.1000000E-08  0.1000000E-08  0.1000000E-08  0.5000000E-15
  1.000000000000000E-004
  CAR 
 unknown system                          
   16    1   12
 
  0.0000000E+00  0.0000000E+00  0.0000000E+00  0.1000000E+01
   1      -29.016577
   2      -28.005329
   3      -13.623918
   4      -12.454384
   5      -12.454384
   6      -12.415263
   7       -8.884589
   8       -8.884589
   9       -0.927118
  10       -0.367975
  11       -0.367975
  12        0.497040
