       N       E                     dE             d eps       ncg     rms          rms(c)
DAV:   1     0.643715773524E+02    0.64372E+02   -0.40729E+03    40   0.526E+02
DAV:   2    -0.453668505922E+01   -0.68908E+02   -0.65110E+02    40   0.161E+02
DAV:   3    -0.227231176863E+02   -0.18186E+02   -0.18131E+02    32   0.500E+01
DAV:   4    -0.246178161251E+02   -0.18947E+01   -0.18971E+01    32   0.149E+01
DAV:   5    -0.246339537621E+02   -0.16138E-01   -0.15980E-01    32   0.165E+00    0.809E+00
DAV:   6    -0.231335619696E+02    0.15004E+01   -0.39896E+00    28   0.182E+01    0.342E+00
DAV:   7    -0.230069990684E+02    0.12656E+00   -0.25723E-01    28   0.439E+00    0.195E+00
DAV:   8    -0.229576973132E+02    0.49302E-01   -0.21295E-01    28   0.348E+00    0.381E-01
DAV:   9    -0.229556087293E+02    0.20886E-02   -0.24571E-02    28   0.142E+00    0.237E-01
DAV:  10    -0.229566537494E+02   -0.10450E-02   -0.26539E-03    28   0.532E-01    0.529E-02
DAV:  11    -0.229604366717E+02   -0.37829E-02   -0.86596E-04    28   0.197E-01    0.210E-02
DAV:  12    -0.229618485662E+02   -0.14119E-02   -0.10868E-04    16   0.716E-02    0.199E-02
DAV:  13    -0.229640087207E+02   -0.21602E-02   -0.40400E-04    24   0.110E-01    0.115E-02
DAV:  14    -0.229644186170E+02   -0.40990E-03   -0.42534E-05    20   0.534E-02    0.764E-03
DAV:  15    -0.229647012356E+02   -0.28262E-03   -0.24853E-05    20   0.337E-02    0.298E-03
DAV:  16    -0.229647811910E+02   -0.79955E-04   -0.10384E-05    20   0.228E-02
   1 F= -.22964781E+02 E0= -.22966714E+02  d E =-.229648E+02
       N       E                     dE             d eps       ncg     rms          rms(c)
DAV:   1    -0.225563769483E+02    0.40832E+00   -0.82243E+01    24   0.883E+01    0.285E+00
DAV:   2    -0.225826789368E+02   -0.26302E-01   -0.19780E+00    32   0.124E+01    0.109E+00
DAV:   3    -0.225606199462E+02    0.22059E-01   -0.44172E-02    28   0.228E+00    0.549E-01
DAV:   4    -0.225606331258E+02   -0.13180E-04   -0.19921E-02    28   0.123E+00    0.194E-01
DAV:   5    -0.225612993727E+02   -0.66625E-03   -0.90090E-04    28   0.291E-01    0.823E-02
DAV:   6    -0.225614676488E+02   -0.16828E-03   -0.16545E-04    20   0.135E-01    0.162E-02
DAV:   7    -0.225614843966E+02   -0.16748E-04   -0.37419E-05    20   0.657E-02
   2 F= -.22561484E+02 E0= -.22563417E+02  d E =0.403297E+00
       N       E                     dE             d eps       ncg     rms          rms(c)
DAV:   1    -0.229695021020E+02   -0.40803E+00   -0.48014E+01    24   0.689E+01    0.193E+00
DAV:   2    -0.230080732069E+02   -0.38571E-01   -0.10377E+00    28   0.899E+00    0.868E-01
DAV:   3    -0.229923625877E+02    0.15711E-01   -0.31059E-02    28   0.173E+00    0.385E-01
DAV:   4    -0.229920252206E+02    0.33737E-03   -0.16258E-02    28   0.107E+00    0.111E-01
DAV:   5    -0.229923264272E+02   -0.30121E-03   -0.82251E-04    28   0.258E-01    0.616E-02
DAV:   6    -0.229925860729E+02   -0.25965E-03   -0.43457E-05    20   0.696E-02    0.950E-03
DAV:   7    -0.229926387916E+02   -0.52719E-04   -0.98925E-06    20   0.330E-02
   3 F= -.22992639E+02 E0= -.22994571E+02  d E =-.431154E+00
       N       E                     dE             d eps       ncg     rms          rms(c)
DAV:   1    -0.229946455279E+02   -0.20595E-02   -0.36298E-01    24   0.595E+00    0.183E-01
DAV:   2    -0.229946890556E+02   -0.43528E-04   -0.79009E-03    28   0.787E-01    0.772E-02
DAV:   3    -0.229946168522E+02    0.72203E-04   -0.24576E-04    20   0.164E-01
   4 F= -.22994617E+02 E0= -.22996549E+02  d E =-.197806E-02
       N       E                     dE             d eps       ncg     rms          rms(c)
DAV:   1    -0.229948003712E+02   -0.11132E-03   -0.14296E-02    24   0.118E+00    0.361E-02
DAV:   2    -0.229948108107E+02   -0.10440E-04   -0.33249E-04    24   0.161E-01
   5 F= -.22994811E+02 E0= -.22996743E+02  d E =-.193959E-03
