<?xml version="1.0" encoding="ISO-8859-1"?>
<modeling>
 <generator>
  <i name="program" type="string">vasp </i>
  <i name="version" type="string">5.2.12  </i>
  <i name="subversion" type="string">11Nov11 complex                                                      parallel </i>
  <i name="platform" type="string">LinuxIFC </i>
  <i name="date" type="string">2012 10 09 </i>
  <i name="time" type="string">20:13:00 </i>
 </generator>
 <incar>
  <i type="string" name="PREC">accurate</i>
  <i type="int" name="IBRION">     1</i>
  <i name="EDIFFG">     -0.05000000</i>
  <i type="int" name="NSW">    50</i>
  <i type="int" name="ISIF">     2</i>
  <i name="ENCUT">    350.00000000</i>
  <i type="logical" name="LREAL"> F  </i>
  <i type="int" name="ISMEAR">     1</i>
  <i name="SIGMA">      0.05000000</i>
 </incar>
 <kpoints>
  <generation param="Monkhorst-Pack">
   <v type="int" name="divisions">       1        1        1 </v>
   <v name="usershift">      0.00000000       0.00000000       0.00000000 </v>
   <v name="genvec1">      1.00000000       0.00000000       0.00000000 </v>
   <v name="genvec2">      0.00000000       1.00000000       0.00000000 </v>
   <v name="genvec3">      0.00000000       0.00000000       1.00000000 </v>
   <v name="shift">      0.00000000       0.00000000       0.00000000 </v>
  </generation>
  <varray name="kpointlist" >
   <v>       0.00000000       0.00000000       0.00000000 </v>
  </varray>
  <varray name="weights" >
   <v>       1.00000000 </v>
  </varray>
 </kpoints>
 <parameters>
  <separator name="general" >
   <i type="string" name="SYSTEM">unknown system</i>
   <i type="logical" name="LCOMPAT"> F  </i>
  </separator>
  <separator name="electronic" >
   <i type="string" name="PREC">accura</i>
   <i name="ENMAX">    350.00000000</i>
   <i name="ENAUG">    644.87300000</i>
   <i name="EDIFF">      0.00010000</i>
   <i type="int" name="IALGO">    38</i>
   <i type="int" name="IWAVPR">    11</i>
   <i type="int" name="NBANDS">    12</i>
   <i name="NELECT">     16.00000000</i>
   <i type="int" name="TURBO">     0</i>
   <i type="int" name="IRESTART">     0</i>
   <i type="int" name="NREBOOT">     0</i>
   <i type="int" name="NMIN">     0</i>
   <i name="EREF">      0.00000000</i>
   <separator name="electronic smearing" >
    <i type="int" name="ISMEAR">     1</i>
    <i name="SIGMA">      0.05000000</i>
    <i name="KSPACING">      0.50000000</i>
    <i type="logical" name="KGAMMA"> T  </i>
   </separator>
   <separator name="electronic projectors" >
    <i type="logical" name="LREAL"> F  </i>
    <v name="ROPT">      0.00000000      0.00000000</v>
    <i type="int" name="LMAXPAW">  -100</i>
    <i type="int" name="LMAXMIX">     2</i>
    <i type="logical" name="NLSPLINE"> F  </i>
   </separator>
   <separator name="electronic startup" >
    <i type="int" name="ISTART">     0</i>
    <i type="int" name="ICHARG">     2</i>
    <i type="int" name="INIWAV">     1</i>
   </separator>
   <separator name="electronic spin" >
    <i type="int" name="ISPIN">     1</i>
    <i type="logical" name="LNONCOLLINEAR"> F  </i>
    <v name="MAGMOM">      1.00000000      1.00000000      1.00000000</v>
    <i name="NUPDOWN">     -1.00000000</i>
    <i type="logical" name="LSORBIT"> F  </i>
    <v name="SAXIS">      0.00000000      0.00000000      1.00000000</v>
    <i type="logical" name="LSPIRAL"> F  </i>
    <v name="QSPIRAL">      0.00000000      0.00000000      0.00000000</v>
    <i type="logical" name="LZEROZ"> F  </i>
   </separator>
   <separator name="electronic exchange-correlation" >
    <i type="logical" name="LASPH"> F  </i>
    <i type="logical" name="LMETAGGA"> F  </i>
   </separator>
   <separator name="electronic convergence" >
    <i type="int" name="NELM">    60</i>
    <i type="int" name="NELMDL">    -5</i>
    <i type="int" name="NELMIN">     2</i>
    <i name="ENINI">    350.00000000</i>
    <separator name="electronic convergence detail" >
     <i type="logical" name="LDIAG"> T  </i>
     <i type="logical" name="LSUBROT"> T  </i>
     <i name="WEIMIN">      0.00100000</i>
     <i name="EBREAK">      0.00000208</i>
     <i name="DEPER">      0.30000000</i>
     <i type="int" name="NRMM">     4</i>
     <i name="TIME">      0.40000000</i>
    </separator>
   </separator>
   <separator name="electronic mixer" >
    <i name="AMIX">      0.40000000</i>
    <i name="BMIX">      1.00000000</i>
    <i name="AMIN">      0.10000000</i>
    <i name="AMIX_MAG">      1.60000000</i>
    <i name="BMIX_MAG">      1.00000000</i>
    <separator name="electronic mixer details" >
     <i type="int" name="IMIX">     4</i>
     <i type="int" name="MAXMIX">   -45</i>
     <i name="WC">    100.00000000</i>
     <i type="int" name="INIMIX">     1</i>
     <i type="int" name="MIXPRE">     1</i>
     <i type="int" name="MREMOVE">     5</i>
    </separator>
   </separator>
   <separator name="electronic dipolcorrection" >
    <i type="logical" name="LDIPOL"> F  </i>
    <i type="logical" name="LMONO"> F  </i>
    <i type="int" name="IDIPOL">     0</i>
    <i name="EPSILON">      1.00000000</i>
    <v name="DIPOL">   -100.00000000   -100.00000000   -100.00000000</v>
    <i name="EFIELD">      0.00000000</i>
   </separator>
  </separator>
  <separator name="grids" >
   <i type="int" name="NGX">    64</i>
   <i type="int" name="NGY">    64</i>
   <i type="int" name="NGZ">    64</i>
   <i type="int" name="NGXF">   128</i>
   <i type="int" name="NGYF">   128</i>
   <i type="int" name="NGZF">   128</i>
   <i type="logical" name="ADDGRID"> F  </i>
  </separator>
  <separator name="ionic" >
   <i type="int" name="NSW">    50</i>
   <i type="int" name="IBRION">     1</i>
   <i type="int" name="ISIF">     2</i>
   <i name="PSTRESS">      0.00000000</i>
   <i name="EDIFFG">     -0.05000000</i>
   <i type="int" name="NFREE">     0</i>
   <i name="POTIM">      0.50000000</i>
   <i name="SMASS">     -3.00000000</i>
   <i name="SCALEE">      1.00000000</i>
  </separator>
  <separator name="ionic md" >
   <i name="TEBEG">      0.00010000</i>
   <i name="TEEND">      0.00010000</i>
   <i type="int" name="NBLOCK">     1</i>
   <i type="int" name="KBLOCK">    50</i>
   <i type="int" name="NPACO">   256</i>
   <i name="APACO">     16.00000000</i>
  </separator>
  <separator name="symmetry" >
   <i type="int" name="ISYM">     2</i>
   <i name="SYMPREC">      0.00001000</i>
  </separator>
  <separator name="dos" >
   <i type="logical" name="LORBIT"> F  </i>
   <v name="RWIGS">     -1.00000000     -1.00000000</v>
   <i type="int" name="NEDOS">   301</i>
   <i name="EMIN">     10.00000000</i>
   <i name="EMAX">    -10.00000000</i>
   <i name="EFERMI">      0.00000000</i>
  </separator>
  <separator name="writing" >
   <i type="int" name="NWRITE">     2</i>
   <i type="logical" name="LWAVE"> T  </i>
   <i type="logical" name="LCHARG"> T  </i>
   <i type="logical" name="LPARD"> F  </i>
   <i type="logical" name="LVTOT"> F  </i>
   <i type="logical" name="LVHAR"> F  </i>
   <i type="logical" name="LELF"> F  </i>
   <i type="logical" name="LOPTICS"> F  </i>
   <v name="STM">      0.00000000      0.00000000      0.00000000      0.00000000      0.00000000      0.00000000      0.00000000</v>
  </separator>
  <separator name="performance" >
   <i type="int" name="NPAR">     1</i>
   <i type="int" name="NSIM">     4</i>
   <i type="int" name="NBLK">    -1</i>
   <i type="logical" name="LPLANE"> T  </i>
   <i type="logical" name="LSCALAPACK"> F  </i>
   <i type="logical" name="LSCAAWARE"> F  </i>
   <i type="logical" name="LSCALU"> F  </i>
   <i type="logical" name="LASYNC"> F  </i>
   <i type="logical" name="LORBITALREAL"> F  </i>
  </separator>
  <separator name="miscellaneous" >
   <i type="int" name="IDIOT">     3</i>
   <i type="logical" name="LMUSIC"> F  </i>
   <v name="POMASS">     12.01100000     16.00000000</v>
   <v name="DARWINR">      0.00000000      0.00000000</v>
   <v name="DARWINV">      1.00000000      1.00000000</v>
   <i type="logical" name="LCORR"> T  </i>
  </separator>
  <i type="logical" name="GGA_COMPAT"> T  </i>
  <i type="logical" name="LBERRY"> F  </i>
  <i type="int" name="ICORELEVEL">     0</i>
  <i type="logical" name="LDAU"> F  </i>
  <i type="int" name="I_CONSTRAINED_M">     0</i>
  <separator name="electronic exchange-correlation" >
   <i type="string" name="GGA">--</i>
   <i type="int" name="VOSKOWN">     0</i>
   <i type="logical" name="LHFCALC"> F  </i>
   <i type="string" name="PRECFOCK"></i>
   <i type="logical" name="LHFONE"> F  </i>
   <i type="logical" name="LRHFCALC"> F  </i>
   <i type="logical" name="LTHOMAS"> F  </i>
   <i type="logical" name="LMODELHF"> F  </i>
   <i name="ENCUT4O">     -1.00000000</i>
   <i type="int" name="EXXOEP">     0</i>
   <i type="int" name="FOURORBIT">     0</i>
   <i name="AEXX">      0.00000000</i>
   <i name="HFALPHA">      0.00000000</i>
   <i name="ALDAX">      1.00000000</i>
   <i name="AGGAX">      1.00000000</i>
   <i name="ALDAC">      1.00000000</i>
   <i name="AGGAC">      1.00000000</i>
   <i type="int" name="NKREDX">     1</i>
   <i type="int" name="NKREDY">     1</i>
   <i type="int" name="NKREDZ">     1</i>
   <i type="logical" name="SHIFTRED"> F  </i>
   <i type="logical" name="ODDONLY"> F  </i>
   <i type="logical" name="EVENONLY"> F  </i>
   <i type="int" name="LMAXFOCK">     0</i>
   <i type="int" name="NMAXFOCKAE">     0</i>
   <i type="logical" name="LFOCKAEDFT"> F  </i>
   <i name="HFSCREEN">      0.00000000</i>
   <i name="HFSCREENC">      0.00000000</i>
  </separator>
  <separator name="vdW DFT" >
   <i type="logical" name="LUSE_VDW"> F  </i>
   <i name="Zab_VDW">     -0.84910000</i>
   <i name="PARAM1">      0.12340000</i>
   <i name="PARAM2">      1.00000000</i>
   <i name="PARAM3">      0.00000000</i>
  </separator>
  <separator name="model GW" >
   <i type="int" name="MODEL_GW">     0</i>
   <i name="MODEL_EPS0">    200.00000000</i>
   <i name="MODEL_ALPHA">      1.00000000</i>
  </separator>
  <separator name="linear response parameters" >
   <i type="logical" name="LEPSILON"> F  </i>
   <i type="logical" name="LRPA"> F  </i>
   <i type="logical" name="LNABLA"> F  </i>
   <i type="logical" name="LVEL"> F  </i>
   <i type="int" name="KINTER">     0</i>
   <i name="CSHIFT">      0.10000000</i>
   <i name="OMEGAMAX">     -1.00000000</i>
  </separator>
  <separator name="orbital magnetization" >
   <i type="logical" name="NUCIND"> F  </i>
   <v name="MAGPOS">      0.00000000      0.00000000      0.00000000</v>
   <i type="logical" name="LNICSALL"> T  </i>
   <i type="logical" name="ORBITALMAG"> F  </i>
   <i type="logical" name="LMAGBLOCH"> F  </i>
   <i type="logical" name="LCHIMAG"> F  </i>
   <i type="logical" name="LGAUGE"> T  </i>
   <i type="int" name="MAGATOM">     0</i>
   <v name="MAGDIPOL">      0.00000000      0.00000000      0.00000000</v>
   <v name="AVECCONST">      0.00000000      0.00000000      0.00000000</v>
  </separator>
  <separator name="response functions" >
   <i type="logical" name="LADDER"> F  </i>
   <i type="logical" name="LHARTREE"> T  </i>
   <i type="int" name="IBSE">     0</i>
   <i type="logical" name="LTCTE"> F  </i>
   <i type="logical" name="LTETE"> F  </i>
   <i type="logical" name="LFXCEPS"> F  </i>
   <i type="logical" name="L2ORDER"> F  </i>
   <i type="logical" name="LUSEW"> F  </i>
   <i name="ENCUTGW">     -2.00000000</i>
   <i name="ENCUTGWSOFT">     -2.00000000</i>
   <i name="ENCUTLF">     -1.00000000</i>
   <i type="int" name="LMAXMP2">    -1</i>
   <i name="SCISSOR">      0.00000000</i>
   <i type="int" name="NOMEGA">     0</i>
   <i type="int" name="NOMEGAR">     0</i>
   <i type="int" name="NBANDSGW">    -1</i>
   <i type="int" name="NBANDSO">    -1</i>
   <i type="int" name="NBANDSV">    -1</i>
   <i name="OPTEMAX">      0.00000000</i>
   <i type="int" name="NELM">     1</i>
   <i type="int" name="DIM">     3</i>
   <i type="int" name="ANTIRES">     0</i>
   <i name="OMEGAMAX">    -30.00000000</i>
   <i name="OMEGATL">   -200.00000000</i>
   <i type="int" name="OMEGAGRID">     0</i>
   <i name="CSHIFT">     -0.10000000</i>
   <i type="logical" name="SELFENERGY"> F  </i>
   <i type="logical" name="LSPECTRAL"> F  </i>
   <i type="logical" name="ODDONLYGW"> F  </i>
   <i type="logical" name="EVENONLYGW"> F  </i>
   <i type="int" name="NKREDLFX">     1</i>
   <i type="int" name="NKREDLFY">     1</i>
   <i type="int" name="NKREDLFZ">     1</i>
   <i type="int" name="MAXMEM">  1800</i>
   <i type="int" name="TELESCOPE">     0</i>
  </separator>
 </parameters>
 <atominfo>
  <atoms>       3 </atoms>
  <types>       2 </types>
  <array name="atoms" >
   <dimension dim="1">ion</dimension>
   <field type="string">element</field>
   <field type="int">atomtype</field>
   <set>
    <rc><c>C </c><c>   1</c></rc>
    <rc><c>O </c><c>   2</c></rc>
    <rc><c>O </c><c>   2</c></rc>
   </set>
  </array>
  <array name="atomtypes" >
   <dimension dim="1">type</dimension>
   <field type="int">atomspertype</field>
   <field type="string">element</field>
   <field>mass</field>
   <field>valence</field>
   <field type="string">pseudopotential</field>
   <set>
    <rc><c>   1</c><c>C </c><c>     12.01100000</c><c>      4.00000000</c><c> PAW_PBE C 08Apr2002                    </c></rc>
    <rc><c>   2</c><c>O </c><c>     16.00000000</c><c>      6.00000000</c><c> PAW_PBE O 08Apr2002                    </c></rc>
   </set>
  </array>
 </atominfo>
 <structure name="initialpos" >
  <crystal>
   <varray name="basis" >
    <v>      10.00000000       0.00000000       0.00000000 </v>
    <v>       0.00000000      10.00000000       0.00000000 </v>
    <v>       0.00000000       0.00000000      10.00000000 </v>
   </varray>
   <i name="volume">   1000.00000000 </i>
   <varray name="rec_basis" >
    <v>       0.10000000       0.00000000       0.00000000 </v>
    <v>       0.00000000       0.10000000       0.00000000 </v>
    <v>       0.00000000       0.00000000       0.10000000 </v>
   </varray>
  </crystal>
  <varray name="positions" >
   <v>       0.11600000       0.00000000       0.00000000 </v>
   <v>       0.00000000       0.00000000       0.00000000 </v>
   <v>       0.23200000       0.00000000       0.00000000 </v>
  </varray>
 </structure>
 <calculation>
  <scstep>
   <time name="dav">    4.35    5.23</time>
   <time name="total">    9.12   11.69</time>
   <energy>
    <i name="alphaZ">      1.06689490 </i>
    <i name="ewald">    304.63885589 </i>
    <i name="hartreedc">  -1112.59984709 </i>
    <i name="XCdc">     68.37513296 </i>
    <i name="pawpsdc">    529.82824833 </i>
    <i name="pawaedc">   -534.67809926 </i>
    <i name="eentropy">      0.00289895 </i>
    <i name="bandstr">   -203.33435229 </i>
    <i name="atom">   1011.07184495 </i>
    <i name="e_fr_energy">     64.37157735 </i>
    <i name="e_wo_entrp">     64.36867840 </i>
    <i name="e_0_energy">     64.37061103 </i>
   </energy>
  </scstep>
  <scstep>
   <time name="dav">    4.01    5.43</time>
   <time name="total">    4.01    5.43</time>
   <energy>
    <i name="e_fr_energy">     -4.53668506 </i>
    <i name="e_wo_entrp">     -4.53958401 </i>
    <i name="e_0_energy">     -4.53765138 </i>
   </energy>
  </scstep>
  <scstep>
   <time name="dav">    3.36    4.54</time>
   <time name="total">    3.37    4.64</time>
   <energy>
    <i name="e_fr_energy">    -22.72311769 </i>
    <i name="e_wo_entrp">    -22.72601664 </i>
    <i name="e_0_energy">    -22.72408400 </i>
   </energy>
  </scstep>
  <scstep>
   <time name="dav">    3.55    4.53</time>
   <time name="total">    3.55    4.55</time>
   <energy>
    <i name="e_fr_energy">    -24.61781613 </i>
    <i name="e_wo_entrp">    -24.62372845 </i>
    <i name="e_0_energy">    -24.61978690 </i>
   </energy>
  </scstep>
  <scstep>
   <time name="dav">    3.33    5.01</time>
   <time name="total">    4.31    6.51</time>
   <energy>
    <i name="e_fr_energy">    -24.63395376 </i>
    <i name="e_wo_entrp">    -24.63975175 </i>
    <i name="e_0_energy">    -24.63588643 </i>
   </energy>
  </scstep>
  <scstep>
   <time name="dav">    3.63    5.94</time>
   <time name="total">    9.20   13.75</time>
   <energy>
    <i name="e_fr_energy">    -23.13356197 </i>
    <i name="e_wo_entrp">    -23.13935988 </i>
    <i name="e_0_energy">    -23.13549461 </i>
   </energy>
  </scstep>
  <scstep>
   <time name="dav">    3.13    4.40</time>
   <time name="total">    8.35   11.32</time>
   <energy>
    <i name="e_fr_energy">    -23.00699907 </i>
    <i name="e_wo_entrp">    -23.01279697 </i>
    <i name="e_0_energy">    -23.00893170 </i>
   </energy>
  </scstep>
  <scstep>
   <time name="dav">    3.03    4.05</time>
   <time name="total">    8.21   10.34</time>
   <energy>
    <i name="e_fr_energy">    -22.95769731 </i>
    <i name="e_wo_entrp">    -22.96349522 </i>
    <i name="e_0_energy">    -22.95962995 </i>
   </energy>
  </scstep>
  <scstep>
   <time name="dav">    3.14    4.22</time>
   <time name="total">    8.39   11.42</time>
   <energy>
    <i name="e_fr_energy">    -22.95560873 </i>
    <i name="e_wo_entrp">    -22.96140663 </i>
    <i name="e_0_energy">    -22.95754136 </i>
   </energy>
  </scstep>
  <scstep>
   <time name="dav">    3.48    5.51</time>
   <time name="total">    8.95   13.66</time>
   <energy>
    <i name="e_fr_energy">    -22.95665375 </i>
    <i name="e_wo_entrp">    -22.96245165 </i>
    <i name="e_0_energy">    -22.95858638 </i>
   </energy>
  </scstep>
  <scstep>
   <time name="dav">    3.52    6.12</time>
   <time name="total">    8.92   14.59</time>
   <energy>
    <i name="e_fr_energy">    -22.96043667 </i>
    <i name="e_wo_entrp">    -22.96623458 </i>
    <i name="e_0_energy">    -22.96236931 </i>
   </energy>
  </scstep>
  <scstep>
   <time name="dav">    2.61    4.14</time>
   <time name="total">    8.35   12.39</time>
   <energy>
    <i name="e_fr_energy">    -22.96184857 </i>
    <i name="e_wo_entrp">    -22.96764647 </i>
    <i name="e_0_energy">    -22.96378120 </i>
   </energy>
  </scstep>
  <scstep>
   <time name="dav">    3.01    4.70</time>
   <time name="total">    8.27   12.69</time>
   <energy>
    <i name="e_fr_energy">    -22.96400872 </i>
    <i name="e_wo_entrp">    -22.96980663 </i>
    <i name="e_0_energy">    -22.96594136 </i>
   </energy>
  </scstep>
  <scstep>
   <time name="dav">    2.58    4.12</time>
   <time name="total">    8.14   11.84</time>
   <energy>
    <i name="e_fr_energy">    -22.96441862 </i>
    <i name="e_wo_entrp">    -22.97021652 </i>
    <i name="e_0_energy">    -22.96635125 </i>
   </energy>
  </scstep>
  <scstep>
   <time name="dav">    2.83    3.78</time>
   <time name="total">    8.93   12.92</time>
   <energy>
    <i name="e_fr_energy">    -22.96470124 </i>
    <i name="e_wo_entrp">    -22.97049914 </i>
    <i name="e_0_energy">    -22.96663387 </i>
   </energy>
  </scstep>
  <scstep>
   <time name="dav">    2.83    4.17</time>
   <time name="total">    7.35   10.65</time>
   <energy>
    <i name="alphaZ">      1.06689490 </i>
    <i name="ewald">    304.63885589 </i>
    <i name="hartreedc">  -1152.57561803 </i>
    <i name="XCdc">     70.55227589 </i>
    <i name="pawpsdc">    719.94363982 </i>
    <i name="pawaedc">   -724.90836286 </i>
    <i name="eentropy">      0.00579791 </i>
    <i name="bandstr">   -252.76010966 </i>
    <i name="atom">   1011.07184495 </i>
    <i name="e_fr_energy">    -22.96478119 </i>
    <i name="e_wo_entrp">    -22.97057910 </i>
    <i name="e_0_energy">    -22.96671383 </i>
   </energy>
  </scstep>
  <parameters_embedded>
   <separator name="dft+d2" >
    <i type="logical" name="LVDW"> F  </i>
   </separator>
  </parameters_embedded>
  <structure>
   <crystal>
    <varray name="basis" >
     <v>      10.00000000       0.00000000       0.00000000 </v>
     <v>       0.00000000      10.00000000       0.00000000 </v>
     <v>       0.00000000       0.00000000      10.00000000 </v>
    </varray>
    <i name="volume">   1000.00000000 </i>
    <varray name="rec_basis" >
     <v>       0.10000000       0.00000000       0.00000000 </v>
     <v>       0.00000000       0.10000000       0.00000000 </v>
     <v>       0.00000000       0.00000000       0.10000000 </v>
    </varray>
   </crystal>
   <varray name="positions" >
    <v>       0.11600000       0.00000000       0.00000000 </v>
    <v>       0.00000000       0.00000000       0.00000000 </v>
    <v>       0.23200000       0.00000000       0.00000000 </v>
   </varray>
  </structure>
  <varray name="forces" >
   <v>       0.00000000       0.00000000       0.00000000 </v>
   <v>      -1.81693505       0.00000000       0.00000000 </v>
   <v>       1.81693505       0.00000000       0.00000000 </v>
  </varray>
  <varray name="stress" >
   <v>       0.16610063       0.00000000       0.00000000 </v>
   <v>       0.00000000      -7.34470262       0.00000000 </v>
   <v>       0.00000000       0.00000000      -7.34470262 </v>
  </varray>
  <energy>
   <i name="e_fr_energy">    -22.96478119 </i>
   <i name="e_wo_entrp">    -22.96671383 </i>
   <i name="e_0_energy">      0.00579791 </i>
  </energy>
  <time name="totalsc">  130.90  188.91</time>
 </calculation>
 <calculation>
  <scstep>
   <time name="dav">    2.91    4.72</time>
   <time name="total">    7.95   12.30</time>
   <energy>
    <i name="alphaZ">      1.06689490 </i>
    <i name="ewald">    248.47599471 </i>
    <i name="hartreedc">  -1112.80284132 </i>
    <i name="XCdc">     69.82409423 </i>
    <i name="pawpsdc">    719.92909763 </i>
    <i name="pawaedc">   -724.89379153 </i>
    <i name="eentropy">      0.00579791 </i>
    <i name="bandstr">   -235.23346842 </i>
    <i name="atom">   1011.07184495 </i>
    <i name="e_fr_energy">    -22.55637695 </i>
    <i name="e_wo_entrp">    -22.56217485 </i>
    <i name="e_0_energy">    -22.55830958 </i>
   </energy>
  </scstep>
  <scstep>
   <time name="dav">    3.37    4.59</time>
   <time name="total">    8.40   11.74</time>
   <energy>
    <i name="e_fr_energy">    -22.58267894 </i>
    <i name="e_wo_entrp">    -22.58847684 </i>
    <i name="e_0_energy">    -22.58461157 </i>
   </energy>
  </scstep>
  <scstep>
   <time name="dav">    3.53    4.79</time>
   <time name="total">    8.34   11.65</time>
   <energy>
    <i name="e_fr_energy">    -22.56061995 </i>
    <i name="e_wo_entrp">    -22.56641785 </i>
    <i name="e_0_energy">    -22.56255258 </i>
   </energy>
  </scstep>
  <scstep>
   <time name="dav">    3.40    4.51</time>
   <time name="total">    8.45   11.62</time>
   <energy>
    <i name="e_fr_energy">    -22.56063313 </i>
    <i name="e_wo_entrp">    -22.56643103 </i>
    <i name="e_0_energy">    -22.56256576 </i>
   </energy>
  </scstep>
  <scstep>
   <time name="dav">    3.20    3.64</time>
   <time name="total">    8.33   11.56</time>
   <energy>
    <i name="e_fr_energy">    -22.56129937 </i>
    <i name="e_wo_entrp">    -22.56709728 </i>
    <i name="e_0_energy">    -22.56323201 </i>
   </energy>
  </scstep>
  <scstep>
   <time name="dav">    2.80    4.04</time>
   <time name="total">    8.69   12.04</time>
   <energy>
    <i name="e_fr_energy">    -22.56146765 </i>
    <i name="e_wo_entrp">    -22.56726555 </i>
    <i name="e_0_energy">    -22.56340028 </i>
   </energy>
  </scstep>
  <scstep>
   <time name="dav">    2.38    2.94</time>
   <time name="total">    6.66    8.61</time>
   <energy>
    <i name="alphaZ">      1.06689490 </i>
    <i name="ewald">    248.47599471 </i>
    <i name="hartreedc">  -1101.39508819 </i>
    <i name="XCdc">     69.24552021 </i>
    <i name="pawpsdc">    667.92129939 </i>
    <i name="pawaedc">   -672.64141580 </i>
    <i name="eentropy">      0.00579791 </i>
    <i name="bandstr">   -246.31233248 </i>
    <i name="atom">   1011.07184495 </i>
    <i name="e_fr_energy">    -22.56148440 </i>
    <i name="e_wo_entrp">    -22.56728230 </i>
    <i name="e_0_energy">    -22.56341703 </i>
   </energy>
  </scstep>
  <structure>
   <crystal>
    <varray name="basis" >
     <v>      10.00000000       0.00000000       0.00000000 </v>
     <v>       0.00000000      10.00000000       0.00000000 </v>
     <v>       0.00000000       0.00000000      10.00000000 </v>
    </varray>
    <i name="volume">   1000.00000000 </i>
    <varray name="rec_basis" >
     <v>       0.10000000       0.00000000       0.00000000 </v>
     <v>       0.00000000       0.10000000       0.00000000 </v>
     <v>       0.00000000       0.00000000       0.10000000 </v>
    </varray>
   </crystal>
   <varray name="positions" >
    <v>       0.11600000       0.00000000       0.00000000 </v>
    <v>      -0.00876538       0.00000000       0.00000000 </v>
    <v>       0.24076538       0.00000000       0.00000000 </v>
   </varray>
  </structure>
  <varray name="forces" >
   <v>       0.00000000       0.00000000       0.00000000 </v>
   <v>       5.63894914       0.00000000       0.00000000 </v>
   <v>      -5.63894914       0.00000000       0.00000000 </v>
  </varray>
  <varray name="stress" >
   <v>     -28.70159167       0.00000000       0.00000000 </v>
   <v>       0.00000000      -7.47508949       0.00000000 </v>
   <v>       0.00000000       0.00000000      -7.47508949 </v>
  </varray>
  <energy>
   <i name="e_fr_energy">    -22.56148440 </i>
   <i name="e_wo_entrp">    -22.56341703 </i>
   <i name="e_0_energy">      0.00579791 </i>
  </energy>
  <time name="totalsc">   66.25   92.06</time>
 </calculation>
 <calculation>
  <scstep>
   <time name="dav">    3.13    4.79</time>
   <time name="total">    8.45   11.82</time>
   <energy>
    <i name="alphaZ">      1.06689490 </i>
    <i name="ewald">    290.15358621 </i>
    <i name="hartreedc">  -1130.46625408 </i>
    <i name="XCdc">     69.76383856 </i>
    <i name="pawpsdc">    667.99430443 </i>
    <i name="pawaedc">   -672.71520800 </i>
    <i name="eentropy">      0.00579791 </i>
    <i name="bandstr">   -259.84430698 </i>
    <i name="atom">   1011.07184495 </i>
    <i name="e_fr_energy">    -22.96950210 </i>
    <i name="e_wo_entrp">    -22.97530001 </i>
    <i name="e_0_energy">    -22.97143474 </i>
   </energy>
  </scstep>
  <scstep>
   <time name="dav">    3.60    5.43</time>
   <time name="total">    9.27   12.86</time>
   <energy>
    <i name="e_fr_energy">    -23.00807321 </i>
    <i name="e_wo_entrp">    -23.01387111 </i>
    <i name="e_0_energy">    -23.01000584 </i>
   </energy>
  </scstep>
  <scstep>
   <time name="dav">    3.43    5.55</time>
   <time name="total">    9.19   14.24</time>
   <energy>
    <i name="e_fr_energy">    -22.99236259 </i>
    <i name="e_wo_entrp">    -22.99816049 </i>
    <i name="e_0_energy">    -22.99429522 </i>
   </energy>
  </scstep>
  <scstep>
   <time name="dav">    3.29    4.89</time>
   <time name="total">    8.95   13.41</time>
   <energy>
    <i name="e_fr_energy">    -22.99202522 </i>
    <i name="e_wo_entrp">    -22.99782313 </i>
    <i name="e_0_energy">    -22.99395786 </i>
   </energy>
  </scstep>
  <scstep>
   <time name="dav">    3.25    4.60</time>
   <time name="total">    8.96   13.18</time>
   <energy>
    <i name="e_fr_energy">    -22.99232643 </i>
    <i name="e_wo_entrp">    -22.99812433 </i>
    <i name="e_0_energy">    -22.99425906 </i>
   </energy>
  </scstep>
  <scstep>
   <time name="dav">    2.82    4.46</time>
   <time name="total">    8.79   12.44</time>
   <energy>
    <i name="e_fr_energy">    -22.99258607 </i>
    <i name="e_wo_entrp">    -22.99838398 </i>
    <i name="e_0_energy">    -22.99451871 </i>
   </energy>
  </scstep>
  <scstep>
   <time name="dav">    3.03    3.93</time>
   <time name="total">    7.81   11.36</time>
   <energy>
    <i name="alphaZ">      1.06689490 </i>
    <i name="ewald">    290.15358621 </i>
    <i name="hartreedc">  -1139.32028090 </i>
    <i name="XCdc">     70.21026016 </i>
    <i name="pawpsdc">    705.84307611 </i>
    <i name="pawaedc">   -710.73951629 </i>
    <i name="eentropy">      0.00579791 </i>
    <i name="bandstr">   -251.28430183 </i>
    <i name="atom">   1011.07184495 </i>
    <i name="e_fr_energy">    -22.99263879 </i>
    <i name="e_wo_entrp">    -22.99843670 </i>
    <i name="e_0_energy">    -22.99457143 </i>
   </energy>
  </scstep>
  <structure>
   <crystal>
    <varray name="basis" >
     <v>      10.00000000       0.00000000       0.00000000 </v>
     <v>       0.00000000      10.00000000       0.00000000 </v>
     <v>       0.00000000       0.00000000      10.00000000 </v>
    </varray>
    <i name="volume">   1000.00000000 </i>
    <varray name="rec_basis" >
     <v>       0.10000000       0.00000000       0.00000000 </v>
     <v>       0.00000000       0.10000000       0.00000000 </v>
     <v>       0.00000000       0.00000000       0.10000000 </v>
    </varray>
   </crystal>
   <varray name="positions" >
    <v>       0.11600000       0.00000000       0.00000000 </v>
    <v>      -0.00213605       0.00000000       0.00000000 </v>
    <v>       0.23413605       0.00000000       0.00000000 </v>
   </varray>
  </structure>
  <varray name="forces" >
   <v>       0.00000000       0.00000000       0.00000000 </v>
   <v>       0.44792421       0.00000000       0.00000000 </v>
   <v>      -0.44792421       0.00000000       0.00000000 </v>
  </varray>
  <varray name="stress" >
   <v>      -8.19947636       0.00000000       0.00000000 </v>
   <v>       0.00000000      -7.36093185       0.00000000 </v>
   <v>       0.00000000       0.00000000      -7.36093185 </v>
  </varray>
  <energy>
   <i name="e_fr_energy">    -22.99263879 </i>
   <i name="e_wo_entrp">    -22.99457143 </i>
   <i name="e_0_energy">      0.00579791 </i>
  </energy>
  <time name="totalsc">   71.20  103.14</time>
 </calculation>
 <calculation>
  <scstep>
   <time name="dav">    2.94    3.83</time>
   <time name="total">    8.75   12.35</time>
   <energy>
    <i name="alphaZ">      1.06689490 </i>
    <i name="ewald">    293.97922946 </i>
    <i name="hartreedc">  -1142.02625617 </i>
    <i name="XCdc">     70.25997548 </i>
    <i name="pawpsdc">    705.68982097 </i>
    <i name="pawaedc">   -710.58511605 </i>
    <i name="eentropy">      0.00579791 </i>
    <i name="bandstr">   -252.45683697 </i>
    <i name="atom">   1011.07184495 </i>
    <i name="e_fr_energy">    -22.99464553 </i>
    <i name="e_wo_entrp">    -23.00044343 </i>
    <i name="e_0_energy">    -22.99657816 </i>
   </energy>
  </scstep>
  <scstep>
   <time name="dav">    3.40    4.92</time>
   <time name="total">    8.95   12.13</time>
   <energy>
    <i name="e_fr_energy">    -22.99468906 </i>
    <i name="e_wo_entrp">    -23.00048696 </i>
    <i name="e_0_energy">    -22.99662169 </i>
   </energy>
  </scstep>
  <scstep>
   <time name="dav">    3.00    3.66</time>
   <time name="total">    7.95    9.81</time>
   <energy>
    <i name="alphaZ">      1.06689490 </i>
    <i name="ewald">    293.97922946 </i>
    <i name="hartreedc">  -1142.74482225 </i>
    <i name="XCdc">     70.29602206 </i>
    <i name="pawpsdc">    708.45611978 </i>
    <i name="pawaedc">   -713.36363768 </i>
    <i name="eentropy">      0.00579791 </i>
    <i name="bandstr">   -251.76206597 </i>
    <i name="atom">   1011.07184495 </i>
    <i name="e_fr_energy">    -22.99461685 </i>
    <i name="e_wo_entrp">    -23.00041476 </i>
    <i name="e_0_energy">    -22.99654949 </i>
   </energy>
  </scstep>
  <structure>
   <crystal>
    <varray name="basis" >
     <v>      10.00000000       0.00000000       0.00000000 </v>
     <v>       0.00000000      10.00000000       0.00000000 </v>
     <v>       0.00000000       0.00000000      10.00000000 </v>
    </varray>
    <i name="volume">   1000.00000000 </i>
    <varray name="rec_basis" >
     <v>       0.10000000       0.00000000       0.00000000 </v>
     <v>       0.00000000       0.10000000       0.00000000 </v>
     <v>       0.00000000       0.00000000       0.10000000 </v>
    </varray>
   </crystal>
   <varray name="positions" >
    <v>       0.11600000       0.00000000       0.00000000 </v>
    <v>      -0.00156401       0.00000000       0.00000000 </v>
    <v>       0.23356401       0.00000000       0.00000000 </v>
   </varray>
  </structure>
  <varray name="forces" >
   <v>       0.00000000       0.00000000       0.00000000 </v>
   <v>      -0.10468251       0.00000000       0.00000000 </v>
   <v>       0.10468251       0.00000000       0.00000000 </v>
  </varray>
  <varray name="stress" >
   <v>      -6.04234709       0.00000000       0.00000000 </v>
   <v>       0.00000000      -7.17697189       0.00000000 </v>
   <v>       0.00000000       0.00000000      -7.17697189 </v>
  </varray>
  <energy>
   <i name="e_fr_energy">    -22.99461685 </i>
   <i name="e_wo_entrp">    -22.99654949 </i>
   <i name="e_0_energy">      0.00579791 </i>
  </energy>
  <time name="totalsc">   34.64   47.56</time>
 </calculation>
 <calculation>
  <scstep>
   <time name="dav">    2.83    4.35</time>
   <time name="total">    8.65   12.94</time>
   <energy>
    <i name="alphaZ">      1.06689490 </i>
    <i name="ewald">    293.25155938 </i>
    <i name="hartreedc">  -1142.39020174 </i>
    <i name="XCdc">     70.29361574 </i>
    <i name="pawpsdc">    709.23266373 </i>
    <i name="pawaedc">   -714.14543363 </i>
    <i name="eentropy">      0.00579791 </i>
    <i name="bandstr">   -251.38154160 </i>
    <i name="atom">   1011.07184495 </i>
    <i name="e_fr_energy">    -22.99480037 </i>
    <i name="e_wo_entrp">    -23.00059828 </i>
    <i name="e_0_energy">    -22.99673301 </i>
   </energy>
  </scstep>
  <scstep>
   <time name="dav">    2.91    4.35</time>
   <time name="total">    7.58   11.10</time>
   <energy>
    <i name="alphaZ">      1.06689490 </i>
    <i name="ewald">    293.25155938 </i>
    <i name="hartreedc">  -1142.28873231 </i>
    <i name="XCdc">     70.28797232 </i>
    <i name="pawpsdc">    708.98740847 </i>
    <i name="pawaedc">   -713.89948797 </i>
    <i name="eentropy">      0.00579791 </i>
    <i name="bandstr">   -251.47806844 </i>
    <i name="atom">   1011.07184495 </i>
    <i name="e_fr_energy">    -22.99481081 </i>
    <i name="e_wo_entrp">    -23.00060872 </i>
    <i name="e_0_energy">    -22.99674345 </i>
   </energy>
  </scstep>
  <structure>
   <crystal>
    <varray name="basis" >
     <v>      10.00000000       0.00000000       0.00000000 </v>
     <v>       0.00000000      10.00000000       0.00000000 </v>
     <v>       0.00000000       0.00000000      10.00000000 </v>
    </varray>
    <i name="volume">   1000.00000000 </i>
    <varray name="rec_basis" >
     <v>       0.10000000       0.00000000       0.00000000 </v>
     <v>       0.00000000       0.10000000       0.00000000 </v>
     <v>       0.00000000       0.00000000       0.10000000 </v>
    </varray>
   </crystal>
   <varray name="positions" >
    <v>       0.11600000       0.00000000       0.00000000 </v>
    <v>      -0.00167238       0.00000000       0.00000000 </v>
    <v>       0.23367238       0.00000000       0.00000000 </v>
   </varray>
  </structure>
  <varray name="forces" >
   <v>       0.00000000       0.00000000       0.00000000 </v>
   <v>      -0.02184320       0.00000000       0.00000000 </v>
   <v>       0.02184320       0.00000000       0.00000000 </v>
  </varray>
  <varray name="stress" >
   <v>      -6.45375961       0.00000000       0.00000000 </v>
   <v>       0.00000000      -7.44484100       0.00000000 </v>
   <v>       0.00000000       0.00000000      -7.44484100 </v>
  </varray>
  <energy>
   <i name="e_fr_energy">    -22.99481081 </i>
   <i name="e_wo_entrp">    -22.99674345 </i>
   <i name="e_0_energy">      0.00579791 </i>
  </energy>
  <time name="totalsc">   24.74   35.93</time>
  <eigenvalues>
   <array>
    <dimension dim="1">band</dimension>
    <dimension dim="2">kpoint</dimension>
    <dimension dim="3">spin</dimension>
    <field>eigene</field>
    <field>occ</field>
    <set>
     <set comment="spin 1">
      <set comment="kpoint 1">
       <r>  -29.0166    1.0000 </r>
       <r>  -28.0053    1.0000 </r>
       <r>  -13.6239    1.0000 </r>
       <r>  -12.4544    1.0000 </r>
       <r>  -12.4544    1.0000 </r>
       <r>  -12.4153    1.0000 </r>
       <r>   -8.8846    1.0000 </r>
       <r>   -8.8846    1.0000 </r>
       <r>   -0.9271    0.0000 </r>
       <r>   -0.3680    0.0000 </r>
       <r>   -0.3680    0.0000 </r>
       <r>    0.4970    0.0000 </r>
      </set>
     </set>
    </set>
   </array>
  </eigenvalues>
  <separator name="orbital magnetization" >
   <v name="MAGDIPOLOUT">      0.00000000      0.00000000      0.00000000</v>
  </separator>
 </calculation>
 <structure name="finalpos" >
  <crystal>
   <varray name="basis" >
    <v>      10.00000000       0.00000000       0.00000000 </v>
    <v>       0.00000000      10.00000000       0.00000000 </v>
    <v>       0.00000000       0.00000000      10.00000000 </v>
   </varray>
   <i name="volume">   1000.00000000 </i>
   <varray name="rec_basis" >
    <v>       0.10000000       0.00000000       0.00000000 </v>
    <v>       0.00000000       0.10000000       0.00000000 </v>
    <v>       0.00000000       0.00000000       0.10000000 </v>
   </varray>
  </crystal>
  <varray name="positions" >
   <v>       0.11600000       0.00000000       0.00000000 </v>
   <v>      -0.00167238       0.00000000       0.00000000 </v>
   <v>       0.23367238       0.00000000       0.00000000 </v>
  </varray>
 </structure>
</modeling>
