   2   2   1   0
  0.1105231E+02  0.3150161E-09  0.3150161E-09  0.3150161E-09  0.5000000E-15
  1.000000000000000E-004
  CAR 
 unknown system                          
     23.89662341     -7.48076837  301      8.47247516      1.00000000
     -7.481  0.0000E+00  0.0000E+00  0.0000E+00  0.0000E+00
     -7.376  0.0000E+00  0.0000E+00  0.0000E+00  0.0000E+00
     -7.272  0.0000E+00  0.0000E+00  0.0000E+00  0.0000E+00
     -7.167  0.0000E+00  0.0000E+00  0.0000E+00  0.0000E+00
     -7.062  0.0000E+00  0.0000E+00  0.0000E+00  0.0000E+00
     -6.958  0.0000E+00  0.0000E+00  0.0000E+00  0.0000E+00
     -6.853  0.0000E+00  0.0000E+00  0.0000E+00  0.0000E+00
     -6.749  0.0000E+00  0.0000E+00  0.0000E+00  0.0000E+00
     -6.644  0.0000E+00  0.0000E+00  0.0000E+00  0.0000E+00
     -6.539 -0.1444E-41 -0.1253E-41 -0.1510E-42 -0.1310E-42
     -6.435 -0.5959E-26 -0.5333E-26 -0.6232E-27 -0.5578E-27
     -6.330 -0.3481E-14 -0.3213E-14 -0.3641E-15 -0.3361E-15
     -6.226 -0.2700E-06 -0.2573E-06 -0.2824E-07 -0.2692E-07
     -6.121 -0.1268E-02 -0.1261E-02 -0.1326E-03 -0.1319E-03
     -6.016  0.3784E-01  0.3775E-01  0.3825E-02  0.3817E-02
     -5.912  0.6791E-03  0.7639E-03  0.3896E-02  0.3897E-02
     -5.807  0.1714E-01  0.1664E-01  0.5689E-02  0.5637E-02
     -5.703  0.9742E-01  0.9796E-01  0.1588E-01  0.1588E-01
     -5.598 -0.5002E-02 -0.5000E-02  0.1536E-01  0.1536E-01
     -5.494  0.9948E-01  0.9893E-01  0.2576E-01  0.2571E-01
     -5.389  0.1408E-01  0.1461E-01  0.2723E-01  0.2724E-01
     -5.284  0.7643E-01  0.7549E-01  0.3523E-01  0.3513E-01
     -5.180  0.7533E-01  0.7627E-01  0.4310E-01  0.4311E-01
     -5.075 -0.1327E-02 -0.1771E-02  0.4297E-01  0.4292E-01
     -4.971  0.2320E+00  0.2325E+00  0.6724E-01  0.6724E-01
     -4.866 -0.9777E-02 -0.9747E-02  0.6621E-01  0.6622E-01
     -4.761  0.8468E-01  0.8398E-01  0.7507E-01  0.7500E-01
     -4.657  0.1382E+00  0.1386E+00  0.8953E-01  0.8950E-01
     -4.552  0.7137E-01  0.7082E-01  0.9699E-01  0.9691E-01
     -4.448  0.1354E+00  0.1345E+00  0.1112E+00  0.1110E+00
     -4.343  0.1430E+00  0.1443E+00  0.1261E+00  0.1261E+00
     -4.238  0.1003E+00  0.1005E+00  0.1366E+00  0.1366E+00
     -4.134  0.2322E+00  0.2323E+00  0.1609E+00  0.1609E+00
     -4.029 -0.1485E-01 -0.1521E-01  0.1593E+00  0.1593E+00
     -3.925  0.6846E+00  0.6817E+00  0.2309E+00  0.2306E+00
     -3.820  0.1538E+00  0.1564E+00  0.2470E+00  0.2469E+00
     -3.715  0.6879E+00  0.6829E+00  0.3190E+00  0.3184E+00
     -3.611  0.3362E+00  0.3415E+00  0.3541E+00  0.3541E+00
     -3.506  0.2799E+00  0.2761E+00  0.3834E+00  0.3830E+00
     -3.402  0.6133E+00  0.6162E+00  0.4475E+00  0.4474E+00
     -3.297  0.5133E+00  0.5096E+00  0.5012E+00  0.5007E+00
     -3.193  0.7204E+00  0.7212E+00  0.5766E+00  0.5761E+00
     -3.088  0.4832E+00  0.4843E+00  0.6271E+00  0.6268E+00
     -2.983  0.7590E+00  0.7596E+00  0.7065E+00  0.7062E+00
     -2.879  0.4418E+00  0.4408E+00  0.7527E+00  0.7523E+00
     -2.774  0.6619E+00  0.6601E+00  0.8220E+00  0.8214E+00
     -2.670  0.6605E+00  0.6652E+00  0.8910E+00  0.8910E+00
     -2.565  0.2210E+00  0.2212E+00  0.9141E+00  0.9141E+00
     -2.460  0.1042E+00  0.1047E+00  0.9250E+00  0.9251E+00
     -2.356  0.3791E+00  0.3753E+00  0.9647E+00  0.9643E+00
     -2.251  0.9847E-01  0.1019E+00  0.9750E+00  0.9750E+00
     -2.147  0.1001E+00  0.9923E-01  0.9855E+00  0.9853E+00
     -2.042  0.2382E-01  0.2506E-01  0.9880E+00  0.9880E+00
     -1.937  0.1081E+00  0.1073E+00  0.9993E+00  0.9992E+00
     -1.833  0.7105E-02  0.7817E-02  0.1000E+01  0.1000E+01
     -1.728 -0.4339E-04 -0.4680E-04  0.1000E+01  0.1000E+01
     -1.624 -0.1152E-10 -0.1328E-10  0.1000E+01  0.1000E+01
     -1.519  0.0000E+00  0.0000E+00  0.1000E+01  0.1000E+01
     -1.414  0.0000E+00  0.0000E+00  0.1000E+01  0.1000E+01
     -1.310  0.0000E+00  0.0000E+00  0.1000E+01  0.1000E+01
     -1.205  0.0000E+00  0.0000E+00  0.1000E+01  0.1000E+01
     -1.101  0.0000E+00  0.0000E+00  0.1000E+01  0.1000E+01
     -0.996  0.0000E+00  0.0000E+00  0.1000E+01  0.1000E+01
     -0.892  0.0000E+00  0.0000E+00  0.1000E+01  0.1000E+01
     -0.787  0.0000E+00  0.0000E+00  0.1000E+01  0.1000E+01
     -0.682  0.0000E+00  0.0000E+00  0.1000E+01  0.1000E+01
     -0.578  0.0000E+00  0.0000E+00  0.1000E+01  0.1000E+01
     -0.473  0.0000E+00  0.0000E+00  0.1000E+01  0.1000E+01
     -0.369 -0.1261E-36 -0.1287E-36  0.1000E+01  0.1000E+01
     -0.264 -0.5160E-22 -0.5243E-22  0.1000E+01  0.1000E+01
     -0.159 -0.2926E-11 -0.2959E-11  0.1000E+01  0.1000E+01
     -0.055 -0.2074E-04 -0.2087E-04  0.1000E+01  0.1000E+01
      0.050  0.1646E-02  0.1681E-02  0.1000E+01  0.1000E+01
      0.154  0.1143E+00  0.1142E+00  0.1012E+01  0.1012E+01
      0.259 -0.4043E-02 -0.4040E-02  0.1012E+01  0.1012E+01
      0.364  0.2837E-01  0.2842E-01  0.1015E+01  0.1015E+01
      0.468  0.1233E+00  0.1232E+00  0.1028E+01  0.1028E+01
      0.573  0.8355E-01  0.8356E-01  0.1036E+01  0.1036E+01
      0.677  0.1333E+00  0.1333E+00  0.1050E+01  0.1050E+01
      0.782  0.2347E+00  0.2347E+00  0.1075E+01  0.1075E+01
      0.887  0.4253E-02  0.4263E-02  0.1075E+01  0.1075E+01
      0.991  0.1998E+00  0.1997E+00  0.1096E+01  0.1096E+01
      1.096  0.4138E-01  0.4140E-01  0.1100E+01  0.1100E+01
      1.200  0.4374E+00  0.4376E+00  0.1146E+01  0.1146E+01
      1.305  0.4570E+00  0.4569E+00  0.1194E+01  0.1194E+01
      1.409  0.8513E-01  0.8517E-01  0.1203E+01  0.1203E+01
      1.514  0.1830E+00  0.1827E+00  0.1222E+01  0.1222E+01
      1.619  0.4189E+00  0.4190E+00  0.1266E+01  0.1266E+01
      1.723  0.7039E+00  0.7039E+00  0.1339E+01  0.1339E+01
      1.828  0.2658E+00  0.2659E+00  0.1367E+01  0.1367E+01
      1.932  0.2442E+00  0.2440E+00  0.1393E+01  0.1393E+01
      2.037  0.2576E+00  0.2577E+00  0.1420E+01  0.1420E+01
      2.142  0.5293E+00  0.5288E+00  0.1475E+01  0.1475E+01
      2.246  0.2997E+00  0.3002E+00  0.1506E+01  0.1506E+01
      2.351  0.7616E+00  0.7613E+00  0.1586E+01  0.1586E+01
      2.455  0.2690E+00  0.2682E+00  0.1614E+01  0.1614E+01
      2.560  0.3663E+00  0.3674E+00  0.1653E+01  0.1653E+01
      2.665  0.2097E+00  0.2096E+00  0.1674E+01  0.1674E+01
      2.769  0.5274E+00  0.5272E+00  0.1730E+01  0.1730E+01
      2.874  0.2362E+00  0.2362E+00  0.1754E+01  0.1754E+01
      2.978  0.1402E+00  0.1404E+00  0.1769E+01  0.1769E+01
      3.083  0.4207E+00  0.4202E+00  0.1813E+01  0.1813E+01
      3.188  0.1496E+00  0.1502E+00  0.1829E+01  0.1829E+01
      3.292  0.4953E+00  0.4948E+00  0.1880E+01  0.1880E+01
      3.397  0.7527E+00  0.7525E+00  0.1959E+01  0.1959E+01
      3.501  0.7905E+00  0.7899E+00  0.2042E+01  0.2042E+01
      3.606  0.1744E+01  0.1744E+01  0.2224E+01  0.2224E+01
      3.711  0.2942E+01  0.2942E+01  0.2532E+01  0.2532E+01
      3.815  0.1412E+01  0.1412E+01  0.2680E+01  0.2680E+01
      3.920  0.1865E+01  0.1864E+01  0.2875E+01  0.2874E+01
      4.024  0.1470E+01  0.1473E+01  0.3029E+01  0.3029E+01
      4.129  0.1002E+01  0.1001E+01  0.3133E+01  0.3133E+01
      4.233  0.9262E+00  0.9266E+00  0.3230E+01  0.3230E+01
      4.338  0.7690E+00  0.7685E+00  0.3311E+01  0.3311E+01
      4.443  0.9346E+00  0.9344E+00  0.3408E+01  0.3408E+01
      4.547  0.7630E+00  0.7626E+00  0.3488E+01  0.3488E+01
      4.652  0.4157E+00  0.4167E+00  0.3532E+01  0.3532E+01
      4.756  0.3779E+00  0.3785E+00  0.3571E+01  0.3571E+01
      4.861  0.3047E-01  0.3071E-01  0.3574E+01  0.3574E+01
      4.966  0.2988E+00  0.2984E+00  0.3606E+01  0.3606E+01
      5.070  0.3177E+00  0.3173E+00  0.3639E+01  0.3639E+01
      5.175  0.3619E+00  0.3610E+00  0.3677E+01  0.3677E+01
      5.279  0.4459E+00  0.4472E+00  0.3723E+01  0.3723E+01
      5.384  0.6593E+00  0.6578E+00  0.3792E+01  0.3792E+01
      5.489  0.1101E+00  0.1106E+00  0.3804E+01  0.3804E+01
      5.593  0.4348E+00  0.4345E+00  0.3849E+01  0.3849E+01
      5.698  0.1994E+00  0.2006E+00  0.3870E+01  0.3870E+01
      5.802  0.2318E+00  0.2320E+00  0.3894E+01  0.3894E+01
      5.907 -0.8579E-03 -0.8994E-03  0.3894E+01  0.3894E+01
      6.012  0.9894E-01  0.9826E-01  0.3905E+01  0.3905E+01
      6.116  0.1483E+00  0.1489E+00  0.3920E+01  0.3920E+01
      6.221  0.1648E+00  0.1643E+00  0.3937E+01  0.3937E+01
      6.325  0.1534E+00  0.1541E+00  0.3953E+01  0.3953E+01
      6.430  0.1857E-01  0.1772E-01  0.3955E+01  0.3955E+01
      6.534  0.3008E+00  0.3016E+00  0.3987E+01  0.3987E+01
      6.639  0.3340E+00  0.3336E+00  0.4022E+01  0.4022E+01
      6.744  0.7791E-01  0.7771E-01  0.4030E+01  0.4030E+01
      6.848  0.9611E-01  0.9624E-01  0.4040E+01  0.4040E+01
      6.953  0.1969E+00  0.1981E+00  0.4061E+01  0.4061E+01
      7.057  0.6985E-01  0.6944E-01  0.4068E+01  0.4068E+01
      7.162  0.2247E-01  0.2232E-01  0.4070E+01  0.4070E+01
      7.267  0.6836E-01  0.6869E-01  0.4077E+01  0.4077E+01
      7.371  0.6455E+00  0.6445E+00  0.4145E+01  0.4145E+01
      7.476  0.6092E+00  0.6109E+00  0.4209E+01  0.4209E+01
      7.580  0.2472E+00  0.2462E+00  0.4235E+01  0.4235E+01
      7.685  0.1112E+00  0.1120E+00  0.4246E+01  0.4246E+01
      7.790  0.3477E+00  0.3479E+00  0.4283E+01  0.4283E+01
      7.894  0.1089E+00  0.1088E+00  0.4294E+01  0.4294E+01
      7.999  0.6669E-01  0.6588E-01  0.4301E+01  0.4301E+01
      8.103 -0.1128E-02 -0.1110E-02  0.4301E+01  0.4301E+01
      8.208  0.2200E-01  0.2276E-01  0.4303E+01  0.4303E+01
      8.313  0.2487E+00  0.2490E+00  0.4329E+01  0.4329E+01
      8.417  0.1154E+01  0.1156E+01  0.4450E+01  0.4450E+01
      8.522  0.6563E+00  0.6542E+00  0.4518E+01  0.4519E+01
      8.626  0.3138E+00  0.3138E+00  0.4551E+01  0.4551E+01
      8.731  0.1735E+00  0.1729E+00  0.4569E+01  0.4569E+01
      8.835  0.1441E+00  0.1457E+00  0.4584E+01  0.4585E+01
      8.940  0.2574E+00  0.2572E+00  0.4611E+01  0.4612E+01
      9.045  0.1681E+00  0.1666E+00  0.4629E+01  0.4629E+01
      9.149  0.1217E+00  0.1215E+00  0.4642E+01  0.4642E+01
      9.254  0.1619E+00  0.1640E+00  0.4659E+01  0.4659E+01
      9.358  0.3403E+00  0.3391E+00  0.4694E+01  0.4694E+01
      9.463  0.2884E+00  0.2901E+00  0.4724E+01  0.4725E+01
      9.568  0.1236E+01  0.1238E+01  0.4854E+01  0.4854E+01
      9.672  0.6906E+00  0.6860E+00  0.4926E+01  0.4926E+01
      9.777  0.3497E+00  0.3513E+00  0.4962E+01  0.4963E+01
      9.881  0.6402E-01  0.6246E-01  0.4969E+01  0.4969E+01
      9.986  0.2124E+00  0.2121E+00  0.4991E+01  0.4991E+01
     10.091  0.6593E+00  0.6632E+00  0.5060E+01  0.5061E+01
     10.195  0.5223E+00  0.5184E+00  0.5115E+01  0.5115E+01
     10.300  0.4409E+00  0.4470E+00  0.5161E+01  0.5162E+01
     10.404  0.7668E+00  0.7636E+00  0.5241E+01  0.5242E+01
     10.509  0.3154E+00  0.3122E+00  0.5274E+01  0.5274E+01
     10.614  0.2315E+00  0.2351E+00  0.5298E+01  0.5299E+01
     10.718  0.7073E+00  0.7071E+00  0.5372E+01  0.5373E+01
     10.823  0.1203E+01  0.1205E+01  0.5498E+01  0.5499E+01
     10.927  0.3316E+00  0.3285E+00  0.5533E+01  0.5533E+01
     11.032  0.5027E+00  0.5022E+00  0.5586E+01  0.5586E+01
     11.136  0.5870E+00  0.5931E+00  0.5647E+01  0.5648E+01
     11.241  0.1583E+01  0.1578E+01  0.5812E+01  0.5813E+01
     11.346  0.7836E+00  0.7840E+00  0.5894E+01  0.5895E+01
     11.450  0.4171E+00  0.4177E+00  0.5938E+01  0.5938E+01
     11.555  0.4673E+00  0.4647E+00  0.5987E+01  0.5987E+01
     11.659  0.8538E+00  0.8589E+00  0.6076E+01  0.6077E+01
     11.764  0.1130E+01  0.1133E+01  0.6194E+01  0.6195E+01
     11.869  0.1183E+01  0.1179E+01  0.6318E+01  0.6319E+01
     11.973  0.6418E+00  0.6439E+00  0.6385E+01  0.6386E+01
     12.078  0.1063E+01  0.1062E+01  0.6496E+01  0.6497E+01
     12.182  0.9292E+00  0.9298E+00  0.6594E+01  0.6594E+01
     12.287  0.7847E+00  0.7852E+00  0.6676E+01  0.6676E+01
     12.392  0.1040E+01  0.1038E+01  0.6784E+01  0.6785E+01
     12.496  0.7465E+00  0.7447E+00  0.6863E+01  0.6863E+01
     12.601  0.9315E+00  0.9441E+00  0.6960E+01  0.6962E+01
     12.705  0.1546E+01  0.1546E+01  0.7122E+01  0.7123E+01
     12.810  0.1297E+01  0.1284E+01  0.7257E+01  0.7258E+01
     12.915  0.3457E+00  0.3453E+00  0.7294E+01  0.7294E+01
     13.019  0.1457E+00  0.1448E+00  0.7309E+01  0.7309E+01
     13.124  0.5494E-01  0.5451E-01  0.7315E+01  0.7314E+01
     13.228  0.4888E+00  0.4890E+00  0.7366E+01  0.7366E+01
     13.333  0.3913E+00  0.3914E+00  0.7407E+01  0.7407E+01
     13.437  0.2975E+00  0.2976E+00  0.7438E+01  0.7438E+01
     13.542  0.2580E+00  0.2575E+00  0.7465E+01  0.7465E+01
     13.647  0.2405E+00  0.2405E+00  0.7490E+01  0.7490E+01
     13.751  0.2700E+00  0.2704E+00  0.7518E+01  0.7518E+01
     13.856  0.4553E+00  0.4551E+00  0.7566E+01  0.7566E+01
     13.960  0.1029E+00  0.1022E+00  0.7576E+01  0.7576E+01
     14.065  0.3772E+00  0.3777E+00  0.7616E+01  0.7616E+01
     14.170  0.3147E+00  0.3148E+00  0.7649E+01  0.7649E+01
     14.274 -0.1932E-01 -0.1899E-01  0.7647E+01  0.7647E+01
     14.379  0.4632E+00  0.4627E+00  0.7695E+01  0.7695E+01
     14.483  0.5341E-01  0.5384E-01  0.7701E+01  0.7701E+01
     14.588  0.6859E+00  0.6847E+00  0.7773E+01  0.7772E+01
     14.693  0.5969E+00  0.5977E+00  0.7835E+01  0.7835E+01
     14.797  0.2023E+00  0.2024E+00  0.7856E+01  0.7856E+01
     14.902  0.1773E+00  0.1775E+00  0.7875E+01  0.7875E+01
     15.006  0.1884E+00  0.1870E+00  0.7894E+01  0.7894E+01
     15.111  0.2881E+00  0.2890E+00  0.7925E+01  0.7924E+01
     15.216  0.4055E+00  0.4041E+00  0.7967E+01  0.7967E+01
     15.320  0.2348E+00  0.2364E+00  0.7992E+01  0.7991E+01
     15.425  0.1003E+01  0.1003E+01  0.8096E+01  0.8096E+01
     15.529  0.2077E+00  0.2069E+00  0.8118E+01  0.8118E+01
     15.634  0.9394E+00  0.9385E+00  0.8216E+01  0.8216E+01
     15.739  0.4300E+00  0.4313E+00  0.8261E+01  0.8261E+01
     15.843  0.6355E+00  0.6346E+00  0.8328E+01  0.8328E+01
     15.948  0.2644E+00  0.2652E+00  0.8355E+01  0.8355E+01
     16.052  0.8427E+00  0.8401E+00  0.8444E+01  0.8443E+01
     16.157  0.5041E+00  0.5070E+00  0.8496E+01  0.8496E+01
     16.261  0.4573E+00  0.4552E+00  0.8544E+01  0.8544E+01
     16.366  0.6464E+00  0.6471E+00  0.8612E+01  0.8612E+01
     16.471  0.7163E+00  0.7149E+00  0.8687E+01  0.8686E+01
     16.575  0.4220E+00  0.4254E+00  0.8731E+01  0.8731E+01
     16.680  0.4450E+00  0.4443E+00  0.8777E+01  0.8777E+01
     16.784  0.4233E+00  0.4234E+00  0.8822E+01  0.8822E+01
     16.889  0.1640E+00  0.1634E+00  0.8839E+01  0.8839E+01
     16.994  0.4593E+00  0.4602E+00  0.8887E+01  0.8887E+01
     17.098  0.6377E+00  0.6344E+00  0.8954E+01  0.8953E+01
     17.203  0.2620E+00  0.2660E+00  0.8981E+01  0.8981E+01
     17.307  0.3444E+00  0.3433E+00  0.9017E+01  0.9017E+01
     17.412  0.5690E+00  0.5691E+00  0.9076E+01  0.9076E+01
     17.517  0.1455E+00  0.1449E+00  0.9092E+01  0.9092E+01
     17.621  0.5680E+00  0.5680E+00  0.9151E+01  0.9151E+01
     17.726  0.8543E-01  0.8618E-01  0.9160E+01  0.9160E+01
     17.830  0.1334E+00  0.1327E+00  0.9174E+01  0.9174E+01
     17.935  0.8222E-01  0.8303E-01  0.9183E+01  0.9183E+01
     18.040  0.3977E+00  0.3949E+00  0.9224E+01  0.9224E+01
     18.144  0.5791E+00  0.5771E+00  0.9285E+01  0.9284E+01
     18.249  0.5847E+00  0.5880E+00  0.9346E+01  0.9346E+01
     18.353  0.3506E+00  0.3517E+00  0.9383E+01  0.9383E+01
     18.458  0.6933E-01  0.6955E-01  0.9390E+01  0.9390E+01
     18.562  0.4282E+00  0.4247E+00  0.9435E+01  0.9434E+01
     18.667  0.8550E+00  0.8568E+00  0.9524E+01  0.9524E+01
     18.772  0.4216E+00  0.4205E+00  0.9568E+01  0.9568E+01
     18.876  0.4083E+00  0.4106E+00  0.9611E+01  0.9611E+01
     18.981  0.2753E+00  0.2770E+00  0.9640E+01  0.9640E+01
     19.085  0.1034E+00  0.1002E+00  0.9650E+01  0.9650E+01
     19.190  0.6943E+00  0.6962E+00  0.9723E+01  0.9723E+01
     19.295  0.6885E+00  0.6887E+00  0.9795E+01  0.9795E+01
     19.399  0.6001E+00  0.6011E+00  0.9858E+01  0.9858E+01
     19.504  0.2660E+00  0.2644E+00  0.9886E+01  0.9886E+01
     19.608  0.1165E+00  0.1171E+00  0.9898E+01  0.9898E+01
     19.713  0.2926E+00  0.2927E+00  0.9928E+01  0.9928E+01
     19.818  0.4827E-01  0.4821E-01  0.9933E+01  0.9933E+01
     19.922  0.7543E-01  0.7535E-01  0.9941E+01  0.9941E+01
     20.027  0.9326E-01  0.9243E-01  0.9951E+01  0.9951E+01
     20.131  0.1264E+00  0.1272E+00  0.9964E+01  0.9964E+01
     20.236  0.4429E+00  0.4425E+00  0.1001E+02  0.1001E+02
     20.341  0.2681E+00  0.2687E+00  0.1004E+02  0.1004E+02
     20.445  0.6368E+00  0.6370E+00  0.1011E+02  0.1011E+02
     20.550  0.2395E+00  0.2385E+00  0.1013E+02  0.1013E+02
     20.654  0.2822E+00  0.2834E+00  0.1016E+02  0.1016E+02
     20.759  0.1038E+01  0.1038E+01  0.1027E+02  0.1027E+02
     20.863  0.2637E+00  0.2632E+00  0.1030E+02  0.1030E+02
     20.968  0.2633E+01  0.2648E+01  0.1057E+02  0.1057E+02
     21.073  0.7640E+01  0.7665E+01  0.1137E+02  0.1137E+02
     21.177  0.1429E+00  0.1401E+00  0.1139E+02  0.1139E+02
     21.282  0.9873E+00  0.9883E+00  0.1149E+02  0.1149E+02
     21.386  0.1068E+01  0.1067E+01  0.1160E+02  0.1160E+02
     21.491  0.8032E+00  0.8075E+00  0.1168E+02  0.1169E+02
     21.596  0.7168E+00  0.6736E+00  0.1176E+02  0.1176E+02
     21.700  0.1186E+00  0.1204E+00  0.1177E+02  0.1177E+02
     21.805  0.4361E-01  0.4555E-01  0.1178E+02  0.1178E+02
     21.909  0.4454E+00  0.4630E+00  0.1182E+02  0.1182E+02
     22.014  0.3904E+00  0.3723E+00  0.1186E+02  0.1186E+02
     22.119  0.3322E+00  0.3322E+00  0.1190E+02  0.1190E+02
     22.223  0.3979E+00  0.3998E+00  0.1194E+02  0.1194E+02
     22.328  0.2338E+00  0.2309E+00  0.1196E+02  0.1196E+02
     22.432  0.2345E+00  0.2359E+00  0.1199E+02  0.1199E+02
     22.537  0.1077E+00  0.1059E+00  0.1200E+02  0.1200E+02
     22.642 -0.3815E-02 -0.3707E-02  0.1200E+02  0.1200E+02
     22.746 -0.8099E-06 -0.6529E-06  0.1200E+02  0.1200E+02
     22.851 -0.1045E-13 -0.7289E-14  0.1200E+02  0.1200E+02
     22.955  0.0000E+00  0.0000E+00  0.1200E+02  0.1200E+02
     23.060  0.0000E+00  0.0000E+00  0.1200E+02  0.1200E+02
     23.164  0.0000E+00  0.0000E+00  0.1200E+02  0.1200E+02
     23.269  0.0000E+00  0.0000E+00  0.1200E+02  0.1200E+02
     23.374  0.0000E+00  0.0000E+00  0.1200E+02  0.1200E+02
     23.478  0.0000E+00  0.0000E+00  0.1200E+02  0.1200E+02
     23.583  0.0000E+00  0.0000E+00  0.1200E+02  0.1200E+02
     23.687  0.0000E+00  0.0000E+00  0.1200E+02  0.1200E+02
     23.792  0.0000E+00  0.0000E+00  0.1200E+02  0.1200E+02
     23.897  0.0000E+00  0.0000E+00  0.1200E+02  0.1200E+02
     23.89662341     -7.48076837  301      8.47247516      1.00000000
     -7.481  0.0000E+00  0.0000E+00  0.0000E+00  0.0000E+00  0.0000E+00  0.0000E+00  0.0000E+00  0.0000E+00  0.0000E+00  0.0000E+00  0.0000E+00  0.0000E+00  0.0000E+00  0.0000E+00  0.0000E+00  0.0000E+00  0.0000E+00  0.0000E+00
     -7.376  0.0000E+00  0.0000E+00  0.0000E+00  0.0000E+00  0.0000E+00  0.0000E+00  0.0000E+00  0.0000E+00  0.0000E+00  0.0000E+00  0.0000E+00  0.0000E+00  0.0000E+00  0.0000E+00  0.0000E+00  0.0000E+00  0.0000E+00  0.0000E+00
     -7.272  0.0000E+00  0.0000E+00  0.0000E+00  0.0000E+00  0.0000E+00  0.0000E+00  0.0000E+00  0.0000E+00  0.0000E+00  0.0000E+00  0.0000E+00  0.0000E+00  0.0000E+00  0.0000E+00  0.0000E+00  0.0000E+00  0.0000E+00  0.0000E+00
     -7.167  0.0000E+00  0.0000E+00  0.0000E+00  0.0000E+00  0.0000E+00  0.0000E+00  0.0000E+00  0.0000E+00  0.0000E+00  0.0000E+00  0.0000E+00  0.0000E+00  0.0000E+00  0.0000E+00  0.0000E+00  0.0000E+00  0.0000E+00  0.0000E+00
     -7.062  0.0000E+00  0.0000E+00  0.0000E+00  0.0000E+00  0.0000E+00  0.0000E+00  0.0000E+00  0.0000E+00  0.0000E+00  0.0000E+00  0.0000E+00  0.0000E+00  0.0000E+00  0.0000E+00  0.0000E+00  0.0000E+00  0.0000E+00  0.0000E+00
     -6.958  0.0000E+00  0.0000E+00  0.0000E+00  0.0000E+00  0.0000E+00  0.0000E+00  0.0000E+00  0.0000E+00  0.0000E+00  0.0000E+00  0.0000E+00  0.0000E+00  0.0000E+00  0.0000E+00  0.0000E+00  0.0000E+00  0.0000E+00  0.0000E+00
     -6.853  0.0000E+00  0.0000E+00  0.0000E+00  0.0000E+00  0.0000E+00  0.0000E+00  0.0000E+00  0.0000E+00  0.0000E+00  0.0000E+00  0.0000E+00  0.0000E+00  0.0000E+00  0.0000E+00  0.0000E+00  0.0000E+00  0.0000E+00  0.0000E+00
     -6.749  0.0000E+00  0.0000E+00  0.0000E+00  0.0000E+00  0.0000E+00  0.0000E+00  0.0000E+00  0.0000E+00  0.0000E+00  0.0000E+00  0.0000E+00  0.0000E+00  0.0000E+00  0.0000E+00  0.0000E+00  0.0000E+00  0.0000E+00  0.0000E+00
     -6.644  0.0000E+00  0.0000E+00  0.0000E+00  0.0000E+00  0.0000E+00  0.0000E+00  0.0000E+00  0.0000E+00  0.0000E+00  0.0000E+00  0.0000E+00  0.0000E+00  0.0000E+00  0.0000E+00  0.0000E+00  0.0000E+00  0.0000E+00  0.0000E+00
     -6.539 -0.4561E-42 -0.3957E-42 -0.3473E-45 -0.3014E-45 -0.3473E-45 -0.3014E-45 -0.3473E-45 -0.3014E-45  0.0000E+00  0.0000E+00  0.0000E+00  0.0000E+00  0.0000E+00  0.0000E+00  0.0000E+00  0.0000E+00  0.0000E+00  0.0000E+00
     -6.435 -0.1882E-26 -0.1685E-26 -0.1433E-29 -0.1283E-29 -0.1433E-29 -0.1283E-29 -0.1433E-29 -0.1283E-29  0.0000E+00  0.0000E+00  0.0000E+00  0.0000E+00  0.0000E+00  0.0000E+00  0.0000E+00  0.0000E+00  0.0000E+00  0.0000E+00
     -6.330 -0.1100E-14 -0.1015E-14 -0.8373E-18 -0.7730E-18 -0.8373E-18 -0.7730E-18 -0.8373E-18 -0.7730E-18  0.0000E+00  0.0000E+00  0.0000E+00  0.0000E+00  0.0000E+00  0.0000E+00  0.0000E+00  0.0000E+00  0.0000E+00  0.0000E+00
     -6.226 -0.8529E-07 -0.8129E-07 -0.6494E-10 -0.6191E-10 -0.6494E-10 -0.6191E-10 -0.6494E-10 -0.6191E-10  0.0000E+00  0.0000E+00  0.0000E+00  0.0000E+00  0.0000E+00  0.0000E+00  0.0000E+00  0.0000E+00  0.0000E+00  0.0000E+00
     -6.121 -0.4005E-03 -0.3982E-03 -0.3050E-06 -0.3032E-06 -0.3050E-06 -0.3032E-06 -0.3050E-06 -0.3032E-06  0.0000E+00  0.0000E+00  0.0000E+00  0.0000E+00  0.0000E+00  0.0000E+00  0.0000E+00  0.0000E+00  0.0000E+00  0.0000E+00
     -6.016  0.1196E-01  0.1193E-01  0.9103E-05  0.9083E-05  0.9103E-05  0.9083E-05  0.9103E-05  0.9083E-05  0.0000E+00  0.0000E+00  0.0000E+00  0.0000E+00  0.0000E+00  0.0000E+00  0.0000E+00  0.0000E+00  0.0000E+00  0.0000E+00
     -5.912  0.2142E-03  0.2409E-03  0.1618E-06  0.1823E-06  0.1618E-06  0.1823E-06 -0.6369E-08  0.1992E-07  0.0000E+00  0.0000E+00  0.0000E+00  0.0000E+00  0.0000E+00  0.0000E+00  0.0000E+00  0.0000E+00  0.0000E+00  0.0000E+00
     -5.807  0.5480E-02  0.5318E-02  0.4382E-05  0.4253E-05  0.4382E-05  0.4253E-05  0.3260E-04  0.3165E-04  0.0000E+00  0.0000E+00  0.0000E+00  0.0000E+00  0.0000E+00  0.0000E+00  0.0000E+00  0.0000E+00  0.0000E+00  0.0000E+00
     -5.703  0.3114E-01  0.3131E-01  0.2490E-04  0.2504E-04  0.2490E-04  0.2504E-04  0.1852E-03  0.1863E-03  0.0000E+00  0.0000E+00  0.0000E+00  0.0000E+00  0.0000E+00  0.0000E+00  0.0000E+00  0.0000E+00  0.0000E+00  0.0000E+00
     -5.598 -0.1608E-02 -0.1607E-02 -0.5834E-05 -0.5761E-05 -0.5834E-05 -0.5761E-05 -0.5312E-05 -0.5376E-05  0.0000E+00  0.0000E+00  0.0000E+00  0.0000E+00  0.0000E+00  0.0000E+00  0.0000E+00  0.0000E+00  0.0000E+00  0.0000E+00
     -5.494  0.3214E-01  0.3196E-01  0.2013E-03  0.2002E-03  0.2013E-03  0.2002E-03  0.2712E-04  0.2697E-04  0.0000E+00  0.0000E+00  0.0000E+00  0.0000E+00  0.0000E+00  0.0000E+00  0.0000E+00  0.0000E+00  0.0000E+00  0.0000E+00
     -5.389  0.4541E-02  0.4714E-02  0.3045E-04  0.3149E-04  0.2638E-04  0.2752E-04  0.3786E-05  0.3935E-05  0.0000E+00  0.0000E+00  0.0000E+00  0.0000E+00  0.0000E+00  0.0000E+00  0.0000E+00  0.0000E+00  0.0000E+00  0.0000E+00
     -5.284  0.2518E-01  0.2487E-01  0.2846E-04  0.2791E-04  0.2897E-03  0.2864E-03  0.2861E-04  0.2807E-04  0.0000E+00  0.0000E+00  0.0000E+00  0.0000E+00  0.0000E+00  0.0000E+00  0.0000E+00  0.0000E+00  0.0000E+00  0.0000E+00
     -5.180  0.2470E-01  0.2500E-01  0.8617E-04  0.8676E-04  0.2326E-03  0.2359E-03  0.8611E-04  0.8670E-04  0.0000E+00  0.0000E+00  0.0000E+00  0.0000E+00  0.0000E+00  0.0000E+00  0.0000E+00  0.0000E+00  0.0000E+00  0.0000E+00
     -5.075 -0.4338E-03 -0.5811E-03 -0.2199E-05 -0.3168E-05 -0.3482E-05 -0.3685E-05 -0.2193E-05 -0.3952E-05  0.0000E+00  0.0000E+00  0.0000E+00  0.0000E+00  0.0000E+00  0.0000E+00  0.0000E+00  0.0000E+00  0.0000E+00  0.0000E+00
     -4.971  0.7712E-01  0.7725E-01  0.5186E-03  0.5196E-03  0.7033E-04  0.7047E-04  0.9576E-03  0.9595E-03  0.0000E+00  0.0000E+00  0.0000E+00  0.0000E+00  0.0000E+00  0.0000E+00  0.0000E+00  0.0000E+00  0.0000E+00  0.0000E+00
     -4.866 -0.3253E-02 -0.3243E-02 -0.2216E-04 -0.2209E-04 -0.6859E-05 -0.6765E-05 -0.4088E-04 -0.4076E-04  0.0000E+00  0.0000E+00  0.0000E+00  0.0000E+00  0.0000E+00  0.0000E+00  0.0000E+00  0.0000E+00  0.0000E+00  0.0000E+00
     -4.761  0.2825E-01  0.2801E-01  0.2115E-03  0.2098E-03  0.1974E-03  0.1957E-03  0.3898E-03  0.3867E-03  0.0000E+00  0.0000E+00  0.0000E+00  0.0000E+00  0.0000E+00  0.0000E+00  0.0000E+00  0.0000E+00  0.0000E+00  0.0000E+00
     -4.657  0.4788E-01  0.4800E-01  0.9159E-04  0.9331E-04  0.5136E-03  0.5141E-03  0.1475E-03  0.1505E-03  0.0000E+00  0.0000E+00  0.0000E+00  0.0000E+00  0.0000E+00  0.0000E+00  0.0000E+00  0.0000E+00  0.0000E+00  0.0000E+00
     -4.552  0.2434E-01  0.2415E-01  0.3179E-03  0.3141E-03  0.3243E-03  0.3217E-03  0.2354E-04  0.2332E-04  0.0000E+00  0.0000E+00  0.0000E+00  0.0000E+00  0.0000E+00  0.0000E+00  0.0000E+00  0.0000E+00  0.0000E+00  0.0000E+00
     -4.448  0.4716E-01  0.4682E-01  0.4197E-03  0.4193E-03  0.5909E-03  0.5872E-03  0.4521E-04  0.4492E-04  0.0000E+00  0.0000E+00  0.0000E+00  0.0000E+00  0.0000E+00  0.0000E+00  0.0000E+00  0.0000E+00  0.0000E+00  0.0000E+00
     -4.343  0.5021E-01  0.5068E-01  0.3669E-03  0.3691E-03  0.6169E-03  0.6224E-03  0.6830E-04  0.6765E-04  0.0000E+00  0.0000E+00  0.0000E+00  0.0000E+00  0.0000E+00  0.0000E+00  0.0000E+00  0.0000E+00  0.0000E+00  0.0000E+00
     -4.238  0.3412E-01  0.3417E-01  0.5160E-03  0.5179E-03  0.5058E-03  0.5071E-03  0.2846E-03  0.2854E-03  0.0000E+00  0.0000E+00  0.0000E+00  0.0000E+00  0.0000E+00  0.0000E+00  0.0000E+00  0.0000E+00  0.0000E+00  0.0000E+00
     -4.134  0.8478E-01  0.8482E-01  0.3265E-03  0.3269E-03  0.7310E-03  0.7317E-03  0.3335E-03  0.3340E-03  0.0000E+00  0.0000E+00  0.0000E+00  0.0000E+00  0.0000E+00  0.0000E+00  0.0000E+00  0.0000E+00  0.0000E+00  0.0000E+00
     -4.029 -0.5446E-02 -0.5583E-02 -0.3800E-04 -0.3937E-04 -0.3160E-04 -0.3135E-04 -0.3046E-04 -0.3194E-04  0.0000E+00  0.0000E+00  0.0000E+00  0.0000E+00  0.0000E+00  0.0000E+00  0.0000E+00  0.0000E+00  0.0000E+00  0.0000E+00
     -3.925  0.2620E+00  0.2608E+00  0.1587E-02  0.1584E-02  0.4126E-03  0.4094E-03  0.1199E-02  0.1199E-02  0.0000E+00  0.0000E+00  0.0000E+00  0.0000E+00  0.0000E+00  0.0000E+00  0.0000E+00  0.0000E+00  0.0000E+00  0.0000E+00
     -3.820  0.5914E-01  0.6011E-01  0.3046E-03  0.3083E-03  0.3009E-03  0.3040E-03  0.1816E-03  0.1826E-03  0.0000E+00  0.0000E+00  0.0000E+00  0.0000E+00  0.0000E+00  0.0000E+00  0.0000E+00  0.0000E+00  0.0000E+00  0.0000E+00
     -3.715  0.2705E+00  0.2685E+00  0.1790E-02  0.1776E-02  0.7094E-03  0.7037E-03  0.1184E-02  0.1176E-02  0.0000E+00  0.0000E+00  0.0000E+00  0.0000E+00  0.0000E+00  0.0000E+00  0.0000E+00  0.0000E+00  0.0000E+00  0.0000E+00
     -3.611  0.1334E+00  0.1354E+00  0.7128E-03  0.7272E-03  0.3056E-03  0.3119E-03  0.3628E-03  0.3707E-03  0.0000E+00  0.0000E+00  0.0000E+00  0.0000E+00  0.0000E+00  0.0000E+00  0.0000E+00  0.0000E+00  0.0000E+00  0.0000E+00
     -3.506  0.1138E+00  0.1123E+00  0.6764E-03  0.6643E-03  0.1744E-03  0.1706E-03  0.2859E-03  0.2829E-03  0.0000E+00  0.0000E+00  0.0000E+00  0.0000E+00  0.0000E+00  0.0000E+00  0.0000E+00  0.0000E+00  0.0000E+00  0.0000E+00
     -3.402  0.2489E+00  0.2501E+00  0.1653E-02  0.1662E-02  0.7306E-03  0.7322E-03  0.3747E-03  0.3783E-03  0.0000E+00  0.0000E+00  0.0000E+00  0.0000E+00  0.0000E+00  0.0000E+00  0.0000E+00  0.0000E+00  0.0000E+00  0.0000E+00
     -3.297  0.2106E+00  0.2091E+00  0.1544E-02  0.1530E-02  0.5576E-03  0.5512E-03  0.5272E-03  0.5166E-03  0.0000E+00  0.0000E+00  0.0000E+00  0.0000E+00  0.0000E+00  0.0000E+00  0.0000E+00  0.0000E+00  0.0000E+00  0.0000E+00
     -3.193  0.2949E+00  0.2951E+00  0.2127E-02  0.2138E-02  0.1055E-02  0.1059E-02  0.1373E-02  0.1379E-02  0.0000E+00  0.0000E+00  0.0000E+00  0.0000E+00  0.0000E+00  0.0000E+00  0.0000E+00  0.0000E+00  0.0000E+00  0.0000E+00
     -3.088  0.2041E+00  0.2046E+00  0.1054E-02  0.1055E-02  0.2576E-03  0.2631E-03  0.7209E-03  0.7218E-03  0.0000E+00  0.0000E+00  0.0000E+00  0.0000E+00  0.0000E+00  0.0000E+00  0.0000E+00  0.0000E+00  0.0000E+00  0.0000E+00
     -2.983  0.3260E+00  0.3262E+00  0.1161E-02  0.1163E-02  0.3766E-03  0.3747E-03  0.5305E-03  0.5338E-03  0.0000E+00  0.0000E+00  0.0000E+00  0.0000E+00  0.0000E+00  0.0000E+00  0.0000E+00  0.0000E+00  0.0000E+00  0.0000E+00
     -2.879  0.1927E+00  0.1922E+00  0.5722E-03  0.5725E-03  0.2318E-03  0.2306E-03  0.2024E-03  0.1989E-03  0.0000E+00  0.0000E+00  0.0000E+00  0.0000E+00  0.0000E+00  0.0000E+00  0.0000E+00  0.0000E+00  0.0000E+00  0.0000E+00
     -2.774  0.2828E+00  0.2820E+00  0.1552E-02  0.1544E-02  0.1067E-02  0.1058E-02  0.1368E-02  0.1363E-02  0.0000E+00  0.0000E+00  0.0000E+00  0.0000E+00  0.0000E+00  0.0000E+00  0.0000E+00  0.0000E+00  0.0000E+00  0.0000E+00
     -2.670  0.2855E+00  0.2875E+00  0.1362E-02  0.1376E-02  0.1031E-02  0.1044E-02  0.1012E-02  0.1022E-02  0.0000E+00  0.0000E+00  0.0000E+00  0.0000E+00  0.0000E+00  0.0000E+00  0.0000E+00  0.0000E+00  0.0000E+00  0.0000E+00
     -2.565  0.9992E-01  0.1000E+00  0.3949E-05  0.4691E-05  0.2188E-03  0.2187E-03  0.1783E-03  0.1787E-03  0.0000E+00  0.0000E+00  0.0000E+00  0.0000E+00  0.0000E+00  0.0000E+00  0.0000E+00  0.0000E+00  0.0000E+00  0.0000E+00
     -2.460  0.4685E-01  0.4706E-01  0.6239E-06  0.1208E-05 -0.7866E-05 -0.6797E-05  0.2270E-03  0.2275E-03  0.0000E+00  0.0000E+00  0.0000E+00  0.0000E+00  0.0000E+00  0.0000E+00  0.0000E+00  0.0000E+00  0.0000E+00  0.0000E+00
     -2.356  0.1685E+00  0.1668E+00  0.8073E-03  0.7990E-03  0.1004E-02  0.9932E-03  0.5918E-03  0.5863E-03  0.0000E+00  0.0000E+00  0.0000E+00  0.0000E+00  0.0000E+00  0.0000E+00  0.0000E+00  0.0000E+00  0.0000E+00  0.0000E+00
     -2.251  0.4298E-01  0.4451E-01  0.2977E-03  0.3039E-03  0.3442E-03  0.3525E-03  0.2372E-03  0.2411E-03  0.0000E+00  0.0000E+00  0.0000E+00  0.0000E+00  0.0000E+00  0.0000E+00  0.0000E+00  0.0000E+00  0.0000E+00  0.0000E+00