    2    2    1    2
  0.1105231E+02  0.3150161E-09  0.3150161E-09  0.3150161E-09  0.5000000E-15
  1.000000000000000E-004
  CAR 
 unknown system                          
    9   60   12
 
  0.6250000E-01  0.6250000E-01  0.6250000E-01  0.3906250E-02
   1       -6.054523     -6.054156
   2        6.700332      6.700123
   3        7.045678      7.045540
   4        7.045678      7.045540
   5        7.796874      7.796802
   6        7.796874      7.796802
   7        8.533735      8.533969
   8       10.126921     10.127048
   9       10.126921     10.127048
  10       15.451407     15.451527
  11       18.972686     18.970915
  12       21.002962     21.002701
 
  0.1875000E+00  0.6250000E-01  0.6250000E-01  0.1171875E-01
   1       -5.518058     -5.517659
   2        5.143017      5.143120
   3        5.603073      5.603278
   4        5.767903      5.767828
   5        7.771011      7.770425
   6        8.699604      8.699198
   7        9.350907      9.350891
   8       11.245113     11.245277
   9       12.794509     12.794853
  10       16.441331     16.441492
  11       20.290307     20.288581
  12       21.002528     21.002270
 
  0.3125000E+00  0.6250000E-01  0.6250000E-01  0.1171875E-01
   1       -4.312791     -4.312319
   2        2.940766      2.940872
   3        4.160891      4.161037
   4        4.468576      4.468651
   5        8.928123      8.927483
   6        9.513174      9.512735
   7       10.297642     10.297109
   8       13.985341     13.985691
   9       15.725260     15.725797
  10       17.384264     17.384236
  11       20.995170     20.994951
  12       21.815781     21.814632
 
  0.4375000E+00  0.6250000E-01  0.6250000E-01  0.1171875E-01
   1       -2.768486     -2.767891
   2        0.968255      0.968332
   3        3.367916      3.368041
   4        3.538334      3.538455
   5       10.446488     10.445726
   6       10.644930     10.644275
   7       11.598583     11.597852
   8       15.690972     15.690572
   9       16.766479     16.766995
  10       18.109946     18.110716
  11       20.992909     20.992710
  12       22.138792     22.139222
 
 -0.4375000E+00  0.6250000E-01  0.6250000E-01  0.1171875E-01
   1       -1.969407     -1.968648
   2        0.088942      0.088885
   3        3.213026      3.213157
   4        3.259798      3.259921
   5       10.965777     10.964982
   6       11.377222     11.376356
   7       12.223812     12.223089
   8       14.504477     14.503971
   9       18.145613     18.146352
  10       18.509404     18.510206
  11       20.987196     20.987086
  12       21.173839     21.174150
 
 -0.3125000E+00  0.6250000E-01  0.6250000E-01  0.1171875E-01
   1       -3.302479     -3.301937
   2        1.587686      1.587781
   3        3.564673      3.564794
   4        3.830117      3.830249
   5        9.552462      9.551847
   6       10.709812     10.709073
   7       11.065202     11.064573
   8       15.972122     15.972629
   9       16.302335     16.302137
  10       17.555202     17.555703
  11       20.990968     20.990779
  12       22.116490     22.116254
 
 -0.1875000E+00  0.6250000E-01  0.6250000E-01  0.1171875E-01
   1       -4.778629     -4.778185
   2        3.590540      3.590648
   3        4.623068      4.623135
   4        5.016270      5.016411
   5        8.225193      8.224680
   6        9.351261      9.350706
   7        9.917109      9.916743
   8       13.185879     13.186189
   9       14.504955     14.505374
  10       17.380323     17.380449
  11       20.998538     20.998298
  12       21.538346     21.536826
 
 -0.6250000E-01  0.6250000E-01  0.6250000E-01  0.1171875E-01
   1       -5.784265     -5.783882
   2        5.664537      5.664733
   3        6.251231      6.251117
   4        6.488714      6.488722
   5        7.315987      7.315501
   6        8.631793      8.631555
   7        9.181515      9.181549
   8       10.359346     10.359474
   9       11.797663     11.797914
  10       16.044935     16.045094
  11       19.675070     19.673322
  12       21.002522     21.002262
 
  0.1875000E+00  0.1875000E+00  0.6250000E-01  0.1171875E-01
   1       -5.292712     -5.292295
   2        4.159069      4.159257
   3        5.740962      5.740774
   4        6.137520      6.137626
   5        6.932054      6.931682
   6        9.417090      9.416780
   7       10.191665     10.191526
   8       10.876356     10.876412
   9       13.142401     13.142665
  10       17.293096     17.293353
  11       20.923157     20.921444
  12       21.002603     21.002342
 
  0.3125000E+00  0.1875000E+00  0.6250000E-01  0.2343750E-01
   1       -4.442130     -4.441653
   2        2.848950      2.849088
   3        4.705823      4.705677
   4        5.175670      5.175839
   5        7.471058      7.470714
   6       10.312275     10.311806
   7       11.124606     11.124258
   8       12.261316     12.261336
   9       14.988165     14.988509
  10       18.650212     18.650494
  11       20.998944     20.998709
  12       22.381884     22.380532
 
  0.4375000E+00  0.1875000E+00  0.6250000E-01  0.2343750E-01
   1       -3.268810     -3.268241
   2        1.635538      1.635593
   3        3.681280      3.681351
   4        4.226496      4.226644
   5        8.585430      8.584981
   6       11.297905     11.297180
   7       11.978521     11.977792
   8       14.539307     14.539602
   9       16.313832     16.313890
  10       18.736087     18.736491
  11       20.962468     20.962470
  12       21.367797     21.367726
 
 -0.4375000E+00  0.1875000E+00  0.6250000E-01  0.2343750E-01
   1       -2.378606     -2.377921
   2        0.732345      0.732305
   3        3.430118      3.430265
   4        3.619049      3.619215
   5       10.111063     10.110431
   6       11.209446     11.208637
   7       12.139343     12.138568
   8       15.822950     15.822750
   9       17.059905     17.060410
  10       18.010313     18.010660
  11       20.966068     20.966075
  12       21.299143     21.299332
 
 -0.3125000E+00  0.1875000E+00  0.6250000E-01  0.2343750E-01
   1       -2.783423     -2.782797
   2        1.133943      1.133966
   3        3.501869      3.502015
   4        3.757575      3.757662
   5        9.742162      9.741554
   6       11.160850     11.160162
   7       11.885814     11.885092
   8       15.041143     15.041456
   9       16.615389     16.615168
  10       18.628184     18.628898
  11       20.986964     20.986807
  12       21.855804     21.856109
 
 -0.1875000E+00  0.1875000E+00  0.6250000E-01  0.2343750E-01
   1       -3.982457     -3.981948
   2        2.475088      2.475216
   3        4.091212      4.091347
   4        4.361713      4.361648
   5        8.493933      8.493391
   6       10.676110     10.675747
   7       11.220088     11.219600
   8       12.776554     12.776615
   9       16.462763     16.463186
  10       18.145254     18.145458
  11       20.995091     20.994880
  12       22.242205     22.241332
 
 -0.6250000E-01  0.1875000E+00  0.6250000E-01  0.2343750E-01
   1       -5.033047     -5.032616
   2        3.937296      3.937461
   3        5.067821      5.067811
   4        5.344702      5.344758
   5        7.723610      7.723112
   6        9.464911      9.464459
   7       10.101700     10.101531
   8       11.736711     11.736837
   9       14.125906     14.126294
  10       17.365442     17.365642
  11       21.001410     21.001159
  12       21.329449     21.327778
 
  0.3125000E+00  0.3125000E+00  0.6250000E-01  0.1171875E-01
   1       -4.185106     -4.184601
   2        2.472095      2.472234
   3        4.884109      4.883601
   4        6.038573      6.038872
   5        6.501565      6.501672
   6       10.547645     10.547413
   7       12.145738     12.145204
   8       12.344134     12.343721
   9       14.859003     14.859296
  10       20.026843     20.027320
  11       20.994913     20.994706
  12       22.116115     22.115760
 
  0.4375000E+00  0.3125000E+00  0.6250000E-01  0.2343750E-01
   1       -3.711636     -3.711104
   2        2.451814      2.451959
   3        4.156956      4.156615
   4        5.352567      5.352901
   5        7.281031      7.281067
   6       11.627818     11.627388
   7       12.562595     12.561821
   8       12.908271     12.907905
   9       16.068489     16.068872
  10       19.241149     19.241301
  11       20.417375     20.417407
  12       21.015649     21.015313
 
 -0.4375000E+00  0.3125000E+00  0.6250000E-01  0.2343750E-01
   1       -3.172439     -3.171871
   2        2.245731      2.245745
   3        3.666041      3.666127
   4        4.523765      4.524019
   5        8.361048      8.360784
   6       11.723735     11.722881
   7       12.464829     12.463956
   8       14.661076     14.661344
   9       16.067929     16.068226
  10       18.858156     18.858094
  11       20.381529     20.381685
  12       21.018203     21.017859
 
 -0.3125000E+00  0.3125000E+00  0.6250000E-01  0.2343750E-01
   1       -2.789437     -2.788812
   2        1.624834      1.624846
   3        3.617820      3.617876
   4        3.926397      3.926622
   5       10.038059     10.037480
   6       10.609666     10.608946
   7       12.272984     12.272419
   8       14.337824     14.337985
   9       17.087797     17.088289
  10       19.383089     19.382812
  11       20.977975     20.977876
  12       21.351745     21.351408
 
 -0.1875000E+00  0.3125000E+00  0.6250000E-01  0.2343750E-01
   1       -3.013561     -3.012952
   2        1.504166      1.504218
   3        3.678330      3.678479
   4        3.816693      3.816686
   5        9.499443      9.498827
   6       11.473073     11.472504
   7       11.825811     11.825244
   8       13.532506     13.532651
   9       17.240342     17.240346
  10       18.763325     18.763947
  11       20.987668     20.987502
  12       21.930053     21.924697
 
 -0.6250000E-01  0.3125000E+00  0.6250000E-01  0.2343750E-01
   1       -3.742615     -3.742098
   2        2.135696      2.135794
   3        3.820683      3.820787
   4        4.242271      4.242367
   5        8.828294      8.827752
   6       10.387202     10.386634
   7       11.182651     11.182011
   8       14.335930     14.336255
   9       16.472963     16.473250
  10       17.824987     17.825160
  11       20.991413     20.991220
  12       22.004189     22.003710
 
  0.4375000E+00  0.4375000E+00  0.6250000E-01  0.1171875E-01
   1       -3.935644     -3.935147
   2        3.270684      3.270964
   3        4.203095      4.202432
   4        6.444603      6.445120
   5        6.761220      6.761693
   6       11.345007     11.344845
   7       12.752845     12.751881
   8       12.766987     12.766071
   9       16.287331     16.287882
  10       17.079192     17.079002
  11       20.907712     20.907555
  12       21.013454     21.013130
 
 -0.4375000E+00  0.4375000E+00  0.6250000E-01  0.2343750E-01
   1       -3.789896     -3.789397
   2        3.710785      3.710809
   3        3.876976      3.876823
   4        5.565525      5.565948
   5        7.439159      7.439469
   6       12.324685     12.323936
   7       12.532149     12.531888
   8       12.721223     12.720230
   9       15.616234     15.616297
  10       17.593269     17.593657
  11       20.708306     20.707907
  12       21.009722     21.009422
 
 -0.3125000E+00  0.4375000E+00  0.6250000E-01  0.2343750E-01
   1       -3.275506     -3.274954
   2        2.712873      2.712837
   3        3.699000      3.699167
   4        4.619222      4.619491
   5        8.296772      8.296528
   6       11.638966     11.638122
   7       12.601541     12.600713
   8       14.615491     14.615651
   9       15.213803     15.214067
  10       19.296756     19.297065
  11       20.758346     20.757954
  12       21.015839     21.015505
 
 -0.1875000E+00  0.4375000E+00  0.6250000E-01  0.2343750E-01
   1       -2.613025     -2.612377
   2        1.224016      1.223995
   3        3.558842      3.558960
   4        3.806640      3.806843
   5       10.066690     10.066108
   6       10.808657     10.807921
   7       12.081815     12.081082
   8       15.586353     15.586630
   9       16.932007     16.932405
  10       18.277966     18.277698
  11       20.971180     20.971153
  12       21.377870     21.378128
 
 -0.6250000E-01  0.4375000E+00  0.6250000E-01  0.2343750E-01
   1       -2.376298     -2.375627
   2        0.579808      0.579806
   3        3.320078      3.320215
   4        3.499702      3.499837
   5       10.272872     10.272185
   6       11.295209     11.294379
   7       12.028920     12.028186
   8       15.376964     15.376553
   9       16.941497     16.942031
  10       18.558225     18.558999
  11       20.987068     20.986914
  12       21.572287     21.572612
 
 -0.4375000E+00 -0.4375000E+00  0.6250000E-01  0.1171875E-01
   1       -3.991578     -3.991095
   2        3.866855      3.867203
   3        4.047144      4.046482
   4        6.606854      6.607447
   5        6.877723      6.878285
   6       11.554513     11.554396
   7       12.661384     12.660308
   8       12.713057     12.711991
   9       15.697013     15.696867
  10       16.851921     16.852442
  11       20.711540     20.711182
  12       21.009122     21.008827
 
 -0.3125000E+00 -0.4375000E+00  0.6250000E-01  0.2343750E-01
   1       -3.723354     -3.722839
   2        3.094892      3.095093
   3        3.970781      3.970395
   4        5.511479      5.511884
   5        7.364142      7.364350
   6       12.057433     12.056946
   7       12.626140     12.625401
   8       12.825584     12.824945
   9       16.379507     16.379949
  10       17.609659     17.609630
  11       20.695229     20.695102
  12       21.011904     21.011589
 
 -0.1875000E+00 -0.4375000E+00  0.6250000E-01  0.2343750E-01
   1       -3.096405     -3.095819
   2        1.726628      1.726656
   3        3.649941      3.650000
   4        4.353521      4.353731
   5        8.438015      8.437668
   6       11.764856     11.763996
   7       12.341818     12.341015
   8       14.610988     14.611272
   9       16.391962     16.392111
  10       19.140356     19.140609
  11       20.150782     20.151020
  12       21.021459     21.021098
 
 -0.3125000E+00 -0.3125000E+00  0.6250000E-01  0.1171875E-01
   1       -3.941648     -3.941134
   2        2.628306      2.628490
   3        4.494591      4.493977
   4        6.216762      6.217170
   5        6.591378      6.591696
   6       10.990873     10.990675
   7       12.646549     12.645778
   8       12.734175     12.733492
   9       15.603660     15.604037
  10       19.151250     19.151385
  11       20.939989     20.939960
  12       21.030950     21.030551
 
 -0.1875000E+00 -0.3125000E+00  0.6250000E-01  0.2343750E-01
   1       -3.940194     -3.939674
   2        2.305372      2.305488
   3        4.406074      4.405823
   4        5.202841      5.203096
   5        7.299165      7.299003
   6       11.045582     11.045138
   7       12.040272     12.039719
   8       12.733661     12.733487
   9       15.541766     15.542087
  10       19.694435     19.694771
  11       20.975725     20.975634
  12       21.520154     21.519959
 
 -0.1875000E+00 -0.1875000E+00  0.6250000E-01  0.1171875E-01
   1       -4.695078     -4.694615
   2        3.017129      3.017277
   3        5.309876      5.309538
   4        5.995236      5.995435
   5        6.609440      6.609292
   6       10.037906     10.037627
   7       11.256593     11.256273
   8       11.632378     11.632230
   9       14.084102     14.084367
  10       18.849167     18.849528
  11       21.001273     21.001025
  12       22.470378     22.468731
 
  0.1875000E+00  0.1875000E+00  0.1875000E+00  0.3906250E-02
   1       -5.256453     -5.256039
   2        4.539518      4.539553
   3        5.299366      5.299514
   4        5.299366      5.299514
   5        8.423545      8.423002
   6        8.423545      8.423002
   7        9.290612      9.290396
   8       12.933170     12.933506
   9       12.933170     12.933506
  10       16.719315     16.719459
  11       20.780669     20.779006
  12       21.003798     21.003523
 
  0.3125000E+00  0.1875000E+00  0.1875000E+00  0.1171875E-01
   1       -4.559235     -4.558773
   2        3.359165      3.359326
   3        4.346121      4.346294
   4        4.705303      4.705190
   5        8.386744      8.386100
   6        9.926323      9.926042
   7       10.429021     10.428669
   8       12.292095     12.292205
   9       15.644177     15.644715
  10       17.531261     17.531353
  11       20.999307     20.999069
  12       21.901573     21.900065
 
  0.4375000E+00  0.1875000E+00  0.1875000E+00  0.1171875E-01
   1       -3.432975     -3.432417
   2        1.886168      1.886272
   3        3.694328      3.694495
   4        3.991926      3.991849
   5        9.268912      9.268195
   6       10.927178     10.926962
   7       11.668895     11.668240
   8       13.201281     13.201370
   9       17.334764     17.334666
  10       18.002534     18.003296
  11       20.993242     20.993043
  12       22.152631     22.151715
 
 -0.4375000E+00  0.1875000E+00  0.1875000E+00  0.1171875E-01
   1       -2.507703     -2.507032
   2        0.913681      0.913662
   3        3.550187      3.550357
   4        3.579987      3.580084
   5       10.656636     10.655812
   6       10.803252     10.802587
   7       11.627880     11.627329
   8       15.356780     15.357063
   9       17.193043     17.192663
  10       18.229690     18.230414
  11       20.988802     20.988635
  12       21.675863     21.676080
 
 -0.3125000E+00  0.1875000E+00  0.1875000E+00  0.1171875E-01
   1       -2.720663     -2.720035
   2        1.180264      1.180254
   3        3.489831      3.489973
   4        3.972731      3.972918
   5        9.092251      9.091750
   6       11.670060     11.669156
   7       12.283885     12.283096
   8       16.014845     16.014768
   9       16.025918     16.026379
  10       18.591307     18.591629
  11       20.528849     20.529248
  12       21.032233     21.031840
 
 -0.1875000E+00  0.1875000E+00  0.1875000E+00  0.1171875E-01
   1       -3.699593     -3.699058
   2        2.068650      2.068731
   3        4.018913      4.018859
   4        4.904098      4.904310
   5        7.645046      7.644738
   6       11.185709     11.185046
   7       11.952878     11.952219
   8       13.696316     13.696463
   9       15.848131     15.848403
  10       19.228335     19.228534
  11       20.945715     20.945798
  12       21.264766     21.264494
 
  0.3125000E+00  0.3125000E+00  0.1875000E+00  0.1171875E-01
   1       -4.194543     -4.194053
   2        2.604978      2.605091
   3        4.240638      4.240628
   4        4.879953      4.880119
   5        7.899770      7.899343
   6       10.323713     10.323112
   7       10.968326     10.967827
   8       13.483692     13.483938
   9       15.420433     15.420786
  10       18.369964     18.370129
  11       20.994799     20.994585
  12       22.051439     22.050600
 
  0.4375000E+00  0.3125000E+00  0.1875000E+00  0.2343750E-01
   1       -3.503548     -3.502993
   2        1.962114      1.962205
   3        3.975350      3.975301
   4        4.280012      4.280150
   5        8.392417      8.392041
   6       11.457822     11.457253
   7       11.963508     11.962923
   8       13.144480     13.144498
   9       16.504832     16.505087
  10       19.091174     19.091551
  11       20.971443     20.971392
  12       21.469618     21.469642
 
 -0.4375000E+00  0.3125000E+00  0.1875000E+00  0.2343750E-01
   1       -2.924912     -2.924300
   2        1.700334      1.700377
   3        3.669029      3.669012
   4        3.926921      3.927132
   5        9.525470      9.525027
   6       11.175076     11.174364
   7       12.302853     12.302202
   8       13.822037     13.822178
   9       17.090182     17.090496
  10       19.289236     19.289245
  11       20.947923     20.948053
  12       21.263131     21.263148
 
 -0.3125000E+00  0.3125000E+00  0.1875000E+00  0.2343750E-01
   1       -2.881486     -2.880879
   2        1.827061      1.827070
   3        3.602800      3.602899
   4        4.048864      4.049078
   5        9.572259      9.571824
   6       10.787359     10.786727
   7       12.426508     12.425604
   8       15.357171     15.357431
   9       15.821859     15.822191
  10       19.296497     19.296128
  11       20.928232     20.928503
  12       21.179086     21.179021
 
 -0.1875000E+00  0.3125000E+00  0.1875000E+00  0.2343750E-01
   1       -3.317338     -3.316770
   2        2.101629      2.101717
   3        3.843237      3.843102
   4        4.416913      4.417170
   5        8.347546      8.347341
   6       11.845663     11.844894
   7       12.413451     12.412746
   8       13.285092     13.285128
   9       16.638443     16.638749
  10       19.481471     19.481715
  11       20.250688     20.250895
  12       21.021677     21.021313
 
  0.4375000E+00  0.4375000E+00  0.1875000E+00  0.1171875E-01
   1       -3.485079     -3.484530
   2        2.182372      2.182453
   3        3.882055      3.881960
   4        5.052248      5.052519
   5        7.520241      7.520074
   6       11.815027     11.814259
   7       12.484962     12.484138
   8       13.715299     13.715387
   9       16.207841     16.208153
  10       19.325622     19.325821
  11       19.911831     19.911882
  12       21.015397     21.015065
 
 -0.4375000E+00  0.4375000E+00  0.1875000E+00  0.2343750E-01
   1       -3.373937     -3.373388
   2        2.738089      2.738208
   3        3.751096      3.750941
   4        4.534198      4.534500
   5        8.384489      8.384442
   6       11.779185     11.778401
   7       12.631455     12.630569
   8       13.354636     13.354660
   9       16.246335     16.246674
  10       18.898396     18.898503
  11       20.659087     20.659073
  12       21.018146     21.017803
 
 -0.3125000E+00  0.4375000E+00  0.1875000E+00  0.2343750E-01
   1       -3.197034     -3.196471
   2        3.024977      3.025072
   3        3.638018      3.638044
   4        3.933104      3.933262
   5        9.603060      9.602872
   6       10.775115     10.774681
   7       12.699104     12.698041
   8       13.806671     13.806595
   9       15.139869     15.140236
  10       20.747666     20.748215
  11       21.050461     21.050044
  12       21.458681     21.458254
 
 -0.1875000E+00  0.4375000E+00  0.1875000E+00  0.2343750E-01
   1       -3.065358     -3.064774
   2        2.341200      2.341266
   3        3.637989      3.637963
   4        4.066598      4.066842
   5        9.562006      9.561717
   6       10.779006     10.778422
   7       12.614070     12.613158
   8       13.996119     13.996200
   9       15.997694     15.998053
  10       20.157763     20.157513
  11       20.940963     20.941141
  12       21.170379     21.170294
 
 -0.4375000E+00 -0.4375000E+00  0.1875000E+00  0.1171875E-01
   1       -3.591836     -3.591319
   2        3.260621      3.260483
   3        3.798805      3.798995
   4        5.389714      5.390091
   5        7.398597      7.398561
   6       12.163619     12.162595
   7       12.655332     12.654468
   8       13.620991     13.621159
   9       15.436501     15.436606
  10       18.141452     18.141805
  11       20.643733     20.643311
  12       21.010534     21.010230
 
 -0.3125000E+00 -0.4375000E+00  0.1875000E+00  0.2343750E-01
   1       -3.465341     -3.464809
   2        3.397286      3.397278
   3        3.730808      3.730847
   4        4.451037      4.451302
   5        8.433628      8.433683
   6       11.750847     11.750137
   7       12.696982     12.695934
   8       13.333369     13.333366
   9       15.384165     15.384399
  10       19.117140     19.117529
  11       20.919225     20.918804
  12       21.016485     21.016144
 
 -0.3125000E+00 -0.3125000E+00  0.1875000E+00  0.1171875E-01
   1       -3.514554     -3.514021
   2        2.755877      2.755936
   3        3.803362      3.803308
   4        5.248652      5.248986
   5        7.464797      7.464743
   6       12.121866     12.120940
   7       12.580019     12.579126
   8       13.638364     13.638493
   9       16.262148     16.262502
  10       18.051071     18.051107
  11       20.406288     20.406213
  12       21.012057     21.011743
 
  0.3125000E+00  0.3125000E+00  0.3125000E+00  0.3906250E-02
   1       -3.859796     -3.859300
   2        2.305687      2.305797
   3        3.948845      3.948975
   4        3.948845      3.948975
   5        9.789791      9.789122
   6        9.789791      9.789122
   7       10.183620     10.183134
   8       15.856316     15.856843
   9       15.856316     15.856843
  10       17.029707     17.029481
  11       20.991468     20.991269
  12       21.906685     21.905936
 
  0.4375000E+00  0.3125000E+00  0.3125000E+00  0.1171875E-01
   1       -3.198222     -3.197654
   2        1.524542      1.524624
   3        3.549272      3.549419
   4        3.863102      3.863149
   5        9.728124      9.727399
   6       10.404210     10.403762
   7       11.710489     11.709749
   8       14.769268     14.769592
   9       16.777361     16.777107
  10       18.044567     18.045333
  11       20.992049     20.991856
  12       22.227380     22.227096
 
 -0.4375000E+00  0.3125000E+00  0.3125000E+00  0.1171875E-01
   1       -2.722279     -2.721633
   2        1.295467      1.295485
   3        3.657252      3.657261
   4        3.681657      3.681849
   5       10.303824     10.303010
   6       10.919820     10.919133
   7       11.832490     11.832173
   8       13.951153     13.951326
   9       18.155292     18.155010
  10       18.272103     18.272830
  11       20.989472     20.989292
  12       21.498990     21.498298
 
 -0.3125000E+00  0.3125000E+00  0.3125000E+00  0.1171875E-01
   1       -2.981582     -2.980992
   2        2.039888      2.039888
   3        3.639952      3.640083
   4        4.282692      4.282948
   5        8.918042      8.917592
   6       11.335372     11.334445
   7       12.396746     12.396182
   8       14.781708     14.781872
   9       16.197485     16.197917
  10       19.520930     19.520902
  11       20.809743     20.809637
  12       21.027230     21.026846
 
  0.4375000E+00  0.4375000E+00  0.3125000E+00  0.1171875E-01
   1       -2.847004     -2.846400
   2        1.113489      1.113528
   3        3.442948      3.443068
   4        3.844104      3.844258
   5        9.268828      9.268260
   6       11.412689     11.411854
   7       12.001330     12.000590
   8       15.828458     15.828207
   9       16.008203     16.008683
  10       18.537007     18.537629
  11       20.971134     20.971084
  12       21.427011     21.427042
 
 -0.4375000E+00  0.4375000E+00  0.3125000E+00  0.2343750E-01
   1       -2.715296     -2.714660
   2        1.288648      1.288647
   3        3.553480      3.553591
   4        3.867210      3.867378
   5        9.628275      9.627766
   6       11.165405     11.164655
   7       12.158545     12.157767
   8       15.223528     15.223838
   9       16.727220     16.727306
  10       18.631499     18.631619
  11       20.947755     20.947883
  12       21.255519     21.255542
 
 -0.3125000E+00  0.4375000E+00  0.3125000E+00  0.2343750E-01
   1       -3.026812     -3.026226
   2        2.307814      2.307849
   3        3.629680      3.629757
   4        4.112822      4.113034
   5        9.530046      9.529639
   6       10.717505     10.716956
   7       12.593065     12.592186
   8       14.511626     14.511693
   9       15.591074     15.591469
  10       20.450406     20.450287
  11       20.970773     20.970692
  12       21.246274     21.246185
 
 -0.4375000E+00 -0.4375000E+00  0.3125000E+00  0.1171875E-01
   1       -2.850067     -2.849460
   2        1.637619      1.637612
   3        3.586090      3.586230
   4        4.151469      4.151695
   5        8.996455      8.996004
   6       11.534600     11.533676
   7       12.201097     12.200396
   8       15.831558     15.831817
   9       16.111852     16.112295
  10       18.544762     18.544458
  11       20.624378     20.624830
  12       21.033201     21.032811
 
  0.4375000E+00  0.4375000E+00  0.4375000E+00  0.3906250E-02
   1       -2.259171     -2.258507
   2        0.380288      0.380333
   3        3.254998      3.255115
   4        3.254998      3.255115
   5       11.109932     11.109106
   6       11.109932     11.109106
   7       11.733420     11.732763
   8       14.807371     14.806844
   9       18.151416     18.152177
  10       18.151416     18.152177
  11       21.539303     20.994913
  12       21.539305     21.539694
 
 -0.4375000E+00  0.4375000E+00  0.4375000E+00  0.1171875E-01
   1       -2.162770     -2.162043
   2        0.384847      0.384795
   3        3.376882      3.377024
   4        3.381971      3.382108
   5       10.784357     10.783615
   6       11.136474     11.135623
   7       11.937046     11.936384
   8       15.400829     15.400399
   9       17.482489     17.482973
  10       18.169248     18.169971
  11       20.986666     20.986515
  12       21.413486     21.413870
