       N       E                     dE             d eps       ncg     rms          rms(c)
DAV:   1     0.107750300647E+02    0.10775E+02   -0.40108E+03  2912   0.598E+02
DAV:   2    -0.181399252111E+02   -0.28915E+02   -0.27348E+02  3764   0.117E+02
DAV:   3    -0.190488096721E+02   -0.90888E+00   -0.89731E+00  3616   0.188E+01
DAV:   4    -0.190517920642E+02   -0.29824E-02   -0.29821E-02  3188   0.123E+00
DAV:   5    -0.190518029467E+02   -0.10882E-04   -0.10882E-04  3688   0.609E-02    0.189E+01
DAV:   6    -0.220977050917E+02   -0.30459E+01   -0.16352E+01  3224   0.198E+01    0.439E+00
DAV:   7    -0.223155368200E+02   -0.21783E+00   -0.61493E-01  3512   0.560E+00    0.155E+00
DAV:   8    -0.222570799194E+02    0.58457E-01   -0.76430E-02  3212   0.181E+00    0.854E-01
DAV:   9    -0.222487960213E+02    0.82839E-02   -0.24122E-02  3380   0.113E+00    0.247E-01
DAV:  10    -0.222466882053E+02    0.21078E-02   -0.11531E-03  3212   0.280E-01    0.561E-02
DAV:  11    -0.222465301010E+02    0.15810E-03   -0.13522E-04  2808   0.828E-02    0.319E-02
DAV:  12    -0.222464976954E+02    0.32406E-04   -0.34611E-05  1648   0.437E-02
   1 F= -.22246498E+02 E0= -.22246560E+02  d E =0.186360E-03  mag=    -0.0002
