 vasp.5.2.12 11Nov11 complex                                                    
  
 executed on             LinuxIFC date 2012.10.17  12:38:11
 running on    1 nodes
 distr:  one band on    1 nodes,    1 groups


--------------------------------------------------------------------------------------------------------


 INCAR:
 POTCAR:   PAW_PBE C 08Apr2002                    
 POTCAR:    PAW_PBE Ta 17Jan2003                  
 POTCAR:   PAW_PBE C 08Apr2002                    
   VRHFIN =C: s2p2                                                              
   LEXCH  = PE                                                                  
   EATOM  =   147.1560 eV,   10.8157 Ry                                         
                                                                                
   TITEL  = PAW_PBE C 08Apr2002                                                 
   LULTRA =        F    use ultrasoft PP ?                                      
   IUNSCR =        0    unscreen: 0-lin 1-nonlin 2-no                           
   RPACOR =     .000    partial core radius                                     
   POMASS =   12.011; ZVAL   =    4.000    mass and valenz                      
   RCORE  =    1.500    outmost cutoff radius                                   
   RWIGS  =    1.630; RWIGS  =     .863    wigner-seitz radius (au A)           
   ENMAX  =  400.000; ENMIN  =  300.000 eV                                      
   ICORE  =        2    local potential                                         
   LCOR   =        T    correct aug charges                                     
   LPAW   =        T    paw PP                                                  
   EAUG   =  644.873                                                            
   DEXC   =     .000                                                            
   RMAX   =    2.266    core radius for proj-oper                               
   RAUG   =    1.300    factor for augmentation sphere                          
   RDEP   =    1.501    radius for radial grids                                 
   RDEPT  =    1.300    core radius for aug-charge                              
   QCUT   =   -5.516; QGAM   =   11.032    optimization parameters              
                                                                                
   Description                                                                  
     l     E      TYP  RCUT    TYP  RCUT                                        
     0   .000     23  1.200                                                     
     0   .000     23  1.200                                                     
     1   .000     23  1.500                                                     
     1  2.500     23  1.500                                                     
     2   .000      7  1.500                                                     
  local pseudopotential read in
  atomic valenz-charges read in
  non local Contribution for L=           0  read in
    real space projection operators read in
  non local Contribution for L=           0  read in
    real space projection operators read in
  non local Contribution for L=           1  read in
    real space projection operators read in
  non local Contribution for L=           1  read in
    real space projection operators read in
    PAW grid and wavefunctions read in
 
   number of l-projection  operators is LMAX  =           4
   number of lm-projection operators is LMMAX =           8
 
 POTCAR:    PAW_PBE Ta 17Jan2003                  
   VRHFIN =Ta:  6s5d                                                            
   LEXCH  = PE                                                                  
   EATOM  =   130.6506 eV,    9.6025 Ry                                         
                                                                                
   TITEL  = PAW_PBE Ta 17Jan2003                                                
   LULTRA =        F    use ultrasoft PP ?                                      
   IUNSCR =        1    unscreen: 0-lin 1-nonlin 2-no                           
   RPACOR =    2.330    partial core radius                                     
   POMASS =  180.948; ZVAL   =    5.000    mass and valenz                      
   RCORE  =    2.900    outmost cutoff radius                                   
   RWIGS  =    2.840; RWIGS  =    1.503    wigner-seitz radius (au A)           
   ENMAX  =  223.667; ENMIN  =  167.750 eV                                      
   RCLOC  =    2.205    cutoff for local pot                                    
   LCOR   =        T    correct aug charges                                     
   LPAW   =        T    paw PP                                                  
   EAUG   =  332.075                                                            
   DEXC   =    -.049                                                            
   RMAX   =    3.083    core radius for proj-oper                               
   RAUG   =    1.300    factor for augmentation sphere                          
   RDEP   =    3.060    radius for radial grids                                 
   QCUT   =   -4.055; QGAM   =    8.109    optimization parameters              
                                                                                
   Description                                                                  
     l     E      TYP  RCUT    TYP  RCUT                                        
     2   .000     23  2.500                                                     
     2   .000     23  2.500                                                     
     0   .000     23  2.500                                                     
     0   .000     23  2.500                                                     
     1   .000     23  2.900                                                     
     1  2.000     23  2.900                                                     
     3   .000      7   .000                                                     
  local pseudopotential read in
  partial core-charges read in
  atomic valenz-charges read in
  non local Contribution for L=           2  read in
    real space projection operators read in
  non local Contribution for L=           2  read in
    real space projection operators read in
  non local Contribution for L=           0  read in
    real space projection operators read in
  non local Contribution for L=           0  read in
    real space projection operators read in
  non local Contribution for L=           1  read in
    real space projection operators read in
  non local Contribution for L=           1  read in
    real space projection operators read in
    PAW grid and wavefunctions read in
 
   number of l-projection  operators is LMAX  =           6
   number of lm-projection operators is LMMAX =          18
 
 PAW_PBE C 08Apr2002                    :
 energy of atom  1       EATOM= -147.1560
 kinetic energy error for atom=    0.0116 (will be added to EATOM!!)
  PAW_PBE Ta 17Jan2003                  :
 energy of atom  2       EATOM= -130.6506
 kinetic energy error for atom=    0.0016 (will be added to EATOM!!)
 
 
 POSCAR:  C Ta                                   
  positions in cartesian coordinates
  No initial velocities read in
 exchange correlation table for  LEXCH =        8
   RHO(1)=    0.500       N(1)  =     2000
   RHO(2)=  100.500       N(2)  =     4000
 


--------------------------------------------------------------------------------------------------------


 ion  position               nearest neighbor table
   1  0.500  0.500  0.500-   2 2.23   2 2.23   2 2.23   2 2.23   2 2.23   2 2.23
   2  0.000  0.000  0.000-   1 2.23   1 2.23   1 2.23   1 2.23   1 2.23   1 2.23
 
  LATTYP: Found a face centered cubic cell.
 ALAT       =     4.4550000000
  
  Lattice vectors:
  
 A1 = (   0.0000000000,   2.2275000000,   2.2275000000)
 A2 = (   2.2275000000,   0.0000000000,   2.2275000000)
 A3 = (   2.2275000000,   2.2275000000,   0.0000000000)
 Subroutine PRICEL returns:
 Original cell was already a primitive cell.
 

Analysis of symmetry for initial positions (statically):

 Routine SETGRP: Setting up the symmetry group for a 
 face centered cubic supercell.


 Subroutine GETGRP returns: Found 48 space group operations
 (whereof 48 operations were pure point group operations)
 out of a pool of 48 trial point group operations.


The static configuration has the point symmetry O_h .

Analysis of symmetry for dynamics (positions and initial velocities):

 Subroutine DYNSYM returns: Found 48 space group operations
 (whereof 48 operations were pure point group operations)
 out of a pool of 48 trial space group operations
 (whereof 48 operations were pure point group operations)
 and found also     1 'primitive' translations


The dynamic configuration has the point symmetry O_h .

Analysis of magnetic symmetry:

 Subroutine MAGSYM returns: Found 48 space group operations
 (whereof 48 operations were pure point group operations)
 out of a pool of 48 trial space group operations
 (whereof 48 operations were pure point group operations)
 and found also     1 'primitive' translations


The magnetic configuration has the point symmetry O_h .
 
 
 KPOINTS: KPOINTS created by Atomic Simulation Env

Automatic generation of k-mesh.
 
 Subroutine IBZKPT returns following result:
 ===========================================
 
 Found     60 irreducible k-points:
 
 Following reciprocal coordinates:
            Coordinates               Weight
  0.062500  0.062500  0.062500     96.000000
  0.187500  0.062500  0.062500    288.000000
  0.312500  0.062500  0.062500    288.000000
  0.437500  0.062500  0.062500    288.000000
 -0.437500  0.062500  0.062500    288.000000
 -0.312500  0.062500  0.062500    288.000000
 -0.187500  0.062500  0.062500    288.000000
 -0.062500  0.062500  0.062500    288.000000
  0.187500  0.187500  0.062500    288.000000
  0.312500  0.187500  0.062500    576.000000
  0.437500  0.187500  0.062500    576.000000
 -0.437500  0.187500  0.062500    576.000000
 -0.312500  0.187500  0.062500    576.000000
 -0.187500  0.187500  0.062500    576.000000
 -0.062500  0.187500  0.062500    576.000000
  0.312500  0.312500  0.062500    288.000000
  0.437500  0.312500  0.062500    576.000000
 -0.437500  0.312500  0.062500    576.000000
 -0.312500  0.312500  0.062500    576.000000
 -0.187500  0.312500  0.062500    576.000000
 -0.062500  0.312500  0.062500    576.000000
  0.437500  0.437500  0.062500    288.000000
 -0.437500  0.437500  0.062500    576.000000
 -0.312500  0.437500  0.062500    576.000000
 -0.187500  0.437500  0.062500    576.000000
 -0.062500  0.437500  0.062500    576.000000
 -0.437500 -0.437500  0.062500    288.000000
 -0.312500 -0.437500  0.062500    576.000000
 -0.187500 -0.437500  0.062500    576.000000
 -0.312500 -0.312500  0.062500    288.000000
 -0.187500 -0.312500  0.062500    576.000000
 -0.187500 -0.187500  0.062500    288.000000
  0.187500  0.187500  0.187500     96.000000
  0.312500  0.187500  0.187500    288.000000
  0.437500  0.187500  0.187500    288.000000
 -0.437500  0.187500  0.187500    288.000000
 -0.312500  0.187500  0.187500    288.000000
 -0.187500  0.187500  0.187500    288.000000
  0.312500  0.312500  0.187500    288.000000
  0.437500  0.312500  0.187500    576.000000
 -0.437500  0.312500  0.187500    576.000000
 -0.312500  0.312500  0.187500    576.000000
 -0.187500  0.312500  0.187500    576.000000
  0.437500  0.437500  0.187500    288.000000
 -0.437500  0.437500  0.187500    576.000000
 -0.312500  0.437500  0.187500    576.000000
 -0.187500  0.437500  0.187500    576.000000
 -0.437500 -0.437500  0.187500    288.000000
 -0.312500 -0.437500  0.187500    576.000000
 -0.312500 -0.312500  0.187500    288.000000
  0.312500  0.312500  0.312500     96.000000
  0.437500  0.312500  0.312500    288.000000
 -0.437500  0.312500  0.312500    288.000000
 -0.312500  0.312500  0.312500    288.000000
  0.437500  0.437500  0.312500    288.000000
 -0.437500  0.437500  0.312500    576.000000
 -0.312500  0.437500  0.312500    576.000000
 -0.437500 -0.437500  0.312500    288.000000
  0.437500  0.437500  0.437500     96.000000
 -0.437500  0.437500  0.437500    288.000000
 
 Following cartesian coordinates:
            Coordinates               Weight
  0.014029  0.014029  0.014029     96.000000
 -0.014029  0.042088  0.042088    288.000000
 -0.042088  0.070146  0.070146    288.000000
 -0.070146  0.098204  0.098204    288.000000
  0.126263 -0.098204 -0.098204    288.000000
  0.098204 -0.070146 -0.070146    288.000000
  0.070146 -0.042088 -0.042088    288.000000
  0.042088 -0.014029 -0.014029    288.000000
  0.014029  0.014029  0.070146    288.000000
 -0.014029  0.042088  0.098204    576.000000
 -0.042088  0.070146  0.126263    576.000000
  0.154321 -0.126263 -0.070146    576.000000
  0.126263 -0.098204 -0.042088    576.000000
  0.098204 -0.070146 -0.014029    576.000000
  0.070146 -0.042088  0.014029    576.000000
  0.014029  0.014029  0.126263    288.000000
 -0.014029  0.042088  0.154321    576.000000
  0.182379 -0.154321 -0.042088    576.000000
  0.154321 -0.126263 -0.014029    576.000000
  0.126263 -0.098204  0.014029    576.000000
  0.098204 -0.070146  0.042088    576.000000
  0.014029  0.014029  0.182379    288.000000
  0.210438 -0.182379 -0.014029    576.000000
  0.182379 -0.154321  0.014029    576.000000
  0.154321 -0.126263  0.042088    576.000000
  0.126263 -0.098204  0.070146    576.000000
  0.014029  0.014029 -0.210438    288.000000
 -0.014029  0.042088 -0.182379    576.000000
 -0.042088  0.070146 -0.154321    576.000000
  0.014029  0.014029 -0.154321    288.000000
 -0.014029  0.042088 -0.126263    576.000000
  0.014029  0.014029 -0.098204    288.000000
  0.042088  0.042088  0.042088     96.000000
  0.014029  0.070146  0.070146    288.000000
 -0.014029  0.098204  0.098204    288.000000
  0.182379 -0.098204 -0.098204    288.000000
  0.154321 -0.070146 -0.070146    288.000000
  0.126263 -0.042088 -0.042088    288.000000
  0.042088  0.042088  0.098204    288.000000
  0.014029  0.070146  0.126263    576.000000
  0.210438 -0.126263 -0.070146    576.000000
  0.182379 -0.098204 -0.042088    576.000000
  0.154321 -0.070146 -0.014029    576.000000
  0.042088  0.042088  0.154321    288.000000
  0.238496 -0.154321 -0.042088    576.000000
  0.210438 -0.126263 -0.014029    576.000000
  0.182379 -0.098204  0.014029    576.000000
  0.042088  0.042088 -0.238496    288.000000
  0.014029  0.070146 -0.210438    576.000000
  0.042088  0.042088 -0.182379    288.000000
  0.070146  0.070146  0.070146     96.000000
  0.042088  0.098204  0.098204    288.000000
  0.238496 -0.098204 -0.098204    288.000000
  0.210438 -0.070146 -0.070146    288.000000
  0.070146  0.070146  0.126263    288.000000
  0.266554 -0.126263 -0.070146    576.000000
  0.238496 -0.098204 -0.042088    576.000000
  0.070146  0.070146 -0.266554    288.000000
  0.098204  0.098204  0.098204     96.000000
  0.294613 -0.098204 -0.098204    288.000000
 


--------------------------------------------------------------------------------------------------------




 Dimension of arrays:
   k-points           NKPTS =     60   k-points in BZ     NKDIM =     60   number of bands    NBANDS=     12
   number of dos      NEDOS =    301   number of ions     NIONS =      2
   non local maximal  LDIM  =      6   non local SUM 2l+1 LMDIM =     18
   total plane-waves  NPLWV =  13824
   max r-space proj   IRMAX =      1   max aug-charges    IRDMAX=  42766
   dimension x,y,z NGX =    24 NGY =   24 NGZ =   24
   dimension x,y,z NGXF=    48 NGYF=   48 NGZF=   48
   support grid    NGXF=    48 NGYF=   48 NGZF=   48
   ions per type =               1   1
 NGX,Y,Z   is equivalent  to a cutoff of  12.67, 12.67, 12.67 a.u.
 NGXF,Y,Z  is equivalent  to a cutoff of  25.33, 25.33, 25.33 a.u.


 I would recommend the setting:
   dimension x,y,z NGX =    22 NGY =   22 NGZ =   22
 SYSTEM =  unknown system                          
 POSCAR =   C Ta                                   

 Startparameter for this run:
   NWRITE =      2    write-flag & timer
   PREC   = accura    normal or accurate (medium, high low for compatibility)
   ISTART =      0    job   : 0-new  1-cont  2-samecut
   ICHARG =      2    charge: 1-file 2-atom 10-const
   ISPIN  =      2    spin polarized calculation?
   LNONCOLLINEAR =      F non collinear calculations
   LSORBIT =      F    spin-orbit coupling
   INIWAV =      1    electr: 0-lowe 1-rand  2-diag
   LASPH  =      F    aspherical Exc in radial PAW
   METAGGA=      F    non-selfconsistent MetaGGA calc.

 Electronic Relaxation 1
   ENCUT  =  450.0 eV  33.07 Ry    5.75 a.u.   5.45  5.45  5.45*2*pi/ulx,y,z
   ENINI  =  450.0     initial cutoff
   ENAUG  =  644.9 eV  augmentation charge cutoff
   NELM   =     60;   NELMIN=  2; NELMDL= -5     # of ELM steps 
   EDIFF  = 0.1E-03   stopping-criterion for ELM
   LREAL  =      F    real-space projection
   NLSPLINE    = F    spline interpolate recip. space projectors
   LCOMPAT=      F    compatible to vasp.4.4
   GGA_COMPAT  = T    GGA compatible to vasp.4.4-vasp.4.6
   LMAXPAW     = -100 max onsite density
   LMAXMIX     =    2 max onsite mixed and CHGCAR
   VOSKOWN=      0    Vosko Wilk Nusair interpolation
   ROPT   =    0.00000   0.00000
 Ionic relaxation
   EDIFFG = 0.1E-02   stopping-criterion for IOM
   NSW    =      0    number of steps for IOM
   NBLOCK =      1;   KBLOCK =      1    inner block; outer block 
   IBRION =     -1    ionic relax: 0-MD 1-quasi-New 2-CG
   NFREE  =      0    steps in history (QN), initial steepest desc. (CG)
   ISIF   =      2    stress and relaxation
   IWAVPR =     10    prediction:  0-non 1-charg 2-wave 3-comb
   ISYM   =      2    0-nonsym 1-usesym 2-fastsym
   LCORR  =      T    Harris-Foulkes like correction to forces

   POTIM  = 0.5000    time-step for ionic-motion
   TEIN   =    0.0    initial temperature
   TEBEG  =    0.0;   TEEND  =   0.0 temperature during run
   SMASS  =  -3.00    Nose mass-parameter (am)
   estimated Nose-frequenzy (Omega)   =  0.10E-29 period in steps =****** mass=  -0.227E-27a.u.
   SCALEE = 1.0000    scale energy and forces
   NPACO  =    256;   APACO  = 16.0  distance and # of slots for P.C.
   PSTRESS=    0.0 pullay stress

  Mass of Ions in am
   POMASS =  12.01180.95
  Ionic Valenz
   ZVAL   =   4.00  5.00
  Atomic Wigner-Seitz radii
   RWIGS  =  -1.00 -1.00
  virtual crystal weights 
   VCA    =   1.00  1.00
   NELECT =       9.0000    total number of electrons
   NUPDOWN=      -1.0000    fix difference up-down

 DOS related values:
   EMIN   =  10.00;   EMAX   =-10.00  energy-range for DOS
   EFERMI =   0.00
   ISMEAR =     1;   SIGMA  =   0.05  broadening in eV -4-tet -1-fermi 0-gaus

 Electronic relaxation 2 (details)
   IALGO  =     38    algorithm
   LDIAG  =      T    sub-space diagonalisation (order eigenvalues)
   LSUBROT=      T    optimize rotation matrix (better conditioning)
   TURBO    =      0    0=normal 1=particle mesh
   IRESTART =      0    0=no restart 2=restart with 2 vectors
   NREBOOT  =      0    no. of reboots
   NMIN     =      0    reboot dimension
   EREF     =   0.00    reference energy to select bands
   IMIX   =      4    mixing-type and parameters
     AMIX     =   0.40;   BMIX     =  1.00
     AMIX_MAG =   1.60;   BMIX_MAG =  1.00
     AMIN     =   0.10
     WC   =   100.;   INIMIX=   1;  MIXPRE=   1

 Intra band minimization:
   WEIMIN = 0.0000     energy-eigenvalue tresh-hold
   EBREAK =  0.21E-05  absolut break condition
   DEPER  =   0.30     relativ break condition  

   TIME   =   0.40     timestep for ELM

  volume/ion in A,a.u.               =      11.05        74.58
  Fermi-wavevector in a.u.,A,eV,Ry     =   1.213374  2.292944 20.031532  1.472276
  Thomas-Fermi vector in A             =   2.348828
 
 Write flags
   LWAVE  =      T    write WAVECAR
   LCHARG =      T    write CHGCAR
   LVTOT  =      F    write LOCPOT, total local potential
   LVHAR  =      F    write LOCPOT, Hartree potential only
   LELF   =      F    write electronic localiz. function (ELF)
   LORBIT =     11    0 simple, 1 ext, 2 COOP (PROOUT)


 Dipole corrections
   LMONO  =      F    monopole corrections only (constant potential shift)
   LDIPOL =      F    correct potential (dipole corrections)
   IDIPOL =      0    1-x, 2-y, 3-z, 4-all directions 
   EPSILON=  1.0000000 bulk dielectric constant

 Exchange correlation treatment:
   GGA     =    --    GGA type
   LEXCH   =     8    internal setting for exchange type
   VOSKOWN=      0    Vosko Wilk Nusair interpolation
   LHFCALC =     F    Hartree Fock is set to
   LHFONE  =     F    Hartree Fock one center treatment
   AEXX    =    0.0000 exact exchange contribution

 Linear response parameters
   LEPSILON=     F    determine dielectric tensor
   LRPA    =     F    only Hartree local field effects (RPA)
   LNABLA  =     F    use nabla operator in PAW spheres
   LVEL    =     F    velocity operator in full k-point grid
   LINTERFAST=   F  fast interpolation
   KINTER  =     0    interpolate to denser k-point grid
   CSHIFT  =0.1000    complex shift for real part using Kramers Kronig
   OMEGAMAX=  -1.0    maximum frequency
   RTIME   =    0.100 relaxation time in fs

 Orbital magnetization related:
   ORBITALMAG=     F  switch on orbital magnetization
   LCHIMAG   =     F  perturbation theory with respect to B field
   DQ        =  0.001000  dq finite difference perturbation B field



--------------------------------------------------------------------------------------------------------


 Static calculation
 charge density and potential will be updated during run
 spin polarized calculation
 Variant of blocked Davidson
 Davidson routine will perform the subspace rotation
 perform sub-space diagonalisation
    after iterative eigenvector-optimisation
 modified Broyden-mixing scheme, WC =      100.0
 initial mixing is a Kerker type mixing with AMIX =  0.4000 and BMIX =      1.0000
 Hartree-type preconditioning will be used
 using additional bands            7
 reciprocal scheme for non local part
 use partial core corrections
 calculate Harris-corrections to forces 
   (improved forces if not selfconsistent)
 use gradient corrections 
 use of overlap-Matrix (Vanderbilt PP)
 Methfessel and Paxton  Order N= 1 SIGMA  =   0.05


--------------------------------------------------------------------------------------------------------


  energy-cutoff  :      450.00
  volume of cell :       22.10
      direct lattice vectors                 reciprocal lattice vectors
     0.000000000  2.227500000  2.227500000    -0.224466891  0.224466891  0.224466891
     2.227500000  0.000000000  2.227500000     0.224466891 -0.224466891  0.224466891
     2.227500000  2.227500000  0.000000000     0.224466891  0.224466891 -0.224466891

  length of vectors
     3.150160710  3.150160710  3.150160710     0.388788060  0.388788060  0.388788060


 
 k-points in units of 2pi/SCALE and weight: KPOINTS created by Atomic Simulation Env
   0.01402918  0.01402918  0.01402918       0.004
  -0.01402918  0.04208754  0.04208754       0.012
  -0.04208754  0.07014590  0.07014590       0.012
  -0.07014590  0.09820426  0.09820426       0.012
   0.12626263 -0.09820426 -0.09820426       0.012
   0.09820426 -0.07014590 -0.07014590       0.012
   0.07014590 -0.04208754 -0.04208754       0.012
   0.04208754 -0.01402918 -0.01402918       0.012
   0.01402918  0.01402918  0.07014590       0.012
  -0.01402918  0.04208754  0.09820426       0.023
  -0.04208754  0.07014590  0.12626263       0.023
   0.15432099 -0.12626263 -0.07014590       0.023
   0.12626263 -0.09820426 -0.04208754       0.023
   0.09820426 -0.07014590 -0.01402918       0.023
   0.07014590 -0.04208754  0.01402918       0.023
   0.01402918  0.01402918  0.12626263       0.012
  -0.01402918  0.04208754  0.15432099       0.023
   0.18237935 -0.15432099 -0.04208754       0.023
   0.15432099 -0.12626263 -0.01402918       0.023
   0.12626263 -0.09820426  0.01402918       0.023
   0.09820426 -0.07014590  0.04208754       0.023
   0.01402918  0.01402918  0.18237935       0.012
   0.21043771 -0.18237935 -0.01402918       0.023
   0.18237935 -0.15432099  0.01402918       0.023
   0.15432099 -0.12626263  0.04208754       0.023
   0.12626263 -0.09820426  0.07014590       0.023
   0.01402918  0.01402918 -0.21043771       0.012
  -0.01402918  0.04208754 -0.18237935       0.023
  -0.04208754  0.07014590 -0.15432099       0.023
   0.01402918  0.01402918 -0.15432099       0.012
  -0.01402918  0.04208754 -0.12626263       0.023
   0.01402918  0.01402918 -0.09820426       0.012
   0.04208754  0.04208754  0.04208754       0.004
   0.01402918  0.07014590  0.07014590       0.012
  -0.01402918  0.09820426  0.09820426       0.012
   0.18237935 -0.09820426 -0.09820426       0.012
   0.15432099 -0.07014590 -0.07014590       0.012
   0.12626263 -0.04208754 -0.04208754       0.012
   0.04208754  0.04208754  0.09820426       0.012
   0.01402918  0.07014590  0.12626263       0.023
   0.21043771 -0.12626263 -0.07014590       0.023
   0.18237935 -0.09820426 -0.04208754       0.023
   0.15432099 -0.07014590 -0.01402918       0.023
   0.04208754  0.04208754  0.15432099       0.012
   0.23849607 -0.15432099 -0.04208754       0.023
   0.21043771 -0.12626263 -0.01402918       0.023
   0.18237935 -0.09820426  0.01402918       0.023
   0.04208754  0.04208754 -0.23849607       0.012
   0.01402918  0.07014590 -0.21043771       0.023
   0.04208754  0.04208754 -0.18237935       0.012
   0.07014590  0.07014590  0.07014590       0.004
   0.04208754  0.09820426  0.09820426       0.012
   0.23849607 -0.09820426 -0.09820426       0.012
   0.21043771 -0.07014590 -0.07014590       0.012
   0.07014590  0.07014590  0.12626263       0.012
   0.26655443 -0.12626263 -0.07014590       0.023
   0.23849607 -0.09820426 -0.04208754       0.023
   0.07014590  0.07014590 -0.26655443       0.012
   0.09820426  0.09820426  0.09820426       0.004
   0.29461279 -0.09820426 -0.09820426       0.012
 
 k-points in reciprocal lattice and weights: KPOINTS created by Atomic Simulation Env
   0.06250000  0.06250000  0.06250000       0.004
   0.18750000  0.06250000  0.06250000       0.012
   0.31250000  0.06250000  0.06250000       0.012
   0.43750000  0.06250000  0.06250000       0.012
  -0.43750000  0.06250000  0.06250000       0.012
  -0.31250000  0.06250000  0.06250000       0.012
  -0.18750000  0.06250000  0.06250000       0.012
  -0.06250000  0.06250000  0.06250000       0.012
   0.18750000  0.18750000  0.06250000       0.012
   0.31250000  0.18750000  0.06250000       0.023
   0.43750000  0.18750000  0.06250000       0.023
  -0.43750000  0.18750000  0.06250000       0.023
  -0.31250000  0.18750000  0.06250000       0.023
  -0.18750000  0.18750000  0.06250000       0.023
  -0.06250000  0.18750000  0.06250000       0.023
   0.31250000  0.31250000  0.06250000       0.012
   0.43750000  0.31250000  0.06250000       0.023
  -0.43750000  0.31250000  0.06250000       0.023
  -0.31250000  0.31250000  0.06250000       0.023
  -0.18750000  0.31250000  0.06250000       0.023
  -0.06250000  0.31250000  0.06250000       0.023
   0.43750000  0.43750000  0.06250000       0.012
  -0.43750000  0.43750000  0.06250000       0.023
  -0.31250000  0.43750000  0.06250000       0.023
  -0.18750000  0.43750000  0.06250000       0.023
  -0.06250000  0.43750000  0.06250000       0.023
  -0.43750000 -0.43750000  0.06250000       0.012
  -0.31250000 -0.43750000  0.06250000       0.023
  -0.18750000 -0.43750000  0.06250000       0.023
  -0.31250000 -0.31250000  0.06250000       0.012
  -0.18750000 -0.31250000  0.06250000       0.023
  -0.18750000 -0.18750000  0.06250000       0.012
   0.18750000  0.18750000  0.18750000       0.004
   0.31250000  0.18750000  0.18750000       0.012
   0.43750000  0.18750000  0.18750000       0.012
  -0.43750000  0.18750000  0.18750000       0.012
  -0.31250000  0.18750000  0.18750000       0.012
  -0.18750000  0.18750000  0.18750000       0.012
   0.31250000  0.31250000  0.18750000       0.012
   0.43750000  0.31250000  0.18750000       0.023
  -0.43750000  0.31250000  0.18750000       0.023
  -0.31250000  0.31250000  0.18750000       0.023
  -0.18750000  0.31250000  0.18750000       0.023
   0.43750000  0.43750000  0.18750000       0.012
  -0.43750000  0.43750000  0.18750000       0.023
  -0.31250000  0.43750000  0.18750000       0.023
  -0.18750000  0.43750000  0.18750000       0.023
  -0.43750000 -0.43750000  0.18750000       0.012
  -0.31250000 -0.43750000  0.18750000       0.023
  -0.31250000 -0.31250000  0.18750000       0.012
   0.31250000  0.31250000  0.31250000       0.004
   0.43750000  0.31250000  0.31250000       0.012
  -0.43750000  0.31250000  0.31250000       0.012
  -0.31250000  0.31250000  0.31250000       0.012
   0.43750000  0.43750000  0.31250000       0.012
  -0.43750000  0.43750000  0.31250000       0.023
  -0.31250000  0.43750000  0.31250000       0.023
  -0.43750000 -0.43750000  0.31250000       0.012
   0.43750000  0.43750000  0.43750000       0.004
  -0.43750000  0.43750000  0.43750000       0.012
 
 position of ions in fractional coordinates (direct lattice) 
   0.50000000  0.50000000  0.50000000
   0.00000000  0.00000000  0.00000000
 
 position of ions in cartesian coordinates  (Angst):
   2.22750000  2.22750000  2.22750000
   0.00000000  0.00000000  0.00000000
 


--------------------------------------------------------------------------------------------------------


 k-point  1 :  0.06250.06250.0625  plane waves:     495
 k-point  2 :  0.18750.06250.0625  plane waves:     493
 k-point  3 :  0.31250.06250.0625  plane waves:     485
 k-point  4 :  0.43750.06250.0625  plane waves:     477
 k-point  5 :  -.43750.06250.0625  plane waves:     473
 k-point  6 :  -.31250.06250.0625  plane waves:     480
 k-point  7 :  -.18750.06250.0625  plane waves:     488
 k-point  8 :  -.06250.06250.0625  plane waves:     500
 k-point  9 :  0.18750.18750.0625  plane waves:     490
 k-point 10 :  0.31250.18750.0625  plane waves:     483
 k-point 11 :  0.43750.18750.0625  plane waves:     479
 k-point 12 :  -.43750.18750.0625  plane waves:     474
 k-point 13 :  -.31250.18750.0625  plane waves:     480
 k-point 14 :  -.18750.18750.0625  plane waves:     482
 k-point 15 :  -.06250.18750.0625  plane waves:     486
 k-point 16 :  0.31250.31250.0625  plane waves:     478
 k-point 17 :  0.43750.31250.0625  plane waves:     474
 k-point 18 :  -.43750.31250.0625  plane waves:     476
 k-point 19 :  -.31250.31250.0625  plane waves:     478
 k-point 20 :  -.18750.31250.0625  plane waves:     483
 k-point 21 :  -.06250.31250.0625  plane waves:     484
 k-point 22 :  0.43750.43750.0625  plane waves:     472
 k-point 23 :  -.43750.43750.0625  plane waves:     473
 k-point 24 :  -.31250.43750.0625  plane waves:     479
 k-point 25 :  -.18750.43750.0625  plane waves:     473
 k-point 26 :  -.06250.43750.0625  plane waves:     476
 k-point 27 :  -.4375-.43750.0625  plane waves:     468
 k-point 28 :  -.3125-.43750.0625  plane waves:     473
 k-point 29 :  -.1875-.43750.0625  plane waves:     479
 k-point 30 :  -.3125-.31250.0625  plane waves:     477
 k-point 31 :  -.1875-.31250.0625  plane waves:     480
 k-point 32 :  -.1875-.18750.0625  plane waves:     484
 k-point 33 :  0.18750.18750.1875  plane waves:     489
 k-point 34 :  0.31250.18750.1875  plane waves:     487
 k-point 35 :  0.43750.18750.1875  plane waves:     483
 k-point 36 :  -.43750.18750.1875  plane waves:     478
 k-point 37 :  -.31250.18750.1875  plane waves:     477
 k-point 38 :  -.18750.18750.1875  plane waves:     479
 k-point 39 :  0.31250.31250.1875  plane waves:     485
 k-point 40 :  0.43750.31250.1875  plane waves:     478
 k-point 41 :  -.43750.31250.1875  plane waves:     481
 k-point 42 :  -.31250.31250.1875  plane waves:     479
 k-point 43 :  -.18750.31250.1875  plane waves:     476
 k-point 44 :  0.43750.43750.1875  plane waves:     474
 k-point 45 :  -.43750.43750.1875  plane waves:     479
 k-point 46 :  -.31250.43750.1875  plane waves:     476
 k-point 47 :  -.18750.43750.1875  plane waves:     479
 k-point 48 :  -.4375-.43750.1875  plane waves:     473
 k-point 49 :  -.3125-.43750.1875  plane waves:     477
 k-point 50 :  -.3125-.31250.1875  plane waves:     476
 k-point 51 :  0.31250.31250.3125  plane waves:     489
 k-point 52 :  0.43750.31250.3125  plane waves:     482
 k-point 53 :  -.43750.31250.3125  plane waves:     481
 k-point 54 :  -.31250.31250.3125  plane waves:     473
 k-point 55 :  0.43750.43750.3125  plane waves:     475
 k-point 56 :  -.43750.43750.3125  plane waves:     478
 k-point 57 :  -.31250.43750.3125  plane waves:     477
 k-point 58 :  -.4375-.43750.3125  plane waves:     475
 k-point 59 :  0.43750.43750.4375  plane waves:     471
 k-point 60 :  -.43750.43750.4375  plane waves:     475

 maximum and minimum number of plane-waves per node :       500      468

 maximum number of plane-waves:       500
 maximum index in each direction: 
   IXMAX=    5   IYMAX=    5   IZMAX=    5
   IXMIN=   -5   IYMIN=   -5   IZMIN=   -5

 NGX is ok and might be reduce to  22
 NGY is ok and might be reduce to  22
 NGZ is ok and might be reduce to  22

 serial   3D FFT for wavefunctions
 parallel 3D FFT for charge:
    minimum data exchange during FFTs selected (reduces bandwidth)


 total amount of memory used by VASP on root node    65019. kBytes
========================================================================

   base      :      30000. kBytes
   nonl-proj :       8656. kBytes
   fftplans  :       3916. kBytes
   grid      :      10266. kBytes
   one-center:         62. kBytes
   wavefun   :      12119. kBytes
 
 Broyden mixing: mesh for mixing (old mesh)
   NGX = 11   NGY = 11   NGZ = 11
  (NGX  = 48   NGY  = 48   NGZ  = 48)
  gives a total of   1331 points

 initial charge density was supplied:
 charge density of overlapping atoms calculated
 number of electron       9.0000000 magnetization       8.0000000
 keeping initial charge density in first step


--------------------------------------------------------------------------------------------------------


 Maximum index for augmentation-charges        41235 (set IRDMAX)


--------------------------------------------------------------------------------------------------------


 First call to EWALD:  gamma=   0.632
 Maximum number of real-space cells 3x 3x 3
 Maximum number of reciprocal cells 3x 3x 3

    FEWALD:  cpu time    0.00: real time    0.00


----------------------------------------- Iteration    1(   1)  ---------------------------------------


    POTLOK:  cpu time    0.38: real time    0.38
    SETDIJ:  cpu time    0.07: real time    0.07
     EDDAV:  cpu time    6.66: real time    6.66
       DOS:  cpu time    0.01: real time    0.01
    --------------------------------------------
      LOOP:  cpu time    7.12: real time    7.13

 eigenvalue-minimisations  :  2912
 total energy-change (2. order) : 0.1077503E+02  (-0.4010783E+03)
 number of electron       9.0000000 magnetization       8.0000000
 augmentation part        9.0000000 magnetization       8.0000000

 Free energy of the ion-electron system (eV)
  ---------------------------------------------------
  alpha Z        PSCENC =        53.45108897
  Ewald energy   TEWEN  =      -374.24685207
  -1/2 Hartree   DENC   =       -15.54251934
  -exchange  EXHF       =         0.00000000
  -V(xc)+E(xc)   XCENC  =       -48.16204835
  PAW double counting   =       180.96821906     -107.89329025
  entropy T*S    EENTRO =        -0.00000417
  eigenvalues    EBANDS =        44.40701496
  atomic energy  EATOM  =       277.79342126
  ---------------------------------------------------
  free energy    TOTEN  =        10.77503006 eV

  energy without entropy =       10.77503423  energy(sigma->0) =       10.77503145


--------------------------------------------------------------------------------------------------------




----------------------------------------- Iteration    1(   2)  ---------------------------------------


     EDDAV:  cpu time    8.00: real time    8.00
       DOS:  cpu time    0.01: real time    0.01
    --------------------------------------------
      LOOP:  cpu time    8.01: real time    8.01

 eigenvalue-minimisations  :  3764
 total energy-change (2. order) :-0.2891496E+02  (-0.2734815E+02)
 number of electron       9.0000000 magnetization       8.0000000
 augmentation part        9.0000000 magnetization       8.0000000

 Free energy of the ion-electron system (eV)
  ---------------------------------------------------
  alpha Z        PSCENC =        53.45108897
  Ewald energy   TEWEN  =      -374.24685207
  -1/2 Hartree   DENC   =       -15.54251934
  -exchange  EXHF       =         0.00000000
  -V(xc)+E(xc)   XCENC  =       -48.16204835
  PAW double counting   =       180.96821906     -107.89329025
  entropy T*S    EENTRO =        -0.00024170
  eigenvalues    EBANDS =        15.49229722
  atomic energy  EATOM  =       277.79342126
  ---------------------------------------------------
  free energy    TOTEN  =       -18.13992521 eV

  energy without entropy =      -18.13968351  energy(sigma->0) =      -18.13984465


--------------------------------------------------------------------------------------------------------




----------------------------------------- Iteration    1(   3)  ---------------------------------------


     EDDAV:  cpu time    8.09: real time    8.09
       DOS:  cpu time    0.01: real time    0.01
    --------------------------------------------
      LOOP:  cpu time    8.10: real time    8.10

 eigenvalue-minimisations  :  3616
 total energy-change (2. order) :-0.9088845E+00  (-0.8973088E+00)
 number of electron       9.0000000 magnetization       8.0000000
 augmentation part        9.0000000 magnetization       8.0000000

 Free energy of the ion-electron system (eV)
  ---------------------------------------------------
  alpha Z        PSCENC =        53.45108897
  Ewald energy   TEWEN  =      -374.24685207
  -1/2 Hartree   DENC   =       -15.54251934
  -exchange  EXHF       =         0.00000000
  -V(xc)+E(xc)   XCENC  =       -48.16204835
  PAW double counting   =       180.96821906     -107.89329025
  entropy T*S    EENTRO =         0.00001166
  eigenvalues    EBANDS =        14.58315940
  atomic energy  EATOM  =       277.79342126
  ---------------------------------------------------
  free energy    TOTEN  =       -19.04880967 eV

  energy without entropy =      -19.04882133  energy(sigma->0) =      -19.04881356


--------------------------------------------------------------------------------------------------------




----------------------------------------- Iteration    1(   4)  ---------------------------------------


     EDDAV:  cpu time    7.41: real time    7.41
       DOS:  cpu time    0.01: real time    0.01
    --------------------------------------------
      LOOP:  cpu time    7.42: real time    7.43

 eigenvalue-minimisations  :  3188
 total energy-change (2. order) :-0.2982392E-02  (-0.2982082E-02)
 number of electron       9.0000000 magnetization       8.0000000
 augmentation part        9.0000000 magnetization       8.0000000

 Free energy of the ion-electron system (eV)
  ---------------------------------------------------
  alpha Z        PSCENC =        53.45108897
  Ewald energy   TEWEN  =      -374.24685207
  -1/2 Hartree   DENC   =       -15.54251934
  -exchange  EXHF       =         0.00000000
  -V(xc)+E(xc)   XCENC  =       -48.16204835
  PAW double counting   =       180.96821906     -107.89329025
  entropy T*S    EENTRO =         0.00001373
  eigenvalues    EBANDS =        14.58017494
  atomic energy  EATOM  =       277.79342126
  ---------------------------------------------------
  free energy    TOTEN  =       -19.05179206 eV

  energy without entropy =      -19.05180580  energy(sigma->0) =      -19.05179664


--------------------------------------------------------------------------------------------------------




----------------------------------------- Iteration    1(   5)  ---------------------------------------


     EDDAV:  cpu time    8.25: real time    8.26
       DOS:  cpu time    0.01: real time    0.01
    CHARGE:  cpu time    0.50: real time    0.50
    MIXING:  cpu time    0.01: real time    0.01
    --------------------------------------------
      LOOP:  cpu time    8.77: real time    8.79

 eigenvalue-minimisations  :  3688
 total energy-change (2. order) :-0.1088243E-04  (-0.1088219E-04)
 number of electron       9.0000001 magnetization      -1.7209855
 augmentation part        0.3906829 magnetization      -2.5477158

 Broyden mixing:
  rms(total) = 0.18910E+01    rms(broyden)= 0.18909E+01
  rms(prec ) = 0.43537E+01
  weight for this iteration     100.00

 Free energy of the ion-electron system (eV)
  ---------------------------------------------------
  alpha Z        PSCENC =        53.45108897
  Ewald energy   TEWEN  =      -374.24685207
  -1/2 Hartree   DENC   =       -15.54251934
  -exchange  EXHF       =         0.00000000
  -V(xc)+E(xc)   XCENC  =       -48.16204835
  PAW double counting   =       180.96821906     -107.89329025
  entropy T*S    EENTRO =         0.00001374
  eigenvalues    EBANDS =        14.58016405
  atomic energy  EATOM  =       277.79342126
  ---------------------------------------------------
  free energy    TOTEN  =       -19.05180295 eV

  energy without entropy =      -19.05181669  energy(sigma->0) =      -19.05180753


--------------------------------------------------------------------------------------------------------




----------------------------------------- Iteration    1(   6)  ---------------------------------------


    POTLOK:  cpu time    0.38: real time    0.38
    SETDIJ:  cpu time    0.08: real time    0.08
     EDDAV:  cpu time    7.18: real time    7.18
       DOS:  cpu time    0.01: real time    0.01
    CHARGE:  cpu time    0.51: real time    0.51
    MIXING:  cpu time    0.01: real time    0.01
    --------------------------------------------
      LOOP:  cpu time    8.17: real time    8.19

 eigenvalue-minimisations  :  3224
 total energy-change (2. order) :-0.3045902E+01  (-0.1635219E+01)
 number of electron       9.0000000 magnetization       0.1360288
 augmentation part        0.4617071 magnetization       0.3694423

 Broyden mixing:
  rms(total) = 0.43875E+00    rms(broyden)= 0.43864E+00
  rms(prec ) = 0.76074E+00
  weight for this iteration     100.00

 eigenvalues of (default mixing * dielectric matrix)
  average eigenvalue GAMMA=   0.8184
  0.8184

 Free energy of the ion-electron system (eV)
  ---------------------------------------------------
  alpha Z        PSCENC =        53.45108897
  Ewald energy   TEWEN  =      -374.24685207
  -1/2 Hartree   DENC   =       -23.99849784
  -exchange  EXHF       =         0.00000000
  -V(xc)+E(xc)   XCENC  =       -51.09789321
  PAW double counting   =       214.07024862     -141.50849648
  entropy T*S    EENTRO =        -0.00008196
  eigenvalues    EBANDS =        23.43935762
  atomic energy  EATOM  =       277.79342126
  ---------------------------------------------------
  free energy    TOTEN  =       -22.09770509 eV

  energy without entropy =      -22.09762313  energy(sigma->0) =      -22.09767777


--------------------------------------------------------------------------------------------------------




----------------------------------------- Iteration    1(   7)  ---------------------------------------


    POTLOK:  cpu time    0.41: real time    0.41
    SETDIJ:  cpu time    0.10: real time    0.10
     EDDAV:  cpu time    7.94: real time    7.95
       DOS:  cpu time    0.01: real time    0.01
    CHARGE:  cpu time    0.50: real time    0.51
    MIXING:  cpu time    0.01: real time    0.01
    --------------------------------------------
      LOOP:  cpu time    8.98: real time    9.00

 eigenvalue-minimisations  :  3512
 total energy-change (2. order) :-0.2178317E+00  (-0.6149295E-01)
 number of electron       9.0000000 magnetization      -0.1205157
 augmentation part        0.4553972 magnetization      -0.1161348

 Broyden mixing:
  rms(total) = 0.15478E+00    rms(broyden)= 0.15476E+00
  rms(prec ) = 0.44147E+00
  weight for this iteration     100.00

 eigenvalues of (default mixing * dielectric matrix)
  average eigenvalue GAMMA=   0.8213
  0.8213  0.8213

 Free energy of the ion-electron system (eV)
  ---------------------------------------------------
  alpha Z        PSCENC =        53.45108897
  Ewald energy   TEWEN  =      -374.24685207
  -1/2 Hartree   DENC   =       -22.90580175
  -exchange  EXHF       =         0.00000000
  -V(xc)+E(xc)   XCENC  =       -51.28963017
  PAW double counting   =       232.02738040     -159.68744753
  entropy T*S    EENTRO =         0.00031072
  eigenvalues    EBANDS =        22.54199336
  atomic energy  EATOM  =       277.79342126
  ---------------------------------------------------
  free energy    TOTEN  =       -22.31553682 eV

  energy without entropy =      -22.31584754  energy(sigma->0) =      -22.31564039


--------------------------------------------------------------------------------------------------------




----------------------------------------- Iteration    1(   8)  ---------------------------------------


    POTLOK:  cpu time    0.37: real time    0.37
    SETDIJ:  cpu time    0.08: real time    0.08
     EDDAV:  cpu time    7.17: real time    7.17
       DOS:  cpu time    0.01: real time    0.01
    CHARGE:  cpu time    0.51: real time    0.51
    MIXING:  cpu time    0.01: real time    0.01
    --------------------------------------------
      LOOP:  cpu time    8.15: real time    8.17

 eigenvalue-minimisations  :  3212
 total energy-change (2. order) : 0.5845690E-01  (-0.7643000E-02)
 number of electron       9.0000000 magnetization       0.0330525
 augmentation part        0.4625466 magnetization       0.0243958

 Broyden mixing:
  rms(total) = 0.85440E-01    rms(broyden)= 0.85440E-01
  rms(prec ) = 0.16592E+00
  weight for this iteration     100.00

 eigenvalues of (default mixing * dielectric matrix)
  average eigenvalue GAMMA=   1.2435
  2.1558  0.8506  0.7243

 Free energy of the ion-electron system (eV)
  ---------------------------------------------------
  alpha Z        PSCENC =        53.45108897
  Ewald energy   TEWEN  =      -374.24685207
  -1/2 Hartree   DENC   =       -22.45366085
  -exchange  EXHF       =         0.00000000
  -V(xc)+E(xc)   XCENC  =       -51.17032985
  PAW double counting   =       253.49185016     -181.38362575
  entropy T*S    EENTRO =         0.00031299
  eigenvalues    EBANDS =        22.26071523
  atomic energy  EATOM  =       277.79342126
  ---------------------------------------------------
  free energy    TOTEN  =       -22.25707992 eV

  energy without entropy =      -22.25739291  energy(sigma->0) =      -22.25718425


--------------------------------------------------------------------------------------------------------




----------------------------------------- Iteration    1(   9)  ---------------------------------------


    POTLOK:  cpu time    0.42: real time    0.42
    SETDIJ:  cpu time    0.10: real time    0.10
     EDDAV:  cpu time    7.73: real time    7.73
       DOS:  cpu time    0.01: real time    0.01
    CHARGE:  cpu time    0.51: real time    0.51
    MIXING:  cpu time    0.01: real time    0.01
    --------------------------------------------
      LOOP:  cpu time    8.78: real time    8.79

 eigenvalue-minimisations  :  3380
 total energy-change (2. order) : 0.8283898E-02  (-0.2412192E-02)
 number of electron       9.0000000 magnetization       0.0004276
 augmentation part        0.4679879 magnetization       0.0038198

 Broyden mixing:
  rms(total) = 0.24665E-01    rms(broyden)= 0.24664E-01
  rms(prec ) = 0.35729E-01
  weight for this iteration     100.00

 eigenvalues of (default mixing * dielectric matrix)
  average eigenvalue GAMMA=   1.2018
  2.3863  0.8789  0.8789  0.6633

 Free energy of the ion-electron system (eV)
  ---------------------------------------------------
  alpha Z        PSCENC =        53.45108897
  Ewald energy   TEWEN  =      -374.24685207
  -1/2 Hartree   DENC   =       -22.34168650
  -exchange  EXHF       =         0.00000000
  -V(xc)+E(xc)   XCENC  =       -51.09294724
  PAW double counting   =       268.49563891     -196.53885255
  entropy T*S    EENTRO =         0.00016247
  eigenvalues    EBANDS =        22.23123074
  atomic energy  EATOM  =       277.79342126
  ---------------------------------------------------
  free energy    TOTEN  =       -22.24879602 eV

  energy without entropy =      -22.24895849  energy(sigma->0) =      -22.24885018


--------------------------------------------------------------------------------------------------------




----------------------------------------- Iteration    1(  10)  ---------------------------------------


    POTLOK:  cpu time    0.37: real time    0.37
    SETDIJ:  cpu time    0.07: real time    0.08
     EDDAV:  cpu time    7.82: real time    7.82
       DOS:  cpu time    0.01: real time    0.01
    CHARGE:  cpu time    0.50: real time    0.50
    MIXING:  cpu time    0.01: real time    0.01
    --------------------------------------------
      LOOP:  cpu time    8.79: real time    8.81

 eigenvalue-minimisations  :  3212
 total energy-change (2. order) : 0.2107816E-02  (-0.1153101E-03)
 number of electron       9.0000000 magnetization      -0.0007376
 augmentation part        0.4674292 magnetization      -0.0022489

 Broyden mixing:
  rms(total) = 0.56122E-02    rms(broyden)= 0.56120E-02
  rms(prec ) = 0.10860E-01
  weight for this iteration     100.00

 eigenvalues of (default mixing * dielectric matrix)
  average eigenvalue GAMMA=   1.1160
  2.3300  0.9317  0.9317  0.7493  0.6372

 Free energy of the ion-electron system (eV)
  ---------------------------------------------------
  alpha Z        PSCENC =        53.45108897
  Ewald energy   TEWEN  =      -374.24685207
  -1/2 Hartree   DENC   =       -22.37432396
  -exchange  EXHF       =         0.00000000
  -V(xc)+E(xc)   XCENC  =       -51.10425799
  PAW double counting   =       267.85177615     -195.88837715
  entropy T*S    EENTRO =         0.00019185
  eigenvalues    EBANDS =        22.27064473
  atomic energy  EATOM  =       277.79342126
  ---------------------------------------------------
  free energy    TOTEN  =       -22.24668821 eV

  energy without entropy =      -22.24688006  energy(sigma->0) =      -22.24675216


--------------------------------------------------------------------------------------------------------




----------------------------------------- Iteration    1(  11)  ---------------------------------------


    POTLOK:  cpu time    0.41: real time    0.41
    SETDIJ:  cpu time    0.09: real time    0.09
     EDDAV:  cpu time    6.78: real time    6.78
       DOS:  cpu time    0.01: real time    0.01
    CHARGE:  cpu time    0.49: real time    0.49
    MIXING:  cpu time    0.01: real time    0.01
    --------------------------------------------
      LOOP:  cpu time    7.79: real time    7.80

 eigenvalue-minimisations  :  2808
 total energy-change (2. order) : 0.1581043E-03  (-0.1352245E-04)
 number of electron       9.0000000 magnetization      -0.0009375
 augmentation part        0.4673442 magnetization      -0.0006124

 Broyden mixing:
  rms(total) = 0.31890E-02    rms(broyden)= 0.31890E-02
  rms(prec ) = 0.61665E-02
  weight for this iteration     100.00

 eigenvalues of (default mixing * dielectric matrix)
  average eigenvalue GAMMA=   1.2233
  2.2479  1.9165  0.9160  0.9160  0.7192  0.6241

 Free energy of the ion-electron system (eV)
  ---------------------------------------------------
  alpha Z        PSCENC =        53.45108897
  Ewald energy   TEWEN  =      -374.24685207
  -1/2 Hartree   DENC   =       -22.38982572
  -exchange  EXHF       =         0.00000000
  -V(xc)+E(xc)   XCENC  =       -51.10579641
  PAW double counting   =       268.84175937     -196.88726133
  entropy T*S    EENTRO =         0.00019348
  eigenvalues    EBANDS =        22.29674235
  atomic energy  EATOM  =       277.79342126
  ---------------------------------------------------
  free energy    TOTEN  =       -22.24653010 eV

  energy without entropy =      -22.24672358  energy(sigma->0) =      -22.24659459


--------------------------------------------------------------------------------------------------------




----------------------------------------- Iteration    1(  12)  ---------------------------------------


    POTLOK:  cpu time    0.38: real time    0.38
    SETDIJ:  cpu time    0.07: real time    0.07
     EDDAV:  cpu time    4.79: real time    4.79
       DOS:  cpu time    0.01: real time    0.01
    --------------------------------------------
      LOOP:  cpu time    5.25: real time    5.27

 eigenvalue-minimisations  :  1648
 total energy-change (2. order) : 0.3240557E-04  (-0.3461084E-05)
 number of electron       9.0000000 magnetization      -0.0009375
 augmentation part        0.4673442 magnetization      -0.0006124

 Free energy of the ion-electron system (eV)
  ---------------------------------------------------
  alpha Z        PSCENC =        53.45108897
  Ewald energy   TEWEN  =      -374.24685207
  -1/2 Hartree   DENC   =       -22.39877019
  -exchange  EXHF       =         0.00000000
  -V(xc)+E(xc)   XCENC  =       -51.10456258
  PAW double counting   =       270.06162436     -198.11791769
  entropy T*S    EENTRO =         0.00018636
  eigenvalues    EBANDS =        22.31528389
  atomic energy  EATOM  =       277.79342126
  ---------------------------------------------------
  free energy    TOTEN  =       -22.24649770 eV

  energy without entropy =      -22.24668406  energy(sigma->0) =      -22.24655982


--------------------------------------------------------------------------------------------------------




 average (electrostatic) potential at core
  the test charge radii are     0.6991  1.2538
  (the norm of the test charge is              1.0000)
       1 -46.4142       2 -33.8562
 
 
 
 E-fermi :   8.4725     XC(G=0): -13.0279     alpha+bet :-15.6185


 spin component 1

 k-point   1 :       0.0625    0.0625    0.0625
  band No.  band energies     occupation 
      1      -6.0545      1.00000
      2       6.7003      1.00000
      3       7.0457      1.00000
      4       7.0457      1.00000
      5       7.7969      1.00000
      6       7.7969      1.00000
      7       8.5337     -0.03546
      8      10.1269      0.00000
      9      10.1269      0.00000
     10      15.4514      0.00000
     11      18.9727      0.00000
     12      21.0030      0.00000

 k-point   2 :       0.1875    0.0625    0.0625
  band No.  band energies     occupation 
      1      -5.5181      1.00000
      2       5.1430      1.00000
      3       5.6031      1.00000
      4       5.7679      1.00000
      5       7.7710      1.00000
      6       8.6996      0.00000
      7       9.3509      0.00000
      8      11.2451      0.00000
      9      12.7945      0.00000
     10      16.4413      0.00000
     11      20.2903      0.00000
     12      21.0025      0.00000

 k-point   3 :       0.3125    0.0625    0.0625
  band No.  band energies     occupation 
      1      -4.3128      1.00000
      2       2.9408      1.00000
      3       4.1609      1.00000
      4       4.4686      1.00000
      5       8.9281      0.00000
      6       9.5132      0.00000
      7      10.2976      0.00000
      8      13.9853      0.00000
      9      15.7253      0.00000
     10      17.3843      0.00000
     11      20.9952      0.00000
     12      21.8158      0.00000

 k-point   4 :       0.4375    0.0625    0.0625
  band No.  band energies     occupation 
      1      -2.7685      1.00000
      2       0.9683      1.00000
      3       3.3679      1.00000
      4       3.5383      1.00000
      5      10.4465      0.00000
      6      10.6449      0.00000
      7      11.5986      0.00000
      8      15.6910      0.00000
      9      16.7665      0.00000
     10      18.1099      0.00000
     11      20.9929      0.00000
     12      22.1388      0.00000

 k-point   5 :      -0.4375    0.0625    0.0625
  band No.  band energies     occupation 
      1      -1.9694      1.00000
      2       0.0889      1.00000
      3       3.2130      1.00000
      4       3.2598      1.00000
      5      10.9658      0.00000
      6      11.3772      0.00000
      7      12.2238      0.00000
      8      14.5045      0.00000
      9      18.1456      0.00000
     10      18.5094      0.00000
     11      20.9872      0.00000
     12      21.1738      0.00000

 k-point   6 :      -0.3125    0.0625    0.0625
  band No.  band energies     occupation 
      1      -3.3025      1.00000
      2       1.5877      1.00000
      3       3.5647      1.00000
      4       3.8301      1.00000
      5       9.5525      0.00000
      6      10.7098      0.00000
      7      11.0652      0.00000
      8      15.9721      0.00000
      9      16.3023      0.00000
     10      17.5552      0.00000
     11      20.9910      0.00000
     12      22.1165      0.00000

 k-point   7 :      -0.1875    0.0625    0.0625
  band No.  band energies     occupation 
      1      -4.7786      1.00000
      2       3.5905      1.00000
      3       4.6231      1.00000
      4       5.0163      1.00000
      5       8.2252      1.00000
      6       9.3513      0.00000
      7       9.9171      0.00000
      8      13.1859      0.00000
      9      14.5050      0.00000
     10      17.3803      0.00000
     11      20.9985      0.00000
     12      21.5383      0.00000

 k-point   8 :      -0.0625    0.0625    0.0625
  band No.  band energies     occupation 
      1      -5.7843      1.00000
      2       5.6645      1.00000
      3       6.2512      1.00000
      4       6.4887      1.00000
      5       7.3160      1.00000
      6       8.6318     -0.00003
      7       9.1815      0.00000
      8      10.3593      0.00000
      9      11.7977      0.00000
     10      16.0449      0.00000
     11      19.6751      0.00000
     12      21.0025      0.00000

 k-point   9 :       0.1875    0.1875    0.0625
  band No.  band energies     occupation 
      1      -5.2927      1.00000
      2       4.1591      1.00000
      3       5.7410      1.00000
      4       6.1375      1.00000
      5       6.9321      1.00000
      6       9.4171      0.00000
      7      10.1917      0.00000
      8      10.8764      0.00000
      9      13.1424      0.00000
     10      17.2931      0.00000
     11      20.9232      0.00000
     12      21.0026      0.00000

 k-point  10 :       0.3125    0.1875    0.0625
  band No.  band energies     occupation 
      1      -4.4421      1.00000
      2       2.8490      1.00000
      3       4.7058      1.00000
      4       5.1757      1.00000
      5       7.4711      1.00000
      6      10.3123      0.00000
      7      11.1246      0.00000
      8      12.2613      0.00000
      9      14.9882      0.00000
     10      18.6502      0.00000
     11      20.9989      0.00000
     12      22.3819      0.00000

 k-point  11 :       0.4375    0.1875    0.0625
  band No.  band energies     occupation 
      1      -3.2688      1.00000
      2       1.6355      1.00000
      3       3.6813      1.00000
      4       4.2265      1.00000
      5       8.5854     -0.00317
      6      11.2979      0.00000
      7      11.9785      0.00000
      8      14.5393      0.00000
      9      16.3138      0.00000
     10      18.7361      0.00000
     11      20.9625      0.00000
     12      21.3678      0.00000

 k-point  12 :      -0.4375    0.1875    0.0625
  band No.  band energies     occupation 
      1      -2.3786      1.00000
      2       0.7323      1.00000
      3       3.4301      1.00000
      4       3.6190      1.00000
      5      10.1111      0.00000
      6      11.2094      0.00000
      7      12.1393      0.00000
      8      15.8229      0.00000
      9      17.0599      0.00000
     10      18.0103      0.00000
     11      20.9661      0.00000
     12      21.2991      0.00000

 k-point  13 :      -0.3125    0.1875    0.0625
  band No.  band energies     occupation 
      1      -2.7834      1.00000
      2       1.1339      1.00000
      3       3.5019      1.00000
      4       3.7576      1.00000
      5       9.7422      0.00000
      6      11.1608      0.00000
      7      11.8858      0.00000
      8      15.0411      0.00000
      9      16.6154      0.00000
     10      18.6282      0.00000
     11      20.9870      0.00000
     12      21.8558      0.00000

 k-point  14 :      -0.1875    0.1875    0.0625
  band No.  band energies     occupation 
      1      -3.9825      1.00000
      2       2.4751      1.00000
      3       4.0912      1.00000
      4       4.3617      1.00000
      5       8.4939      0.17125
      6      10.6761      0.00000
      7      11.2201      0.00000
      8      12.7766      0.00000
      9      16.4628      0.00000
     10      18.1453      0.00000
     11      20.9951      0.00000
     12      22.2422      0.00000

 k-point  15 :      -0.0625    0.1875    0.0625
  band No.  band energies     occupation 
      1      -5.0330      1.00000
      2       3.9373      1.00000
      3       5.0678      1.00000
      4       5.3447      1.00000
      5       7.7236      1.00000
      6       9.4649      0.00000
      7      10.1017      0.00000
      8      11.7367      0.00000
      9      14.1259      0.00000
     10      17.3654      0.00000
     11      21.0014      0.00000
     12      21.3294      0.00000

 k-point  16 :       0.3125    0.3125    0.0625
  band No.  band energies     occupation 
      1      -4.1851      1.00000
      2       2.4721      1.00000
      3       4.8841      1.00000
      4       6.0386      1.00000
      5       6.5016      1.00000
      6      10.5476      0.00000
      7      12.1457      0.00000
      8      12.3441      0.00000
      9      14.8590      0.00000
     10      20.0268      0.00000
     11      20.9949      0.00000
     12      22.1161      0.00000

 k-point  17 :       0.4375    0.3125    0.0625
  band No.  band energies     occupation 
      1      -3.7116      1.00000
      2       2.4518      1.00000
      3       4.1570      1.00000
      4       5.3526      1.00000
      5       7.2810      1.00000
      6      11.6278      0.00000
      7      12.5626      0.00000
      8      12.9083      0.00000
      9      16.0685      0.00000
     10      19.2411      0.00000
     11      20.4174      0.00000
     12      21.0156      0.00000

 k-point  18 :      -0.4375    0.3125    0.0625
  band No.  band energies     occupation 
      1      -3.1724      1.00000
      2       2.2457      1.00000
      3       3.6660      1.00000
      4       4.5238      1.00000
      5       8.3610      1.00357
      6      11.7237      0.00000
      7      12.4648      0.00000
      8      14.6611      0.00000
      9      16.0679      0.00000
     10      18.8582      0.00000
     11      20.3815      0.00000
     12      21.0182      0.00000

 k-point  19 :      -0.3125    0.3125    0.0625
  band No.  band energies     occupation 
      1      -2.7894      1.00000
      2       1.6248      1.00000
      3       3.6178      1.00000
      4       3.9264      1.00000
      5      10.0381      0.00000
      6      10.6097      0.00000
      7      12.2730      0.00000
      8      14.3378      0.00000
      9      17.0878      0.00000
     10      19.3831      0.00000
     11      20.9780      0.00000
     12      21.3517      0.00000

 k-point  20 :      -0.1875    0.3125    0.0625
  band No.  band energies     occupation 
      1      -3.0136      1.00000
      2       1.5042      1.00000
      3       3.6783      1.00000
      4       3.8167      1.00000
      5       9.4994      0.00000
      6      11.4731      0.00000
      7      11.8258      0.00000
      8      13.5325      0.00000
      9      17.2403      0.00000
     10      18.7633      0.00000
     11      20.9877      0.00000
     12      21.9301      0.00000

 k-point  21 :      -0.0625    0.3125    0.0625
  band No.  band energies     occupation 
      1      -3.7426      1.00000
      2       2.1357      1.00000
      3       3.8207      1.00000
      4       4.2423      1.00000
      5       8.8283      0.00000
      6      10.3872      0.00000
      7      11.1827      0.00000
      8      14.3359      0.00000
      9      16.4730      0.00000
     10      17.8250      0.00000
     11      20.9914      0.00000
     12      22.0042      0.00000

 k-point  22 :       0.4375    0.4375    0.0625
  band No.  band energies     occupation 
      1      -3.9356      1.00000
      2       3.2707      1.00000
      3       4.2031      1.00000
      4       6.4446      1.00000
      5       6.7612      1.00000
      6      11.3450      0.00000
      7      12.7528      0.00000
      8      12.7670      0.00000
      9      16.2873      0.00000
     10      17.0792      0.00000
     11      20.9077      0.00000
     12      21.0135      0.00000

 k-point  23 :      -0.4375    0.4375    0.0625
  band No.  band energies     occupation 
      1      -3.7899      1.00000
      2       3.7108      1.00000
      3       3.8770      1.00000
      4       5.5655      1.00000
      5       7.4392      1.00000
      6      12.3247      0.00000
      7      12.5321      0.00000
      8      12.7212      0.00000
      9      15.6162      0.00000
     10      17.5933      0.00000
     11      20.7083      0.00000
     12      21.0097      0.00000

 k-point  24 :      -0.3125    0.4375    0.0625
  band No.  band energies     occupation 
      1      -3.2755      1.00000
      2       2.7129      1.00000
      3       3.6990      1.00000
      4       4.6192      1.00000
      5       8.2968      1.00000
      6      11.6390      0.00000
      7      12.6015      0.00000
      8      14.6155      0.00000
      9      15.2138      0.00000
     10      19.2968      0.00000
     11      20.7583      0.00000
     12      21.0158      0.00000

 k-point  25 :      -0.1875    0.4375    0.0625
  band No.  band energies     occupation 
      1      -2.6130      1.00000
      2       1.2240      1.00000
      3       3.5588      1.00000
      4       3.8066      1.00000
      5      10.0667      0.00000
      6      10.8087      0.00000
      7      12.0818      0.00000
      8      15.5864      0.00000
      9      16.9320      0.00000
     10      18.2780      0.00000
     11      20.9712      0.00000
     12      21.3779      0.00000

 k-point  26 :      -0.0625    0.4375    0.0625
  band No.  band energies     occupation 
      1      -2.3763      1.00000
      2       0.5798      1.00000
      3       3.3201      1.00000
      4       3.4997      1.00000
      5      10.2729      0.00000
      6      11.2952      0.00000
      7      12.0289      0.00000
      8      15.3770      0.00000
      9      16.9415      0.00000
     10      18.5582      0.00000
     11      20.9871      0.00000
     12      21.5723      0.00000

 k-point  27 :      -0.4375   -0.4375    0.0625
  band No.  band energies     occupation 
      1      -3.9916      1.00000
      2       3.8669      1.00000
      3       4.0471      1.00000
      4       6.6069      1.00000
      5       6.8777      1.00000
      6      11.5545      0.00000
      7      12.6614      0.00000
      8      12.7131      0.00000
      9      15.6970      0.00000
     10      16.8519      0.00000
     11      20.7115      0.00000
     12      21.0091      0.00000

 k-point  28 :      -0.3125   -0.4375    0.0625
  band No.  band energies     occupation 
      1      -3.7234      1.00000
      2       3.0949      1.00000
      3       3.9708      1.00000
      4       5.5115      1.00000
      5       7.3641      1.00000
      6      12.0574      0.00000
      7      12.6261      0.00000
      8      12.8256      0.00000
      9      16.3795      0.00000
     10      17.6097      0.00000
     11      20.6952      0.00000
     12      21.0119      0.00000

 k-point  29 :      -0.1875   -0.4375    0.0625
  band No.  band energies     occupation 
      1      -3.0964      1.00000
      2       1.7266      1.00000
      3       3.6499      1.00000
      4       4.3535      1.00000
      5       8.4380      0.95605
      6      11.7649      0.00000
      7      12.3418      0.00000
      8      14.6110      0.00000
      9      16.3920      0.00000
     10      19.1404      0.00000
     11      20.1508      0.00000
     12      21.0215      0.00000

 k-point  30 :      -0.3125   -0.3125    0.0625
  band No.  band energies     occupation 
      1      -3.9416      1.00000
      2       2.6283      1.00000
      3       4.4946      1.00000
      4       6.2168      1.00000
      5       6.5914      1.00000
      6      10.9909      0.00000
      7      12.6465      0.00000
      8      12.7342      0.00000
      9      15.6037      0.00000
     10      19.1512      0.00000
     11      20.9400      0.00000
     12      21.0310      0.00000

 k-point  31 :      -0.1875   -0.3125    0.0625
  band No.  band energies     occupation 
      1      -3.9402      1.00000
      2       2.3054      1.00000
      3       4.4061      1.00000
      4       5.2028      1.00000
      5       7.2992      1.00000
      6      11.0456      0.00000
      7      12.0403      0.00000
      8      12.7337      0.00000
      9      15.5418      0.00000
     10      19.6944      0.00000
     11      20.9757      0.00000
     12      21.5202      0.00000

 k-point  32 :      -0.1875   -0.1875    0.0625
  band No.  band energies     occupation 
      1      -4.6951      1.00000
      2       3.0171      1.00000
      3       5.3099      1.00000
      4       5.9952      1.00000
      5       6.6094      1.00000
      6      10.0379      0.00000
      7      11.2566      0.00000
      8      11.6324      0.00000
      9      14.0841      0.00000
     10      18.8492      0.00000
     11      21.0013      0.00000
     12      22.4704      0.00000

 k-point  33 :       0.1875    0.1875    0.1875
  band No.  band energies     occupation 
      1      -5.2565      1.00000
      2       4.5395      1.00000
      3       5.2994      1.00000
      4       5.2994      1.00000
      5       8.4235      1.02276
      6       8.4235      1.02276
      7       9.2906      0.00000
      8      12.9332      0.00000
      9      12.9332      0.00000
     10      16.7193      0.00000
     11      20.7807      0.00000
     12      21.0038      0.00000

 k-point  34 :       0.3125    0.1875    0.1875
  band No.  band energies     occupation 
      1      -4.5592      1.00000
      2       3.3592      1.00000
      3       4.3461      1.00000
      4       4.7053      1.00000
      5       8.3867      1.01791
      6       9.9263      0.00000
      7      10.4290      0.00000
      8      12.2921      0.00000
      9      15.6442      0.00000
     10      17.5313      0.00000
     11      20.9993      0.00000
     12      21.9016      0.00000

 k-point  35 :       0.4375    0.1875    0.1875
  band No.  band energies     occupation 
      1      -3.4330      1.00000
      2       1.8862      1.00000
      3       3.6943      1.00000
      4       3.9919      1.00000
      5       9.2689      0.00000
      6      10.9272      0.00000
      7      11.6689      0.00000
      8      13.2013      0.00000
      9      17.3348      0.00000
     10      18.0025      0.00000
     11      20.9932      0.00000
     12      22.1526      0.00000

 k-point  36 :      -0.4375    0.1875    0.1875
  band No.  band energies     occupation 
      1      -2.5077      1.00000
      2       0.9137      1.00000
      3       3.5502      1.00000
      4       3.5800      1.00000
      5      10.6566      0.00000
      6      10.8033      0.00000
      7      11.6279      0.00000
      8      15.3568      0.00000
      9      17.1930      0.00000
     10      18.2297      0.00000
     11      20.9888      0.00000
     12      21.6759      0.00000

 k-point  37 :      -0.3125    0.1875    0.1875
  band No.  band energies     occupation 
      1      -2.7207      1.00000
      2       1.1803      1.00000
      3       3.4898      1.00000
      4       3.9727      1.00000
      5       9.0923      0.00000
      6      11.6701      0.00000
      7      12.2839      0.00000
      8      16.0148      0.00000
      9      16.0259      0.00000
     10      18.5913      0.00000
     11      20.5288      0.00000
     12      21.0322      0.00000

 k-point  38 :      -0.1875    0.1875    0.1875
  band No.  band energies     occupation 
      1      -3.6996      1.00000
      2       2.0686      1.00000
      3       4.0189      1.00000
      4       4.9041      1.00000
      5       7.6450      1.00000
      6      11.1857      0.00000
      7      11.9529      0.00000
      8      13.6963      0.00000
      9      15.8481      0.00000
     10      19.2283      0.00000
     11      20.9457      0.00000
     12      21.2648      0.00000

 k-point  39 :       0.3125    0.3125    0.1875
  band No.  band energies     occupation 
      1      -4.1945      1.00000
      2       2.6050      1.00000
      3       4.2406      1.00000
      4       4.8800      1.00000
      5       7.8998      1.00000
      6      10.3237      0.00000
      7      10.9683      0.00000
      8      13.4837      0.00000
      9      15.4204      0.00000
     10      18.3700      0.00000
     11      20.9948      0.00000
     12      22.0514      0.00000

 k-point  40 :       0.4375    0.3125    0.1875
  band No.  band energies     occupation 
      1      -3.5035      1.00000
      2       1.9621      1.00000
      3       3.9753      1.00000
      4       4.2800      1.00000
      5       8.3924      1.02301
      6      11.4578      0.00000
      7      11.9635      0.00000
      8      13.1445      0.00000
      9      16.5048      0.00000
     10      19.0912      0.00000
     11      20.9714      0.00000
     12      21.4696      0.00000

 k-point  41 :      -0.4375    0.3125    0.1875
  band No.  band energies     occupation 
      1      -2.9249      1.00000
      2       1.7003      1.00000
      3       3.6690      1.00000
      4       3.9269      1.00000
      5       9.5255      0.00000
      6      11.1751      0.00000
      7      12.3029      0.00000
      8      13.8220      0.00000
      9      17.0902      0.00000
     10      19.2892      0.00000
     11      20.9479      0.00000
     12      21.2631      0.00000

 k-point  42 :      -0.3125    0.3125    0.1875
  band No.  band energies     occupation 
      1      -2.8815      1.00000
      2       1.8271      1.00000
      3       3.6028      1.00000
      4       4.0489      1.00000
      5       9.5723      0.00000
      6      10.7874      0.00000
      7      12.4265      0.00000
      8      15.3572      0.00000
      9      15.8219      0.00000
     10      19.2965      0.00000
     11      20.9282      0.00000
     12      21.1791      0.00000

 k-point  43 :      -0.1875    0.3125    0.1875
  band No.  band energies     occupation 
      1      -3.3173      1.00000
      2       2.1016      1.00000
      3       3.8432      1.00000
      4       4.4169      1.00000
      5       8.3475      1.00117
      6      11.8457      0.00000
      7      12.4135      0.00000
      8      13.2851      0.00000
      9      16.6384      0.00000
     10      19.4815      0.00000
     11      20.2507      0.00000
     12      21.0217      0.00000

 k-point  44 :       0.4375    0.4375    0.1875
  band No.  band energies     occupation 
      1      -3.4851      1.00000
      2       2.1824      1.00000
      3       3.8821      1.00000
      4       5.0522      1.00000
      5       7.5202      1.00000
      6      11.8150      0.00000
      7      12.4850      0.00000
      8      13.7153      0.00000
      9      16.2078      0.00000
     10      19.3256      0.00000
     11      19.9118      0.00000
     12      21.0154      0.00000

 k-point  45 :      -0.4375    0.4375    0.1875
  band No.  band energies     occupation 
      1      -3.3739      1.00000
      2       2.7381      1.00000
      3       3.7511      1.00000
      4       4.5342      1.00000
      5       8.3845      1.01603
      6      11.7792      0.00000
      7      12.6315      0.00000
      8      13.3546      0.00000
      9      16.2463      0.00000
     10      18.8984      0.00000
     11      20.6591      0.00000
     12      21.0181      0.00000

 k-point  46 :      -0.3125    0.4375    0.1875
  band No.  band energies     occupation 
      1      -3.1970      1.00000
      2       3.0250      1.00000
      3       3.6380      1.00000
      4       3.9331      1.00000
      5       9.6031      0.00000
      6      10.7751      0.00000
      7      12.6991      0.00000
      8      13.8067      0.00000
      9      15.1399      0.00000
     10      20.7477      0.00000
     11      21.0505      0.00000
     12      21.4587      0.00000

 k-point  47 :      -0.1875    0.4375    0.1875
  band No.  band energies     occupation 
      1      -3.0654      1.00000
      2       2.3412      1.00000
      3       3.6380      1.00000
      4       4.0666      1.00000
      5       9.5620      0.00000
      6      10.7790      0.00000
      7      12.6141      0.00000
      8      13.9961      0.00000
      9      15.9977      0.00000
     10      20.1578      0.00000
     11      20.9410      0.00000
     12      21.1704      0.00000

 k-point  48 :      -0.4375   -0.4375    0.1875
  band No.  band energies     occupation 
      1      -3.5918      1.00000
      2       3.2606      1.00000
      3       3.7988      1.00000
      4       5.3897      1.00000
      5       7.3986      1.00000
      6      12.1636      0.00000
      7      12.6553      0.00000
      8      13.6210      0.00000
      9      15.4365      0.00000
     10      18.1415      0.00000
     11      20.6437      0.00000
     12      21.0105      0.00000

 k-point  49 :      -0.3125   -0.4375    0.1875
  band No.  band energies     occupation 
      1      -3.4653      1.00000
      2       3.3973      1.00000
      3       3.7308      1.00000
      4       4.4510      1.00000
      5       8.4336      0.98391
      6      11.7508      0.00000
      7      12.6970      0.00000
      8      13.3334      0.00000
      9      15.3842      0.00000
     10      19.1171      0.00000
     11      20.9192      0.00000
     12      21.0165      0.00000

 k-point  50 :      -0.3125   -0.3125    0.1875
  band No.  band energies     occupation 
      1      -3.5146      1.00000
      2       2.7559      1.00000
      3       3.8034      1.00000
      4       5.2487      1.00000
      5       7.4648      1.00000
      6      12.1219      0.00000
      7      12.5800      0.00000
      8      13.6384      0.00000
      9      16.2621      0.00000
     10      18.0511      0.00000
     11      20.4063      0.00000
     12      21.0121      0.00000

 k-point  51 :       0.3125    0.3125    0.3125
  band No.  band energies     occupation 
      1      -3.8598      1.00000
      2       2.3057      1.00000
      3       3.9488      1.00000
      4       3.9488      1.00000
      5       9.7898      0.00000
      6       9.7898      0.00000
      7      10.1836      0.00000
      8      15.8563      0.00000
      9      15.8563      0.00000
     10      17.0297      0.00000
     11      20.9915      0.00000
     12      21.9067      0.00000

 k-point  52 :       0.4375    0.3125    0.3125
  band No.  band energies     occupation 
      1      -3.1982      1.00000
      2       1.5245      1.00000
      3       3.5493      1.00000
      4       3.8631      1.00000
      5       9.7281      0.00000
[...]
      5       7.8993      1.00000
      6      10.3231      0.00000
      7      10.9678      0.00000
      8      13.4839      0.00000
      9      15.4208      0.00000
     10      18.3701      0.00000
     11      20.9946      0.00000
     12      22.0506      0.00000

 k-point  40 :       0.4375    0.3125    0.1875
  band No.  band energies     occupation 
      1      -3.5030      1.00000
      2       1.9622      1.00000
      3       3.9753      1.00000
      4       4.2801      1.00000
      5       8.3920      1.02267
      6      11.4573      0.00000
      7      11.9629      0.00000
      8      13.1445      0.00000
      9      16.5051      0.00000
     10      19.0916      0.00000
     11      20.9714      0.00000
     12      21.4696      0.00000

 k-point  41 :      -0.4375    0.3125    0.1875
  band No.  band energies     occupation 
      1      -2.9243      1.00000
      2       1.7004      1.00000
      3       3.6690      1.00000
      4       3.9271      1.00000
      5       9.5250      0.00000
      6      11.1744      0.00000
      7      12.3022      0.00000
      8      13.8222      0.00000
      9      17.0905      0.00000
     10      19.2892      0.00000
     11      20.9481      0.00000
     12      21.2631      0.00000

 k-point  42 :      -0.3125    0.3125    0.1875
  band No.  band energies     occupation 
      1      -2.8809      1.00000
      2       1.8271      1.00000
      3       3.6029      1.00000
      4       4.0491      1.00000
      5       9.5718      0.00000
      6      10.7867      0.00000
      7      12.4256      0.00000
      8      15.3574      0.00000
      9      15.8222      0.00000
     10      19.2961      0.00000
     11      20.9285      0.00000
     12      21.1790      0.00000

 k-point  43 :      -0.1875    0.3125    0.1875
  band No.  band energies     occupation 
      1      -3.3168      1.00000
      2       2.1017      1.00000
      3       3.8431      1.00000
      4       4.4172      1.00000
      5       8.3473      1.00114
      6      11.8449      0.00000
      7      12.4127      0.00000
      8      13.2851      0.00000
      9      16.6387      0.00000
     10      19.4817      0.00000
     11      20.2509      0.00000
     12      21.0213      0.00000

 k-point  44 :       0.4375    0.4375    0.1875
  band No.  band energies     occupation 
      1      -3.4845      1.00000
      2       2.1825      1.00000
      3       3.8820      1.00000
      4       5.0525      1.00000
      5       7.5201      1.00000
      6      11.8143      0.00000
      7      12.4841      0.00000
      8      13.7154      0.00000
      9      16.2082      0.00000
     10      19.3258      0.00000
     11      19.9119      0.00000
     12      21.0151      0.00000

 k-point  45 :      -0.4375    0.4375    0.1875
  band No.  band energies     occupation 
      1      -3.3734      1.00000
      2       2.7382      1.00000
      3       3.7509      1.00000
      4       4.5345      1.00000
      5       8.3844      1.01599
      6      11.7784      0.00000
      7      12.6306      0.00000
      8      13.3547      0.00000
      9      16.2467      0.00000
     10      18.8985      0.00000
     11      20.6591      0.00000
     12      21.0178      0.00000

 k-point  46 :      -0.3125    0.4375    0.1875
  band No.  band energies     occupation 
      1      -3.1965      1.00000
      2       3.0251      1.00000
      3       3.6380      1.00000
      4       3.9333      1.00000
      5       9.6029      0.00000
      6      10.7747      0.00000
      7      12.6980      0.00000
      8      13.8066      0.00000
      9      15.1402      0.00000
     10      20.7482      0.00000
     11      21.0500      0.00000
     12      21.4583      0.00000

 k-point  47 :      -0.1875    0.4375    0.1875
  band No.  band energies     occupation 
      1      -3.0648      1.00000
      2       2.3413      1.00000
      3       3.6380      1.00000
      4       4.0668      1.00000
      5       9.5617      0.00000
      6      10.7784      0.00000
      7      12.6132      0.00000
      8      13.9962      0.00000
      9      15.9981      0.00000
     10      20.1575      0.00000
     11      20.9411      0.00000
     12      21.1703      0.00000

 k-point  48 :      -0.4375   -0.4375    0.1875
  band No.  band energies     occupation 
      1      -3.5913      1.00000
      2       3.2605      1.00000
      3       3.7990      1.00000
      4       5.3901      1.00000
      5       7.3986      1.00000
      6      12.1626      0.00000
      7      12.6545      0.00000
      8      13.6212      0.00000
      9      15.4366      0.00000
     10      18.1418      0.00000
     11      20.6433      0.00000
     12      21.0102      0.00000

 k-point  49 :      -0.3125   -0.4375    0.1875
  band No.  band energies     occupation 
      1      -3.4648      1.00000
      2       3.3973      1.00000
      3       3.7308      1.00000
      4       4.4513      1.00000
      5       8.4337      0.98361
      6      11.7501      0.00000
      7      12.6959      0.00000
      8      13.3334      0.00000
      9      15.3844      0.00000
     10      19.1175      0.00000
     11      20.9188      0.00000
     12      21.0161      0.00000

 k-point  50 :      -0.3125   -0.3125    0.1875
  band No.  band energies     occupation 
      1      -3.5140      1.00000
      2       2.7559      1.00000
      3       3.8033      1.00000
      4       5.2490      1.00000
      5       7.4647      1.00000
      6      12.1209      0.00000
      7      12.5791      0.00000
      8      13.6385      0.00000
      9      16.2625      0.00000
     10      18.0511      0.00000
     11      20.4062      0.00000
     12      21.0117      0.00000

 k-point  51 :       0.3125    0.3125    0.3125
  band No.  band energies     occupation 
      1      -3.8593      1.00000
      2       2.3058      1.00000
      3       3.9490      1.00000
      4       3.9490      1.00000
      5       9.7891      0.00000
      6       9.7891      0.00000
      7      10.1831      0.00000
      8      15.8568      0.00000
      9      15.8568      0.00000
     10      17.0295      0.00000
     11      20.9913      0.00000
     12      21.9059      0.00000

 k-point  52 :       0.4375    0.3125    0.3125
  band No.  band energies     occupation 
      1      -3.1977      1.00000
      2       1.5246      1.00000
      3       3.5494      1.00000
      4       3.8631      1.00000
      5       9.7274      0.00000
      6      10.4038      0.00000
      7      11.7097      0.00000
      8      14.7696      0.00000
      9      16.7771      0.00000
     10      18.0453      0.00000
     11      20.9919      0.00000
     12      22.2271      0.00000

 k-point  53 :      -0.4375    0.3125    0.3125
  band No.  band energies     occupation 
      1      -2.7216      1.00000
      2       1.2955      1.00000
      3       3.6573      1.00000
      4       3.6818      1.00000
      5      10.3030      0.00000
      6      10.9191      0.00000
      7      11.8322      0.00000
      8      13.9513      0.00000
      9      18.1550      0.00000
     10      18.2728      0.00000
     11      20.9893      0.00000
     12      21.4983      0.00000

 k-point  54 :      -0.3125    0.3125    0.3125
  band No.  band energies     occupation 
      1      -2.9810      1.00000
      2       2.0399      1.00000
      3       3.6401      1.00000
      4       4.2829      1.00000
      5       8.9176      0.00000
      6      11.3344      0.00000
      7      12.3962      0.00000
      8      14.7819      0.00000
      9      16.1979      0.00000
     10      19.5209      0.00000
     11      20.8096      0.00000
     12      21.0268      0.00000

 k-point  55 :       0.4375    0.4375    0.3125
  band No.  band energies     occupation 
      1      -2.8464      1.00000
      2       1.1135      1.00000
      3       3.4431      1.00000
      4       3.8443      1.00000
      5       9.2683      0.00000
      6      11.4119      0.00000
      7      12.0006      0.00000
      8      15.8282      0.00000
      9      16.0087      0.00000
     10      18.5376      0.00000
     11      20.9711      0.00000
     12      21.4270      0.00000

 k-point  56 :      -0.4375    0.4375    0.3125
  band No.  band energies     occupation 
      1      -2.7147      1.00000
      2       1.2886      1.00000
      3       3.5536      1.00000
      4       3.8674      1.00000
      5       9.6278      0.00000
      6      11.1647      0.00000
      7      12.1578      0.00000
      8      15.2238      0.00000
      9      16.7273      0.00000
     10      18.6316      0.00000
     11      20.9479      0.00000
     12      21.2555      0.00000

 k-point  57 :      -0.3125    0.4375    0.3125
  band No.  band energies     occupation 
      1      -3.0262      1.00000
      2       2.3078      1.00000
      3       3.6298      1.00000
      4       4.1130      1.00000
      5       9.5296      0.00000
      6      10.7170      0.00000
      7      12.5922      0.00000
      8      14.5117      0.00000
      9      15.5915      0.00000
     10      20.4503      0.00000
     11      20.9707      0.00000
     12      21.2462      0.00000

 k-point  58 :      -0.4375   -0.4375    0.3125
  band No.  band energies     occupation 
      1      -2.8495      1.00000
      2       1.6376      1.00000
      3       3.5862      1.00000
      4       4.1517      1.00000
      5       8.9960      0.00000
      6      11.5337      0.00000
      7      12.2004      0.00000
      8      15.8318      0.00000
      9      16.1123      0.00000
     10      18.5445      0.00000
     11      20.6248      0.00000
     12      21.0328      0.00000

 k-point  59 :       0.4375    0.4375    0.4375
  band No.  band energies     occupation 
      1      -2.2585      1.00000
      2       0.3803      1.00000
      3       3.2551      1.00000
      4       3.2551      1.00000
      5      11.1091      0.00000
      6      11.1091      0.00000
      7      11.7328      0.00000
      8      14.8068      0.00000
      9      18.1522      0.00000
     10      18.1522      0.00000
     11      20.9949      0.00000
     12      21.5397      0.00000

 k-point  60 :      -0.4375    0.4375    0.4375
  band No.  band energies     occupation 
      1      -2.1620      1.00000
      2       0.3848      1.00000
      3       3.3770      1.00000
      4       3.3821      1.00000
      5      10.7836      0.00000
      6      11.1356      0.00000
      7      11.9364      0.00000
      8      15.4004      0.00000
      9      17.4830      0.00000
     10      18.1700      0.00000
     11      20.9865      0.00000
     12      21.4139      0.00000


--------------------------------------------------------------------------------------------------------


 soft charge-density along one line, spin component           1
         0         1         2         3         4         5         6         7         8         9
 total charge-density along one line
 
 soft charge-density along one line, spin component           2
         0         1         2         3         4         5         6         7         8         9
 total charge-density along one line
 
 pseudopotential strength for first ion, spin component:           1
  9.504  -0.003   0.000   0.000   0.000   0.000   0.000   0.000
 -0.003  -0.002   0.000   0.000   0.000   0.000   0.000   0.000
  0.000   0.000  -3.716   0.000   0.000  -0.007   0.000   0.000
  0.000   0.000   0.000  -3.716   0.000   0.000  -0.007   0.000
  0.000   0.000   0.000   0.000  -3.716   0.000   0.000  -0.007
  0.000   0.000  -0.007   0.000   0.000  -0.758   0.000   0.000
  0.000   0.000   0.000  -0.007   0.000   0.000  -0.758   0.000
  0.000   0.000   0.000   0.000  -0.007   0.000   0.000  -0.758
 pseudopotential strength for first ion, spin component:           2
  9.504  -0.003   0.000   0.000   0.000   0.000   0.000   0.000
 -0.003  -0.002   0.000   0.000   0.000   0.000   0.000   0.000
  0.000   0.000  -3.716   0.000   0.000  -0.007   0.000   0.000
  0.000   0.000   0.000  -3.716   0.000   0.000  -0.007   0.000
  0.000   0.000   0.000   0.000  -3.716   0.000   0.000  -0.007
  0.000   0.000  -0.007   0.000   0.000  -0.758   0.000   0.000
  0.000   0.000   0.000  -0.007   0.000   0.000  -0.758   0.000
  0.000   0.000   0.000   0.000  -0.007   0.000   0.000  -0.758
 total augmentation occupancy for first ion, spin component:           1
  1.522  -0.828   0.000   0.000   0.000   0.000   0.000   0.000
 -0.828   0.515   0.000   0.000   0.000   0.000   0.000   0.000
  0.000   0.000   1.032   0.000   0.000   0.131   0.000   0.000
  0.000   0.000   0.000   1.032   0.000   0.000   0.131   0.000
  0.000   0.000   0.000   0.000   1.032   0.000   0.000   0.131
  0.000   0.000   0.131   0.000   0.000   0.018   0.000   0.000
  0.000   0.000   0.000   0.131   0.000   0.000   0.018   0.000
  0.000   0.000   0.000   0.000   0.131   0.000   0.000   0.018
 total augmentation occupancy for first ion, spin component:           2
  0.000   0.000   0.000   0.000   0.000   0.000   0.000   0.000
  0.000   0.000   0.000   0.000   0.000   0.000   0.000   0.000
  0.000   0.000   0.000   0.000   0.000   0.000   0.000   0.000
  0.000   0.000   0.000   0.000   0.000   0.000   0.000   0.000
  0.000   0.000   0.000   0.000   0.000   0.000   0.000   0.000
  0.000   0.000   0.000   0.000   0.000   0.000   0.000   0.000
  0.000   0.000   0.000   0.000   0.000   0.000   0.000   0.000
  0.000   0.000   0.000   0.000   0.000   0.000   0.000   0.000


------------------------ aborting loop because EDIFF is reached ----------------------------------------


 


 total charge     
 
# of ion     s       p       d       tot
----------------------------------------
  1        0.868   1.586   0.000   2.454
  2        0.594   1.005   3.560   5.160
------------------------------------------------
tot        1.463   2.591   3.560   7.613
 


 magnetization (x)
 
# of ion     s       p       d       tot
----------------------------------------
  1        0.000   0.000   0.000   0.000
  2        0.000   0.000   0.000   0.000
------------------------------------------------
tot        0.000   0.000   0.000   0.000
 
    CHARGE:  cpu time    0.50: real time    0.50
    FORLOC:  cpu time    0.01: real time    0.01
    FORNL :  cpu time    0.97: real time    0.97
    STRESS:  cpu time    1.82: real time    1.82
    FORCOR:  cpu time    0.42: real time    0.42
    FORHAR:  cpu time    0.05: real time    0.05
    MIXING:  cpu time    0.01: real time    0.01

  FORCE on cell =-STRESS in cart. coord.  units (eV):
  Direction    XX          YY          ZZ          XY          YZ          ZX
  --------------------------------------------------------------------------------------
  Alpha Z    53.45109    53.45109    53.45109
  Ewald    -124.74899  -124.74899  -124.74899     0.00000     0.00000     0.00000
  Hartree     7.46532     7.46532     7.46532     0.00000     0.00000     0.00000
  E(xc)     -37.91194   -37.91194   -37.91194     0.00000     0.00000     0.00000
  Local     -13.36031   -13.36031   -13.36031     0.00000     0.00000     0.00000
  n-local    -5.62012    -8.80345    -2.05826     0.78079    -0.83256    -0.01287
  augment     2.60465     2.60465     2.60465     0.00000     0.00000     0.00000
  Kinetic   121.63433   124.68492   109.55950     3.67767    -4.19875     0.00425
  Fock        0.00000     0.00000     0.00000     0.00000     0.00000     0.00000
  -------------------------------------------------------------------------------------
  Total       0.63212     0.63212     0.63212     0.00000     0.00000     0.00000
  in kB      45.81694    45.81694    45.81694     0.00000     0.00000     0.00000
  external pressure =       45.82 kB  Pullay stress =        0.00 kB


 VOLUME and BASIS-vectors are now :
 -----------------------------------------------------------------------------
  energy-cutoff  :      450.00
  volume of cell :       22.10
      direct lattice vectors                 reciprocal lattice vectors
     0.000000000  2.227500000  2.227500000    -0.224466891  0.224466891  0.224466891
     2.227500000  0.000000000  2.227500000     0.224466891 -0.224466891  0.224466891
     2.227500000  2.227500000  0.000000000     0.224466891  0.224466891 -0.224466891

  length of vectors
     3.150160710  3.150160710  3.150160710     0.388788060  0.388788060  0.388788060


 FORCES acting on ions
    electron-ion (+dipol)            ewald-force                    non-local-force                 convergence-correction
 -----------------------------------------------------------------------------------------------
   -.323E-13 -.207E-12 0.900E-13   0.131E-14 0.161E-14 0.132E-14   0.258E-25 0.129E-24 0.000E+00   -.218E-14 -.345E-14 -.454E-14
   -.288E-14 -.134E-14 -.144E-14   -.123E-14 -.131E-14 -.165E-14   -.491E-24 0.129E-24 0.414E-24   -.123E-15 0.717E-15 0.620E-15
 -----------------------------------------------------------------------------------------------
   -.351E-13 -.209E-12 0.885E-13   0.807E-16 0.301E-15 -.328E-15   -.465E-24 0.258E-24 0.414E-24   -.231E-14 -.273E-14 -.392E-14
 
 
 POSITION                                       TOTAL-FORCE (eV/Angst)
 -----------------------------------------------------------------------------------
      2.22750      2.22750      2.22750         0.000000      0.000000      0.000000
      0.00000      0.00000      0.00000         0.000000      0.000000      0.000000
 -----------------------------------------------------------------------------------
    total drift:                                0.000000      0.000000      0.000000


--------------------------------------------------------------------------------------------------------



  FREE ENERGIE OF THE ION-ELECTRON SYSTEM (eV)
  ---------------------------------------------------
  free  energy   TOTEN  =       -22.246498 eV

  energy  without entropy=      -22.246684  energy(sigma->0) =      -22.246560
 


--------------------------------------------------------------------------------------------------------


    POTLOK:  cpu time    0.52: real time    0.52


--------------------------------------------------------------------------------------------------------


 writing wavefunctions
     LOOP+:  cpu time  100.30: real time  100.70
    4ORBIT:  cpu time    0.00: real time    0.00
 


 total charge     
 
# of ion     s       p       d       tot
----------------------------------------
  1        0.868   1.586   0.000   2.454
  2        0.594   1.005   3.560   5.160
------------------------------------------------
tot        1.463   2.591   3.560   7.613
 


 magnetization (x)
 
# of ion     s       p       d       tot
----------------------------------------
  1        0.000   0.000   0.000   0.000
  2        0.000   0.000   0.000   0.000
------------------------------------------------
tot        0.000   0.000   0.000   0.000
 

 total amount of memory used by VASP on root node    65019. kBytes
========================================================================

   base      :      30000. kBytes
   nonl-proj :       8656. kBytes
   fftplans  :       3916. kBytes
   grid      :      10266. kBytes
   one-center:         62. kBytes
   wavefun   :      12119. kBytes
 
  
  
 General timing and accounting informations for this job:
 ========================================================
  
                  Total CPU time used (sec):      101.717
                            User time (sec):      101.398
                          System time (sec):        0.319
                         Elapsed time (sec):      102.254
  
                   Maximum memory used (kb):           0.
                   Average memory used (kb):           0.
  
                          Minor page faults:        20463
                          Major page faults:            0
                 Voluntary context switches:         6808
