PROCAR lm decomposed
# of k-points:   60         # of bands:  12         # of ions:   2

 k-point    1 :    0.06250000 0.06250000 0.06250000     weight = 0.00390625

band   1 # energy   -6.05452329 # occ.  1.00000000
 
ion      s     py     pz     px    dxy    dyz    dz2    dxz    dx2    tot
  1  0.316  0.000  0.000  0.000  0.000  0.000  0.000  0.000  0.000  0.317
  2  0.442  0.002  0.002  0.002  0.000  0.000  0.000  0.000  0.000  0.449
tot  0.758  0.003  0.003  0.003  0.000  0.000  0.000  0.000  0.000  0.765
 
band   2 # energy    6.70033225 # occ.  1.00000000
 
ion      s     py     pz     px    dxy    dyz    dz2    dxz    dx2    tot
  1  0.005  0.049  0.049  0.049  0.000  0.000  0.000  0.000  0.000  0.151
  2  0.004  0.012  0.012  0.012  0.219  0.219  0.000  0.219  0.000  0.698
tot  0.009  0.061  0.061  0.061  0.219  0.219  0.000  0.219  0.000  0.849
 
band   3 # energy    7.04567799 # occ.  1.00000000
 
ion      s     py     pz     px    dxy    dyz    dz2    dxz    dx2    tot
  1  0.000  0.051  0.019  0.105  0.000  0.000  0.000  0.000  0.000  0.175
  2  0.000  0.008  0.003  0.017  0.059  0.322  0.017  0.157  0.089  0.672
tot  0.000  0.059  0.022  0.121  0.059  0.322  0.017  0.157  0.089  0.847
 
band   4 # energy    7.04567799 # occ.  1.00000000
 
ion      s     py     pz     px    dxy    dyz    dz2    dxz    dx2    tot
  1  0.000  0.065  0.097  0.012  0.000  0.000  0.000  0.000  0.000  0.175
  2  0.000  0.010  0.016  0.002  0.300  0.037  0.089  0.201  0.017  0.672
tot  0.000  0.076  0.113  0.014  0.300  0.037  0.089  0.201  0.017  0.847
 
band   5 # energy    7.79687398 # occ.  1.00000000
 
ion      s     py     pz     px    dxy    dyz    dz2    dxz    dx2    tot
  1  0.000  0.058  0.022  0.120  0.000  0.000  0.000  0.000  0.000  0.200
  2  0.000  0.006  0.002  0.011  0.043  0.235  0.036  0.114  0.185  0.632
tot  0.000  0.064  0.024  0.131  0.043  0.235  0.036  0.114  0.185  0.833
 
band   6 # energy    7.79687398 # occ.  1.00000000
 
ion      s     py     pz     px    dxy    dyz    dz2    dxz    dx2    tot
  1  0.000  0.075  0.112  0.014  0.000  0.000  0.000  0.000  0.000  0.200
  2  0.000  0.007  0.011  0.001  0.218  0.027  0.185  0.147  0.036  0.632
tot  0.000  0.082  0.122  0.015  0.218  0.027  0.185  0.147  0.036  0.833
 
band   7 # energy    8.53373494 # occ. -0.03545788
 
ion      s     py     pz     px    dxy    dyz    dz2    dxz    dx2    tot
  1  0.013  0.122  0.122  0.122  0.000  0.000  0.000  0.000  0.000  0.379
  2  0.012  0.014  0.014  0.014  0.090  0.090  0.000  0.090  0.000  0.324
tot  0.025  0.136  0.136  0.136  0.090  0.090  0.000  0.090  0.000  0.703
 
band   8 # energy   10.12692100 # occ.  0.00000000
 
ion      s     py     pz     px    dxy    dyz    dz2    dxz    dx2    tot
  1  0.000  0.048  0.018  0.099  0.000  0.000  0.000  0.000  0.000  0.165
  2  0.000  0.011  0.004  0.022  0.001  0.003  0.106  0.002  0.548  0.696
tot  0.000  0.059  0.022  0.120  0.001  0.003  0.106  0.002  0.548  0.861
 
band   9 # energy   10.12692101 # occ.  0.00000000
 
ion      s     py     pz     px    dxy    dyz    dz2    dxz    dx2    tot
  1  0.000  0.062  0.092  0.011  0.000  0.000  0.000  0.000  0.000  0.165
  2  0.000  0.013  0.020  0.002  0.003  0.000  0.548  0.002  0.106  0.696
tot  0.000  0.075  0.112  0.014  0.003  0.000  0.548  0.002  0.106  0.861
 
band  10 # energy   15.45140710 # occ.  0.00000000
 
ion      s     py     pz     px    dxy    dyz    dz2    dxz    dx2    tot
  1  0.397  0.010  0.010  0.010  0.000  0.000  0.000  0.000  0.000  0.427
  2  0.267  0.003  0.003  0.003  0.000  0.000  0.000  0.000  0.000  0.276
tot  0.663  0.013  0.013  0.013  0.000  0.000  0.000  0.000  0.000  0.703
 
band  11 # energy   18.97268616 # occ.  0.00000000
 
ion      s     py     pz     px    dxy    dyz    dz2    dxz    dx2    tot
  1  0.000  0.000  0.000  0.000  0.000  0.000  0.000  0.000  0.000  0.000
  2  0.000  0.000  0.000  0.000  0.005  0.005  0.000  0.005  0.000  0.015
tot  0.000  0.000  0.000  0.000  0.005  0.005  0.000  0.005  0.000  0.015
 
band  12 # energy   21.00296192 # occ.  0.00000000
 
ion      s     py     pz     px    dxy    dyz    dz2    dxz    dx2    tot
  1  0.000  0.000  0.000  0.000  0.000  0.000  0.000  0.000  0.000  0.000
  2 43.972  0.000  0.000  0.000  0.000  0.000  0.000  0.000  0.000 43.972
tot 43.972  0.000  0.000  0.000  0.000  0.000  0.000  0.000  0.000 43.972
 

 k-point    2 :    0.18750000 0.06250000 0.06250000     weight = 0.01171875

band   1 # energy   -5.51805810 # occ.  1.00000000
 
ion      s     py     pz     px    dxy    dyz    dz2    dxz    dx2    tot
  1  0.323  0.002  0.002  0.000  0.000  0.000  0.000  0.000  0.000  0.327
  2  0.403  0.020  0.020  0.002  0.000  0.001  0.000  0.000  0.001  0.446
tot  0.726  0.022  0.022  0.002  0.000  0.001  0.000  0.000  0.001  0.774
 
band   2 # energy    5.14301715 # occ.  1.00000000
 
ion      s     py     pz     px    dxy    dyz    dz2    dxz    dx2    tot
  1  0.036  0.111  0.111  0.011  0.000  0.000  0.000  0.000  0.000  0.269
  2  0.035  0.021  0.021  0.008  0.055  0.225  0.028  0.055  0.085  0.534
tot  0.071  0.132  0.132  0.020  0.055  0.225  0.028  0.055  0.085  0.802
 
band   3 # energy    5.60307300 # occ.  1.00000000
 
ion      s     py     pz     px    dxy    dyz    dz2    dxz    dx2    tot
  1  0.000  0.148  0.148  0.000  0.000  0.000  0.000  0.000  0.000  0.297
  2  0.000  0.007  0.007  0.000  0.015  0.000  0.368  0.015  0.123  0.535
tot  0.000  0.155  0.155  0.000  0.015  0.000  0.368  0.015  0.123  0.832
 
band   4 # energy    5.76790316 # occ.  1.00000000
 
ion      s     py     pz     px    dxy    dyz    dz2    dxz    dx2    tot
  1  0.000  0.015  0.015  0.167  0.000  0.000  0.000  0.000  0.000  0.196
  2  0.001  0.001  0.001  0.055  0.229  0.028  0.025  0.229  0.075  0.643
tot  0.001  0.015  0.015  0.222  0.229  0.028  0.025  0.229  0.075  0.839
 
band   5 # energy    7.77101094 # occ.  1.00000000
 
ion      s     py     pz     px    dxy    dyz    dz2    dxz    dx2    tot
  1  0.000  0.003  0.003  0.000  0.000  0.000  0.000  0.000  0.000  0.007
  2  0.000  0.000  0.000  0.000  0.449  0.000  0.017  0.449  0.006  0.920
tot  0.000  0.003  0.003  0.000  0.449  0.000  0.017  0.449  0.006  0.927
 
band   6 # energy    8.69960446 # occ.  0.00000000
 
ion      s     py     pz     px    dxy    dyz    dz2    dxz    dx2    tot
  1  0.000  0.011  0.011  0.043  0.000  0.000  0.000  0.000  0.000  0.065
  2  0.001  0.001  0.001  0.001  0.045  0.492  0.063  0.045  0.189  0.840
tot  0.001  0.012  0.012  0.045  0.045  0.492  0.063  0.045  0.189  0.905
 
band   7 # energy    9.35090722 # occ.  0.00000000
 
ion      s     py     pz     px    dxy    dyz    dz2    dxz    dx2    tot
  1  0.025  0.027  0.027  0.234  0.000  0.000  0.000  0.000  0.000  0.313
  2  0.026  0.000  0.000  0.021  0.112  0.139  0.000  0.112  0.001  0.412
tot  0.051  0.027  0.027  0.255  0.112  0.139  0.000  0.112  0.001  0.724
 
band   8 # energy   11.24511263 # occ.  0.00000000
 
ion      s     py     pz     px    dxy    dyz    dz2    dxz    dx2    tot
  1  0.029  0.047  0.047  0.082  0.000  0.000  0.000  0.000  0.000  0.205
  2  0.023  0.010  0.010  0.018  0.005  0.040  0.128  0.005  0.385  0.624
tot  0.052  0.056  0.056  0.100  0.005  0.040  0.128  0.005  0.385  0.829
 
band   9 # energy   12.79450860 # occ.  0.00000000
 
ion      s     py     pz     px    dxy    dyz    dz2    dxz    dx2    tot
  1  0.000  0.125  0.125  0.000  0.000  0.000  0.000  0.000  0.000  0.251
  2  0.000  0.034  0.034  0.000  0.001  0.000  0.366  0.001  0.122  0.558
tot  0.000  0.160  0.160  0.000  0.001  0.000  0.366  0.001  0.122  0.809
 
band  10 # energy   16.44133103 # occ.  0.00000000
 
ion      s     py     pz     px    dxy    dyz    dz2    dxz    dx2    tot
  1  0.298  0.073  0.073  0.006  0.000  0.000  0.000  0.000  0.000  0.449
  2  0.191  0.027  0.027  0.003  0.000  0.004  0.001  0.000  0.004  0.258
tot  0.488  0.100  0.100  0.008  0.000  0.004  0.001  0.000  0.004  0.707
 
band  11 # energy   20.29030660 # occ.  0.00000000
 
ion      s     py     pz     px    dxy    dyz    dz2    dxz    dx2    tot
  1  0.000  0.000  0.000  0.000  0.000  0.000  0.000  0.000  0.000  0.001
  2  0.001  0.000  0.000  0.003  0.045  0.006  0.000  0.045  0.000  0.100
tot  0.001  0.000  0.000  0.003  0.045  0.006  0.000  0.045  0.000  0.100
 
band  12 # energy   21.00252800 # occ.  0.00000000
 
ion      s     py     pz     px    dxy    dyz    dz2    dxz    dx2    tot
  1  0.000  0.000  0.000  0.000  0.000  0.000  0.000  0.000  0.000  0.000
  2 43.940  0.000  0.000  0.000  0.000  0.000  0.000  0.000  0.000 43.940
tot 43.940  0.000  0.000  0.000  0.000  0.000  0.000  0.000  0.000 43.940
 

 k-point    3 :    0.31250000 0.06250000 0.06250000     weight = 0.01171875

band   1 # energy   -4.31279096 # occ.  1.00000000
 
ion      s     py     pz     px    dxy    dyz    dz2    dxz    dx2    tot
  1  0.342  0.005  0.005  0.003  0.000  0.000  0.000  0.000  0.000  0.354
  2  0.308  0.048  0.048  0.018  0.002  0.005  0.001  0.002  0.003  0.436
tot  0.650  0.053  0.053  0.020  0.002  0.005  0.001  0.002  0.003  0.790
 
band   2 # energy    2.94076632 # occ.  1.00000000
 
ion      s     py     pz     px    dxy    dyz    dz2    dxz    dx2    tot
  1  0.075  0.085  0.085  0.021  0.000  0.000  0.000  0.000  0.000  0.265
  2  0.092  0.020  0.020  0.026  0.084  0.154  0.017  0.084  0.051  0.549
tot  0.166  0.105  0.105  0.047  0.084  0.154  0.017  0.084  0.051  0.814
 
band   3 # energy    4.16089052 # occ.  1.00000000
 
ion      s     py     pz     px    dxy    dyz    dz2    dxz    dx2    tot
  1  0.000  0.137  0.137  0.000  0.000  0.000  0.000  0.000  0.000  0.274
  2  0.000  0.001  0.001  0.000  0.034  0.000  0.404  0.034  0.135  0.610
tot  0.000  0.138  0.138  0.000  0.034  0.000  0.404  0.034  0.135  0.884
 
band   4 # energy    4.46857567 # occ.  1.00000000
 
ion      s     py     pz     px    dxy    dyz    dz2    dxz    dx2    tot
  1  0.000  0.024  0.024  0.193  0.000  0.000  0.000  0.000  0.000  0.242
  2  0.000  0.000  0.000  0.052  0.111  0.035  0.079  0.111  0.237  0.625
tot  0.000  0.024  0.024  0.245  0.111  0.035  0.079  0.111  0.237  0.867
 
band   5 # energy    8.92812279 # occ.  0.00000000
 
ion      s     py     pz     px    dxy    dyz    dz2    dxz    dx2    tot
  1  0.000  0.007  0.007  0.000  0.000  0.000  0.000  0.000  0.000  0.014
  2  0.000  0.002  0.002  0.000  0.425  0.000  0.038  0.425  0.013  0.906
tot  0.000  0.009  0.009  0.000  0.425  0.000  0.038  0.425  0.013  0.920
 
band   6 # energy    9.51317378 # occ.  0.00000000
 
ion      s     py     pz     px    dxy    dyz    dz2    dxz    dx2    tot
  1  0.024  0.002  0.002  0.097  0.000  0.000  0.000  0.000  0.000  0.125
  2  0.027  0.001  0.001  0.000  0.207  0.115  0.038  0.207  0.115  0.711
tot  0.051  0.003  0.003  0.097  0.207  0.115  0.038  0.207  0.115  0.835
 
band   7 # energy   10.29764245 # occ.  0.00000000
 
ion      s     py     pz     px    dxy    dyz    dz2    dxz    dx2    tot
  1  0.031  0.031  0.031  0.029  0.000  0.000  0.000  0.000  0.000  0.122
  2  0.053  0.004  0.004  0.001  0.013  0.587  0.008  0.013  0.024  0.708
tot  0.084  0.035  0.035  0.030  0.013  0.587  0.008  0.013  0.024  0.830
 
band   8 # energy   13.98534117 # occ.  0.00000000
 
ion      s     py     pz     px    dxy    dyz    dz2    dxz    dx2    tot
  1  0.023  0.026  0.026  0.194  0.000  0.000  0.000  0.000  0.000  0.268
  2  0.017  0.007  0.007  0.058  0.010  0.021  0.107  0.010  0.320  0.556
tot  0.040  0.033  0.033  0.252  0.010  0.021  0.107  0.010  0.320  0.825
 
band   9 # energy   15.72526000 # occ.  0.00000000
 
ion      s     py     pz     px    dxy    dyz    dz2    dxz    dx2    tot
  1  0.000  0.149  0.149  0.000  0.000  0.000  0.000  0.000  0.000  0.299
  2  0.000  0.035  0.035  0.000  0.003  0.000  0.344  0.003  0.115  0.536
tot  0.000  0.185  0.185  0.000  0.003  0.000  0.344  0.003  0.115  0.834
 
band  10 # energy   17.38426387 # occ.  0.00000000
 
ion      s     py     pz     px    dxy    dyz    dz2    dxz    dx2    tot
  1  0.154  0.105  0.105  0.018  0.000  0.000  0.000  0.000  0.000  0.383
  2  0.051  0.087  0.087  0.025  0.014  0.026  0.002  0.014  0.007  0.315
tot  0.205  0.193  0.193  0.043  0.014  0.026  0.002  0.014  0.007  0.698
 
band  11 # energy   20.99516979 # occ.  0.00000000
 
ion      s     py     pz     px    dxy    dyz    dz2    dxz    dx2    tot
  1  0.000  0.000  0.000  0.000  0.000  0.000  0.000  0.000  0.000  0.000
  2 43.201  0.000  0.000  0.000  0.001  0.000  0.000  0.001  0.000 43.204
tot 43.202  0.001  0.001  0.000  0.001  0.000  0.000  0.001  0.000 43.205
 
band  12 # energy   21.81578095 # occ.  0.00000000
 
ion      s     py     pz     px    dxy    dyz    dz2    dxz    dx2    tot
  1  0.021  0.019  0.019  0.005  0.000  0.000  0.000  0.000  0.000  0.064
  2  0.801  0.011  0.011  0.023  0.100  0.048  0.001  0.100  0.002  1.097
tot  0.822  0.030  0.030  0.028  0.100  0.048  0.001  0.100  0.002  1.162
 

 k-point    4 :    0.43750000 0.06250000 0.06250000     weight = 0.01171875

band   1 # energy   -2.76848588 # occ.  1.00000000
 
ion      s     py     pz     px    dxy    dyz    dz2    dxz    dx2    tot
  1  0.388  0.006  0.006  0.007  0.000  0.000  0.000  0.000  0.000  0.405
  2  0.156  0.079  0.079  0.044  0.007  0.009  0.003  0.007  0.010  0.396
tot  0.543  0.085  0.085  0.051  0.007  0.009  0.003  0.007  0.010  0.801
 
band   2 # energy    0.96825530 # occ.  1.00000000
 
ion      s     py     pz     px    dxy    dyz    dz2    dxz    dx2    tot
  1  0.078  0.065  0.065  0.033  0.000  0.000  0.000  0.000  0.000  0.241
  2  0.200  0.013  0.013  0.035  0.090  0.120  0.007  0.090  0.020  0.590
tot  0.278  0.078  0.078  0.068  0.090  0.120  0.007  0.090  0.020  0.830
 
band   3 # energy    3.36791571 # occ.  1.00000000
 
ion      s     py     pz     px    dxy    dyz    dz2    dxz    dx2    tot
  1  0.000  0.133  0.133  0.000  0.000  0.000  0.000  0.000  0.000  0.266
  2  0.000  0.000  0.000  0.000  0.046  0.000  0.417  0.046  0.139  0.648
tot  0.000  0.133  0.133  0.000  0.046  0.000  0.417  0.046  0.139  0.914
 
band   4 # energy    3.53833362 # occ.  1.00000000
 
ion      s     py     pz     px    dxy    dyz    dz2    dxz    dx2    tot
  1  0.002  0.034  0.034  0.188  0.000  0.000  0.000  0.000  0.000  0.256
  2  0.000  0.002  0.002  0.035  0.051  0.056  0.112  0.051  0.337  0.646
tot  0.002  0.035  0.035  0.222  0.051  0.056  0.112  0.051  0.337  0.902
 
band   5 # energy   10.44648791 # occ.  0.00000000
 
ion      s     py     pz     px    dxy    dyz    dz2    dxz    dx2    tot
  1  0.000  0.011  0.011  0.000  0.000  0.000  0.000  0.000  0.000  0.023
  2  0.000  0.003  0.003  0.000  0.424  0.000  0.047  0.424  0.016  0.916
tot  0.000  0.014  0.014  0.000  0.424  0.000  0.047  0.424  0.016  0.939
 
band   6 # energy   10.64492976 # occ.  0.00000000
 
ion      s     py     pz     px    dxy    dyz    dz2    dxz    dx2    tot
  1  0.024  0.002  0.002  0.070  0.000  0.000  0.000  0.000  0.000  0.098
  2  0.040  0.001  0.001  0.008  0.250  0.106  0.024  0.250  0.072  0.751
tot  0.065  0.003  0.003  0.078  0.250  0.106  0.024  0.250  0.072  0.849
 
band   7 # energy   11.59858296 # occ.  0.00000000
 
ion      s     py     pz     px    dxy    dyz    dz2    dxz    dx2    tot
  1  0.014  0.038  0.038  0.012  0.000  0.000  0.000  0.000  0.000  0.103
  2  0.072  0.006  0.006  0.001  0.010  0.663  0.007  0.010  0.020  0.793
tot  0.086  0.045  0.045  0.013  0.010  0.663  0.007  0.010  0.020  0.896
 
band   8 # energy   15.69097246 # occ.  0.00000000
 
ion      s     py     pz     px    dxy    dyz    dz2    dxz    dx2    tot
  1  0.088  0.016  0.016  0.058  0.000  0.000  0.000  0.000  0.000  0.178
  2  0.001  0.089  0.089  0.098  0.061  0.006  0.007  0.061  0.021  0.433
tot  0.088  0.105  0.105  0.156  0.061  0.006  0.007  0.061  0.021  0.611
 
band   9 # energy   16.76647866 # occ.  0.00000000
 
ion      s     py     pz     px    dxy    dyz    dz2    dxz    dx2    tot
  1  0.000  0.049  0.049  0.175  0.000  0.000  0.000  0.000  0.000  0.273
  2  0.009  0.043  0.043  0.035  0.000  0.016  0.106  0.000  0.318  0.570
tot  0.009  0.092  0.092  0.210  0.000  0.016  0.106  0.000  0.318  0.842
 
band  10 # energy   18.10994576 # occ.  0.00000000
 
ion      s     py     pz     px    dxy    dyz    dz2    dxz    dx2    tot
  1  0.000  0.173  0.173  0.000  0.000  0.000  0.000  0.000  0.000  0.346
  2  0.000  0.012  0.012  0.000  0.003  0.000  0.396  0.003  0.132  0.556
tot  0.000  0.185  0.185  0.000  0.003  0.000  0.396  0.003  0.132  0.902
 
band  11 # energy   20.99290920 # occ.  0.00000000
 
ion      s     py     pz     px    dxy    dyz    dz2    dxz    dx2    tot
  1  0.000  0.001  0.001  0.000  0.000  0.000  0.000  0.000  0.000  0.003
  2 43.102  0.000  0.000  0.000  0.000  0.000  0.000  0.000  0.000 43.103
tot 43.102  0.001  0.001  0.000  0.000  0.000  0.000  0.000  0.000 43.106
 
band  12 # energy   22.13879157 # occ.  0.00000000
 
ion      s     py     pz     px    dxy    dyz    dz2    dxz    dx2    tot
  1  0.001  0.044  0.044  0.001  0.000  0.000  0.000  0.000  0.000  0.091
  2  0.280  0.053  0.053  0.195  0.009  0.009  0.020  0.009  0.059  0.685
tot  0.282  0.097  0.097  0.196  0.009  0.009  0.020  0.009  0.059  0.777
 

 k-point    5 :   -0.43750000 0.06250000 0.06250000     weight = 0.01171875

band   1 # energy   -1.96940718 # occ.  1.00000000
 
ion      s     py     pz     px    dxy    dyz    dz2    dxz    dx2    tot
  1  0.470  0.002  0.002  0.000  0.000  0.000  0.000  0.000  0.000  0.473
  2  0.014  0.090  0.090  0.096  0.001  0.002  0.008  0.001  0.023  0.324
tot  0.484  0.091  0.091  0.096  0.001  0.002  0.008  0.001  0.023  0.797
 
band   2 # energy    0.08894216 # occ.  1.00000000
 
ion      s     py     pz     px    dxy    dyz    dz2    dxz    dx2    tot
  1  0.010  0.055  0.055  0.061  0.000  0.000  0.000  0.000  0.000  0.181
  2  0.326  0.007  0.007  0.001  0.105  0.108  0.000  0.105  0.001  0.661
tot  0.336  0.063  0.063  0.061  0.105  0.108  0.000  0.105  0.001  0.843
 
band   3 # energy    3.21302562 # occ.  1.00000000
 
ion      s     py     pz     px    dxy    dyz    dz2    dxz    dx2    tot
  1  0.002  0.044  0.044  0.171  0.000  0.000  0.000  0.000  0.000  0.261
  2  0.000  0.005  0.005  0.018  0.018  0.085  0.126  0.018  0.379  0.654
tot  0.002  0.049  0.049  0.188  0.018  0.085  0.126  0.018  0.379  0.915
 
band   4 # energy    3.25979769 # occ.  1.00000000
 
ion      s     py     pz     px    dxy    dyz    dz2    dxz    dx2    tot
  1  0.000  0.132  0.132  0.000  0.000  0.000  0.000  0.000  0.000  0.263
  2  0.000  0.003  0.003  0.000  0.056  0.000  0.403  0.056  0.134  0.655
tot  0.000  0.134  0.134  0.000  0.056  0.000  0.403  0.056  0.134  0.918
 
band   5 # energy   10.96577669 # occ.  0.00000000
 
ion      s     py     pz     px    dxy    dyz    dz2    dxz    dx2    tot
  1  0.009  0.015  0.015  0.012  0.000  0.000  0.000  0.000  0.000  0.050
  2  0.006  0.004  0.004  0.000  0.074  0.627  0.021  0.074  0.062  0.870
tot  0.015  0.019  0.019  0.012  0.074  0.627  0.021  0.074  0.062  0.921
 
band   6 # energy   11.37722244 # occ.  0.00000000
 
ion      s     py     pz     px    dxy    dyz    dz2    dxz    dx2    tot
  1  0.000  0.015  0.015  0.000  0.000  0.000  0.000  0.000  0.000  0.030
  2  0.000  0.000  0.000  0.000  0.432  0.000  0.061  0.432  0.020  0.945
tot  0.000  0.015  0.015  0.000  0.432  0.000  0.061  0.432  0.020  0.976
 
band   7 # energy   12.22381249 # occ.  0.00000000
 
ion      s     py     pz     px    dxy    dyz    dz2    dxz    dx2    tot
  1  0.001  0.046  0.046  0.065  0.000  0.000  0.000  0.000  0.000  0.158
  2  0.127  0.001  0.001  0.000  0.281  0.072  0.001  0.281  0.003  0.768
tot  0.129  0.047  0.047  0.065  0.281  0.072  0.001  0.281  0.003  0.926
 
band   8 # energy   14.50447710 # occ.  0.00000000
 
ion      s     py     pz     px    dxy    dyz    dz2    dxz    dx2    tot
  1  0.093  0.003  0.003  0.001  0.000  0.000  0.000  0.000  0.000  0.099
  2  0.001  0.097  0.097  0.116  0.001  0.066  0.001  0.001  0.002  0.381
tot  0.094  0.099  0.099  0.117  0.001  0.066  0.001  0.001  0.002  0.481
 
band   9 # energy   18.14561335 # occ.  0.00000000
 
ion      s     py     pz     px    dxy    dyz    dz2    dxz    dx2    tot
  1  0.000  0.155  0.155  0.000  0.000  0.000  0.000  0.000  0.000  0.310
  2  0.000  0.030  0.030  0.000  0.003  0.000  0.397  0.003  0.132  0.593
tot  0.000  0.185  0.185  0.000  0.003  0.000  0.397  0.003  0.132  0.903
 
band  10 # energy   18.50940394 # occ.  0.00000000
 
ion      s     py     pz     px    dxy    dyz    dz2    dxz    dx2    tot
  1  0.003  0.050  0.050  0.232  0.000  0.000  0.000  0.000  0.000  0.334
  2  0.000  0.005  0.005  0.005  0.001  0.000  0.142  0.001  0.425  0.583
tot  0.003  0.054  0.054  0.238  0.001  0.000  0.142  0.001  0.425  0.917
 
band  11 # energy   20.98719565 # occ.  0.00000000
 
ion      s     py     pz     px    dxy    dyz    dz2    dxz    dx2    tot
  1  0.000  0.003  0.003  0.000  0.000  0.000  0.000  0.000  0.000  0.007
  2 40.947  0.003  0.003  0.012  0.000  0.000  0.000  0.000  0.000 40.966
tot 40.947  0.006  0.006  0.013  0.000  0.000  0.000  0.000  0.000 40.972
 
band  12 # energy   21.17383921 # occ.  0.00000000
 
ion      s     py     pz     px    dxy    dyz    dz2    dxz    dx2    tot
  1  0.001  0.021  0.021  0.000  0.000  0.000  0.000  0.000  0.000  0.043
  2  2.479  0.074  0.074  0.278  0.000  0.015  0.001  0.000  0.002  2.925
tot  2.479  0.096  0.096  0.279  0.000  0.015  0.001  0.000  0.002  2.968
 

 k-point    6 :   -0.31250000 0.06250000 0.06250000     weight = 0.01171875

band   1 # energy   -3.30247934 # occ.  1.00000000
 
ion      s     py     pz     px    dxy    dyz    dz2    dxz    dx2    tot
  1  0.366  0.006  0.006  0.006  0.000  0.000  0.000  0.000  0.000  0.383
  2  0.215  0.045  0.045  0.079  0.007  0.006  0.003  0.007  0.009  0.416
tot  0.580  0.051  0.051  0.085  0.007  0.006  0.003  0.007  0.009  0.800
 
band   2 # energy    1.58768575 # occ.  1.00000000
 
ion      s     py     pz     px    dxy    dyz    dz2    dxz    dx2    tot
  1  0.084  0.039  0.039  0.092  0.000  0.000  0.000  0.000  0.000  0.253
  2  0.153  0.031  0.031  0.008  0.110  0.086  0.011  0.110  0.033  0.572
tot  0.237  0.070  0.070  0.101  0.110  0.086  0.011  0.110  0.033  0.826
 
band   3 # energy    3.56467294 # occ.  1.00000000
 
ion      s     py     pz     px    dxy    dyz    dz2    dxz    dx2    tot
  1  0.003  0.057  0.057  0.142  0.000  0.000  0.000  0.000  0.000  0.260
  2  0.000  0.011  0.011  0.006  0.001  0.127  0.121  0.001  0.362  0.640
tot  0.003  0.068  0.068  0.149  0.001  0.127  0.121  0.001  0.362  0.900
 
band   4 # energy    3.83011692 # occ.  1.00000000
 
ion      s     py     pz     px    dxy    dyz    dz2    dxz    dx2    tot
  1  0.000  0.132  0.132  0.000  0.000  0.000  0.000  0.000  0.000  0.264
  2  0.000  0.009  0.009  0.000  0.068  0.000  0.359  0.068  0.120  0.633
tot  0.000  0.141  0.141  0.000  0.068  0.000  0.359  0.068  0.120  0.896
 
band   5 # energy    9.55246188 # occ.  0.00000000
 
ion      s     py     pz     px    dxy    dyz    dz2    dxz    dx2    tot
  1  0.016  0.027  0.027  0.002  0.000  0.000  0.000  0.000  0.000  0.073
  2  0.023  0.002  0.002  0.001  0.026  0.643  0.017  0.026  0.051  0.790
tot  0.039  0.029  0.029  0.003  0.026  0.643  0.017  0.026  0.051  0.863
 
band   6 # energy   10.70981175 # occ.  0.00000000
 
ion      s     py     pz     px    dxy    dyz    dz2    dxz    dx2    tot
  1  0.000  0.013  0.013  0.000  0.000  0.000  0.000  0.000  0.000  0.026
  2  0.000  0.004  0.004  0.000  0.394  0.000  0.095  0.394  0.032  0.923
tot  0.000  0.017  0.017  0.000  0.394  0.000  0.095  0.394  0.032  0.949
 
band   7 # energy   11.06520239 # occ.  0.00000000
 
ion      s     py     pz     px    dxy    dyz    dz2    dxz    dx2    tot
  1  0.032  0.029  0.029  0.036  0.000  0.000  0.000  0.000  0.000  0.126
  2  0.081  0.002  0.002  0.011  0.299  0.000  0.001  0.299  0.003  0.699
tot  0.113  0.031  0.031  0.047  0.299  0.000  0.001  0.299  0.003  0.825
 
band   8 # energy   15.97212212 # occ.  0.00000000
 
ion      s     py     pz     px    dxy    dyz    dz2    dxz    dx2    tot
  1  0.000  0.145  0.145  0.000  0.000  0.000  0.000  0.000  0.000  0.289
  2  0.000  0.048  0.048  0.000  0.016  0.000  0.331  0.016  0.110  0.569
tot  0.000  0.193  0.193  0.000  0.016  0.000  0.331  0.016  0.110  0.859
 
band   9 # energy   16.30233488 # occ.  0.00000000
 
ion      s     py     pz     px    dxy    dyz    dz2    dxz    dx2    tot
  1  0.101  0.070  0.070  0.004  0.000  0.000  0.000  0.000  0.000  0.245
  2  0.003  0.088  0.088  0.060  0.024  0.054  0.022  0.024  0.066  0.431
tot  0.104  0.158  0.158  0.064  0.024  0.054  0.022  0.024  0.066  0.676
 
band  10 # energy   17.55520227 # occ.  0.00000000
 
ion      s     py     pz     px    dxy    dyz    dz2    dxz    dx2    tot
  1  0.001  0.026  0.026  0.251  0.000  0.000  0.000  0.000  0.000  0.305
  2  0.004  0.001  0.001  0.094  0.011  0.001  0.099  0.011  0.297  0.520
tot  0.005  0.028  0.028  0.345  0.011  0.001  0.099  0.011  0.297  0.824
 
band  11 # energy   20.99096753 # occ.  0.00000000
 
ion      s     py     pz     px    dxy    dyz    dz2    dxz    dx2    tot
  1  0.000  0.001  0.001  0.002  0.000  0.000  0.000  0.000  0.000  0.003
  2 42.871  0.000  0.000  0.000  0.000  0.000  0.000  0.000  0.000 42.873
tot 42.872  0.001  0.001  0.002  0.000  0.000  0.000  0.000  0.000 42.876
 
band  12 # energy   22.11648998 # occ.  0.00000000
 
ion      s     py     pz     px    dxy    dyz    dz2    dxz    dx2    tot
  1  0.033  0.054  0.054  0.124  0.000  0.000  0.000  0.000  0.000  0.265
  2  1.432  0.000  0.000  0.030  0.042  0.040  0.006  0.042  0.017  1.610
tot  1.465  0.054  0.054  0.154  0.042  0.040  0.006  0.042  0.017  1.874
 

 k-point    7 :   -0.18750000 0.06250000 0.06250000     weight = 0.01171875

band   1 # energy   -4.77862852 # occ.  1.00000000
 
ion      s     py     pz     px    dxy    dyz    dz2    dxz    dx2    tot
  1  0.334  0.002  0.002  0.004  0.000  0.000  0.000  0.000  0.000  0.343
  2  0.345  0.018  0.018  0.050  0.002  0.001  0.001  0.002  0.003  0.441
tot  0.680  0.021  0.021  0.054  0.002  0.001  0.001  0.002  0.003  0.785
 
band   2 # energy    3.59054016 # occ.  1.00000000
 
ion      s     py     pz     px    dxy    dyz    dz2    dxz    dx2    tot
  1  0.057  0.022  0.022  0.169  0.000  0.000  0.000  0.000  0.000  0.270
  2  0.066  0.019  0.019  0.011  0.111  0.055  0.039  0.111  0.118  0.549
tot  0.124  0.040  0.040  0.181  0.111  0.055  0.039  0.111  0.118  0.818
 
band   3 # energy    4.62306821 # occ.  1.00000000
 
ion      s     py     pz     px    dxy    dyz    dz2    dxz    dx2    tot
  1  0.003  0.078  0.078  0.085  0.000  0.000  0.000  0.000  0.000  0.244
  2  0.001  0.020  0.020  0.001  0.013  0.206  0.085  0.013  0.254  0.615
tot  0.005  0.098  0.098  0.086  0.013  0.206  0.085  0.013  0.254  0.859
 
band   4 # energy    5.01627018 # occ.  1.00000000
 
ion      s     py     pz     px    dxy    dyz    dz2    dxz    dx2    tot
  1  0.000  0.133  0.133  0.000  0.000  0.000  0.000  0.000  0.000  0.266
  2  0.000  0.018  0.018  0.000  0.097  0.000  0.269  0.097  0.090  0.588
tot  0.000  0.151  0.151  0.000  0.097  0.000  0.269  0.097  0.090  0.854
 
band   5 # energy    8.22519319 # occ.  1.00000000
 
ion      s     py     pz     px    dxy    dyz    dz2    dxz    dx2    tot
  1  0.008  0.026  0.026  0.002  0.000  0.000  0.000  0.000  0.000  0.061
  2  0.007  0.000  0.000  0.003  0.066  0.614  0.016  0.066  0.047  0.820
tot  0.015  0.026  0.026  0.005  0.066  0.614  0.016  0.066  0.047  0.881
 
band   6 # energy    9.35126117 # occ.  0.00000000
 
ion      s     py     pz     px    dxy    dyz    dz2    dxz    dx2    tot
  1  0.000  0.014  0.014  0.000  0.000  0.000  0.000  0.000  0.000  0.028
  2  0.000  0.003  0.003  0.000  0.344  0.000  0.153  0.344  0.051  0.897
tot  0.000  0.017  0.017  0.000  0.344  0.000  0.153  0.344  0.051  0.925
 
band   7 # energy    9.91710894 # occ.  0.00000000
 
ion      s     py     pz     px    dxy    dyz    dz2    dxz    dx2    tot
  1  0.047  0.060  0.060  0.026  0.000  0.000  0.000  0.000  0.000  0.194
  2  0.062  0.000  0.000  0.001  0.253  0.008  0.000  0.253  0.000  0.578
tot  0.109  0.061  0.061  0.027  0.253  0.008  0.000  0.253  0.000  0.772
 
band   8 # energy   13.18587926 # occ.  0.00000000
 
ion      s     py     pz     px    dxy    dyz    dz2    dxz    dx2    tot
  1  0.000  0.131  0.131  0.000  0.000  0.000  0.000  0.000  0.000  0.262
  2  0.000  0.035  0.035  0.000  0.025  0.000  0.328  0.025  0.109  0.556
tot  0.000  0.166  0.166  0.000  0.025  0.000  0.328  0.025  0.109  0.819
 
band   9 # energy   14.50495532 # occ.  0.00000000
 
ion      s     py     pz     px    dxy    dyz    dz2    dxz    dx2    tot
  1  0.041  0.065  0.065  0.110  0.000  0.000  0.000  0.000  0.000  0.280
  2  0.026  0.019  0.019  0.027  0.000  0.006  0.108  0.000  0.325  0.531
tot  0.067  0.084  0.084  0.136  0.000  0.006  0.108  0.000  0.325  0.811
 
band  10 # energy   17.38032257 # occ.  0.00000000
 
ion      s     py     pz     px    dxy    dyz    dz2    dxz    dx2    tot
  1  0.186  0.027  0.027  0.192  0.000  0.000  0.000  0.000  0.000  0.433
  2  0.094  0.024  0.024  0.086  0.010  0.004  0.008  0.010  0.023  0.283
tot  0.280  0.051  0.051  0.278  0.010  0.004  0.008  0.010  0.023  0.716
 
band  11 # energy   20.99853808 # occ.  0.00000000
 
ion      s     py     pz     px    dxy    dyz    dz2    dxz    dx2    tot
  1  0.000  0.000  0.000  0.000  0.000  0.000  0.000  0.000  0.000  0.000
  2 43.464  0.000  0.000  0.000  0.000  0.001  0.000  0.000  0.000 43.466
tot 43.464  0.000  0.000  0.000  0.000  0.001  0.000  0.000  0.000 43.466
 
band  12 # energy   21.53834563 # occ.  0.00000000
 
ion      s     py     pz     px    dxy    dyz    dz2    dxz    dx2    tot
  1  0.008  0.001  0.001  0.005  0.000  0.000  0.000  0.000  0.000  0.015