<?xml version="1.0" encoding="ISO-8859-1"?>
<modeling>
 <generator>
  <i name="program" type="string">vasp </i>
  <i name="version" type="string">5.2.12  </i>
  <i name="subversion" type="string">11Nov11 complex                                                      parallel </i>
  <i name="platform" type="string">LinuxIFC </i>
  <i name="date" type="string">2012 10 17 </i>
  <i name="time" type="string">12:38:11 </i>
 </generator>
 <incar>
  <i type="int" name="ISTART">     0</i>
  <i type="string" name="PREC">accurate</i>
  <i type="int" name="ISPIN">     2</i>
  <i name="ENCUT">    450.00000000</i>
  <i type="int" name="NBANDS">    12</i>
  <v name="MAGMOM">      2.00000000      6.00000000</v>
  <i type="logical" name="LREAL"> F  </i>
  <i type="int" name="ISMEAR">     1</i>
  <i name="SIGMA">      0.05000000</i>
  <i type="logical" name="LORBIT"> F  </i>
 </incar>
 <kpoints>
  <generation param="Monkhorst-Pack">
   <v type="int" name="divisions">       8        8        8 </v>
   <v name="usershift">      0.00000000       0.00000000       0.00000000 </v>
   <v name="genvec1">      0.12500000       0.00000000       0.00000000 </v>
   <v name="genvec2">      0.00000000       0.12500000       0.00000000 </v>
   <v name="genvec3">      0.00000000       0.00000000       0.12500000 </v>
   <v name="shift">      0.50000000       0.50000000       0.50000000 </v>
  </generation>
  <varray name="kpointlist" >
   <v>       0.06250000       0.06250000       0.06250000 </v>
   <v>       0.18750000       0.06250000       0.06250000 </v>
   <v>       0.31250000       0.06250000       0.06250000 </v>
   <v>       0.43750000       0.06250000       0.06250000 </v>
   <v>      -0.43750000       0.06250000       0.06250000 </v>
   <v>      -0.31250000       0.06250000       0.06250000 </v>
   <v>      -0.18750000       0.06250000       0.06250000 </v>
   <v>      -0.06250000       0.06250000       0.06250000 </v>
   <v>       0.18750000       0.18750000       0.06250000 </v>
   <v>       0.31250000       0.18750000       0.06250000 </v>
   <v>       0.43750000       0.18750000       0.06250000 </v>
   <v>      -0.43750000       0.18750000       0.06250000 </v>
   <v>      -0.31250000       0.18750000       0.06250000 </v>
   <v>      -0.18750000       0.18750000       0.06250000 </v>
   <v>      -0.06250000       0.18750000       0.06250000 </v>
   <v>       0.31250000       0.31250000       0.06250000 </v>
   <v>       0.43750000       0.31250000       0.06250000 </v>
   <v>      -0.43750000       0.31250000       0.06250000 </v>
   <v>      -0.31250000       0.31250000       0.06250000 </v>
   <v>      -0.18750000       0.31250000       0.06250000 </v>
   <v>      -0.06250000       0.31250000       0.06250000 </v>
   <v>       0.43750000       0.43750000       0.06250000 </v>
   <v>      -0.43750000       0.43750000       0.06250000 </v>
   <v>      -0.31250000       0.43750000       0.06250000 </v>
   <v>      -0.18750000       0.43750000       0.06250000 </v>
   <v>      -0.06250000       0.43750000       0.06250000 </v>
   <v>      -0.43750000      -0.43750000       0.06250000 </v>
   <v>      -0.31250000      -0.43750000       0.06250000 </v>
   <v>      -0.18750000      -0.43750000       0.06250000 </v>
   <v>      -0.31250000      -0.31250000       0.06250000 </v>
   <v>      -0.18750000      -0.31250000       0.06250000 </v>
   <v>      -0.18750000      -0.18750000       0.06250000 </v>
   <v>       0.18750000       0.18750000       0.18750000 </v>
   <v>       0.31250000       0.18750000       0.18750000 </v>
   <v>       0.43750000       0.18750000       0.18750000 </v>
   <v>      -0.43750000       0.18750000       0.18750000 </v>
   <v>      -0.31250000       0.18750000       0.18750000 </v>
   <v>      -0.18750000       0.18750000       0.18750000 </v>
   <v>       0.31250000       0.31250000       0.18750000 </v>
   <v>       0.43750000       0.31250000       0.18750000 </v>
   <v>      -0.43750000       0.31250000       0.18750000 </v>
   <v>      -0.31250000       0.31250000       0.18750000 </v>
   <v>      -0.18750000       0.31250000       0.18750000 </v>
   <v>       0.43750000       0.43750000       0.18750000 </v>
   <v>      -0.43750000       0.43750000       0.18750000 </v>
   <v>      -0.31250000       0.43750000       0.18750000 </v>
   <v>      -0.18750000       0.43750000       0.18750000 </v>
   <v>      -0.43750000      -0.43750000       0.18750000 </v>
   <v>      -0.31250000      -0.43750000       0.18750000 </v>
   <v>      -0.31250000      -0.31250000       0.18750000 </v>
   <v>       0.31250000       0.31250000       0.31250000 </v>
   <v>       0.43750000       0.31250000       0.31250000 </v>
   <v>      -0.43750000       0.31250000       0.31250000 </v>
   <v>      -0.31250000       0.31250000       0.31250000 </v>
   <v>       0.43750000       0.43750000       0.31250000 </v>
   <v>      -0.43750000       0.43750000       0.31250000 </v>
   <v>      -0.31250000       0.43750000       0.31250000 </v>
   <v>      -0.43750000      -0.43750000       0.31250000 </v>
   <v>       0.43750000       0.43750000       0.43750000 </v>
   <v>      -0.43750000       0.43750000       0.43750000 </v>
  </varray>
  <varray name="weights" >
   <v>       0.00390625 </v>
   <v>       0.01171875 </v>
   <v>       0.01171875 </v>
   <v>       0.01171875 </v>
   <v>       0.01171875 </v>
   <v>       0.01171875 </v>
   <v>       0.01171875 </v>
   <v>       0.01171875 </v>
   <v>       0.01171875 </v>
   <v>       0.02343750 </v>
   <v>       0.02343750 </v>
   <v>       0.02343750 </v>
   <v>       0.02343750 </v>
   <v>       0.02343750 </v>
   <v>       0.02343750 </v>
   <v>       0.01171875 </v>
   <v>       0.02343750 </v>
   <v>       0.02343750 </v>
   <v>       0.02343750 </v>
   <v>       0.02343750 </v>
   <v>       0.02343750 </v>
   <v>       0.01171875 </v>
   <v>       0.02343750 </v>
   <v>       0.02343750 </v>
   <v>       0.02343750 </v>
   <v>       0.02343750 </v>
   <v>       0.01171875 </v>
   <v>       0.02343750 </v>
   <v>       0.02343750 </v>
   <v>       0.01171875 </v>
   <v>       0.02343750 </v>
   <v>       0.01171875 </v>
   <v>       0.00390625 </v>
   <v>       0.01171875 </v>
   <v>       0.01171875 </v>
   <v>       0.01171875 </v>
   <v>       0.01171875 </v>
   <v>       0.01171875 </v>
   <v>       0.01171875 </v>
   <v>       0.02343750 </v>
   <v>       0.02343750 </v>
   <v>       0.02343750 </v>
   <v>       0.02343750 </v>
   <v>       0.01171875 </v>
   <v>       0.02343750 </v>
   <v>       0.02343750 </v>
   <v>       0.02343750 </v>
   <v>       0.01171875 </v>
   <v>       0.02343750 </v>
   <v>       0.01171875 </v>
   <v>       0.00390625 </v>
   <v>       0.01171875 </v>
   <v>       0.01171875 </v>
   <v>       0.01171875 </v>
   <v>       0.01171875 </v>
   <v>       0.02343750 </v>
   <v>       0.02343750 </v>
   <v>       0.01171875 </v>
   <v>       0.00390625 </v>
   <v>       0.01171875 </v>
  </varray>
 </kpoints>
 <parameters>
  <separator name="general" >
   <i type="string" name="SYSTEM">unknown system</i>
   <i type="logical" name="LCOMPAT"> F  </i>
  </separator>
  <separator name="electronic" >
   <i type="string" name="PREC">accura</i>
   <i name="ENMAX">    450.00000000</i>
   <i name="ENAUG">    644.87300000</i>
   <i name="EDIFF">      0.00010000</i>
   <i type="int" name="IALGO">    38</i>
   <i type="int" name="IWAVPR">    10</i>
   <i type="int" name="NBANDS">    12</i>
   <i name="NELECT">      9.00000000</i>
   <i type="int" name="TURBO">     0</i>
   <i type="int" name="IRESTART">     0</i>
   <i type="int" name="NREBOOT">     0</i>
   <i type="int" name="NMIN">     0</i>
   <i name="EREF">      0.00000000</i>
   <separator name="electronic smearing" >
    <i type="int" name="ISMEAR">     1</i>
    <i name="SIGMA">      0.05000000</i>
    <i name="KSPACING">      0.50000000</i>
    <i type="logical" name="KGAMMA"> T  </i>
   </separator>
   <separator name="electronic projectors" >
    <i type="logical" name="LREAL"> F  </i>
    <v name="ROPT">      0.00000000      0.00000000</v>
    <i type="int" name="LMAXPAW">  -100</i>
    <i type="int" name="LMAXMIX">     2</i>
    <i type="logical" name="NLSPLINE"> F  </i>
   </separator>
   <separator name="electronic startup" >
    <i type="int" name="ISTART">     0</i>
    <i type="int" name="ICHARG">     2</i>
    <i type="int" name="INIWAV">     1</i>
   </separator>
   <separator name="electronic spin" >
    <i type="int" name="ISPIN">     2</i>
    <i type="logical" name="LNONCOLLINEAR"> F  </i>
    <v name="MAGMOM">      2.00000000      6.00000000</v>
    <i name="NUPDOWN">     -1.00000000</i>
    <i type="logical" name="LSORBIT"> F  </i>
    <v name="SAXIS">      0.00000000      0.00000000      1.00000000</v>
    <i type="logical" name="LSPIRAL"> F  </i>
    <v name="QSPIRAL">      0.00000000      0.00000000      0.00000000</v>
    <i type="logical" name="LZEROZ"> F  </i>
   </separator>
   <separator name="electronic exchange-correlation" >
    <i type="logical" name="LASPH"> F  </i>
    <i type="logical" name="LMETAGGA"> F  </i>
   </separator>
   <separator name="electronic convergence" >
    <i type="int" name="NELM">    60</i>
    <i type="int" name="NELMDL">    -5</i>
    <i type="int" name="NELMIN">     2</i>
    <i name="ENINI">    450.00000000</i>
    <separator name="electronic convergence detail" >
     <i type="logical" name="LDIAG"> T  </i>
     <i type="logical" name="LSUBROT"> T  </i>
     <i name="WEIMIN">      0.00000000</i>
     <i name="EBREAK">      0.00000208</i>
     <i name="DEPER">      0.30000000</i>
     <i type="int" name="NRMM">     4</i>
     <i name="TIME">      0.40000000</i>
    </separator>
   </separator>
   <separator name="electronic mixer" >
    <i name="AMIX">      0.40000000</i>
    <i name="BMIX">      1.00000000</i>
    <i name="AMIN">      0.10000000</i>
    <i name="AMIX_MAG">      1.60000000</i>
    <i name="BMIX_MAG">      1.00000000</i>
    <separator name="electronic mixer details" >
     <i type="int" name="IMIX">     4</i>
     <i type="int" name="MAXMIX">   -45</i>
     <i name="WC">    100.00000000</i>
     <i type="int" name="INIMIX">     1</i>
     <i type="int" name="MIXPRE">     1</i>
     <i type="int" name="MREMOVE">     5</i>
    </separator>
   </separator>
   <separator name="electronic dipolcorrection" >
    <i type="logical" name="LDIPOL"> F  </i>
    <i type="logical" name="LMONO"> F  </i>
    <i type="int" name="IDIPOL">     0</i>
    <i name="EPSILON">      1.00000000</i>
    <v name="DIPOL">   -100.00000000   -100.00000000   -100.00000000</v>
    <i name="EFIELD">      0.00000000</i>
   </separator>
  </separator>
  <separator name="grids" >
   <i type="int" name="NGX">    24</i>
   <i type="int" name="NGY">    24</i>
   <i type="int" name="NGZ">    24</i>
   <i type="int" name="NGXF">    48</i>
   <i type="int" name="NGYF">    48</i>
   <i type="int" name="NGZF">    48</i>
   <i type="logical" name="ADDGRID"> F  </i>
  </separator>
  <separator name="ionic" >
   <i type="int" name="NSW">     0</i>
   <i type="int" name="IBRION">    -1</i>
   <i type="int" name="ISIF">     2</i>
   <i name="PSTRESS">      0.00000000</i>
   <i name="EDIFFG">      0.00100000</i>
   <i type="int" name="NFREE">     0</i>
   <i name="POTIM">      0.50000000</i>
   <i name="SMASS">     -3.00000000</i>
   <i name="SCALEE">      1.00000000</i>
  </separator>
  <separator name="ionic md" >
   <i name="TEBEG">      0.00010000</i>
   <i name="TEEND">      0.00010000</i>
   <i type="int" name="NBLOCK">     1</i>
   <i type="int" name="KBLOCK">     1</i>
   <i type="int" name="NPACO">   256</i>
   <i name="APACO">     16.00000000</i>
  </separator>
  <separator name="symmetry" >
   <i type="int" name="ISYM">     2</i>
   <i name="SYMPREC">      0.00001000</i>
  </separator>
  <separator name="dos" >
   <i type="logical" name="LORBIT"> F  </i>
   <v name="RWIGS">     -1.00000000     -1.00000000</v>
   <i type="int" name="NEDOS">   301</i>
   <i name="EMIN">     10.00000000</i>
   <i name="EMAX">    -10.00000000</i>
   <i name="EFERMI">      0.00000000</i>
  </separator>
  <separator name="writing" >
   <i type="int" name="NWRITE">     2</i>
   <i type="logical" name="LWAVE"> T  </i>
   <i type="logical" name="LCHARG"> T  </i>
   <i type="logical" name="LPARD"> F  </i>
   <i type="logical" name="LVTOT"> F  </i>
   <i type="logical" name="LVHAR"> F  </i>
   <i type="logical" name="LELF"> F  </i>
   <i type="logical" name="LOPTICS"> F  </i>
   <v name="STM">      0.00000000      0.00000000      0.00000000      0.00000000      0.00000000      0.00000000      0.00000000</v>
  </separator>
  <separator name="performance" >
   <i type="int" name="NPAR">     1</i>
   <i type="int" name="NSIM">     4</i>
   <i type="int" name="NBLK">    -1</i>
   <i type="logical" name="LPLANE"> T  </i>
   <i type="logical" name="LSCALAPACK"> F  </i>
   <i type="logical" name="LSCAAWARE"> F  </i>
   <i type="logical" name="LSCALU"> F  </i>
   <i type="logical" name="LASYNC"> F  </i>
   <i type="logical" name="LORBITALREAL"> F  </i>
  </separator>
  <separator name="miscellaneous" >
   <i type="int" name="IDIOT">     3</i>
   <i type="logical" name="LMUSIC"> F  </i>
   <v name="POMASS">     12.01100000    180.94800000</v>
   <v name="DARWINR">      0.00000000      0.00000000</v>
   <v name="DARWINV">      1.00000000      1.00000000</v>
   <i type="logical" name="LCORR"> T  </i>
  </separator>
  <i type="logical" name="GGA_COMPAT"> T  </i>
  <i type="logical" name="LBERRY"> F  </i>
  <i type="int" name="ICORELEVEL">     0</i>
  <i type="logical" name="LDAU"> F  </i>
  <i type="int" name="I_CONSTRAINED_M">     0</i>
  <separator name="electronic exchange-correlation" >
   <i type="string" name="GGA">--</i>
   <i type="int" name="VOSKOWN">     0</i>
   <i type="logical" name="LHFCALC"> F  </i>
   <i type="string" name="PRECFOCK"></i>
   <i type="logical" name="LHFONE"> F  </i>
   <i type="logical" name="LRHFCALC"> F  </i>
   <i type="logical" name="LTHOMAS"> F  </i>
   <i type="logical" name="LMODELHF"> F  </i>
   <i name="ENCUT4O">     -1.00000000</i>
   <i type="int" name="EXXOEP">     0</i>
   <i type="int" name="FOURORBIT">     0</i>
   <i name="AEXX">      0.00000000</i>
   <i name="HFALPHA">      0.00000000</i>
   <i name="ALDAX">      1.00000000</i>
   <i name="AGGAX">      1.00000000</i>
   <i name="ALDAC">      1.00000000</i>
   <i name="AGGAC">      1.00000000</i>
   <i type="int" name="NKREDX">     1</i>
   <i type="int" name="NKREDY">     1</i>
   <i type="int" name="NKREDZ">     1</i>
   <i type="logical" name="SHIFTRED"> F  </i>
   <i type="logical" name="ODDONLY"> F  </i>
   <i type="logical" name="EVENONLY"> F  </i>
   <i type="int" name="LMAXFOCK">     0</i>
   <i type="int" name="NMAXFOCKAE">     0</i>
   <i type="logical" name="LFOCKAEDFT"> F  </i>
   <i name="HFSCREEN">      0.00000000</i>
   <i name="HFSCREENC">      0.00000000</i>
  </separator>
  <separator name="vdW DFT" >
   <i type="logical" name="LUSE_VDW"> F  </i>
   <i name="Zab_VDW">     -0.84910000</i>
   <i name="PARAM1">      0.12340000</i>
   <i name="PARAM2">      1.00000000</i>
   <i name="PARAM3">      0.00000000</i>
  </separator>
  <separator name="model GW" >
   <i type="int" name="MODEL_GW">     0</i>
   <i name="MODEL_EPS0">      6.63138723</i>
   <i name="MODEL_ALPHA">      1.00000000</i>
  </separator>
  <separator name="linear response parameters" >
   <i type="logical" name="LEPSILON"> F  </i>
   <i type="logical" name="LRPA"> F  </i>
   <i type="logical" name="LNABLA"> F  </i>
   <i type="logical" name="LVEL"> F  </i>
   <i type="int" name="KINTER">     0</i>
   <i name="CSHIFT">      0.10000000</i>
   <i name="OMEGAMAX">     -1.00000000</i>
  </separator>
  <separator name="orbital magnetization" >
   <i type="logical" name="NUCIND"> F  </i>
   <v name="MAGPOS">      0.00000000      0.00000000      0.00000000</v>
   <i type="logical" name="LNICSALL"> T  </i>
   <i type="logical" name="ORBITALMAG"> F  </i>
   <i type="logical" name="LMAGBLOCH"> F  </i>
   <i type="logical" name="LCHIMAG"> F  </i>
   <i type="logical" name="LGAUGE"> T  </i>
   <i type="int" name="MAGATOM">     0</i>
   <v name="MAGDIPOL">      0.00000000      0.00000000      0.00000000</v>
   <v name="AVECCONST">      0.00000000      0.00000000      0.00000000</v>
  </separator>
  <separator name="response functions" >
   <i type="logical" name="LADDER"> F  </i>
   <i type="logical" name="LHARTREE"> T  </i>
   <i type="int" name="IBSE">     0</i>
   <i type="logical" name="LTCTE"> F  </i>
   <i type="logical" name="LTETE"> F  </i>
   <i type="logical" name="LFXCEPS"> F  </i>
   <i type="logical" name="L2ORDER"> F  </i>
   <i type="logical" name="LUSEW"> F  </i>
   <i name="ENCUTGW">     -2.00000000</i>
   <i name="ENCUTGWSOFT">     -2.00000000</i>
   <i name="ENCUTLF">     -1.00000000</i>
   <i type="int" name="LMAXMP2">    -1</i>
   <i name="SCISSOR">      0.00000000</i>
   <i type="int" name="NOMEGA">     0</i>
   <i type="int" name="NOMEGAR">     0</i>
   <i type="int" name="NBANDSGW">    -1</i>
   <i type="int" name="NBANDSO">    -1</i>
   <i type="int" name="NBANDSV">    -1</i>
   <i name="OPTEMAX">      0.00000000</i>
   <i type="int" name="NELM">     1</i>
   <i type="int" name="DIM">     3</i>
   <i type="int" name="ANTIRES">     0</i>
   <i name="OMEGAMAX">    -30.00000000</i>
   <i name="OMEGATL">   -200.00000000</i>
   <i type="int" name="OMEGAGRID">     0</i>
   <i name="CSHIFT">     -0.10000000</i>
   <i type="logical" name="SELFENERGY"> F  </i>
   <i type="logical" name="LSPECTRAL"> F  </i>
   <i type="logical" name="ODDONLYGW"> F  </i>
   <i type="logical" name="EVENONLYGW"> F  </i>
   <i type="int" name="NKREDLFX">     1</i>
   <i type="int" name="NKREDLFY">     1</i>
   <i type="int" name="NKREDLFZ">     1</i>
   <i type="int" name="MAXMEM">  1800</i>
   <i type="int" name="TELESCOPE">     0</i>
  </separator>
 </parameters>
 <atominfo>
  <atoms>       2 </atoms>
  <types>       2 </types>
  <array name="atoms" >
   <dimension dim="1">ion</dimension>
   <field type="string">element</field>
   <field type="int">atomtype</field>
   <set>
    <rc><c>C </c><c>   1</c></rc>
    <rc><c>Ta</c><c>   2</c></rc>
   </set>
  </array>
  <array name="atomtypes" >
   <dimension dim="1">type</dimension>
   <field type="int">atomspertype</field>
   <field type="string">element</field>
   <field>mass</field>
   <field>valence</field>
   <field type="string">pseudopotential</field>
   <set>
    <rc><c>   1</c><c>C </c><c>     12.01100000</c><c>      4.00000000</c><c> PAW_PBE C 08Apr2002                    </c></rc>
    <rc><c>   1</c><c>Ta</c><c>    180.94800000</c><c>      5.00000000</c><c>  PAW_PBE Ta 17Jan2003                  </c></rc>
   </set>
  </array>
 </atominfo>
 <structure name="initialpos" >
  <crystal>
   <varray name="basis" >
    <v>       0.00000000       2.22750000       2.22750000 </v>
    <v>       2.22750000       0.00000000       2.22750000 </v>
    <v>       2.22750000       2.22750000       0.00000000 </v>
   </varray>
   <i name="volume">     22.10462409 </i>
   <varray name="rec_basis" >
    <v>      -0.22446689       0.22446689       0.22446689 </v>
    <v>       0.22446689      -0.22446689       0.22446689 </v>
    <v>       0.22446689       0.22446689      -0.22446689 </v>
   </varray>
  </crystal>
  <varray name="positions" >
   <v>       0.50000000       0.50000000       0.50000000 </v>
   <v>       0.00000000       0.00000000       0.00000000 </v>
  </varray>
 </structure>
 <calculation>
  <scstep>
   <time name="dav">    6.66    6.66</time>
   <time name="total">    7.12    7.13</time>
   <energy>
    <i name="alphaZ">     53.45108897 </i>
    <i name="ewald">   -374.24685207 </i>
    <i name="hartreedc">    -15.54251934 </i>
    <i name="XCdc">    -48.16204835 </i>
    <i name="pawpsdc">    180.96821906 </i>
    <i name="pawaedc">   -107.89329025 </i>
    <i name="eentropy">     -0.00000417 </i>
    <i name="bandstr">     44.40701496 </i>
    <i name="atom">    277.79342126 </i>
    <i name="e_fr_energy">     10.77503006 </i>
    <i name="e_wo_entrp">     10.77503423 </i>
    <i name="e_0_energy">     10.77503145 </i>
   </energy>
  </scstep>
  <scstep>
   <time name="dav">    8.00    8.00</time>
   <time name="total">    8.01    8.01</time>
   <energy>
    <i name="e_fr_energy">    -18.13992521 </i>
    <i name="e_wo_entrp">    -18.13968351 </i>
    <i name="e_0_energy">    -18.13984465 </i>
   </energy>
  </scstep>
  <scstep>
   <time name="dav">    8.09    8.09</time>
   <time name="total">    8.10    8.10</time>
   <energy>
    <i name="e_fr_energy">    -19.04880967 </i>
    <i name="e_wo_entrp">    -19.04882133 </i>
    <i name="e_0_energy">    -19.04881356 </i>
   </energy>
  </scstep>
  <scstep>
   <time name="dav">    7.41    7.41</time>
   <time name="total">    7.42    7.43</time>
   <energy>
    <i name="e_fr_energy">    -19.05179206 </i>
    <i name="e_wo_entrp">    -19.05180580 </i>
    <i name="e_0_energy">    -19.05179664 </i>
   </energy>
  </scstep>
  <scstep>
   <time name="dav">    8.25    8.26</time>
   <time name="total">    8.77    8.79</time>
   <energy>
    <i name="e_fr_energy">    -19.05180295 </i>
    <i name="e_wo_entrp">    -19.05181669 </i>
    <i name="e_0_energy">    -19.05180753 </i>
   </energy>
  </scstep>
  <scstep>
   <time name="dav">    7.18    7.18</time>
   <time name="total">    8.17    8.19</time>
   <energy>
    <i name="e_fr_energy">    -22.09770509 </i>
    <i name="e_wo_entrp">    -22.09762313 </i>
    <i name="e_0_energy">    -22.09767777 </i>
   </energy>
  </scstep>
  <scstep>
   <time name="dav">    7.94    7.95</time>
   <time name="total">    8.98    9.00</time>
   <energy>
    <i name="e_fr_energy">    -22.31553682 </i>
    <i name="e_wo_entrp">    -22.31584754 </i>
    <i name="e_0_energy">    -22.31564039 </i>
   </energy>
  </scstep>
  <scstep>
   <time name="dav">    7.17    7.17</time>
   <time name="total">    8.15    8.17</time>
   <energy>
    <i name="e_fr_energy">    -22.25707992 </i>
    <i name="e_wo_entrp">    -22.25739291 </i>
    <i name="e_0_energy">    -22.25718425 </i>
   </energy>
  </scstep>
  <scstep>
   <time name="dav">    7.73    7.73</time>
   <time name="total">    8.78    8.79</time>
   <energy>
    <i name="e_fr_energy">    -22.24879602 </i>
    <i name="e_wo_entrp">    -22.24895849 </i>
    <i name="e_0_energy">    -22.24885018 </i>
   </energy>
  </scstep>
  <scstep>
   <time name="dav">    7.82    7.82</time>
   <time name="total">    8.79    8.81</time>
   <energy>
    <i name="e_fr_energy">    -22.24668821 </i>
    <i name="e_wo_entrp">    -22.24688006 </i>
    <i name="e_0_energy">    -22.24675216 </i>
   </energy>
  </scstep>
  <scstep>
   <time name="dav">    6.78    6.78</time>
   <time name="total">    7.79    7.80</time>
   <energy>
    <i name="e_fr_energy">    -22.24653010 </i>
    <i name="e_wo_entrp">    -22.24672358 </i>
    <i name="e_0_energy">    -22.24659459 </i>
   </energy>
  </scstep>
  <scstep>
   <time name="dav">    4.79    4.79</time>
   <time name="total">    5.25    5.27</time>
   <energy>
    <i name="alphaZ">     53.45108897 </i>
    <i name="ewald">   -374.24685207 </i>
    <i name="hartreedc">    -22.39877019 </i>
    <i name="XCdc">    -51.10456258 </i>
    <i name="pawpsdc">    270.06162436 </i>
    <i name="pawaedc">   -198.11791769 </i>
    <i name="eentropy">      0.00018636 </i>
    <i name="bandstr">     22.31528389 </i>
    <i name="atom">    277.79342126 </i>
    <i name="e_fr_energy">    -22.24649770 </i>
    <i name="e_wo_entrp">    -22.24668406 </i>
    <i name="e_0_energy">    -22.24655982 </i>
   </energy>
  </scstep>
  <parameters_embedded>
   <separator name="dft+d2" >
    <i type="logical" name="LVDW"> F  </i>
   </separator>
  </parameters_embedded>
  <structure>
   <crystal>
    <varray name="basis" >
     <v>       0.00000000       2.22750000       2.22750000 </v>
     <v>       2.22750000       0.00000000       2.22750000 </v>
     <v>       2.22750000       2.22750000       0.00000000 </v>
    </varray>
    <i name="volume">     22.10462409 </i>
    <varray name="rec_basis" >
     <v>      -0.22446689       0.22446689       0.22446689 </v>
     <v>       0.22446689      -0.22446689       0.22446689 </v>
     <v>       0.22446689       0.22446689      -0.22446689 </v>
    </varray>
   </crystal>
   <varray name="positions" >
    <v>       0.50000000       0.50000000       0.50000000 </v>
    <v>       0.00000000       0.00000000       0.00000000 </v>
   </varray>
  </structure>
  <varray name="forces" >
   <v>       0.00000000       0.00000000       0.00000000 </v>
   <v>       0.00000000       0.00000000       0.00000000 </v>
  </varray>
  <varray name="stress" >
   <v>      45.81694141       0.00000000       0.00000000 </v>
   <v>       0.00000000      45.81694141       0.00000000 </v>
   <v>       0.00000000       0.00000000      45.81694141 </v>
  </varray>
  <energy>
   <i name="e_fr_energy">    -22.24649770 </i>
   <i name="e_wo_entrp">    -22.24655982 </i>
   <i name="e_0_energy">      0.00018636 </i>
  </energy>
  <time name="totalsc">  100.30  100.70</time>
  <eigenvalues>
   <array>
    <dimension dim="1">band</dimension>
    <dimension dim="2">kpoint</dimension>
    <dimension dim="3">spin</dimension>
    <field>eigene</field>
    <field>occ</field>
    <set>
     <set comment="spin 1">
      <set comment="kpoint 1">
       <r>   -6.0545    1.0000 </r>
       <r>    6.7003    1.0000 </r>
       <r>    7.0457    1.0000 </r>
       <r>    7.0457    1.0000 </r>
       <r>    7.7969    1.0000 </r>
       <r>    7.7969    1.0000 </r>
       <r>    8.5337   -0.0355 </r>
       <r>   10.1269    0.0000 </r>
       <r>   10.1269    0.0000 </r>
       <r>   15.4514    0.0000 </r>
       <r>   18.9727    0.0000 </r>
       <r>   21.0030    0.0000 </r>
      </set>
      <set comment="kpoint 2">
       <r>   -5.5181    1.0000 </r>
       <r>    5.1430    1.0000 </r>
       <r>    5.6031    1.0000 </r>
       <r>    5.7679    1.0000 </r>
       <r>    7.7710    1.0000 </r>
       <r>    8.6996    0.0000 </r>
       <r>    9.3509    0.0000 </r>
       <r>   11.2451    0.0000 </r>
       <r>   12.7945    0.0000 </r>
       <r>   16.4413    0.0000 </r>
       <r>   20.2903    0.0000 </r>
       <r>   21.0025    0.0000 </r>
      </set>
      <set comment="kpoint 3">
       <r>   -4.3128    1.0000 </r>
       <r>    2.9408    1.0000 </r>
       <r>    4.1609    1.0000 </r>
       <r>    4.4686    1.0000 </r>
       <r>    8.9281    0.0000 </r>
       <r>    9.5132    0.0000 </r>
       <r>   10.2976    0.0000 </r>
       <r>   13.9853    0.0000 </r>
       <r>   15.7253    0.0000 </r>
       <r>   17.3843    0.0000 </r>
       <r>   20.9952    0.0000 </r>
       <r>   21.8158    0.0000 </r>
      </set>
      <set comment="kpoint 4">
       <r>   -2.7685    1.0000 </r>
       <r>    0.9683    1.0000 </r>
       <r>    3.3679    1.0000 </r>
       <r>    3.5383    1.0000 </r>
       <r>   10.4465    0.0000 </r>
       <r>   10.6449    0.0000 </r>
       <r>   11.5986    0.0000 </r>
       <r>   15.6910    0.0000 </r>
       <r>   16.7665    0.0000 </r>
       <r>   18.1099    0.0000 </r>
       <r>   20.9929    0.0000 </r>
       <r>   22.1388    0.0000 </r>
      </set>
      <set comment="kpoint 5">
       <r>   -1.9694    1.0000 </r>
       <r>    0.0889    1.0000 </r>
       <r>    3.2130    1.0000 </r>
       <r>    3.2598    1.0000 </r>
       <r>   10.9658    0.0000 </r>
       <r>   11.3772    0.0000 </r>
       <r>   12.2238    0.0000 </r>
       <r>   14.5045    0.0000 </r>
       <r>   18.1456    0.0000 </r>
       <r>   18.5094    0.0000 </r>
       <r>   20.9872    0.0000 </r>
       <r>   21.1738    0.0000 </r>
      </set>
      <set comment="kpoint 6">
       <r>   -3.3025    1.0000 </r>
       <r>    1.5877    1.0000 </r>
       <r>    3.5647    1.0000 </r>
       <r>    3.8301    1.0000 </r>
       <r>    9.5525    0.0000 </r>
       <r>   10.7098    0.0000 </r>
       <r>   11.0652    0.0000 </r>
       <r>   15.9721    0.0000 </r>
       <r>   16.3023    0.0000 </r>
       <r>   17.5552    0.0000 </r>
       <r>   20.9910    0.0000 </r>
       <r>   22.1165    0.0000 </r>
      </set>
      <set comment="kpoint 7">
       <r>   -4.7786    1.0000 </r>
       <r>    3.5905    1.0000 </r>
       <r>    4.6231    1.0000 </r>
       <r>    5.0163    1.0000 </r>
       <r>    8.2252    1.0000 </r>
       <r>    9.3513    0.0000 </r>
       <r>    9.9171    0.0000 </r>
       <r>   13.1859    0.0000 </r>
       <r>   14.5050    0.0000 </r>
       <r>   17.3803    0.0000 </r>
       <r>   20.9985    0.0000 </r>
       <r>   21.5383    0.0000 </r>
      </set>
      <set comment="kpoint 8">
       <r>   -5.7843    1.0000 </r>
       <r>    5.6645    1.0000 </r>
       <r>    6.2512    1.0000 </r>
       <r>    6.4887    1.0000 </r>
       <r>    7.3160    1.0000 </r>
       <r>    8.6318    0.0000 </r>
       <r>    9.1815    0.0000 </r>
       <r>   10.3593    0.0000 </r>
       <r>   11.7977    0.0000 </r>
       <r>   16.0449    0.0000 </r>
       <r>   19.6751    0.0000 </r>
       <r>   21.0025    0.0000 </r>
      </set>
      <set comment="kpoint 9">
       <r>   -5.2927    1.0000 </r>
       <r>    4.1591    1.0000 </r>
       <r>    5.7410    1.0000 </r>
       <r>    6.1375    1.0000 </r>
       <r>    6.9321    1.0000 </r>
       <r>    9.4171    0.0000 </r>
       <r>   10.1917    0.0000 </r>
       <r>   10.8764    0.0000 </r>
       <r>   13.1424    0.0000 </r>
       <r>   17.2931    0.0000 </r>
       <r>   20.9232    0.0000 </r>
       <r>   21.0026    0.0000 </r>
      </set>
      <set comment="kpoint 10">
       <r>   -4.4421    1.0000 </r>
       <r>    2.8490    1.0000 </r>
       <r>    4.7058    1.0000 </r>
       <r>    5.1757    1.0000 </r>
       <r>    7.4711    1.0000 </r>
       <r>   10.3123    0.0000 </r>
       <r>   11.1246    0.0000 </r>
       <r>   12.2613    0.0000 </r>
       <r>   14.9882    0.0000 </r>
       <r>   18.6502    0.0000 </r>
       <r>   20.9989    0.0000 </r>
       <r>   22.3819    0.0000 </r>
      </set>
      <set comment="kpoint 11">
       <r>   -3.2688    1.0000 </r>
       <r>    1.6355    1.0000 </r>
       <r>    3.6813    1.0000 </r>
       <r>    4.2265    1.0000 </r>
       <r>    8.5854   -0.0032 </r>
       <r>   11.2979    0.0000 </r>
       <r>   11.9785    0.0000 </r>
       <r>   14.5393    0.0000 </r>
       <r>   16.3138    0.0000 </r>
       <r>   18.7361    0.0000 </r>
       <r>   20.9625    0.0000 </r>
       <r>   21.3678    0.0000 </r>
      </set>
      <set comment="kpoint 12">
       <r>   -2.3786    1.0000 </r>
       <r>    0.7323    1.0000 </r>
       <r>    3.4301    1.0000 </r>
       <r>    3.6190    1.0000 </r>
       <r>   10.1111    0.0000 </r>
       <r>   11.2094    0.0000 </r>
       <r>   12.1393    0.0000 </r>
       <r>   15.8229    0.0000 </r>
       <r>   17.0599    0.0000 </r>
       <r>   18.0103    0.0000 </r>
       <r>   20.9661    0.0000 </r>
       <r>   21.2991    0.0000 </r>
      </set>
      <set comment="kpoint 13">
       <r>   -2.7834    1.0000 </r>
       <r>    1.1339    1.0000 </r>
       <r>    3.5019    1.0000 </r>
       <r>    3.7576    1.0000 </r>
       <r>    9.7422    0.0000 </r>
       <r>   11.1608    0.0000 </r>
       <r>   11.8858    0.0000 </r>
       <r>   15.0411    0.0000 </r>
       <r>   16.6154    0.0000 </r>
       <r>   18.6282    0.0000 </r>
       <r>   20.9870    0.0000 </r>
       <r>   21.8558    0.0000 </r>
      </set>
      <set comment="kpoint 14">
       <r>   -3.9825    1.0000 </r>
       <r>    2.4751    1.0000 </r>
       <r>    4.0912    1.0000 </r>
       <r>    4.3617    1.0000 </r>
       <r>    8.4939    0.1713 </r>
       <r>   10.6761    0.0000 </r>
       <r>   11.2201    0.0000 </r>
       <r>   12.7766    0.0000 </r>
       <r>   16.4628    0.0000 </r>
       <r>   18.1453    0.0000 </r>
       <r>   20.9951    0.0000 </r>
       <r>   22.2422    0.0000 </r>
      </set>
      <set comment="kpoint 15">
       <r>   -5.0330    1.0000 </r>
       <r>    3.9373    1.0000 </r>
       <r>    5.0678    1.0000 </r>
       <r>    5.3447    1.0000 </r>
       <r>    7.7236    1.0000 </r>
       <r>    9.4649    0.0000 </r>
       <r>   10.1017    0.0000 </r>
       <r>   11.7367    0.0000 </r>
       <r>   14.1259    0.0000 </r>
       <r>   17.3654    0.0000 </r>
       <r>   21.0014    0.0000 </r>
       <r>   21.3294    0.0000 </r>
      </set>
      <set comment="kpoint 16">
       <r>   -4.1851    1.0000 </r>
       <r>    2.4721    1.0000 </r>
       <r>    4.8841    1.0000 </r>
       <r>    6.0386    1.0000 </r>
       <r>    6.5016    1.0000 </r>
       <r>   10.5476    0.0000 </r>
       <r>   12.1457    0.0000 </r>
       <r>   12.3441    0.0000 </r>
       <r>   14.8590    0.0000 </r>
       <r>   20.0268    0.0000 </r>
       <r>   20.9949    0.0000 </r>
       <r>   22.1161    0.0000 </r>
      </set>
      <set comment="kpoint 17">
       <r>   -3.7116    1.0000 </r>
       <r>    2.4518    1.0000 </r>
       <r>    4.1570    1.0000 </r>
       <r>    5.3526    1.0000 </r>
       <r>    7.2810    1.0000 </r>
       <r>   11.6278    0.0000 </r>
       <r>   12.5626    0.0000 </r>
       <r>   12.9083    0.0000 </r>
       <r>   16.0685    0.0000 </r>
       <r>   19.2411    0.0000 </r>
       <r>   20.4174    0.0000 </r>
       <r>   21.0156    0.0000 </r>
      </set>
      <set comment="kpoint 18">
       <r>   -3.1724    1.0000 </r>
       <r>    2.2457    1.0000 </r>
       <r>    3.6660    1.0000 </r>
       <r>    4.5238    1.0000 </r>
       <r>    8.3610    1.0036 </r>
       <r>   11.7237    0.0000 </r>
       <r>   12.4648    0.0000 </r>
       <r>   14.6611    0.0000 </r>
       <r>   16.0679    0.0000 </r>
       <r>   18.8582    0.0000 </r>
       <r>   20.3815    0.0000 </r>
       <r>   21.0182    0.0000 </r>
      </set>
      <set comment="kpoint 19">
       <r>   -2.7894    1.0000 </r>
       <r>    1.6248    1.0000 </r>
       <r>    3.6178    1.0000 </r>
       <r>    3.9264    1.0000 </r>
       <r>   10.0381    0.0000 </r>
       <r>   10.6097    0.0000 </r>
       <r>   12.2730    0.0000 </r>
       <r>   14.3378    0.0000 </r>
       <r>   17.0878    0.0000 </r>
       <r>   19.3831    0.0000 </r>
       <r>   20.9780    0.0000 </r>
       <r>   21.3517    0.0000 </r>
      </set>
      <set comment="kpoint 20">
       <r>   -3.0136    1.0000 </r>
       <r>    1.5042    1.0000 </r>
       <r>    3.6783    1.0000 </r>
       <r>    3.8167    1.0000 </r>
       <r>    9.4994    0.0000 </r>
       <r>   11.4731    0.0000 </r>
       <r>   11.8258    0.0000 </r>
       <r>   13.5325    0.0000 </r>
       <r>   17.2403    0.0000 </r>
       <r>   18.7633    0.0000 </r>
       <r>   20.9877    0.0000 </r>
       <r>   21.9301    0.0000 </r>
      </set>
      <set comment="kpoint 21">
       <r>   -3.7426    1.0000 </r>
       <r>    2.1357    1.0000 </r>
       <r>    3.8207    1.0000 </r>
       <r>    4.2423    1.0000 </r>
       <r>    8.8283    0.0000 </r>
       <r>   10.3872    0.0000 </r>
       <r>   11.1827    0.0000 </r>
       <r>   14.3359    0.0000 </r>
       <r>   16.4730    0.0000 </r>
       <r>   17.8250    0.0000 </r>
       <r>   20.9914    0.0000 </r>
       <r>   22.0042    0.0000 </r>
      </set>
      <set comment="kpoint 22">
       <r>   -3.9356    1.0000 </r>
       <r>    3.2707    1.0000 </r>
       <r>    4.2031    1.0000 </r>
       <r>    6.4446    1.0000 </r>
       <r>    6.7612    1.0000 </r>
       <r>   11.3450    0.0000 </r>
       <r>   12.7528    0.0000 </r>
       <r>   12.7670    0.0000 </r>
       <r>   16.2873    0.0000 </r>
       <r>   17.0792    0.0000 </r>
       <r>   20.9077    0.0000 </r>
       <r>   21.0135    0.0000 </r>
      </set>
      <set comment="kpoint 23">
       <r>   -3.7899    1.0000 </r>
       <r>    3.7108    1.0000 </r>
       <r>    3.8770    1.0000 </r>
       <r>    5.5655    1.0000 </r>
       <r>    7.4392    1.0000 </r>
       <r>   12.3247    0.0000 </r>
       <r>   12.5321    0.0000 </r>
       <r>   12.7212    0.0000 </r>
       <r>   15.6162    0.0000 </r>
       <r>   17.5933    0.0000 </r>
       <r>   20.7083    0.0000 </r>
       <r>   21.0097    0.0000 </r>
      </set>
      <set comment="kpoint 24">
       <r>   -3.2755    1.0000 </r>
       <r>    2.7129    1.0000 </r>
       <r>    3.6990    1.0000 </r>
       <r>    4.6192    1.0000 </r>
       <r>    8.2968    1.0000 </r>
       <r>   11.6390    0.0000 </r>
       <r>   12.6015    0.0000 </r>
       <r>   14.6155    0.0000 </r>
       <r>   15.2138    0.0000 </r>
       <r>   19.2968    0.0000 </r>
       <r>   20.7583    0.0000 </r>
       <r>   21.0158    0.0000 </r>
      </set>
      <set comment="kpoint 25">
       <r>   -2.6130    1.0000 </r>
       <r>    1.2240    1.0000 </r>
       <r>    3.5588    1.0000 </r>
       <r>    3.8066    1.0000 </r>
       <r>   10.0667    0.0000 </r>
       <r>   10.8087    0.0000 </r>
       <r>   12.0818    0.0000 </r>
       <r>   15.5864    0.0000 </r>
       <r>   16.9320    0.0000 </r>
       <r>   18.2780    0.0000 </r>
       <r>   20.9712    0.0000 </r>
       <r>   21.3779    0.0000 </r>
      </set>
      <set comment="kpoint 26">
       <r>   -2.3763    1.0000 </r>
       <r>    0.5798    1.0000 </r>
       <r>    3.3201    1.0000 </r>
       <r>    3.4997    1.0000 </r>
       <r>   10.2729    0.0000 </r>
       <r>   11.2952    0.0000 </r>
       <r>   12.0289    0.0000 </r>
       <r>   15.3770    0.0000 </r>
       <r>   16.9415    0.0000 </r>
       <r>   18.5582    0.0000 </r>
       <r>   20.9871    0.0000 </r>
       <r>   21.5723    0.0000 </r>
      </set>
      <set comment="kpoint 27">
       <r>   -3.9916    1.0000 </r>
       <r>    3.8669    1.0000 </r>
       <r>    4.0471    1.0000 </r>
       <r>    6.6069    1.0000 </r>
       <r>    6.8777    1.0000 </r>
       <r>   11.5545    0.0000 </r>
       <r>   12.6614    0.0000 </r>
       <r>   12.7131    0.0000 </r>
       <r>   15.6970    0.0000 </r>
       <r>   16.8519    0.0000 </r>
       <r>   20.7115    0.0000 </r>
       <r>   21.0091    0.0000 </r>
      </set>
      <set comment="kpoint 28">
       <r>   -3.7234    1.0000 </r>
       <r>    3.0949    1.0000 </r>
       <r>    3.9708    1.0000 </r>
       <r>    5.5115    1.0000 </r>
       <r>    7.3641    1.0000 </r>
       <r>   12.0574    0.0000 </r>
       <r>   12.6261    0.0000 </r>
       <r>   12.8256    0.0000 </r>
       <r>   16.3795    0.0000 </r>
       <r>   17.6097    0.0000 </r>
       <r>   20.6952    0.0000 </r>
       <r>   21.0119    0.0000 </r>
      </set>
      <set comment="kpoint 29">
       <r>   -3.0964    1.0000 </r>
       <r>    1.7266    1.0000 </r>
       <r>    3.6499    1.0000 </r>
       <r>    4.3535    1.0000 </r>
       <r>    8.4380    0.9560 </r>
       <r>   11.7649    0.0000 </r>
       <r>   12.3418    0.0000 </r>
       <r>   14.6110    0.0000 </r>
       <r>   16.3920    0.0000 </r>
       <r>   19.1404    0.0000 </r>
       <r>   20.1508    0.0000 </r>
       <r>   21.0215    0.0000 </r>
      </set>
      <set comment="kpoint 30">
       <r>   -3.9416    1.0000 </r>
       <r>    2.6283    1.0000 </r>
       <r>    4.4946    1.0000 </r>
       <r>    6.2168    1.0000 </r>
       <r>    6.5914    1.0000 </r>
       <r>   10.9909    0.0000 </r>
       <r>   12.6465    0.0000 </r>
       <r>   12.7342    0.0000 </r>
       <r>   15.6037    0.0000 </r>
       <r>   19.1512    0.0000 </r>
       <r>   20.9400    0.0000 </r>
       <r>   21.0310    0.0000 </r>
      </set>
      <set comment="kpoint 31">
       <r>   -3.9402    1.0000 </r>
       <r>    2.3054    1.0000 </r>
       <r>    4.4061    1.0000 </r>
       <r>    5.2028    1.0000 </r>
       <r>    7.2992    1.0000 </r>
       <r>   11.0456    0.0000 </r>
       <r>   12.0403    0.0000 </r>
       <r>   12.7337    0.0000 </r>
       <r>   15.5418    0.0000 </r>
       <r>   19.6944    0.0000 </r>
       <r>   20.9757    0.0000 </r>
       <r>   21.5202    0.0000 </r>
      </set>
      <set comment="kpoint 32">
       <r>   -4.6951    1.0000 </r>
       <r>    3.0171    1.0000 </r>
       <r>    5.3099    1.0000 </r>
       <r>    5.9952    1.0000 </r>
       <r>    6.6094    1.0000 </r>
       <r>   10.0379    0.0000 </r>
       <r>   11.2566    0.0000 </r>
       <r>   11.6324    0.0000 </r>
       <r>   14.0841    0.0000 </r>
       <r>   18.8492    0.0000 </r>
       <r>   21.0013    0.0000 </r>
       <r>   22.4704    0.0000 </r>
      </set>
      <set comment="kpoint 33">
       <r>   -5.2565    1.0000 </r>
       <r>    4.5395    1.0000 </r>
       <r>    5.2994    1.0000 </r>
       <r>    5.2994    1.0000 </r>
       <r>    8.4235    1.0228 </r>
       <r>    8.4235    1.0228 </r>
       <r>    9.2906    0.0000 </r>
       <r>   12.9332    0.0000 </r>
       <r>   12.9332    0.0000 </r>
       <r>   16.7193    0.0000 </r>
       <r>   20.7807    0.0000 </r>
       <r>   21.0038    0.0000 </r>
      </set>
      <set comment="kpoint 34">
       <r>   -4.5592    1.0000 </r>
       <r>    3.3592    1.0000 </r>
       <r>    4.3461    1.0000 </r>
       <r>    4.7053    1.0000 </r>
       <r>    8.3867    1.0179 </r>
       <r>    9.9263    0.0000 </r>
       <r>   10.4290    0.0000 </r>
       <r>   12.2921    0.0000 </r>
       <r>   15.6442    0.0000 </r>
       <r>   17.5313    0.0000 </r>
       <r>   20.9993    0.0000 </r>
       <r>   21.9016    0.0000 </r>
      </set>
      <set comment="kpoint 35">
       <r>   -3.4330    1.0000 </r>
       <r>    1.8862    1.0000 </r>
       <r>    3.6943    1.0000 </r>
       <r>    3.9919    1.0000 </r>
       <r>    9.2689    0.0000 </r>
       <r>   10.9272    0.0000 </r>
       <r>   11.6689    0.0000 </r>
       <r>   13.2013    0.0000 </r>
       <r>   17.3348    0.0000 </r>
       <r>   18.0025    0.0000 </r>
       <r>   20.9932    0.0000 </r>
       <r>   22.1526    0.0000 </r>
      </set>
      <set comment="kpoint 36">
       <r>   -2.5077    1.0000 </r>
       <r>    0.9137    1.0000 </r>
       <r>    3.5502    1.0000 </r>
       <r>    3.5800    1.0000 </r>
       <r>   10.6566    0.0000 </r>
       <r>   10.8033    0.0000 </r>
       <r>   11.6279    0.0000 </r>
       <r>   15.3568    0.0000 </r>
       <r>   17.1930    0.0000 </r>
       <r>   18.2297    0.0000 </r>
       <r>   20.9888    0.0000 </r>
       <r>   21.6759    0.0000 </r>
      </set>
      <set comment="kpoint 37">
       <r>   -2.7207    1.0000 </r>
       <r>    1.1803    1.0000 </r>
       <r>    3.4898    1.0000 </r>
       <r>    3.9727    1.0000 </r>
       <r>    9.0923    0.0000 </r>
       <r>   11.6701    0.0000 </r>
       <r>   12.2839    0.0000 </r>
       <r>   16.0148    0.0000 </r>
       <r>   16.0259    0.0000 </r>
       <r>   18.5913    0.0000 </r>
       <r>   20.5288    0.0000 </r>
       <r>   21.0322    0.0000 </r>
      </set>
      <set comment="kpoint 38">
       <r>   -3.6996    1.0000 </r>
       <r>    2.0686    1.0000 </r>
       <r>    4.0189    1.0000 </r>
       <r>    4.9041    1.0000 </r>
       <r>    7.6450    1.0000 </r>
       <r>   11.1857    0.0000 </r>
       <r>   11.9529    0.0000 </r>
       <r>   13.6963    0.0000 </r>
       <r>   15.8481    0.0000 </r>
       <r>   19.2283    0.0000 </r>
       <r>   20.9457    0.0000 </r>
       <r>   21.2648    0.0000 </r>
      </set>
      <set comment="kpoint 39">
       <r>   -4.1945    1.0000 </r>
       <r>    2.6050    1.0000 </r>
       <r>    4.2406    1.0000 </r>
       <r>    4.8800    1.0000 </r>
       <r>    7.8998    1.0000 </r>
       <r>   10.3237    0.0000 </r>
       <r>   10.9683    0.0000 </r>
       <r>   13.4837    0.0000 </r>
       <r>   15.4204    0.0000 </r>
       <r>   18.3700    0.0000 </r>
       <r>   20.9948    0.0000 </r>
       <r>   22.0514    0.0000 </r>
      </set>
      <set comment="kpoint 40">
       <r>   -3.5035    1.0000 </r>
       <r>    1.9621    1.0000 </r>
       <r>    3.9753    1.0000 </r>
       <r>    4.2800    1.0000 </r>
       <r>    8.3924    1.0230 </r>
       <r>   11.4578    0.0000 </r>
       <r>   11.9635    0.0000 </r>
       <r>   13.1445    0.0000 </r>
       <r>   16.5048    0.0000 </r>
       <r>   19.0912    0.0000 </r>
       <r>   20.9714    0.0000 </r>
       <r>   21.4696    0.0000 </r>
      </set>
      <set comment="kpoint 41">
       <r>   -2.9249    1.0000 </r>
       <r>    1.7003    1.0000 </r>
       <r>    3.6690    1.0000 </r>
       <r>    3.9269    1.0000 </r>
       <r>    9.5255    0.0000 </r>
       <r>   11.1751    0.0000 </r>
       <r>   12.3029    0.0000 </r>
       <r>   13.8220    0.0000 </r>
       <r>   17.0902    0.0000 </r>
       <r>   19.2892    0.0000 </r>
       <r>   20.9479    0.0000 </r>
       <r>   21.2631    0.0000 </r>
      </set>
      <set comment="kpoint 42">
       <r>   -2.8815    1.0000 </r>
       <r>    1.8271    1.0000 </r>
       <r>    3.6028    1.0000 </r>
       <r>    4.0489    1.0000 </r>
       <r>    9.5723    0.0000 </r>
       <r>   10.7874    0.0000 </r>
       <r>   12.4265    0.0000 </r>
       <r>   15.3572    0.0000 </r>
       <r>   15.8219    0.0000 </r>
       <r>   19.2965    0.0000 </r>
       <r>   20.9282    0.0000 </r>
       <r>   21.1791    0.0000 </r>
      </set>
      <set comment="kpoint 43">
       <r>   -3.3173    1.0000 </r>
       <r>    2.1016    1.0000 </r>
       <r>    3.8432    1.0000 </r>
       <r>    4.4169    1.0000 </r>
       <r>    8.3475    1.0012 </r>
       <r>   11.8457    0.0000 </r>
       <r>   12.4135    0.0000 </r>
       <r>   13.2851    0.0000 </r>
       <r>   16.6384    0.0000 </r>
       <r>   19.4815    0.0000 </r>
       <r>   20.2507    0.0000 </r>
       <r>   21.0217    0.0000 </r>
      </set>
      <set comment="kpoint 44">
       <r>   -3.4851    1.0000 </r>
       <r>    2.1824    1.0000 </r>
       <r>    3.8821    1.0000 </r>
       <r>    5.0522    1.0000 </r>
       <r>    7.5202    1.0000 </r>
       <r>   11.8150    0.0000 </r>
       <r>   12.4850    0.0000 </r>
       <r>   13.7153    0.0000 </r>
       <r>   16.2078    0.0000 </r>
       <r>   19.3256    0.0000 </r>
       <r>   19.9118    0.0000 </r>
       <r>   21.0154    0.0000 </r>
      </set>
      <set comment="kpoint 45">
       <r>   -3.3739    1.0000 </r>
       <r>    2.7381    1.0000 </r>
       <r>    3.7511    1.0000 </r>
       <r>    4.5342    1.0000 </r>
       <r>    8.3845    1.0160 </r>
       <r>   11.7792    0.0000 </r>
       <r>   12.6315    0.0000 </r>
       <r>   13.3546    0.0000 </r>
       <r>   16.2463    0.0000 </r>
       <r>   18.8984    0.0000 </r>
       <r>   20.6591    0.0000 </r>
       <r>   21.0181    0.0000 </r>
      </set>
      <set comment="kpoint 46">
       <r>   -3.1970    1.0000 </r>
       <r>    3.0250    1.0000 </r>
       <r>    3.6380    1.0000 </r>
       <r>    3.9331    1.0000 </r>
       <r>    9.6031    0.0000 </r>
       <r>   10.7751    0.0000 </r>
       <r>   12.6991    0.0000 </r>
       <r>   13.8067    0.0000 </r>
       <r>   15.1399    0.0000 </r>
       <r>   20.7477    0.0000 </r>
       <r>   21.0505    0.0000 </r>
       <r>   21.4587    0.0000 </r>
      </set>
      <set comment="kpoint 47">
       <r>   -3.0654    1.0000 </r>
       <r>    2.3412    1.0000 </r>
       <r>    3.6380    1.0000 </r>
       <r>    4.0666    1.0000 </r>
       <r>    9.5620    0.0000 </r>
       <r>   10.7790    0.0000 </r>
       <r>   12.6141    0.0000 </r>
       <r>   13.9961    0.0000 </r>
       <r>   15.9977    0.0000 </r>
       <r>   20.1578    0.0000 </r>
       <r>   20.9410    0.0000 </r>
       <r>   21.1704    0.0000 </r>
      </set>
      <set comment="kpoint 48">
       <r>   -3.5918    1.0000 </r>
       <r>    3.2606    1.0000 </r>
       <r>    3.7988    1.0000 </r>
       <r>    5.3897    1.0000 </r>
       <r>    7.3986    1.0000 </r>
       <r>   12.1636    0.0000 </r>
       <r>   12.6553    0.0000 </r>
       <r>   13.6210    0.0000 </r>
       <r>   15.4365    0.0000 </r>
       <r>   18.1415    0.0000 </r>
       <r>   20.6437    0.0000 </r>
       <r>   21.0105    0.0000 </r>
      </set>
      <set comment="kpoint 49">
       <r>   -3.4653    1.0000 </r>
       <r>    3.3973    1.0000 </r>
       <r>    3.7308    1.0000 </r>
       <r>    4.4510    1.0000 </r>
       <r>    8.4336    0.9839 </r>
       <r>   11.7508    0.0000 </r>
       <r>   12.6970    0.0000 </r>
       <r>   13.3334    0.0000 </r>
       <r>   15.3842    0.0000 </r>
       <r>   19.1171    0.0000 </r>
       <r>   20.9192    0.0000 </r>
       <r>   21.0165    0.0000 </r>
      </set>
      <set comment="kpoint 50">
       <r>   -3.5146    1.0000 </r>
       <r>    2.7559    1.0000 </r>
       <r>    3.8034    1.0000 </r>
       <r>    5.2487    1.0000 </r>
       <r>    7.4648    1.0000 </r>
       <r>   12.1219    0.0000 </r>
       <r>   12.5800    0.0000 </r>
       <r>   13.6384    0.0000 </r>
       <r>   16.2621    0.0000 </r>
       <r>   18.0511    0.0000 </r>
       <r>   20.4063    0.0000 </r>
       <r>   21.0121    0.0000 </r>
      </set>
      <set comment="kpoint 51">
       <r>   -3.8598    1.0000 </r>
       <r>    2.3057    1.0000 </r>
       <r>    3.9488    1.0000 </r>
       <r>    3.9488    1.0000 </r>
       <r>    9.7898    0.0000 </r>
       <r>    9.7898    0.0000 </r>
       <r>   10.1836    0.0000 </r>
       <r>   15.8563    0.0000 </r>
       <r>   15.8563    0.0000 </r>
       <r>   17.0297    0.0000 </r>
       <r>   20.9915    0.0000 </r>
       <r>   21.9067    0.0000 </r>
      </set>
      <set comment="kpoint 52">
       <r>   -3.1982    1.0000 </r>
       <r>    1.5245    1.0000 </r>
       <r>    3.5493    1.0000 </r>
       <r>    3.8631    1.0000 </r>
       <r>    9.7281    0.0000 </r>
       <r>   10.4042    0.0000 </r>
       <r>   11.7105    0.0000 </r>
       <r>   14.7693    0.0000 </r>
       <r>   16.7774    0.0000 </r>
       <r>   18.0446    0.0000 </r>
       <r>   20.9920    0.0000 </r>
       <r>   22.2274    0.0000 </r>
      </set>
      <set comment="kpoint 53">
       <r>   -2.7223    1.0000 </r>
       <r>    1.2955    1.0000 </r>
       <r>    3.6573    1.0000 </r>
       <r>    3.6817    1.0000 </r>
       <r>   10.3038    0.0000 </r>
       <r>   10.9198    0.0000 </r>
       <r>   11.8325    0.0000 </r>
       <r>   13.9512    0.0000 </r>
       <r>   18.1553    0.0000 </r>
       <r>   18.2721    0.0000 </r>
       <r>   20.9895    0.0000 </r>
       <r>   21.4990    0.0000 </r>
      </set>
      <set comment="kpoint 54">
       <r>   -2.9816    1.0000 </r>
       <r>    2.0399    1.0000 </r>
       <r>    3.6400    1.0000 </r>
       <r>    4.2827    1.0000 </r>
       <r>    8.9180    0.0000 </r>
       <r>   11.3354    0.0000 </r>
       <r>   12.3967    0.0000 </r>
       <r>   14.7817    0.0000 </r>
       <r>   16.1975    0.0000 </r>
       <r>   19.5209    0.0000 </r>
       <r>   20.8097    0.0000 </r>
       <r>   21.0272    0.0000 </r>
      </set>
      <set comment="kpoint 55">
       <r>   -2.8470    1.0000 </r>
       <r>    1.1135    1.0000 </r>
       <r>    3.4429    1.0000 </r>
       <r>    3.8441    1.0000 </r>
       <r>    9.2688    0.0000 </r>
       <r>   11.4127    0.0000 </r>
       <r>   12.0013    0.0000 </r>
       <r>   15.8285    0.0000 </r>
       <r>   16.0082    0.0000 </r>
       <r>   18.5370    0.0000 </r>
       <r>   20.9711    0.0000 </r>
       <r>   21.4270    0.0000 </r>
      </set>
      <set comment="kpoint 56">
       <r>   -2.7153    1.0000 </r>
       <r>    1.2886    1.0000 </r>
       <r>    3.5535    1.0000 </r>
       <r>    3.8672    1.0000 </r>
       <r>    9.6283    0.0000 </r>
       <r>   11.1654    0.0000 </r>
       <r>   12.1585    0.0000 </r>
       <r>   15.2235    0.0000 </r>
       <r>   16.7272    0.0000 </r>
       <r>   18.6315    0.0000 </r>
       <r>   20.9478    0.0000 </r>
       <r>   21.2555    0.0000 </r>
      </set>
      <set comment="kpoint 57">
       <r>   -3.0268    1.0000 </r>
       <r>    2.3078    1.0000 </r>
       <r>    3.6297    1.0000 </r>
       <r>    4.1128    1.0000 </r>
       <r>    9.5300    0.0000 </r>
       <r>   10.7175    0.0000 </r>
       <r>   12.5931    0.0000 </r>
       <r>   14.5116    0.0000 </r>
       <r>   15.5911    0.0000 </r>
       <r>   20.4504    0.0000 </r>
       <r>   20.9708    0.0000 </r>
       <r>   21.2463    0.0000 </r>
      </set>
      <set comment="kpoint 58">
       <r>   -2.8501    1.0000 </r>
       <r>    1.6376    1.0000 </r>
       <r>    3.5861    1.0000 </r>
       <r>    4.1515    1.0000 </r>
       <r>    8.9965    0.0000 </r>
       <r>   11.5346    0.0000 </r>
       <r>   12.2011    0.0000 </r>
       <r>   15.8316    0.0000 </r>
       <r>   16.1119    0.0000 </r>
       <r>   18.5448    0.0000 </r>
       <r>   20.6244    0.0000 </r>
       <r>   21.0332    0.0000 </r>
      </set>
      <set comment="kpoint 59">
       <r>   -2.2592    1.0000 </r>
       <r>    0.3803    1.0000 </r>
       <r>    3.2550    1.0000 </r>
       <r>    3.2550    1.0000 </r>
       <r>   11.1099    0.0000 </r>
       <r>   11.1099    0.0000 </r>
       <r>   11.7334    0.0000 </r>
       <r>   14.8074    0.0000 </r>
       <r>   18.1514    0.0000 </r>
       <r>   18.1514    0.0000 </r>
       <r>   21.5393    0.0000 </r>
       <r>   21.5393    0.0000 </r>
      </set>
      <set comment="kpoint 60">
       <r>   -2.1628    1.0000 </r>
       <r>    0.3848    1.0000 </r>
       <r>    3.3769    1.0000 </r>
       <r>    3.3820    1.0000 </r>
       <r>   10.7844    0.0000 </r>
       <r>   11.1365    0.0000 </r>
       <r>   11.9370    0.0000 </r>
       <r>   15.4008    0.0000 </r>
       <r>   17.4825    0.0000 </r>
       <r>   18.1692    0.0000 </r>
       <r>   20.9867    0.0000 </r>
       <r>   21.4135    0.0000 </r>
      </set>
     </set>
     <set comment="spin 2">
      <set comment="kpoint 1">
       <r>   -6.0542    1.0000 </r>
       <r>    6.7001    1.0000 </r>
       <r>    7.0455    1.0000 </r>
       <r>    7.0455    1.0000 </r>
       <r>    7.7968    1.0000 </r>
       <r>    7.7968    1.0000 </r>
       <r>    8.5340   -0.0355 </r>
       <r>   10.1270    0.0000 </r>
       <r>   10.1270    0.0000 </r>
       <r>   15.4515    0.0000 </r>
       <r>   18.9709    0.0000 </r>
       <r>   21.0027    0.0000 </r>
      </set>
      <set comment="kpoint 2">
       <r>   -5.5177    1.0000 </r>
       <r>    5.1431    1.0000 </r>
       <r>    5.6033    1.0000 </r>
       <r>    5.7678    1.0000 </r>
       <r>    7.7704    1.0000 </r>
       <r>    8.6992    0.0000 </r>
       <r>    9.3509    0.0000 </r>
       <r>   11.2453    0.0000 </r>
       <r>   12.7949    0.0000 </r>
       <r>   16.4415    0.0000 </r>
       <r>   20.2886    0.0000 </r>
       <r>   21.0023    0.0000 </r>
      </set>
      <set comment="kpoint 3">
       <r>   -4.3123    1.0000 </r>
       <r>    2.9409    1.0000 </r>
       <r>    4.1610    1.0000 </r>
       <r>    4.4687    1.0000 </r>
       <r>    8.9275    0.0000 </r>
       <r>    9.5127    0.0000 </r>
       <r>   10.2971    0.0000 </r>
       <r>   13.9857    0.0000 </r>
       <r>   15.7258    0.0000 </r>
       <r>   17.3842    0.0000 </r>
       <r>   20.9950    0.0000 </r>
       <r>   21.8146    0.0000 </r>
      </set>
      <set comment="kpoint 4">
       <r>   -2.7679    1.0000 </r>
       <r>    0.9683    1.0000 </r>
       <r>    3.3680    1.0000 </r>
       <r>    3.5385    1.0000 </r>
       <r>   10.4457    0.0000 </r>
       <r>   10.6443    0.0000 </r>
       <r>   11.5979    0.0000 </r>
       <r>   15.6906    0.0000 </r>
       <r>   16.7670    0.0000 </r>
       <r>   18.1107    0.0000 </r>
       <r>   20.9927    0.0000 </r>
       <r>   22.1392    0.0000 </r>
      </set>
      <set comment="kpoint 5">
       <r>   -1.9686    1.0000 </r>
       <r>    0.0889    1.0000 </r>
       <r>    3.2132    1.0000 </r>
       <r>    3.2599    1.0000 </r>
       <r>   10.9650    0.0000 </r>
       <r>   11.3764    0.0000 </r>
       <r>   12.2231    0.0000 </r>
       <r>   14.5040    0.0000 </r>
       <r>   18.1464    0.0000 </r>
       <r>   18.5102    0.0000 </r>
       <r>   20.9871    0.0000 </r>
       <r>   21.1742    0.0000 </r>
      </set>
      <set comment="kpoint 6">
       <r>   -3.3019    1.0000 </r>
       <r>    1.5878    1.0000 </r>
       <r>    3.5648    1.0000 </r>
       <r>    3.8302    1.0000 </r>
       <r>    9.5518    0.0000 </r>
       <r>   10.7091    0.0000 </r>
       <r>   11.0646    0.0000 </r>
       <r>   15.9726    0.0000 </r>
       <r>   16.3021    0.0000 </r>
       <r>   17.5557    0.0000 </r>
       <r>   20.9908    0.0000 </r>
       <r>   22.1163    0.0000 </r>
      </set>
      <set comment="kpoint 7">
       <r>   -4.7782    1.0000 </r>
       <r>    3.5906    1.0000 </r>
       <r>    4.6231    1.0000 </r>
       <r>    5.0164    1.0000 </r>
       <r>    8.2247    1.0000 </r>
       <r>    9.3507    0.0000 </r>
       <r>    9.9167    0.0000 </r>
       <r>   13.1862    0.0000 </r>
       <r>   14.5054    0.0000 </r>
       <r>   17.3804    0.0000 </r>
       <r>   20.9983    0.0000 </r>
       <r>   21.5368    0.0000 </r>
      </set>
      <set comment="kpoint 8">
       <r>   -5.7839    1.0000 </r>
       <r>    5.6647    1.0000 </r>
       <r>    6.2511    1.0000 </r>
       <r>    6.4887    1.0000 </r>
       <r>    7.3155    1.0000 </r>
       <r>    8.6316    0.0000 </r>
       <r>    9.1815    0.0000 </r>
       <r>   10.3595    0.0000 </r>
       <r>   11.7979    0.0000 </r>
       <r>   16.0451    0.0000 </r>
       <r>   19.6733    0.0000 </r>
       <r>   21.0023    0.0000 </r>
      </set>
      <set comment="kpoint 9">
       <r>   -5.2923    1.0000 </r>
       <r>    4.1593    1.0000 </r>
       <r>    5.7408    1.0000 </r>
       <r>    6.1376    1.0000 </r>
       <r>    6.9317    1.0000 </r>
       <r>    9.4168    0.0000 </r>
       <r>   10.1915    0.0000 </r>
       <r>   10.8764    0.0000 </r>
       <r>   13.1427    0.0000 </r>
       <r>   17.2934    0.0000 </r>
       <r>   20.9214    0.0000 </r>
       <r>   21.0023    0.0000 </r>
      </set>
      <set comment="kpoint 10">
       <r>   -4.4417    1.0000 </r>
       <r>    2.8491    1.0000 </r>
       <r>    4.7057    1.0000 </r>
       <r>    5.1758    1.0000 </r>
       <r>    7.4707    1.0000 </r>
       <r>   10.3118    0.0000 </r>
       <r>   11.1243    0.0000 </r>
       <r>   12.2613    0.0000 </r>
       <r>   14.9885    0.0000 </r>
       <r>   18.6505    0.0000 </r>
       <r>   20.9987    0.0000 </r>
       <r>   22.3805    0.0000 </r>
      </set>
      <set comment="kpoint 11">
       <r>   -3.2682    1.0000 </r>
       <r>    1.6356    1.0000 </r>
       <r>    3.6814    1.0000 </r>
       <r>    4.2266    1.0000 </r>
       <r>    8.5850   -0.0033 </r>
       <r>   11.2972    0.0000 </r>
       <r>   11.9778    0.0000 </r>
       <r>   14.5396    0.0000 </r>
       <r>   16.3139    0.0000 </r>
       <r>   18.7365    0.0000 </r>
       <r>   20.9625    0.0000 </r>
       <r>   21.3677    0.0000 </r>
      </set>
      <set comment="kpoint 12">
       <r>   -2.3779    1.0000 </r>
       <r>    0.7323    1.0000 </r>
       <r>    3.4303    1.0000 </r>
       <r>    3.6192    1.0000 </r>
       <r>   10.1104    0.0000 </r>
       <r>   11.2086    0.0000 </r>
       <r>   12.1386    0.0000 </r>
       <r>   15.8228    0.0000 </r>
       <r>   17.0604    0.0000 </r>
       <r>   18.0107    0.0000 </r>
       <r>   20.9661    0.0000 </r>
       <r>   21.2993    0.0000 </r>
      </set>
      <set comment="kpoint 13">
       <r>   -2.7828    1.0000 </r>
       <r>    1.1340    1.0000 </r>
       <r>    3.5020    1.0000 </r>
       <r>    3.7577    1.0000 </r>
       <r>    9.7416    0.0000 </r>
       <r>   11.1602    0.0000 </r>
       <r>   11.8851    0.0000 </r>
       <r>   15.0415    0.0000 </r>
       <r>   16.6152    0.0000 </r>
       <r>   18.6289    0.0000 </r>
       <r>   20.9868    0.0000 </r>
       <r>   21.8561    0.0000 </r>
      </set>
      <set comment="kpoint 14">
       <r>   -3.9819    1.0000 </r>
       <r>    2.4752    1.0000 </r>
       <r>    4.0913    1.0000 </r>
       <r>    4.3616    1.0000 </r>
       <r>    8.4934    0.1780 </r>
       <r>   10.6757    0.0000 </r>
       <r>   11.2196    0.0000 </r>
       <r>   12.7766    0.0000 </r>
       <r>   16.4632    0.0000 </r>
       <r>   18.1455    0.0000 </r>
       <r>   20.9949    0.0000 </r>
       <r>   22.2413    0.0000 </r>
      </set>
      <set comment="kpoint 15">
       <r>   -5.0326    1.0000 </r>
       <r>    3.9375    1.0000 </r>
       <r>    5.0678    1.0000 </r>
       <r>    5.3448    1.0000 </r>
       <r>    7.7231    1.0000 </r>
       <r>    9.4645    0.0000 </r>
       <r>   10.1015    0.0000 </r>
       <r>   11.7368    0.0000 </r>
       <r>   14.1263    0.0000 </r>
       <r>   17.3656    0.0000 </r>
       <r>   21.0012    0.0000 </r>
       <r>   21.3278    0.0000 </r>
      </set>
      <set comment="kpoint 16">
       <r>   -4.1846    1.0000 </r>
       <r>    2.4722    1.0000 </r>
       <r>    4.8836    1.0000 </r>
       <r>    6.0389    1.0000 </r>
       <r>    6.5017    1.0000 </r>
       <r>   10.5474    0.0000 </r>
       <r>   12.1452    0.0000 </r>
       <r>   12.3437    0.0000 </r>
       <r>   14.8593    0.0000 </r>
       <r>   20.0273    0.0000 </r>
       <r>   20.9947    0.0000 </r>
       <r>   22.1158    0.0000 </r>
      </set>
      <set comment="kpoint 17">
       <r>   -3.7111    1.0000 </r>
       <r>    2.4520    1.0000 </r>
       <r>    4.1566    1.0000 </r>
       <r>    5.3529    1.0000 </r>
       <r>    7.2811    1.0000 </r>
       <r>   11.6274    0.0000 </r>
       <r>   12.5618    0.0000 </r>
       <r>   12.9079    0.0000 </r>
       <r>   16.0689    0.0000 </r>
       <r>   19.2413    0.0000 </r>
       <r>   20.4174    0.0000 </r>
       <r>   21.0153    0.0000 </r>
      </set>
      <set comment="kpoint 18">
       <r>   -3.1719    1.0000 </r>
       <r>    2.2457    1.0000 </r>
       <r>    3.6661    1.0000 </r>
       <r>    4.5240    1.0000 </r>
       <r>    8.3608    1.0035 </r>
       <r>   11.7229    0.0000 </r>
       <r>   12.4640    0.0000 </r>
       <r>   14.6613    0.0000 </r>
       <r>   16.0682    0.0000 </r>
       <r>   18.8581    0.0000 </r>
       <r>   20.3817    0.0000 </r>
       <r>   21.0179    0.0000 </r>
      </set>
      <set comment="kpoint 19">
       <r>   -2.7888    1.0000 </r>
       <r>    1.6248    1.0000 </r>
       <r>    3.6179    1.0000 </r>
       <r>    3.9266    1.0000 </r>
       <r>   10.0375    0.0000 </r>
       <r>   10.6089    0.0000 </r>
       <r>   12.2724    0.0000 </r>
       <r>   14.3380    0.0000 </r>
       <r>   17.0883    0.0000 </r>
       <r>   19.3828    0.0000 </r>
       <r>   20.9779    0.0000 </r>
       <r>   21.3514    0.0000 </r>
      </set>
      <set comment="kpoint 20">
       <r>   -3.0130    1.0000 </r>
       <r>    1.5042    1.0000 </r>
       <r>    3.6785    1.0000 </r>
       <r>    3.8167    1.0000 </r>
       <r>    9.4988    0.0000 </r>
       <r>   11.4725    0.0000 </r>
       <r>   11.8252    0.0000 </r>
       <r>   13.5327    0.0000 </r>
       <r>   17.2403    0.0000 </r>
       <r>   18.7639    0.0000 </r>
       <r>   20.9875    0.0000 </r>
       <r>   21.9247    0.0000 </r>
      </set>
      <set comment="kpoint 21">
       <r>   -3.7421    1.0000 </r>
       <r>    2.1358    1.0000 </r>
       <r>    3.8208    1.0000 </r>
       <r>    4.2424    1.0000 </r>
       <r>    8.8278    0.0000 </r>
       <r>   10.3866    0.0000 </r>
       <r>   11.1820    0.0000 </r>
       <r>   14.3363    0.0000 </r>
       <r>   16.4733    0.0000 </r>
       <r>   17.8252    0.0000 </r>
       <r>   20.9912    0.0000 </r>
       <r>   22.0037    0.0000 </r>
      </set>
      <set comment="kpoint 22">
       <r>   -3.9351    1.0000 </r>
       <r>    3.2710    1.0000 </r>
       <r>    4.2024    1.0000 </r>
       <r>    6.4451    1.0000 </r>
       <r>    6.7617    1.0000 </r>
       <r>   11.3448    0.0000 </r>
       <r>   12.7519    0.0000 </r>
       <r>   12.7661    0.0000 </r>
       <r>   16.2879    0.0000 </r>
       <r>   17.0790    0.0000 </r>
       <r>   20.9076    0.0000 </r>
       <r>   21.0131    0.0000 </r>
      </set>
      <set comment="kpoint 23">
       <r>   -3.7894    1.0000 </r>
       <r>    3.7108    1.0000 </r>
       <r>    3.8768    1.0000 </r>
       <r>    5.5659    1.0000 </r>
       <r>    7.4395    1.0000 </r>
       <r>   12.3239    0.0000 </r>
       <r>   12.5319    0.0000 </r>
       <r>   12.7202    0.0000 </r>
       <r>   15.6163    0.0000 </r>
       <r>   17.5937    0.0000 </r>
       <r>   20.7079    0.0000 </r>
       <r>   21.0094    0.0000 </r>
      </set>
      <set comment="kpoint 24">
       <r>   -3.2750    1.0000 </r>
       <r>    2.7128    1.0000 </r>
       <r>    3.6992    1.0000 </r>
       <r>    4.6195    1.0000 </r>
       <r>    8.2965    1.0000 </r>
       <r>   11.6381    0.0000 </r>
       <r>   12.6007    0.0000 </r>
       <r>   14.6157    0.0000 </r>
       <r>   15.2141    0.0000 </r>
       <r>   19.2971    0.0000 </r>
       <r>   20.7580    0.0000 </r>
       <r>   21.0155    0.0000 </r>
      </set>
      <set comment="kpoint 25">
       <r>   -2.6124    1.0000 </r>
       <r>    1.2240    1.0000 </r>
       <r>    3.5590    1.0000 </r>
       <r>    3.8068    1.0000 </r>
       <r>   10.0661    0.0000 </r>
       <r>   10.8079    0.0000 </r>
       <r>   12.0811    0.0000 </r>
       <r>   15.5866    0.0000 </r>
       <r>   16.9324    0.0000 </r>
       <r>   18.2777    0.0000 </r>
       <r>   20.9712    0.0000 </r>
       <r>   21.3781    0.0000 </r>
      </set>
      <set comment="kpoint 26">
       <r>   -2.3756    1.0000 </r>
       <r>    0.5798    1.0000 </r>
       <r>    3.3202    1.0000 </r>
       <r>    3.4998    1.0000 </r>
       <r>   10.2722    0.0000 </r>
       <r>   11.2944    0.0000 </r>
       <r>   12.0282    0.0000 </r>
       <r>   15.3766    0.0000 </r>
       <r>   16.9420    0.0000 </r>
       <r>   18.5590    0.0000 </r>
       <r>   20.9869    0.0000 </r>
       <r>   21.5726    0.0000 </r>
      </set>
      <set comment="kpoint 27">
       <r>   -3.9911    1.0000 </r>
       <r>    3.8672    1.0000 </r>
       <r>    4.0465    1.0000 </r>
       <r>    6.6074    1.0000 </r>
       <r>    6.8783    1.0000 </r>
       <r>   11.5544    0.0000 </r>
       <r>   12.6603    0.0000 </r>
       <r>   12.7120    0.0000 </r>
       <r>   15.6969    0.0000 </r>
       <r>   16.8524    0.0000 </r>
       <r>   20.7112    0.0000 </r>
       <r>   21.0088    0.0000 </r>
      </set>
      <set comment="kpoint 28">
       <r>   -3.7228    1.0000 </r>
       <r>    3.0951    1.0000 </r>
       <r>    3.9704    1.0000 </r>
       <r>    5.5119    1.0000 </r>
       <r>    7.3644    1.0000 </r>
       <r>   12.0569    0.0000 </r>
       <r>   12.6254    0.0000 </r>
       <r>   12.8249    0.0000 </r>
       <r>   16.3799    0.0000 </r>
       <r>   17.6096    0.0000 </r>
       <r>   20.6951    0.0000 </r>
       <r>   21.0116    0.0000 </r>
      </set>
      <set comment="kpoint 29">
       <r>   -3.0958    1.0000 </r>
       <r>    1.7267    1.0000 </r>
       <r>    3.6500    1.0000 </r>
       <r>    4.3537    1.0000 </r>
       <r>    8.4377    0.9585 </r>
       <r>   11.7640    0.0000 </r>
       <r>   12.3410    0.0000 </r>
       <r>   14.6113    0.0000 </r>
       <r>   16.3921    0.0000 </r>
       <r>   19.1406    0.0000 </r>
       <r>   20.1510    0.0000 </r>
       <r>   21.0211    0.0000 </r>
      </set>
      <set comment="kpoint 30">
       <r>   -3.9411    1.0000 </r>
       <r>    2.6285    1.0000 </r>
       <r>    4.4940    1.0000 </r>
       <r>    6.2172    1.0000 </r>
       <r>    6.5917    1.0000 </r>
       <r>   10.9907    0.0000 </r>
       <r>   12.6458    0.0000 </r>
       <r>   12.7335    0.0000 </r>
       <r>   15.6040    0.0000 </r>
       <r>   19.1514    0.0000 </r>
       <r>   20.9400    0.0000 </r>
       <r>   21.0306    0.0000 </r>
      </set>
      <set comment="kpoint 31">
       <r>   -3.9397    1.0000 </r>
       <r>    2.3055    1.0000 </r>
       <r>    4.4058    1.0000 </r>
       <r>    5.2031    1.0000 </r>
       <r>    7.2990    1.0000 </r>
       <r>   11.0451    0.0000 </r>
       <r>   12.0397    0.0000 </r>
       <r>   12.7335    0.0000 </r>
       <r>   15.5421    0.0000 </r>
       <r>   19.6948    0.0000 </r>
       <r>   20.9756    0.0000 </r>
       <r>   21.5200    0.0000 </r>
      </set>
      <set comment="kpoint 32">
       <r>   -4.6946    1.0000 </r>
       <r>    3.0173    1.0000 </r>
       <r>    5.3095    1.0000 </r>
       <r>    5.9954    1.0000 </r>
       <r>    6.6093    1.0000 </r>
       <r>   10.0376    0.0000 </r>
       <r>   11.2563    0.0000 </r>
       <r>   11.6322    0.0000 </r>
       <r>   14.0844    0.0000 </r>
       <r>   18.8495    0.0000 </r>
       <r>   21.0010    0.0000 </r>
       <r>   22.4687    0.0000 </r>
      </set>
      <set comment="kpoint 33">
       <r>   -5.2560    1.0000 </r>
       <r>    4.5396    1.0000 </r>
       <r>    5.2995    1.0000 </r>
       <r>    5.2995    1.0000 </r>
       <r>    8.4230    1.0240 </r>
       <r>    8.4230    1.0240 </r>
       <r>    9.2904    0.0000 </r>
       <r>   12.9335    0.0000 </r>
       <r>   12.9335    0.0000 </r>
       <r>   16.7195    0.0000 </r>
       <r>   20.7790    0.0000 </r>
       <r>   21.0035    0.0000 </r>
      </set>
      <set comment="kpoint 34">
       <r>   -4.5588    1.0000 </r>
       <r>    3.3593    1.0000 </r>
       <r>    4.3463    1.0000 </r>
       <r>    4.7052    1.0000 </r>
       <r>    8.3861    1.0174 </r>
       <r>    9.9260    0.0000 </r>
       <r>   10.4287    0.0000 </r>
       <r>   12.2922    0.0000 </r>
       <r>   15.6447    0.0000 </r>
       <r>   17.5314    0.0000 </r>
       <r>   20.9991    0.0000 </r>
       <r>   21.9001    0.0000 </r>
      </set>
      <set comment="kpoint 35">
       <r>   -3.4324    1.0000 </r>
       <r>    1.8863    1.0000 </r>
       <r>    3.6945    1.0000 </r>
       <r>    3.9918    1.0000 </r>
       <r>    9.2682    0.0000 </r>
       <r>   10.9270    0.0000 </r>
       <r>   11.6682    0.0000 </r>
       <r>   13.2014    0.0000 </r>
       <r>   17.3347    0.0000 </r>
       <r>   18.0033    0.0000 </r>
       <r>   20.9930    0.0000 </r>
       <r>   22.1517    0.0000 </r>
      </set>
      <set comment="kpoint 36">
       <r>   -2.5070    1.0000 </r>
       <r>    0.9137    1.0000 </r>
       <r>    3.5504    1.0000 </r>
       <r>    3.5801    1.0000 </r>
       <r>   10.6558    0.0000 </r>
       <r>   10.8026    0.0000 </r>
       <r>   11.6273    0.0000 </r>
       <r>   15.3571    0.0000 </r>
       <r>   17.1927    0.0000 </r>
       <r>   18.2304    0.0000 </r>
       <r>   20.9886    0.0000 </r>
       <r>   21.6761    0.0000 </r>
      </set>
      <set comment="kpoint 37">
       <r>   -2.7200    1.0000 </r>
       <r>    1.1803    1.0000 </r>
       <r>    3.4900    1.0000 </r>
       <r>    3.9729    1.0000 </r>
       <r>    9.0917    0.0000 </r>
       <r>   11.6692    0.0000 </r>
       <r>   12.2831    0.0000 </r>
       <r>   16.0148    0.0000 </r>
       <r>   16.0264    0.0000 </r>
       <r>   18.5916    0.0000 </r>
       <r>   20.5292    0.0000 </r>
       <r>   21.0318    0.0000 </r>
      </set>
      <set comment="kpoint 38">
       <r>   -3.6991    1.0000 </r>
       <r>    2.0687    1.0000 </r>
       <r>    4.0189    1.0000 </r>
       <r>    4.9043    1.0000 </r>
       <r>    7.6447    1.0000 </r>
       <r>   11.1850    0.0000 </r>
       <r>   11.9522    0.0000 </r>
       <r>   13.6965    0.0000 </r>
       <r>   15.8484    0.0000 </r>
       <r>   19.2285    0.0000 </r>
       <r>   20.9458    0.0000 </r>
       <r>   21.2645    0.0000 </r>
      </set>
      <set comment="kpoint 39">
       <r>   -4.1941    1.0000 </r>
       <r>    2.6051    1.0000 </r>
       <r>    4.2406    1.0000 </r>
       <r>    4.8801    1.0000 </r>
       <r>    7.8993    1.0000 </r>
       <r>   10.3231    0.0000 </r>
       <r>   10.9678    0.0000 </r>
       <r>   13.4839    0.0000 </r>
       <r>   15.4208    0.0000 </r>
       <r>   18.3701    0.0000 </r>
       <r>   20.9946    0.0000 </r>
       <r>   22.0506    0.0000 </r>
      </set>
      <set comment="kpoint 40">
       <r>   -3.5030    1.0000 </r>
       <r>    1.9622    1.0000 </r>
       <r>    3.9753    1.0000 </r>
       <r>    4.2801    1.0000 </r>
       <r>    8.3920    1.0227 </r>
       <r>   11.4573    0.0000 </r>
       <r>   11.9629    0.0000 </r>
       <r>   13.1445    0.0000 </r>
       <r>   16.5051    0.0000 </r>
       <r>   19.0916    0.0000 </r>
       <r>   20.9714    0.0000 </r>
       <r>   21.4696    0.0000 </r>
      </set>
      <set comment="kpoint 41">
       <r>   -2.9243    1.0000 </r>
       <r>    1.7004    1.0000 </r>
       <r>    3.6690    1.0000 </r>
       <r>    3.9271    1.0000 </r>
       <r>    9.5250    0.0000 </r>
       <r>   11.1744    0.0000 </r>
       <r>   12.3022    0.0000 </r>
       <r>   13.8222    0.0000 </r>
       <r>   17.0905    0.0000 </r>
       <r>   19.2892    0.0000 </r>
       <r>   20.9481    0.0000 </r>
       <r>   21.2631    0.0000 </r>
      </set>
      <set comment="kpoint 42">
       <r>   -2.8809    1.0000 </r>
       <r>    1.8271    1.0000 </r>
       <r>    3.6029    1.0000 </r>
       <r>    4.0491    1.0000 </r>
       <r>    9.5718    0.0000 </r>
       <r>   10.7867    0.0000 </r>
       <r>   12.4256    0.0000 </r>
       <r>   15.3574    0.0000 </r>
       <r>   15.8222    0.0000 </r>
       <r>   19.2961    0.0000 </r>
       <r>   20.9285    0.0000 </r>
       <r>   21.1790    0.0000 </r>
      </set>
      <set comment="kpoint 43">
       <r>   -3.3168    1.0000 </r>
       <r>    2.1017    1.0000 </r>
       <r>    3.8431    1.0000 </r>
       <r>    4.4172    1.0000 </r>
       <r>    8.3473    1.0011 </r>
       <r>   11.8449    0.0000 </r>
       <r>   12.4127    0.0000 </r>
       <r>   13.2851    0.0000 </r>
       <r>   16.6387    0.0000 </r>
       <r>   19.4817    0.0000 </r>
       <r>   20.2509    0.0000 </r>
       <r>   21.0213    0.0000 </r>
      </set>
      <set comment="kpoint 44">
       <r>   -3.4845    1.0000 </r>
       <r>    2.1825    1.0000 </r>
       <r>    3.8820    1.0000 </r>
       <r>    5.0525    1.0000 </r>
       <r>    7.5201    1.0000 </r>
       <r>   11.8143    0.0000 </r>
       <r>   12.4841    0.0000 </r>
       <r>   13.7154    0.0000 </r>
       <r>   16.2082    0.0000 </r>
       <r>   19.3258    0.0000 </r>
       <r>   19.9119    0.0000 </r>
       <r>   21.0151    0.0000 </r>
      </set>
      <set comment="kpoint 45">
       <r>   -3.3734    1.0000 </r>
       <r>    2.7382    1.0000 </r>
       <r>    3.7509    1.0000 </r>
       <r>    4.5345    1.0000 </r>
       <r>    8.3844    1.0160 </r>
       <r>   11.7784    0.0000 </r>
       <r>   12.6306    0.0000 </r>
       <r>   13.3547    0.0000 </r>
       <r>   16.2467    0.0000 </r>
       <r>   18.8985    0.0000 </r>
       <r>   20.6591    0.0000 </r>
       <r>   21.0178    0.0000 </r>
      </set>
      <set comment="kpoint 46">
       <r>   -3.1965    1.0000 </r>
       <r>    3.0251    1.0000 </r>
       <r>    3.6380    1.0000 </r>
       <r>    3.9333    1.0000 </r>
       <r>    9.6029    0.0000 </r>
       <r>   10.7747    0.0000 </r>
       <r>   12.6980    0.0000 </r>
       <r>   13.8066    0.0000 </r>
       <r>   15.1402    0.0000 </r>
       <r>   20.7482    0.0000 </r>
       <r>   21.0500    0.0000 </r>
       <r>   21.4583    0.0000 </r>
      </set>
      <set comment="kpoint 47">
       <r>   -3.0648    1.0000 </r>
       <r>    2.3413    1.0000 </r>
       <r>    3.6380    1.0000 </r>
       <r>    4.0668    1.0000 </r>
       <r>    9.5617    0.0000 </r>
       <r>   10.7784    0.0000 </r>
       <r>   12.6132    0.0000 </r>
       <r>   13.9962    0.0000 </r>
       <r>   15.9981    0.0000 </r>
       <r>   20.1575    0.0000 </r>
       <r>   20.9411    0.0000 </r>
       <r>   21.1703    0.0000 </r>
      </set>
      <set comment="kpoint 48">
       <r>   -3.5913    1.0000 </r>
       <r>    3.2605    1.0000 </r>
       <r>    3.7990    1.0000 </r>
       <r>    5.3901    1.0000 </r>
       <r>    7.3986    1.0000 </r>
       <r>   12.1626    0.0000 </r>
       <r>   12.6545    0.0000 </r>
       <r>   13.6212    0.0000 </r>
       <r>   15.4366    0.0000 </r>
       <r>   18.1418    0.0000 </r>
       <r>   20.6433    0.0000 </r>
       <r>   21.0102    0.0000 </r>
      </set>
      <set comment="kpoint 49">
       <r>   -3.4648    1.0000 </r>
       <r>    3.3973    1.0000 </r>
       <r>    3.7308    1.0000 </r>
       <r>    4.4513    1.0000 </r>
       <r>    8.4337    0.9836 </r>
       <r>   11.7501    0.0000 </r>
       <r>   12.6959    0.0000 </r>
       <r>   13.3334    0.0000 </r>
       <r>   15.3844    0.0000 </r>
       <r>   19.1175    0.0000 </r>
       <r>   20.9188    0.0000 </r>
       <r>   21.0161    0.0000 </r>
      </set>
      <set comment="kpoint 50">
       <r>   -3.5140    1.0000 </r>
       <r>    2.7559    1.0000 </r>
       <r>    3.8033    1.0000 </r>
       <r>    5.2490    1.0000 </r>
       <r>    7.4647    1.0000 </r>
       <r>   12.1209    0.0000 </r>
       <r>   12.5791    0.0000 </r>
       <r>   13.6385    0.0000 </r>
       <r>   16.2625    0.0000 </r>
       <r>   18.0511    0.0000 </r>
       <r>   20.4062    0.0000 </r>
       <r>   21.0117    0.0000 </r>
      </set>
      <set comment="kpoint 51">
       <r>   -3.8593    1.0000 </r>
       <r>    2.3058    1.0000 </r>
       <r>    3.9490    1.0000 </r>
       <r>    3.9490    1.0000 </r>
       <r>    9.7891    0.0000 </r>
       <r>    9.7891    0.0000 </r>
       <r>   10.1831    0.0000 </r>
       <r>   15.8568    0.0000 </r>
       <r>   15.8568    0.0000 </r>
       <r>   17.0295    0.0000 </r>
       <r>   20.9913    0.0000 </r>
       <r>   21.9059    0.0000 </r>
      </set>
      <set comment="kpoint 52">
       <r>   -3.1977    1.0000 </r>
       <r>    1.5246    1.0000 </r>
       <r>    3.5494    1.0000 </r>
       <r>    3.8631    1.0000 </r>
       <r>    9.7274    0.0000 </r>
       <r>   10.4038    0.0000 </r>
       <r>   11.7097    0.0000 </r>
       <r>   14.7696    0.0000 </r>
       <r>   16.7771    0.0000 </r>
       <r>   18.0453    0.0000 </r>
       <r>   20.9919    0.0000 </r>
       <r>   22.2271    0.0000 </r>
      </set>
      <set comment="kpoint 53">
       <r>   -2.7216    1.0000 </r>
       <r>    1.2955    1.0000 </r>
       <r>    3.6573    1.0000 </r>
       <r>    3.6818    1.0000 </r>
       <r>   10.3030    0.0000 </r>
       <r>   10.9191    0.0000 </r>
       <r>   11.8322    0.0000 </r>
       <r>   13.9513    0.0000 </r>
       <r>   18.1550    0.0000 </r>
       <r>   18.2728    0.0000 </r>
       <r>   20.9893    0.0000 </r>
       <r>   21.4983    0.0000 </r>
      </set>
      <set comment="kpoint 54">
       <r>   -2.9810    1.0000 </r>
       <r>    2.0399    1.0000 </r>
       <r>    3.6401    1.0000 </r>
       <r>    4.2829    1.0000 </r>
       <r>    8.9176    0.0000 </r>
       <r>   11.3344    0.0000 </r>
       <r>   12.3962    0.0000 </r>
       <r>   14.7819    0.0000 </r>
       <r>   16.1979    0.0000 </r>
       <r>   19.5209    0.0000 </r>
       <r>   20.8096    0.0000 </r>
       <r>   21.0268    0.0000 </r>
      </set>
      <set comment="kpoint 55">
       <r>   -2.8464    1.0000 </r>
       <r>    1.1135    1.0000 </r>
       <r>    3.4431    1.0000 </r>
[...]
        <r>  0.0188  0.0098  0.0098  0.2058  0.1525  0.0085  0.0015  0.1525  0.0046 </r>
       </set>
      </set>
      <set comment="kpoint 54">
       <set comment="band 1">
        <r>  0.4374  0.0012  0.0012  0.0001  0.0000  0.0000  0.0000  0.0000  0.0000 </r>
        <r>  0.0039  0.0496  0.0496  0.0026  0.0000  0.0003  0.0812  0.0000  0.2436 </r>
       </set>
       <set comment="band 2">
        <r>  0.0055  0.0918  0.0918  0.0075  0.0000  0.0000  0.0000  0.0000  0.0000 </r>
        <r>  0.1967  0.0547  0.0547  0.0102  0.0100  0.2752  0.0095  0.0100  0.0285 </r>
       </set>
       <set comment="band 3">
        <r>  0.0010  0.0040  0.0040  0.2187  0.0000  0.0000  0.0000  0.0000  0.0000 </r>
        <r>  0.0000  0.0042  0.0042  0.3414  0.1124  0.0183  0.0054  0.1124  0.0162 </r>
       </set>
       <set comment="band 4">
        <r>  0.0000  0.1526  0.1526  0.0000  0.0000  0.0000  0.0000  0.0000  0.0000 </r>
        <r>  0.0000  0.0365  0.0365  0.0000  0.0026  0.0000  0.3679  0.0026  0.1226 </r>
       </set>
       <set comment="band 5">
        <r>  0.0108  0.0644  0.0644  0.0011  0.0000  0.0000  0.0000  0.0000  0.0000 </r>
        <r>  0.1010  0.0006  0.0006  0.0014  0.0002  0.5440  0.0065  0.0002  0.0194 </r>
       </set>
       <set comment="band 6">
        <r>  0.0000  0.0007  0.0007  0.0000  0.0000  0.0000  0.0000  0.0000  0.0000 </r>
        <r>  0.0000  0.0001  0.0001  0.0000  0.4693  0.0000  0.0028  0.4693  0.0009 </r>
       </set>
       <set comment="band 7">
        <r>  0.0036  0.0006  0.0006  0.1916  0.0000  0.0000  0.0000  0.0000  0.0000 </r>
        <r>  0.0206  0.0001  0.0001  0.0283  0.3081  0.0001  0.0061  0.3081  0.0182 </r>
       </set>
       <set comment="band 8">
        <r>  0.0982  0.0000  0.0000  0.0209  0.0000  0.0000  0.0000  0.0000  0.0000 </r>
        <r>  0.1694  0.0062  0.0062  0.0192  0.0092  0.0003  0.1495  0.0092  0.4485 </r>
       </set>
       <set comment="band 9">
        <r>  0.0000  0.0942  0.0942  0.0000  0.0000  0.0000  0.0000  0.0000  0.0000 </r>
        <r>  0.0000  0.0642  0.0642  0.0000  0.0001  0.0000  0.4532  0.0001  0.1511 </r>
       </set>
       <set comment="band 10">
        <r>  0.0768  0.0264  0.0264  0.0283  0.0000  0.0000  0.0000  0.0000  0.0000 </r>
        <r>  0.1356  0.1408  0.1408  0.0167  0.0161  0.0855  0.0045  0.0161  0.0136 </r>
       </set>
       <set comment="band 11">
        <r>  0.0073  0.0516  0.0516  0.0954  0.0000  0.0000  0.0000  0.0000  0.0000 </r>
        <r>  3.5319  0.0010  0.0010  0.1314  0.0633  0.0013  0.0136  0.0633  0.0408 </r>
       </set>
       <set comment="band 12">
        <r>  0.0021  0.0044  0.0044  0.0112  0.0000  0.0000  0.0000  0.0000  0.0000 </r>
        <r> 40.3284  0.0027  0.0027  0.0162  0.0075  0.0009  0.0010  0.0075  0.0031 </r>
       </set>
      </set>
      <set comment="kpoint 55">
       <set comment="band 1">
        <r>  0.4027  0.0053  0.0019  0.0053  0.0000  0.0000  0.0000  0.0000  0.0000 </r>
        <r>  0.1245  0.0461  0.0923  0.0461  0.0048  0.0048  0.0753  0.0048  0.0000 </r>
       </set>
       <set comment="band 2">
        <r>  0.0489  0.0368  0.1021  0.0368  0.0000  0.0000  0.0000  0.0000  0.0000 </r>
        <r>  0.2105  0.0268  0.0027  0.0268  0.0848  0.0993  0.0643  0.0993  0.0000 </r>
       </set>
       <set comment="band 3">
        <r>  0.0074  0.0572  0.1325  0.0572  0.0000  0.0000  0.0000  0.0000  0.0000 </r>
        <r>  0.0002  0.0238  0.0425  0.0238  0.1564  0.0010  0.3903  0.0010  0.0000 </r>
       </set>
       <set comment="band 4">
        <r>  0.0000  0.1348  0.0000  0.1348  0.0000  0.0000  0.0000  0.0000  0.0000 </r>
        <r>  0.0000  0.0154  0.0000  0.0154  0.0000  0.0621  0.0000  0.0621  0.4700 </r>
       </set>
       <set comment="band 5">
        <r>  0.0200  0.0376  0.0046  0.0376  0.0000  0.0000  0.0000  0.0000  0.0000 </r>
        <r>  0.0302  0.0005  0.0016  0.0005  0.5964  0.0202  0.0679  0.0202  0.0000 </r>
       </set>
       <set comment="band 6">
        <r>  0.0000  0.0122  0.0000  0.0122  0.0000  0.0000  0.0000  0.0000  0.0000 </r>
        <r>  0.0000  0.0017  0.0000  0.0017  0.0000  0.4106  0.0000  0.4106  0.1237 </r>
       </set>
       <set comment="band 7">
        <r>  0.0105  0.0317  0.0432  0.0317  0.0000  0.0000  0.0000  0.0000  0.0000 </r>
        <r>  0.0863  0.0007  0.0045  0.0007  0.0001  0.3503  0.0040  0.3503  0.0000 </r>
       </set>
       <set comment="band 8">
        <r>  0.1115  0.0271  0.0064  0.0271  0.0000  0.0000  0.0000  0.0000  0.0000 </r>
        <r>  0.0001  0.0768  0.1119  0.0768  0.0615  0.0043  0.0913  0.0043  0.0000 </r>
       </set>
       <set comment="band 9">
        <r>  0.0000  0.1289  0.0000  0.1289  0.0000  0.0000  0.0000  0.0000  0.0000 </r>
        <r>  0.0000  0.0612  0.0000  0.0612  0.0000  0.0161  0.0000  0.0161  0.4570 </r>
       </set>
       <set comment="band 10">
        <r>  0.0041  0.0456  0.2284  0.0456  0.0000  0.0000  0.0000  0.0000  0.0000 </r>
        <r>  0.0060  0.0040  0.0299  0.0040  0.0053  0.0022  0.4683  0.0022  0.0000 </r>
       </set>
       <set comment="band 11">
        <r>  0.0008  0.0046  0.0080  0.0046  0.0000  0.0000  0.0000  0.0000  0.0000 </r>
        <r> 39.3873  0.0013  0.0097  0.0013  0.0000  0.0003  0.0031  0.0003  0.0000 </r>
       </set>
       <set comment="band 12">
        <r>  0.0112  0.0582  0.0867  0.0582  0.0000  0.0000  0.0000  0.0000  0.0000 </r>
        <r>  4.9238  0.0238  0.1543  0.0238  0.0005  0.0051  0.0384  0.0051  0.0000 </r>
       </set>
      </set>
      <set comment="kpoint 56">
       <set comment="band 1">
        <r>  0.4409  0.0014  0.0001  0.0018  0.0000  0.0000  0.0000  0.0000  0.0000 </r>
        <r>  0.0274  0.0801  0.0609  0.0188  0.0009  0.0008  0.1722  0.0004  0.0364 </r>
       </set>
       <set comment="band 2">
        <r>  0.0068  0.0789  0.0875  0.0251  0.0000  0.0000  0.0000  0.0000  0.0000 </r>
        <r>  0.2507  0.0024  0.0416  0.0286  0.0781  0.1459  0.0140  0.0444  0.0403 </r>
       </set>
       <set comment="band 3">
        <r>  0.0064  0.0247  0.1224  0.0869  0.0000  0.0000  0.0000  0.0000  0.0000 </r>
        <r>  0.0001  0.0079  0.0875  0.0928  0.1708  0.0349  0.2354  0.0031  0.0000 </r>
       </set>
       <set comment="band 4">
        <r>  0.0000  0.1533  0.0242  0.0965  0.0000  0.0000  0.0000  0.0000  0.0000 </r>
        <r>  0.0012  0.0003  0.0092  0.0681  0.0235  0.0118  0.0706  0.0630  0.3618 </r>
       </set>
       <set comment="band 5">
        <r>  0.0139  0.0113  0.0061  0.0930  0.0000  0.0000  0.0000  0.0000  0.0000 </r>
        <r>  0.0259  0.0003  0.0029  0.0064  0.5607  0.0038  0.0453  0.0598  0.0113 </r>
       </set>
       <set comment="band 6">
        <r>  0.0070  0.0258  0.0451  0.0022  0.0000  0.0000  0.0000  0.0000  0.0000 </r>
        <r>  0.0334  0.0007  0.0000  0.0001  0.0034  0.6472  0.0218  0.0792  0.0449 </r>
       </set>
       <set comment="band 7">
        <r>  0.0030  0.0076  0.0266  0.0567  0.0000  0.0000  0.0000  0.0000  0.0000 </r>
        <r>  0.0730  0.0008  0.0000  0.0001  0.0018  0.0434  0.0014  0.6798  0.0423 </r>
       </set>
       <set comment="band 8">
        <r>  0.0595  0.0194  0.0001  0.1209  0.0000  0.0000  0.0000  0.0000  0.0000 </r>
        <r>  0.0503  0.0113  0.0002  0.0913  0.0157  0.0075  0.0686  0.0268  0.4143 </r>
       </set>
       <set comment="band 9">
        <r>  0.0734  0.0374  0.0227  0.0060  0.0000  0.0000  0.0000  0.0000  0.0000 </r>
        <r>  0.0175  0.0439  0.1704  0.0042  0.0185  0.0545  0.2440  0.0000  0.0716 </r>
       </set>
       <set comment="band 10">
        <r>  0.0016  0.0122  0.1961  0.0099  0.0000  0.0000  0.0000  0.0000  0.0000 </r>
        <r>  0.0108  0.1166  0.0082  0.0294  0.0326  0.0257  0.3007  0.0035  0.0009 </r>
       </set>
       <set comment="band 11">
        <r>  0.0007  0.0540  0.0030  0.0030  0.0000  0.0000  0.0000  0.0000  0.0000 </r>
        <r> 33.7424  0.0026  0.0147  0.0012  0.0000  0.0001  0.0021  0.0003  0.0150 </r>
       </set>
       <set comment="band 12">
        <r>  0.0034  0.2382  0.0130  0.0116  0.0000  0.0000  0.0000  0.0000  0.0000 </r>
        <r> 10.6389  0.0141  0.0763  0.0094  0.0002  0.0003  0.0068  0.0012  0.0628 </r>
       </set>
      </set>
      <set comment="kpoint 57">
       <set comment="band 1">
        <r>  0.4385  0.0002  0.0009  0.0001  0.0000  0.0000  0.0000  0.0000  0.0000 </r>
        <r>  0.0007  0.0759  0.0202  0.0024  0.0000  0.0001  0.1957  0.0000  0.1390 </r>
       </set>
       <set comment="band 2">
        <r>  0.0018  0.1228  0.0739  0.0101  0.0000  0.0000  0.0000  0.0000  0.0000 </r>
        <r>  0.1881  0.0108  0.0900  0.0148  0.0218  0.2210  0.0034  0.0064  0.0807 </r>
       </set>
       <set comment="band 3">
        <r>  0.0010  0.0004  0.0179  0.1959  0.0000  0.0000  0.0000  0.0000  0.0000 </r>
        <r>  0.0000  0.0015  0.0220  0.3030  0.2200  0.0323  0.0122  0.0302  0.0087 </r>
       </set>
       <set comment="band 4">
        <r>  0.0002  0.1556  0.1210  0.0087  0.0000  0.0000  0.0000  0.0000  0.0000 </r>
        <r>  0.0112  0.0019  0.1067  0.0114  0.0017  0.0500  0.2071  0.0076  0.1825 </r>
       </set>
       <set comment="band 5">
        <r>  0.0077  0.0158  0.1367  0.0003  0.0000  0.0000  0.0000  0.0000  0.0000 </r>
        <r>  0.0741  0.0001  0.0159  0.0006  0.0006  0.5319  0.0330  0.0033  0.0014 </r>
       </set>
       <set comment="band 6">
        <r>  0.0018  0.0010  0.0012  0.1253  0.0000  0.0000  0.0000  0.0000  0.0000 </r>
        <r>  0.0062  0.0000  0.0007  0.0304  0.5944  0.0002  0.0058  0.0934  0.0040 </r>
       </set>
       <set comment="band 7">
        <r>  0.0010  0.0005  0.0016  0.0751  0.0000  0.0000  0.0000  0.0000  0.0000 </r>
        <r>  0.0162  0.0000  0.0001  0.0108  0.0150  0.0000  0.0001  0.8160  0.0176 </r>
       </set>
       <set comment="band 8">
        <r>  0.0458  0.0113  0.0162  0.0200  0.0000  0.0000  0.0000  0.0000  0.0000 </r>
        <r>  0.2308  0.0026  0.0250  0.0182  0.0056  0.0009  0.0033  0.0112  0.5517 </r>
       </set>
       <set comment="band 9">
        <r>  0.0907  0.0172  0.0673  0.0004  0.0000  0.0000  0.0000  0.0000  0.0000 </r>
        <r>  0.0180  0.0215  0.0654  0.0008  0.0009  0.0113  0.6291  0.0001  0.0015 </r>
       </set>
       <set comment="band 10">
        <r>  0.0322  0.0820  0.0122  0.0466  0.0000  0.0000  0.0000  0.0000  0.0000 </r>
        <r>  0.3121  0.1405  0.0829  0.0399  0.0536  0.0834  0.0289  0.0063  0.0246 </r>
       </set>
       <set comment="band 11">
        <r>  0.0000  0.0244  0.0079  0.0085  0.0000  0.0000  0.0000  0.0000  0.0000 </r>
        <r> 35.7598  0.0029  0.0021  0.0133  0.0111  0.0063  0.0000  0.0014  0.0155 </r>
       </set>
       <set comment="band 12">
        <r>  0.0025  0.2008  0.0261  0.0366  0.0000  0.0000  0.0000  0.0000  0.0000 </r>
        <r>  8.1981  0.0001  0.0002  0.0676  0.0489  0.0047  0.0029  0.0069  0.1031 </r>
       </set>
      </set>
      <set comment="kpoint 58">
       <set comment="band 1">
        <r>  0.4383  0.0017  0.0004  0.0017  0.0000  0.0000  0.0000  0.0000  0.0000 </r>
        <r>  0.0116  0.0495  0.0235  0.0495  0.0007  0.0001  0.2824  0.0001  0.0000 </r>
       </set>
       <set comment="band 2">
        <r>  0.0058  0.0694  0.0480  0.0694  0.0000  0.0000  0.0000  0.0000  0.0000 </r>
        <r>  0.2271  0.0358  0.0465  0.0358  0.1863  0.0574  0.0021  0.0574  0.0000 </r>
       </set>
       <set comment="band 3">
        <r>  0.0060  0.0259  0.1808  0.0259  0.0000  0.0000  0.0000  0.0000  0.0000 </r>
        <r>  0.0000  0.0233  0.2221  0.0233  0.1055  0.0509  0.1454  0.0509  0.0000 </r>
       </set>
       <set comment="band 4">
        <r>  0.0000  0.1474  0.0000  0.1474  0.0000  0.0000  0.0000  0.0000  0.0000 </r>
        <r>  0.0000  0.0313  0.0000  0.0313  0.0000  0.0205  0.0000  0.0205  0.4815 </r>
       </set>
       <set comment="band 5">
        <r>  0.0159  0.0604  0.0065  0.0604  0.0000  0.0000  0.0000  0.0000  0.0000 </r>
        <r>  0.0688  0.0005  0.0057  0.0005  0.5431  0.0036  0.0470  0.0036  0.0000 </r>
       </set>
       <set comment="band 6">
        <r>  0.0000  0.0054  0.0000  0.0054  0.0000  0.0000  0.0000  0.0000  0.0000 </r>
        <r>  0.0000  0.0002  0.0000  0.0002  0.0000  0.4572  0.0000  0.4572  0.0326 </r>
       </set>
       <set comment="band 7">
        <r>  0.0061  0.0084  0.1138  0.0084  0.0000  0.0000  0.0000  0.0000  0.0000 </r>
        <r>  0.0774  0.0000  0.0027  0.0000  0.0018  0.3210  0.0514  0.3210  0.0000 </r>
       </set>
       <set comment="band 8">
        <r>  0.1076  0.0007  0.0545  0.0007  0.0000  0.0000  0.0000  0.0000  0.0000 </r>
        <r>  0.0589  0.0003  0.1053  0.0003  0.0074  0.0288  0.4952  0.0288  0.0000 </r>
       </set>
       <set comment="band 9">
        <r>  0.0000  0.0979  0.0000  0.0979  0.0000  0.0000  0.0000  0.0000  0.0000 </r>
        <r>  0.0000  0.0673  0.0000  0.0673  0.0000  0.0014  0.0000  0.0014  0.5720 </r>
       </set>
       <set comment="band 10">
        <r>  0.0314  0.0019  0.1144  0.0019  0.0000  0.0000  0.0000  0.0000  0.0000 </r>
        <r>  0.0903  0.1226  0.0153  0.1226  0.0733  0.0182  0.0335  0.0182  0.0000 </r>
       </set>
       <set comment="band 11">
        <r>  0.0192  0.1221  0.0191  0.1221  0.0000  0.0000  0.0000  0.0000  0.0000 </r>
        <r>  1.9965  0.0073  0.0907  0.0073  0.0007  0.0088  0.1053  0.0088  0.0000 </r>
       </set>
       <set comment="band 12">
        <r>  0.0018  0.0084  0.0013  0.0084  0.0000  0.0000  0.0000  0.0000  0.0000 </r>
        <r> 42.3215  0.0016  0.0079  0.0016  0.0001  0.0007  0.0059  0.0007  0.0000 </r>
       </set>
      </set>
      <set comment="kpoint 59">
       <set comment="band 1">
        <r>  0.4167  0.0052  0.0052  0.0052  0.0000  0.0000  0.0000  0.0000  0.0000 </r>
        <r>  0.0969  0.0811  0.0811  0.0811  0.0078  0.0078  0.0000  0.0078  0.0000 </r>
       </set>
       <set comment="band 2">
        <r>  0.0630  0.0529  0.0529  0.0529  0.0000  0.0000  0.0000  0.0000  0.0000 </r>
        <r>  0.2551  0.0168  0.0168  0.0168  0.1021  0.1021  0.0000  0.1021  0.0000 </r>
       </set>
       <set comment="band 3">
        <r>  0.0000  0.0263  0.1706  0.0646  0.0000  0.0000  0.0000  0.0000  0.0000 </r>
        <r>  0.0000  0.0001  0.0006  0.0002  0.0755  0.0286  0.5294  0.0116  0.0115 </r>
       </set>
       <set comment="band 4">
        <r>  0.0000  0.1480  0.0037  0.1097  0.0000  0.0000  0.0000  0.0000  0.0000 </r>
        <r>  0.0000  0.0005  0.0000  0.0004  0.0016  0.0486  0.0115  0.0655  0.5294 </r>
       </set>
       <set comment="band 5">
        <r>  0.0000  0.0030  0.0194  0.0073  0.0000  0.0000  0.0000  0.0000  0.0000 </r>
        <r>  0.0000  0.0003  0.0017  0.0007  0.5532  0.2095  0.0827  0.0851  0.0018 </r>
       </set>
       <set comment="band 6">
        <r>  0.0000  0.0168  0.0004  0.0125  0.0000  0.0000  0.0000  0.0000  0.0000 </r>
        <r>  0.0000  0.0015  0.0000  0.0011  0.0120  0.3557  0.0018  0.4801  0.0827 </r>
       </set>
       <set comment="band 7">
        <r>  0.0264  0.0431  0.0431  0.0431  0.0000  0.0000  0.0000  0.0000  0.0000 </r>
        <r>  0.1164  0.0105  0.0105  0.0105  0.1707  0.1707  0.0000  0.1707  0.0000 </r>
       </set>
       <set comment="band 8">
        <r>  0.0794  0.0179  0.0179  0.0179  0.0000  0.0000  0.0000  0.0000  0.0000 </r>
        <r>  0.0087  0.0971  0.0971  0.0971  0.0379  0.0379  0.0000  0.0379  0.0000 </r>
       </set>
       <set comment="band 9">
        <r>  0.0000  0.0363  0.2217  0.0803  0.0000  0.0000  0.0000  0.0000  0.0000 </r>
        <r>  0.0000  0.0042  0.0258  0.0094  0.0056  0.0020  0.5098  0.0009  0.0088 </r>
       </set>
       <set comment="band 10">
        <r>  0.0000  0.1893  0.0038  0.1452  0.0000  0.0000  0.0000  0.0000  0.0000 </r>
        <r>  0.0000  0.0221  0.0004  0.0169  0.0001  0.0037  0.0088  0.0048  0.5098 </r>
       </set>
       <set comment="band 11">
        <r>  0.0000  0.0006  0.0006  0.0005  0.0000  0.0000  0.0000  0.0000  0.0000 </r>
        <r> 43.3697  0.0000  0.0000  0.0000  0.0000  0.0000  0.0000  0.0000  0.0000 </r>
       </set>
       <set comment="band 12">
        <r>  0.0000  0.0010  0.0062  0.0023  0.0000  0.0000  0.0000  0.0000  0.0000 </r>
        <r>  0.0000  0.0431  0.2799  0.1059  0.0108  0.0041  0.0392  0.0017  0.0008 </r>
       </set>
      </set>
      <set comment="kpoint 60">
       <set comment="band 1">
        <r>  0.4664  0.0000  0.0000  0.0022  0.0000  0.0000  0.0000  0.0000  0.0000 </r>
        <r>  0.0059  0.0910  0.0910  0.0556  0.0005  0.0003  0.0249  0.0005  0.0748 </r>
       </set>
       <set comment="band 2">
        <r>  0.0026  0.0668  0.0668  0.0441  0.0000  0.0000  0.0000  0.0000  0.0000 </r>
        <r>  0.3154  0.0026  0.0026  0.0231  0.0896  0.1305  0.0026  0.0896  0.0078 </r>
       </set>
       <set comment="band 3">
        <r>  0.0000  0.1352  0.1352  0.0000  0.0000  0.0000  0.0000  0.0000  0.0000 </r>
        <r>  0.0000  0.0064  0.0064  0.0000  0.0421  0.0000  0.4091  0.0421  0.1364 </r>
       </set>
       <set comment="band 4">
        <r>  0.0053  0.0348  0.0348  0.1800  0.0000  0.0000  0.0000  0.0000  0.0000 </r>
        <r>  0.0000  0.0116  0.0116  0.0811  0.0431  0.0737  0.0941  0.0431  0.2824 </r>
       </set>
       <set comment="band 5">
        <r>  0.0179  0.0165  0.0165  0.0251  0.0000  0.0000  0.0000  0.0000  0.0000 </r>
        <r>  0.0032  0.0031  0.0031  0.0004  0.0819  0.5291  0.0268  0.0819  0.0803 </r>
       </set>
       <set comment="band 6">
        <r>  0.0000  0.0117  0.0117  0.0000  0.0000  0.0000  0.0000  0.0000  0.0000 </r>
        <r>  0.0000  0.0009  0.0009  0.0000  0.4383  0.0000  0.0424  0.4383  0.0141 </r>
       </set>
       <set comment="band 7">
        <r>  0.0037  0.0416  0.0416  0.0727  0.0000  0.0000  0.0000  0.0000  0.0000 </r>
        <r>  0.1365  0.0001  0.0001  0.0019  0.2139  0.1584  0.0022  0.2139  0.0067 </r>
       </set>
       <set comment="band 8">
        <r>  0.0967  0.0001  0.0001  0.0112  0.0000  0.0000  0.0000  0.0000  0.0000 </r>
        <r>  0.0001  0.0815  0.0815  0.1184  0.0463  0.0650  0.0093  0.0463  0.0278 </r>
       </set>
       <set comment="band 9">
        <r>  0.0032  0.0195  0.0195  0.1934  0.0000  0.0000  0.0000  0.0000  0.0000 </r>
        <r>  0.0194  0.0468  0.0468  0.0307  0.0004  0.0045  0.1157  0.0004  0.3470 </r>
       </set>
       <set comment="band 10">
        <r>  0.0000  0.1448  0.1448  0.0000  0.0000  0.0000  0.0000  0.0000  0.0000 </r>
        <r>  0.0000  0.0288  0.0288  0.0000  0.0004  0.0000  0.4262  0.0004  0.1421 </r>
       </set>
       <set comment="band 11">
        <r>  0.0000  0.0043  0.0043  0.0000  0.0000  0.0000  0.0000  0.0000  0.0000 </r>
        <r> 41.9104  0.0008  0.0008  0.0029  0.0000  0.0001  0.0006  0.0000  0.0017 </r>
       </set>
       <set comment="band 12">
        <r>  0.0026  0.0753  0.0752  0.0091  0.0000  0.0000  0.0000  0.0000  0.0000 </r>
        <r>  1.6322  0.0538  0.0538  0.1892  0.0070  0.0136  0.0164  0.0070  0.0492 </r>
       </set>
      </set>
     </set>
    </set>
   </array>
  </projected>
 </calculation>
 <structure name="finalpos" >
  <crystal>
   <varray name="basis" >
    <v>       0.00000000       2.22750000       2.22750000 </v>
    <v>       2.22750000       0.00000000       2.22750000 </v>
    <v>       2.22750000       2.22750000       0.00000000 </v>
   </varray>
   <i name="volume">     22.10462409 </i>
   <varray name="rec_basis" >
    <v>      -0.22446689       0.22446689       0.22446689 </v>
    <v>       0.22446689      -0.22446689       0.22446689 </v>
    <v>       0.22446689       0.22446689      -0.22446689 </v>
   </varray>
  </crystal>
  <varray name="positions" >
   <v>       0.50000000       0.50000000       0.50000000 </v>
   <v>       0.00000000       0.00000000       0.00000000 </v>
  </varray>
 </structure>
</modeling>
