   4   4   1   0
  0.8797333E+01  0.2461200E-09  0.2461200E-09  0.6707900E-09  0.5000000E-15
  1.000000000000000E-004
  CAR 
 unknown system                          
     20.08062367    -16.65496316  301      4.34598815      1.00000000
    -16.655  0.0000E+00  0.0000E+00  0.0000E+00  0.0000E+00
    -16.533  0.0000E+00  0.0000E+00  0.0000E+00  0.0000E+00
    -16.410  0.0000E+00  0.0000E+00  0.0000E+00  0.0000E+00
    -16.288  0.0000E+00  0.0000E+00  0.0000E+00  0.0000E+00
    -16.165  0.0000E+00  0.0000E+00  0.0000E+00  0.0000E+00
    -16.043  0.0000E+00  0.0000E+00  0.0000E+00  0.0000E+00
    -15.920  0.0000E+00  0.0000E+00  0.0000E+00  0.0000E+00
    -15.798  0.0000E+00  0.0000E+00  0.0000E+00  0.0000E+00
    -15.675  0.0000E+00  0.0000E+00  0.0000E+00  0.0000E+00
    -15.553  0.0000E+00  0.0000E+00  0.0000E+00  0.0000E+00
    -15.430 -0.4374E-36 -0.3748E-36 -0.5356E-37 -0.4590E-37
    -15.308 -0.8121E-20 -0.7263E-20 -0.9945E-21 -0.8894E-21
    -15.186 -0.8109E-09 -0.7573E-09 -0.9930E-10 -0.9273E-10
    -15.063 -0.3138E-03 -0.3074E-03 -0.3843E-04 -0.3764E-04
    -14.941  0.1923E-01  0.1912E-01  0.2316E-02  0.2304E-02
    -14.818  0.1528E+00  0.1520E+00  0.2103E-01  0.2092E-01
    -14.696  0.1767E+00  0.1770E+00  0.4266E-01  0.4259E-01
    -14.573  0.3165E+00  0.3155E+00  0.8142E-01  0.8123E-01
    -14.451  0.3288E+00  0.3291E+00  0.1217E+00  0.1215E+00
    -14.328  0.3347E+00  0.3347E+00  0.1627E+00  0.1625E+00
    -14.206  0.2187E+00  0.2193E+00  0.1894E+00  0.1894E+00
    -14.083  0.3131E+00  0.3122E+00  0.2278E+00  0.2276E+00
    -13.961  0.2986E+00  0.2992E+00  0.2643E+00  0.2642E+00
    -13.839  0.5346E+00  0.5337E+00  0.3298E+00  0.3296E+00
    -13.716  0.1853E+00  0.1866E+00  0.3525E+00  0.3524E+00
    -13.594  0.1919E+00  0.1920E+00  0.3760E+00  0.3759E+00
    -13.471  0.1625E+00  0.1623E+00  0.3959E+00  0.3958E+00
    -13.349  0.4806E+00  0.4794E+00  0.4547E+00  0.4545E+00
    -13.226  0.4946E+00  0.4952E+00  0.5153E+00  0.5152E+00
    -13.104  0.3742E+00  0.3751E+00  0.5611E+00  0.5611E+00
    -12.981  0.1768E+00  0.1765E+00  0.5828E+00  0.5827E+00
    -12.859  0.1536E+00  0.1536E+00  0.6016E+00  0.6015E+00
    -12.737  0.1679E+00  0.1683E+00  0.6221E+00  0.6221E+00
    -12.614  0.3917E+00  0.3909E+00  0.6701E+00  0.6700E+00
    -12.492  0.3182E+00  0.3176E+00  0.7091E+00  0.7089E+00
    -12.369  0.7121E+00  0.7129E+00  0.7963E+00  0.7962E+00
    -12.247  0.3312E+00  0.3306E+00  0.8368E+00  0.8367E+00
    -12.124  0.2525E+00  0.2541E+00  0.8678E+00  0.8678E+00
    -12.002  0.1296E-01  0.1244E-01  0.8694E+00  0.8693E+00
    -11.879  0.2195E+00  0.2195E+00  0.8962E+00  0.8962E+00
    -11.757  0.2349E+00  0.2339E+00  0.9250E+00  0.9248E+00
    -11.634  0.3872E+00  0.3867E+00  0.9724E+00  0.9722E+00
    -11.512  0.6430E+00  0.6434E+00  0.1051E+01  0.1051E+01
    -11.390  0.4626E+00  0.4631E+00  0.1108E+01  0.1108E+01
    -11.267  0.2398E+00  0.2392E+00  0.1137E+01  0.1137E+01
    -11.145  0.3950E+00  0.3956E+00  0.1186E+01  0.1185E+01
    -11.022  0.4076E+00  0.4083E+00  0.1235E+01  0.1235E+01
    -10.900 -0.5949E-02 -0.5789E-02  0.1235E+01  0.1235E+01
    -10.777 -0.4344E-02 -0.4366E-02  0.1234E+01  0.1234E+01
    -10.655  0.2006E+00  0.2001E+00  0.1259E+01  0.1259E+01
    -10.532  0.6464E+00  0.6454E+00  0.1338E+01  0.1338E+01
    -10.410  0.5556E+00  0.5550E+00  0.1406E+01  0.1406E+01
    -10.287  0.6162E+00  0.6175E+00  0.1481E+01  0.1481E+01
    -10.165  0.4652E+00  0.4654E+00  0.1538E+01  0.1538E+01
    -10.043  0.1080E-01  0.1142E-01  0.1540E+01  0.1540E+01
     -9.920  0.4190E+00  0.4182E+00  0.1591E+01  0.1591E+01
     -9.798  0.5063E+00  0.5062E+00  0.1653E+01  0.1653E+01
     -9.675  0.8128E-01  0.8219E-01  0.1663E+01  0.1663E+01
     -9.553  0.1598E+00  0.1596E+00  0.1682E+01  0.1682E+01
     -9.430  0.1200E+00  0.1199E+00  0.1697E+01  0.1697E+01
     -9.308  0.6294E+00  0.6281E+00  0.1774E+01  0.1774E+01
     -9.185  0.1165E+01  0.1166E+01  0.1917E+01  0.1917E+01
     -9.063  0.1791E+00  0.1804E+00  0.1939E+01  0.1939E+01
     -8.940 -0.8771E-03 -0.8900E-03  0.1939E+01  0.1939E+01
     -8.818 -0.1238E-09 -0.1281E-09  0.1939E+01  0.1939E+01
     -8.696 -0.5280E-04 -0.5025E-04  0.1939E+01  0.1939E+01
     -8.573  0.2883E-01  0.2795E-01  0.1942E+01  0.1942E+01
     -8.451  0.2184E+00  0.2191E+00  0.1969E+01  0.1969E+01
     -8.328  0.2401E+00  0.2400E+00  0.1998E+01  0.1998E+01
     -8.206  0.6461E+00  0.6444E+00  0.2078E+01  0.2077E+01
     -8.083  0.2320E+00  0.2319E+00  0.2106E+01  0.2106E+01
     -7.961  0.6257E+00  0.6255E+00  0.2183E+01  0.2182E+01
     -7.838  0.2612E+00  0.2635E+00  0.2215E+01  0.2215E+01
     -7.716 -0.1938E-01 -0.1940E-01  0.2212E+01  0.2212E+01
     -7.594  0.5249E+00  0.5246E+00  0.2276E+01  0.2276E+01
     -7.471  0.5683E+00  0.5670E+00  0.2346E+01  0.2346E+01
     -7.349  0.5712E+00  0.5719E+00  0.2416E+01  0.2416E+01
     -7.226  0.2864E+00  0.2864E+00  0.2451E+01  0.2451E+01
     -7.104  0.2344E+00  0.2335E+00  0.2480E+01  0.2480E+01
     -6.981  0.6354E+00  0.6354E+00  0.2558E+01  0.2557E+01
     -6.859  0.2015E+00  0.2031E+00  0.2582E+01  0.2582E+01
     -6.736  0.4638E+00  0.4636E+00  0.2639E+01  0.2639E+01
     -6.614  0.3113E-01  0.3136E-01  0.2643E+01  0.2643E+01
     -6.491 -0.7479E-02 -0.7660E-02  0.2642E+01  0.2642E+01
     -6.369  0.5422E+00  0.5411E+00  0.2708E+01  0.2708E+01
     -6.247  0.4758E+00  0.4770E+00  0.2767E+01  0.2767E+01
     -6.124 -0.8930E-02 -0.9187E-02  0.2766E+01  0.2765E+01
     -6.002  0.7462E+00  0.7454E+00  0.2857E+01  0.2857E+01
     -5.879  0.2536E+00  0.2547E+00  0.2888E+01  0.2888E+01
     -5.757 -0.1535E-02 -0.1551E-02  0.2888E+01  0.2888E+01
     -5.634 -0.1011E-01 -0.1036E-01  0.2887E+01  0.2886E+01
     -5.512  0.7381E+00  0.7357E+00  0.2977E+01  0.2977E+01
     -5.389  0.5637E+00  0.5651E+00  0.3046E+01  0.3046E+01
     -5.267  0.6896E+00  0.6905E+00  0.3130E+01  0.3130E+01
     -5.144  0.3420E+00  0.3387E+00  0.3172E+01  0.3172E+01
     -5.022  0.1776E+00  0.1813E+00  0.3194E+01  0.3194E+01
     -4.900 -0.8879E-03 -0.9284E-03  0.3194E+01  0.3194E+01
     -4.777 -0.8825E-02 -0.8817E-02  0.3193E+01  0.3193E+01
     -4.655  0.4338E+00  0.4332E+00  0.3246E+01  0.3246E+01
     -4.532  0.7327E+00  0.7320E+00  0.3336E+01  0.3335E+01
     -4.410  0.3888E+00  0.3885E+00  0.3383E+01  0.3383E+01
     -4.287  0.8680E+00  0.8674E+00  0.3490E+01  0.3489E+01
     -4.165  0.8545E-01  0.8757E-01  0.3500E+01  0.3500E+01
     -4.042  0.1056E+00  0.1028E+00  0.3513E+01  0.3513E+01
     -3.920  0.9005E+00  0.9026E+00  0.3623E+01  0.3623E+01
     -3.798 -0.2838E-02 -0.2286E-02  0.3623E+01  0.3623E+01
     -3.675  0.4404E+00  0.4386E+00  0.3677E+01  0.3677E+01
     -3.553  0.1180E+01  0.1182E+01  0.3821E+01  0.3821E+01
     -3.430  0.2670E-01  0.2687E-01  0.3825E+01  0.3825E+01
     -3.308  0.1080E+00  0.1078E+00  0.3838E+01  0.3838E+01
     -3.185  0.3269E+00  0.3238E+00  0.3878E+01  0.3877E+01
     -3.063  0.7578E+00  0.7597E+00  0.3971E+01  0.3970E+01
     -2.940  0.9110E+00  0.9096E+00  0.4082E+01  0.4082E+01
     -2.818  0.3804E+00  0.3829E+00  0.4129E+01  0.4129E+01
     -2.695  0.8484E+00  0.8472E+00  0.4233E+01  0.4232E+01
     -2.573  0.1001E+01  0.9995E+00  0.4355E+01  0.4355E+01
     -2.451  0.7576E+00  0.7606E+00  0.4448E+01  0.4448E+01
     -2.328  0.1509E+00  0.1503E+00  0.4466E+01  0.4466E+01
     -2.206  0.1051E+00  0.1057E+00  0.4479E+01  0.4479E+01
     -2.083  0.8114E+00  0.8101E+00  0.4579E+01  0.4579E+01
     -1.961  0.1094E+01  0.1094E+01  0.4713E+01  0.4712E+01
     -1.838  0.1488E+01  0.1487E+01  0.4895E+01  0.4895E+01
     -1.716  0.1650E+01  0.1651E+01  0.5097E+01  0.5097E+01
     -1.593  0.5314E+00  0.5320E+00  0.5162E+01  0.5162E+01
     -1.471  0.7076E+00  0.7075E+00  0.5249E+01  0.5249E+01
     -1.348  0.5204E+00  0.5191E+00  0.5312E+01  0.5312E+01
     -1.226  0.1096E+01  0.1097E+01  0.5447E+01  0.5446E+01
     -1.104  0.5232E+00  0.5237E+00  0.5511E+01  0.5511E+01
     -0.981  0.7531E+00  0.7522E+00  0.5603E+01  0.5603E+01
     -0.859  0.1472E+01  0.1473E+01  0.5783E+01  0.5783E+01
     -0.736  0.2373E+00  0.2372E+00  0.5812E+01  0.5812E+01
     -0.614  0.1812E+01  0.1811E+01  0.6034E+01  0.6034E+01
     -0.491  0.2598E+00  0.2602E+00  0.6066E+01  0.6066E+01
     -0.369  0.1857E+00  0.1861E+00  0.6089E+01  0.6089E+01
     -0.246  0.3093E+00  0.3091E+00  0.6127E+01  0.6126E+01
     -0.124  0.2830E+00  0.2830E+00  0.6161E+01  0.6161E+01
     -0.001  0.7126E+00  0.7131E+00  0.6248E+01  0.6248E+01
      0.121  0.9259E+00  0.9245E+00  0.6362E+01  0.6362E+01
      0.243  0.1219E+01  0.1221E+01  0.6511E+01  0.6511E+01
      0.366  0.2879E+00  0.2880E+00  0.6546E+01  0.6546E+01
      0.488  0.7562E+00  0.7561E+00  0.6639E+01  0.6639E+01
      0.611  0.4161E+00  0.4161E+00  0.6690E+01  0.6690E+01
      0.733  0.3516E+00  0.3518E+00  0.6733E+01  0.6733E+01
      0.856  0.6497E+00  0.6491E+00  0.6813E+01  0.6812E+01
      0.978  0.7770E+00  0.7775E+00  0.6908E+01  0.6908E+01
      1.101  0.3060E+00  0.3061E+00  0.6945E+01  0.6945E+01
      1.223  0.3995E+00  0.3994E+00  0.6994E+01  0.6994E+01
      1.345  0.6281E+00  0.6277E+00  0.7071E+01  0.7071E+01
      1.468  0.6463E+00  0.6468E+00  0.7150E+01  0.7150E+01
      1.590  0.7058E+00  0.7056E+00  0.7237E+01  0.7236E+01
      1.713  0.4910E+00  0.4906E+00  0.7297E+01  0.7297E+01
      1.835  0.5472E+00  0.5473E+00  0.7364E+01  0.7364E+01
      1.958  0.3639E+00  0.3637E+00  0.7408E+01  0.7408E+01
      2.080  0.3818E+00  0.3824E+00  0.7455E+01  0.7455E+01
      2.203  0.2857E+00  0.2857E+00  0.7490E+01  0.7490E+01
      2.325  0.3021E+00  0.3018E+00  0.7527E+01  0.7527E+01
      2.448  0.3431E+00  0.3432E+00  0.7569E+01  0.7569E+01
      2.570  0.3559E+00  0.3556E+00  0.7613E+01  0.7612E+01
      2.692  0.7728E+00  0.7720E+00  0.7707E+01  0.7707E+01
      2.815  0.5752E+00  0.5765E+00  0.7778E+01  0.7778E+01
      2.937  0.1896E+00  0.1895E+00  0.7801E+01  0.7801E+01
      3.060  0.2449E+00  0.2445E+00  0.7831E+01  0.7831E+01
      3.182  0.1524E+00  0.1529E+00  0.7849E+01  0.7849E+01
      3.305  0.1168E+00  0.1167E+00  0.7864E+01  0.7864E+01
      3.427  0.1436E+00  0.1435E+00  0.7881E+01  0.7881E+01
      3.550  0.2414E+00  0.2410E+00  0.7911E+01  0.7911E+01
      3.672  0.1261E+00  0.1268E+00  0.7926E+01  0.7926E+01
      3.795  0.1800E+00  0.1797E+00  0.7948E+01  0.7948E+01
      3.917  0.8815E-01  0.8838E-01  0.7959E+01  0.7959E+01
      4.039  0.5325E-01  0.5322E-01  0.7966E+01  0.7966E+01
      4.162  0.5362E-01  0.5356E-01  0.7972E+01  0.7972E+01
      4.284  0.1156E+00  0.1149E+00  0.7986E+01  0.7986E+01
      4.407  0.1116E+00  0.1124E+00  0.8000E+01  0.8000E+01
      4.529 -0.9275E-03 -0.9527E-03  0.8000E+01  0.8000E+01
      4.652 -0.3934E-09 -0.4231E-09  0.8000E+01  0.8000E+01
      4.774 -0.2179E-40 -0.1910E-40  0.8000E+01  0.8000E+01
      4.897 -0.9034E-23 -0.8197E-23  0.8000E+01  0.8000E+01
      5.019 -0.2340E-10 -0.2198E-10  0.8000E+01  0.8000E+01
      5.141 -0.3358E-03 -0.3269E-03  0.8000E+01  0.8000E+01
      5.264  0.9645E-01  0.9542E-01  0.8012E+01  0.8012E+01
      5.386  0.1971E+00  0.1981E+00  0.8036E+01  0.8036E+01
      5.509  0.6600E-01  0.6606E-01  0.8044E+01  0.8044E+01
      5.631  0.6563E-01  0.6570E-01  0.8052E+01  0.8052E+01
      5.754  0.7669E-01  0.7656E-01  0.8061E+01  0.8061E+01
      5.876 -0.4161E-02 -0.4151E-02  0.8061E+01  0.8061E+01
      5.999  0.1039E+00  0.1038E+00  0.8074E+01  0.8074E+01
      6.121  0.4777E+00  0.4775E+00  0.8132E+01  0.8132E+01
      6.244  0.5197E+00  0.5192E+00  0.8196E+01  0.8196E+01
      6.366  0.3918E+00  0.3914E+00  0.8244E+01  0.8244E+01
      6.488  0.6966E+00  0.6968E+00  0.8329E+01  0.8329E+01
      6.611  0.4600E+00  0.4602E+00  0.8385E+01  0.8385E+01
      6.733  0.1340E+00  0.1345E+00  0.8402E+01  0.8402E+01
      6.856  0.3815E+00  0.3811E+00  0.8448E+01  0.8448E+01
      6.978  0.3936E+00  0.3937E+00  0.8497E+01  0.8497E+01
      7.101  0.2988E+00  0.2983E+00  0.8533E+01  0.8533E+01
      7.223  0.3552E+00  0.3558E+00  0.8577E+01  0.8577E+01
      7.346  0.3328E+00  0.3329E+00  0.8618E+01  0.8617E+01
      7.468  0.2814E+00  0.2812E+00  0.8652E+01  0.8652E+01
      7.591  0.3542E+00  0.3542E+00  0.8695E+01  0.8695E+01
      7.713  0.4147E+00  0.4146E+00  0.8746E+01  0.8746E+01
      7.835  0.4253E+00  0.4251E+00  0.8798E+01  0.8798E+01
      7.958  0.1836E+00  0.1843E+00  0.8821E+01  0.8821E+01
      8.080  0.8194E-01  0.8205E-01  0.8831E+01  0.8831E+01
      8.203  0.7265E-01  0.7267E-01  0.8840E+01  0.8840E+01
      8.325  0.7273E-01  0.7267E-01  0.8849E+01  0.8849E+01
      8.448  0.2765E+00  0.2761E+00  0.8882E+01  0.8882E+01
      8.570  0.3206E+00  0.3204E+00  0.8922E+01  0.8922E+01
      8.693  0.3006E+00  0.3011E+00  0.8958E+01  0.8958E+01
      8.815  0.2492E+00  0.2491E+00  0.8989E+01  0.8989E+01
      8.937  0.2461E+00  0.2461E+00  0.9019E+01  0.9019E+01
      9.060  0.2446E+00  0.2446E+00  0.9049E+01  0.9049E+01
      9.182  0.3532E+00  0.3536E+00  0.9092E+01  0.9092E+01
      9.305  0.1732E+00  0.1729E+00  0.9114E+01  0.9113E+01
      9.427  0.1599E+00  0.1602E+00  0.9133E+01  0.9133E+01
      9.550  0.1538E+00  0.1534E+00  0.9152E+01  0.9152E+01
      9.672  0.3591E+00  0.3599E+00  0.9196E+01  0.9196E+01
      9.795  0.1698E+00  0.1694E+00  0.9217E+01  0.9217E+01
      9.917  0.1286E+00  0.1284E+00  0.9232E+01  0.9232E+01
     10.040  0.1680E+00  0.1683E+00  0.9253E+01  0.9253E+01
     10.162  0.2453E+00  0.2450E+00  0.9283E+01  0.9283E+01
     10.284  0.2678E+00  0.2680E+00  0.9316E+01  0.9316E+01
     10.407  0.5461E+00  0.5460E+00  0.9383E+01  0.9383E+01
     10.529  0.1963E+00  0.1969E+00  0.9407E+01  0.9407E+01
     10.652  0.2840E+00  0.2831E+00  0.9442E+01  0.9441E+01
     10.774  0.3115E+00  0.3115E+00  0.9480E+01  0.9480E+01
     10.897  0.3968E+00  0.3972E+00  0.9528E+01  0.9528E+01
     11.019  0.2870E+00  0.2871E+00  0.9563E+01  0.9563E+01
     11.142  0.1218E+00  0.1220E+00  0.9578E+01  0.9578E+01
     11.264  0.1340E+00  0.1335E+00  0.9595E+01  0.9595E+01
     11.387  0.1832E+00  0.1839E+00  0.9617E+01  0.9617E+01
     11.509  0.2253E+00  0.2244E+00  0.9645E+01  0.9645E+01
     11.631  0.2116E+00  0.2119E+00  0.9671E+01  0.9671E+01
     11.754  0.3430E+00  0.3429E+00  0.9713E+01  0.9713E+01
     11.876  0.2646E+00  0.2650E+00  0.9745E+01  0.9745E+01
     11.999  0.3305E+00  0.3291E+00  0.9786E+01  0.9785E+01
     12.121  0.7277E+00  0.7275E+00  0.9875E+01  0.9874E+01
     12.244  0.6937E+00  0.6917E+00  0.9960E+01  0.9959E+01
     12.366  0.6383E+00  0.6376E+00  0.1004E+02  0.1004E+02
     12.489  0.5267E+00  0.5271E+00  0.1010E+02  0.1010E+02
     12.611  0.7794E+00  0.7782E+00  0.1020E+02  0.1020E+02
     12.734  0.8279E+00  0.8286E+00  0.1030E+02  0.1030E+02
     12.856  0.8161E+00  0.8147E+00  0.1040E+02  0.1040E+02
     12.978  0.1288E+01  0.1284E+01  0.1056E+02  0.1056E+02
     13.101  0.1109E+01  0.1116E+01  0.1069E+02  0.1069E+02
     13.223  0.9794E+00  0.9732E+00  0.1081E+02  0.1081E+02
     13.346  0.1662E+01  0.1667E+01  0.1102E+02  0.1102E+02
     13.468  0.8427E+00  0.8401E+00  0.1112E+02  0.1112E+02
     13.591  0.1422E+01  0.1426E+01  0.1129E+02  0.1129E+02
     13.713  0.1146E+01  0.1146E+01  0.1143E+02  0.1143E+02
     13.836  0.4220E+00  0.4243E+00  0.1149E+02  0.1149E+02
     13.958  0.6906E+00  0.6882E+00  0.1157E+02  0.1157E+02
     14.080  0.7892E+00  0.7904E+00  0.1167E+02  0.1167E+02
     14.203  0.6148E+00  0.6105E+00  0.1174E+02  0.1174E+02
     14.325  0.9812E+00  0.9829E+00  0.1186E+02  0.1186E+02
     14.448  0.1451E+01  0.1441E+01  0.1204E+02  0.1204E+02
     14.570  0.8505E+00  0.8644E+00  0.1214E+02  0.1214E+02
     14.693  0.7441E+00  0.7404E+00  0.1223E+02  0.1223E+02
     14.815  0.1024E+01  0.1034E+01  0.1236E+02  0.1236E+02
     14.938  0.4058E+00  0.4000E+00  0.1241E+02  0.1241E+02
     15.060  0.4005E+00  0.4508E+00  0.1246E+02  0.1247E+02
     15.183  0.6398E+00  0.5863E+00  0.1254E+02  0.1254E+02
     15.305  0.5578E+00  0.5594E+00  0.1261E+02  0.1261E+02
     15.427  0.5233E+00  0.5315E+00  0.1267E+02  0.1267E+02
     15.550  0.5949E+00  0.5864E+00  0.1274E+02  0.1274E+02
     15.672  0.8717E+00  0.8675E+00  0.1285E+02  0.1285E+02
     15.795  0.7196E+00  0.7224E+00  0.1294E+02  0.1294E+02
     15.917  0.6706E+00  0.6719E+00  0.1302E+02  0.1302E+02
     16.040  0.3032E+00  0.3041E+00  0.1306E+02  0.1306E+02
     16.162  0.3942E+00  0.3894E+00  0.1310E+02  0.1310E+02
     16.285  0.7382E+00  0.7406E+00  0.1320E+02  0.1319E+02
     16.407  0.1084E+01  0.1080E+01  0.1333E+02  0.1333E+02
     16.530  0.1077E+01  0.1078E+01  0.1346E+02  0.1346E+02
     16.652  0.9741E+00  0.9900E+00  0.1358E+02  0.1358E+02
     16.774  0.3066E+00  0.2692E+00  0.1362E+02  0.1361E+02
     16.897  0.3354E+00  0.3617E+00  0.1366E+02  0.1366E+02
     17.019  0.3785E+00  0.3761E+00  0.1370E+02  0.1370E+02
     17.142  0.3786E+00  0.3793E+00  0.1375E+02  0.1375E+02
     17.264  0.5382E+00  0.5396E+00  0.1382E+02  0.1382E+02
     17.387  0.3506E+00  0.3505E+00  0.1386E+02  0.1386E+02
     17.509  0.2589E+00  0.2601E+00  0.1389E+02  0.1389E+02
     17.632  0.8921E-01  0.8831E-01  0.1390E+02  0.1390E+02
     17.754  0.1989E+00  0.1987E+00  0.1393E+02  0.1393E+02
     17.876  0.1302E+00  0.1296E+00  0.1394E+02  0.1394E+02
     17.999  0.2479E+00  0.2486E+00  0.1397E+02  0.1397E+02
     18.121  0.7574E-01  0.8822E-01  0.1398E+02  0.1398E+02
     18.244  0.9118E-01  0.7839E-01  0.1399E+02  0.1399E+02
     18.366  0.2175E-01  0.2211E-01  0.1400E+02  0.1400E+02
     18.489  0.3668E-01  0.3684E-01  0.1400E+02  0.1400E+02
     18.611 -0.8602E-03 -0.8924E-03  0.1400E+02  0.1400E+02
     18.734 -0.3455E-08 -0.4019E-08  0.1400E+02  0.1400E+02
     18.856  0.0000E+00  0.0000E+00  0.1400E+02  0.1400E+02
     18.979  0.0000E+00  0.0000E+00  0.1400E+02  0.1400E+02
     19.101  0.0000E+00  0.0000E+00  0.1400E+02  0.1400E+02
     19.223  0.0000E+00  0.0000E+00  0.1400E+02  0.1400E+02
     19.346  0.0000E+00  0.0000E+00  0.1400E+02  0.1400E+02
     19.468  0.0000E+00  0.0000E+00  0.1400E+02  0.1400E+02
     19.591  0.0000E+00  0.0000E+00  0.1400E+02  0.1400E+02
     19.713  0.0000E+00  0.0000E+00  0.1400E+02  0.1400E+02
     19.836  0.0000E+00  0.0000E+00  0.1400E+02  0.1400E+02
     19.958  0.0000E+00  0.0000E+00  0.1400E+02  0.1400E+02
     20.081  0.0000E+00  0.0000E+00  0.1400E+02  0.1400E+02
     20.08062367    -16.65496316  301      4.34598815      1.00000000
    -16.655  0.0000E+00  0.0000E+00  0.0000E+00  0.0000E+00  0.0000E+00  0.0000E+00  0.0000E+00  0.0000E+00  0.0000E+00  0.0000E+00  0.0000E+00  0.0000E+00  0.0000E+00  0.0000E+00  0.0000E+00  0.0000E+00  0.0000E+00  0.0000E+00
    -16.533  0.0000E+00  0.0000E+00  0.0000E+00  0.0000E+00  0.0000E+00  0.0000E+00  0.0000E+00  0.0000E+00  0.0000E+00  0.0000E+00  0.0000E+00  0.0000E+00  0.0000E+00  0.0000E+00  0.0000E+00  0.0000E+00  0.0000E+00  0.0000E+00
    -16.410  0.0000E+00  0.0000E+00  0.0000E+00  0.0000E+00  0.0000E+00  0.0000E+00  0.0000E+00  0.0000E+00  0.0000E+00  0.0000E+00  0.0000E+00  0.0000E+00  0.0000E+00  0.0000E+00  0.0000E+00  0.0000E+00  0.0000E+00  0.0000E+00
    -16.288  0.0000E+00  0.0000E+00  0.0000E+00  0.0000E+00  0.0000E+00  0.0000E+00  0.0000E+00  0.0000E+00  0.0000E+00  0.0000E+00  0.0000E+00  0.0000E+00  0.0000E+00  0.0000E+00  0.0000E+00  0.0000E+00  0.0000E+00  0.0000E+00
    -16.165  0.0000E+00  0.0000E+00  0.0000E+00  0.0000E+00  0.0000E+00  0.0000E+00  0.0000E+00  0.0000E+00  0.0000E+00  0.0000E+00  0.0000E+00  0.0000E+00  0.0000E+00  0.0000E+00  0.0000E+00  0.0000E+00  0.0000E+00  0.0000E+00
    -16.043  0.0000E+00  0.0000E+00  0.0000E+00  0.0000E+00  0.0000E+00  0.0000E+00  0.0000E+00  0.0000E+00  0.0000E+00  0.0000E+00  0.0000E+00  0.0000E+00  0.0000E+00  0.0000E+00  0.0000E+00  0.0000E+00  0.0000E+00  0.0000E+00
    -15.920  0.0000E+00  0.0000E+00  0.0000E+00  0.0000E+00  0.0000E+00  0.0000E+00  0.0000E+00  0.0000E+00  0.0000E+00  0.0000E+00  0.0000E+00  0.0000E+00  0.0000E+00  0.0000E+00  0.0000E+00  0.0000E+00  0.0000E+00  0.0000E+00
    -15.798  0.0000E+00  0.0000E+00  0.0000E+00  0.0000E+00  0.0000E+00  0.0000E+00  0.0000E+00  0.0000E+00  0.0000E+00  0.0000E+00  0.0000E+00  0.0000E+00  0.0000E+00  0.0000E+00  0.0000E+00  0.0000E+00  0.0000E+00  0.0000E+00
    -15.675  0.0000E+00  0.0000E+00  0.0000E+00  0.0000E+00  0.0000E+00  0.0000E+00  0.0000E+00  0.0000E+00  0.0000E+00  0.0000E+00  0.0000E+00  0.0000E+00  0.0000E+00  0.0000E+00  0.0000E+00  0.0000E+00  0.0000E+00  0.0000E+00
    -15.553  0.0000E+00  0.0000E+00  0.0000E+00  0.0000E+00  0.0000E+00  0.0000E+00  0.0000E+00  0.0000E+00  0.0000E+00  0.0000E+00  0.0000E+00  0.0000E+00  0.0000E+00  0.0000E+00  0.0000E+00  0.0000E+00  0.0000E+00  0.0000E+00
    -15.430 -0.6949E-37 -0.5955E-37 -0.2617E-50 -0.4875E-52 -0.2187E-42 -0.1871E-42 -0.8520E-50 -0.1103E-51  0.0000E+00  0.0000E+00  0.0000E+00  0.0000E+00  0.0000E+00  0.0000E+00  0.0000E+00  0.0000E+00  0.0000E+00  0.0000E+00
    -15.308 -0.1290E-20 -0.1154E-20 -0.4788E-34 -0.1012E-35 -0.5552E-26 -0.4957E-26 -0.1579E-33 -0.2293E-35  0.0000E+00  0.0000E+00  0.0000E+00  0.0000E+00  0.0000E+00  0.0000E+00  0.0000E+00  0.0000E+00  0.0000E+00  0.0000E+00
    -15.186 -0.1289E-09 -0.1204E-09 -0.2219E-22 -0.1585E-22 -0.8723E-15 -0.8128E-15 -0.6835E-22 -0.4746E-22  0.0000E+00  0.0000E+00  0.0000E+00  0.0000E+00  0.0000E+00  0.0000E+00  0.0000E+00  0.0000E+00  0.0000E+00  0.0000E+00
    -15.063 -0.4992E-04 -0.4890E-04 -0.1665E-11 -0.1556E-11 -0.8522E-09 -0.8295E-09 -0.4994E-11 -0.4667E-11  0.0000E+00  0.0000E+00  0.0000E+00  0.0000E+00  0.0000E+00  0.0000E+00  0.0000E+00  0.0000E+00  0.0000E+00  0.0000E+00
    -14.941  0.3063E-02  0.3047E-02 -0.6105E-06 -0.5982E-06  0.1020E-06  0.1007E-06 -0.1831E-05 -0.1795E-05  0.0000E+00  0.0000E+00  0.0000E+00  0.0000E+00  0.0000E+00  0.0000E+00  0.0000E+00  0.0000E+00  0.0000E+00  0.0000E+00
    -14.818  0.2425E-01  0.2412E-01  0.4061E-04  0.4034E-04  0.1196E-05  0.1187E-05  0.1218E-03  0.1210E-03  0.0000E+00  0.0000E+00  0.0000E+00  0.0000E+00  0.0000E+00  0.0000E+00  0.0000E+00  0.0000E+00  0.0000E+00  0.0000E+00
    -14.696  0.2834E-01  0.2838E-01  0.4213E-04  0.4235E-04  0.3732E-05  0.3731E-05  0.1419E-03  0.1422E-03  0.0000E+00  0.0000E+00  0.0000E+00  0.0000E+00  0.0000E+00  0.0000E+00  0.0000E+00  0.0000E+00  0.0000E+00  0.0000E+00
    -14.573  0.5064E-01  0.5048E-01  0.4293E-03  0.4268E-03  0.3403E-05  0.3410E-05  0.2925E-03  0.2915E-03  0.0000E+00  0.0000E+00  0.0000E+00  0.0000E+00  0.0000E+00  0.0000E+00  0.0000E+00  0.0000E+00  0.0000E+00  0.0000E+00
    -14.451  0.5182E-01  0.5187E-01  0.6153E-03  0.6155E-03  0.3994E-05  0.3988E-05  0.6936E-03  0.6917E-03  0.0000E+00  0.0000E+00  0.0000E+00  0.0000E+00  0.0000E+00  0.0000E+00  0.0000E+00  0.0000E+00  0.0000E+00  0.0000E+00
    -14.328  0.5314E-01  0.5314E-01  0.7340E-03  0.7335E-03  0.5758E-05  0.5772E-05  0.7563E-03  0.7572E-03  0.0000E+00  0.0000E+00  0.0000E+00  0.0000E+00  0.0000E+00  0.0000E+00  0.0000E+00  0.0000E+00  0.0000E+00  0.0000E+00
    -14.206  0.3498E-01  0.3507E-01  0.3266E-03  0.3289E-03  0.2535E-05  0.2551E-05  0.7494E-03  0.7495E-03  0.0000E+00  0.0000E+00  0.0000E+00  0.0000E+00  0.0000E+00  0.0000E+00  0.0000E+00  0.0000E+00  0.0000E+00  0.0000E+00
    -14.083  0.4796E-01  0.4783E-01  0.1456E-02  0.1450E-02  0.1482E-05  0.1469E-05  0.1186E-02  0.1183E-02  0.0000E+00  0.0000E+00  0.0000E+00  0.0000E+00  0.0000E+00  0.0000E+00  0.0000E+00  0.0000E+00  0.0000E+00  0.0000E+00
    -13.961  0.4599E-01  0.4607E-01  0.1524E-02  0.1527E-02  0.6223E-05  0.6223E-05  0.1126E-02  0.1129E-02  0.0000E+00  0.0000E+00  0.0000E+00  0.0000E+00  0.0000E+00  0.0000E+00  0.0000E+00  0.0000E+00  0.0000E+00  0.0000E+00
    -13.839  0.8282E-01  0.8267E-01  0.2420E-02  0.2417E-02  0.5165E-05  0.5184E-05  0.2750E-02  0.2743E-02  0.0000E+00  0.0000E+00  0.0000E+00  0.0000E+00  0.0000E+00  0.0000E+00  0.0000E+00  0.0000E+00  0.0000E+00  0.0000E+00
    -13.716  0.2839E-01  0.2859E-01  0.6099E-03  0.6162E-03  0.3074E-05  0.3078E-05  0.1423E-02  0.1429E-02  0.0000E+00  0.0000E+00  0.0000E+00  0.0000E+00  0.0000E+00  0.0000E+00  0.0000E+00  0.0000E+00  0.0000E+00  0.0000E+00
    -13.594  0.2968E-01  0.2969E-01  0.5278E-03  0.5284E-03  0.1972E-05  0.1985E-05  0.1686E-02  0.1687E-02  0.0000E+00  0.0000E+00  0.0000E+00  0.0000E+00  0.0000E+00  0.0000E+00  0.0000E+00  0.0000E+00  0.0000E+00  0.0000E+00
    -13.471  0.2410E-01  0.2407E-01  0.1768E-02  0.1762E-02  0.8377E-06  0.8316E-06  0.6214E-03  0.6230E-03  0.0000E+00  0.0000E+00  0.0000E+00  0.0000E+00  0.0000E+00  0.0000E+00  0.0000E+00  0.0000E+00  0.0000E+00  0.0000E+00
    -13.349  0.7102E-01  0.7084E-01  0.4267E-02  0.4258E-02  0.4822E-05  0.4811E-05  0.3335E-02  0.3324E-02  0.0000E+00  0.0000E+00  0.0000E+00  0.0000E+00  0.0000E+00  0.0000E+00  0.0000E+00  0.0000E+00  0.0000E+00  0.0000E+00
    -13.226  0.7421E-01  0.7428E-01  0.4589E-02  0.4594E-02  0.7545E-05  0.7564E-05  0.3307E-02  0.3310E-02  0.0000E+00  0.0000E+00  0.0000E+00  0.0000E+00  0.0000E+00  0.0000E+00  0.0000E+00  0.0000E+00  0.0000E+00  0.0000E+00
    -13.104  0.5657E-01  0.5671E-01  0.2998E-02  0.3006E-02  0.2950E-05  0.2975E-05  0.3201E-02  0.3208E-02  0.0000E+00  0.0000E+00  0.0000E+00  0.0000E+00  0.0000E+00  0.0000E+00  0.0000E+00  0.0000E+00  0.0000E+00  0.0000E+00
    -12.981  0.2551E-01  0.2546E-01  0.8599E-03  0.8592E-03  0.1019E-05  0.1012E-05  0.2630E-02  0.2624E-02  0.0000E+00  0.0000E+00  0.0000E+00  0.0000E+00  0.0000E+00  0.0000E+00  0.0000E+00  0.0000E+00  0.0000E+00  0.0000E+00
    -12.859  0.2249E-01  0.2249E-01  0.7661E-03  0.7662E-03  0.2863E-05  0.2868E-05  0.2298E-02  0.2299E-02  0.0000E+00  0.0000E+00  0.0000E+00  0.0000E+00  0.0000E+00  0.0000E+00  0.0000E+00  0.0000E+00  0.0000E+00  0.0000E+00
    -12.737  0.2498E-01  0.2504E-01  0.7863E-03  0.7868E-03  0.1071E-05  0.1083E-05  0.2591E-02  0.2599E-02  0.0000E+00  0.0000E+00  0.0000E+00  0.0000E+00  0.0000E+00  0.0000E+00  0.0000E+00  0.0000E+00  0.0000E+00  0.0000E+00
    -12.614  0.5556E-01  0.5544E-01  0.5916E-02  0.5904E-02  0.2543E-05  0.2531E-05  0.3222E-02  0.3215E-02  0.0000E+00  0.0000E+00  0.0000E+00  0.0000E+00  0.0000E+00  0.0000E+00  0.0000E+00  0.0000E+00  0.0000E+00  0.0000E+00
    -12.492  0.4584E-01  0.4575E-01  0.4851E-02  0.4843E-02  0.5374E-05  0.5387E-05  0.2668E-02  0.2661E-02  0.0000E+00  0.0000E+00  0.0000E+00  0.0000E+00  0.0000E+00  0.0000E+00  0.0000E+00  0.0000E+00  0.0000E+00  0.0000E+00
    -12.369  0.1016E+00  0.1017E+00  0.9117E-02  0.9132E-02  0.4278E-05  0.4285E-05  0.8581E-02  0.8583E-02  0.0000E+00  0.0000E+00  0.0000E+00  0.0000E+00  0.0000E+00  0.0000E+00  0.0000E+00  0.0000E+00  0.0000E+00  0.0000E+00
    -12.247  0.4723E-01  0.4714E-01  0.3654E-02  0.3647E-02  0.5147E-05  0.5161E-05  0.4934E-02  0.4926E-02  0.0000E+00  0.0000E+00  0.0000E+00  0.0000E+00  0.0000E+00  0.0000E+00  0.0000E+00  0.0000E+00  0.0000E+00  0.0000E+00
    -12.124  0.3643E-01  0.3664E-01  0.2834E-02  0.2851E-02  0.9984E-06  0.1013E-05  0.3771E-02  0.3795E-02  0.0000E+00  0.0000E+00  0.0000E+00  0.0000E+00  0.0000E+00  0.0000E+00  0.0000E+00  0.0000E+00  0.0000E+00  0.0000E+00
    -12.002  0.1752E-02  0.1680E-02  0.8329E-04  0.7917E-04 -0.9725E-08 -0.1067E-07  0.3140E-03  0.3029E-03  0.0000E+00  0.0000E+00  0.0000E+00  0.0000E+00  0.0000E+00  0.0000E+00  0.0000E+00  0.0000E+00  0.0000E+00  0.0000E+00
    -11.879  0.3025E-01  0.3024E-01  0.1636E-02  0.1637E-02  0.1718E-05  0.1716E-05  0.4915E-02  0.4915E-02  0.0000E+00  0.0000E+00  0.0000E+00  0.0000E+00  0.0000E+00  0.0000E+00  0.0000E+00  0.0000E+00  0.0000E+00  0.0000E+00
    -11.757  0.3270E-01  0.3257E-01  0.2401E-02  0.2383E-02  0.2233E-05  0.2241E-05  0.4794E-02  0.4781E-02  0.0000E+00  0.0000E+00  0.0000E+00  0.0000E+00  0.0000E+00  0.0000E+00  0.0000E+00  0.0000E+00  0.0000E+00  0.0000E+00
    -11.634  0.5278E-01  0.5272E-01  0.7754E-02  0.7738E-02  0.2208E-05  0.2206E-05  0.4782E-02  0.4781E-02  0.0000E+00  0.0000E+00  0.0000E+00  0.0000E+00  0.0000E+00  0.0000E+00  0.0000E+00  0.0000E+00  0.0000E+00  0.0000E+00
    -11.512  0.8770E-01  0.8774E-01  0.1349E-01  0.1349E-01  0.5835E-05  0.5845E-05  0.7942E-02  0.7949E-02  0.0000E+00  0.0000E+00  0.0000E+00  0.0000E+00  0.0000E+00  0.0000E+00  0.0000E+00  0.0000E+00  0.0000E+00  0.0000E+00
    -11.390  0.6391E-01  0.6399E-01  0.9152E-02  0.9167E-02  0.3442E-05  0.3463E-05  0.6530E-02  0.6535E-02  0.0000E+00  0.0000E+00  0.0000E+00  0.0000E+00  0.0000E+00  0.0000E+00  0.0000E+00  0.0000E+00  0.0000E+00  0.0000E+00
    -11.267  0.3216E-01  0.3208E-01  0.3600E-02  0.3596E-02  0.4846E-06  0.4806E-06  0.4950E-02  0.4930E-02  0.0000E+00  0.0000E+00  0.0000E+00  0.0000E+00  0.0000E+00  0.0000E+00  0.0000E+00  0.0000E+00  0.0000E+00  0.0000E+00
    -11.145  0.5309E-01  0.5316E-01  0.5659E-02  0.5668E-02  0.4166E-05  0.4172E-05  0.8600E-02  0.8614E-02  0.0000E+00  0.0000E+00  0.0000E+00  0.0000E+00  0.0000E+00  0.0000E+00  0.0000E+00  0.0000E+00  0.0000E+00  0.0000E+00
    -11.022  0.5583E-01  0.5593E-01  0.5904E-02  0.5915E-02  0.2227E-05  0.2244E-05  0.8952E-02  0.8969E-02  0.0000E+00  0.0000E+00  0.0000E+00  0.0000E+00  0.0000E+00  0.0000E+00  0.0000E+00  0.0000E+00  0.0000E+00  0.0000E+00
    -10.900 -0.8145E-03 -0.7924E-03 -0.8617E-04 -0.8385E-04 -0.3562E-07 -0.3587E-07 -0.1307E-03 -0.1272E-03  0.0000E+00  0.0000E+00  0.0000E+00  0.0000E+00  0.0000E+00  0.0000E+00  0.0000E+00  0.0000E+00  0.0000E+00  0.0000E+00
    -10.777 -0.5718E-03 -0.5746E-03 -0.4312E-04 -0.4334E-04 -0.1329E-07 -0.1323E-07 -0.1291E-03 -0.1298E-03  0.0000E+00  0.0000E+00  0.0000E+00  0.0000E+00  0.0000E+00  0.0000E+00  0.0000E+00  0.0000E+00  0.0000E+00  0.0000E+00
    -10.655  0.2646E-01  0.2638E-01  0.1865E-02  0.1857E-02  0.8230E-06  0.8209E-06  0.6070E-02  0.6056E-02  0.0000E+00  0.0000E+00  0.0000E+00  0.0000E+00  0.0000E+00  0.0000E+00  0.0000E+00  0.0000E+00  0.0000E+00  0.0000E+00
    -10.532  0.8440E-01  0.8426E-01  0.1462E-01  0.1460E-01  0.3794E-05  0.3797E-05  0.1238E-01  0.1237E-01  0.0000E+00  0.0000E+00  0.0000E+00  0.0000E+00  0.0000E+00  0.0000E+00  0.0000E+00  0.0000E+00  0.0000E+00  0.0000E+00