    4    4    1    2
  0.8797333E+01  0.2461200E-09  0.2461200E-09  0.6707900E-09  0.5000000E-15
  1.000000000000000E-004
  CAR 
 unknown system                          
   16  192   14
 
  0.0000000E+00  0.0000000E+00  0.0000000E+00  0.3644315E-03
   1      -14.985164    -14.984730
   2      -14.686137    -14.685687
   3       -3.821683     -3.821391
   4       -1.864654     -1.864219
   5        1.725469      1.725423
   6        1.725488      1.725442
   7        1.730197      1.730154
   8        1.730218      1.730174
   9        8.986993      8.986531
  10       13.145025     13.145830
  11       13.145034     13.145840
  12       13.208112     13.208925
  13       13.208121     13.208933
  14       15.325344     15.324712
 
  0.7142857E-01 -0.6938894E-17  0.0000000E+00  0.2186589E-02
   1      -14.863293    -14.862861
   2      -14.566178    -14.565732
   3       -3.673439     -3.673151
   4       -1.728084     -1.727658
   5        1.218864      1.218834
   6        1.245331      1.245302
   7        1.449022      1.449009
   8        1.478146      1.478133
   9        9.134071      9.133608
  10       13.179342     13.180201
  11       13.247346     13.248213
  12       13.662408     13.663201
  13       13.705789     13.706588
  14       15.436971     15.432869
 
  0.1428571E+00  0.0000000E+00  0.0000000E+00  0.2186589E-02
   1      -14.497818    -14.497395
   2      -14.207076    -14.206640
   3       -3.229633     -3.229354
   4       -1.314953     -1.314540
   5       -0.070364     -0.070334
   6       -0.018040     -0.018011
   7        0.810138      0.810168
   8        0.851068      0.851098
   9        9.578594      9.578133
  10       13.143633     13.144612
  11       13.276611     13.277603
  12       14.543732     14.543513
  13       15.081875     14.910743
  14       15.112572     15.089383
 
  0.2142857E+00  0.0000000E+00  0.0000000E+00  0.2186589E-02
   1      -13.891831    -13.891423
   2      -13.611972    -13.611553
   3       -2.498623     -2.498360
   4       -1.797734     -1.797631
   5       -1.716573     -1.716471
   6       -0.638316     -0.637926
   7        0.042353      0.042422
   8        0.091719      0.091789
   9       10.319018     10.318559
  10       12.764703     12.764718
  11       12.895343     12.896415
  12       13.148768     13.149870
  13       13.305409     13.305508
  14       16.325049     16.325309
 
  0.2857143E+00 -0.2775558E-16  0.0000000E+00  0.2186589E-02
   1      -13.051402    -13.051019
   2      -12.787090    -12.786698
   3       -3.699870     -3.699695
   4       -3.581363     -3.581187
   5       -1.503666     -1.503433
   6       -0.673129     -0.673031
   7       -0.619528     -0.619430
   8        0.272895      0.273250
   9       10.694260     10.694341
  10       11.339263     11.338818
  11       11.463863     11.464022
  12       12.562054     12.563178
  13       12.894781     12.895944
  14       17.000901     17.000751
 
  0.3571429E+00 -0.2775558E-16  0.0000000E+00  0.2186589E-02
   1      -11.987934    -11.987588
   2      -11.741995    -11.741640
   3       -5.600135     -5.599885
   4       -5.457425     -5.457176
   5       -1.234518     -1.234402
   6       -1.177550     -1.177434
   7       -0.274947     -0.274755
   8        1.354315      1.354624
   9        8.593578      8.593736
  10        9.562696      9.562937
  11       12.211040     12.211991
  12       12.473102     12.473707
  13       12.876522     12.876882
  14       17.787977     17.788087
 
  0.4285714E+00  0.0000000E+00  0.0000000E+00  0.2186589E-02
   1      -10.730294    -10.730010
   2      -10.511243    -10.510955
   3       -7.384102     -7.383765
   4       -7.217487     -7.217153
   5       -1.590869     -1.590744
   6       -1.536573     -1.536448
   7        1.066374      1.066489
   8        2.345147      2.345392
   9        6.875840      6.876068
  10        7.844052      7.844403
  11       12.039543     12.040687
  12       12.418568     12.419724
  13       14.306393     14.306058
  14       17.953370     17.953186
 
  0.5000000E+00  0.2775558E-16  0.0000000E+00  0.1093294E-02
   1       -9.628864     -9.628784
   2       -9.518824     -9.518689
   3       -8.566924     -8.566421
   4       -8.484221     -8.483679
   5       -1.710527     -1.710399
   6       -1.653259     -1.653128
   7        1.944927      1.944904
   8        2.635056      2.635343
   9        6.251530      6.251729
  10        6.915938      6.916431
  11       11.971404     11.972559
  12       12.369969     12.371149
  13       16.028593     16.027902
  14       16.152366     16.152451
 
  0.7142857E-01  0.7142857E-01  0.0000000E+00  0.2186589E-02
   1      -14.619416    -14.618990
   2      -14.326640    -14.326201
   3       -3.377663     -3.377380
   4       -1.451507     -1.451089
   5        0.402731      0.402720
   6        0.428292      0.428285
   7        0.942857      0.942897
   8        0.962410      0.962453
   9        9.430988      9.430526
  10       13.366488     13.367442
  11       13.461372     13.462340
  12       14.400541     14.401295
  13       14.466957     14.467718
  14       14.945527     14.946359
 
  0.1428571E+00  0.7142857E-01  0.0000000E+00  0.4373178E-02
   1      -14.133757    -14.133344
   2      -13.849674    -13.849248
   3       -2.792206     -2.791939
   4       -1.000308     -1.000263
   5       -0.944033     -0.943988
   6       -0.906833     -0.906434
   7        0.127860      0.127958
   8        0.161976      0.162074
   9       10.025771     10.025310
  10       13.462512     13.463565
  11       13.498323     13.498312
  12       13.633710     13.634791
  13       13.911020     13.911083
  14       15.682131     15.675460
 
  0.2142857E+00  0.7142857E-01  0.0000000E+00  0.4373178E-02
   1      -13.410548    -13.410155
   2      -13.139769    -13.139364
   3       -2.749954     -2.749833
   4       -2.656079     -2.655958
   5       -1.925718     -1.925472
   6       -0.686086     -0.685954
   7       -0.634648     -0.634516
   8       -0.109502     -0.109130
   9       10.913484     10.913027
  10       11.627373     11.627411
  11       12.225086     12.225197
  12       13.240582     13.241681
  13       13.529831     13.530973
  14       16.666417     16.645085
 
  0.2857143E+00  0.7142857E-01  0.0000000E+00  0.4373178E-02
   1      -12.458385    -12.458021
   2      -12.204573    -12.204201
   3       -4.620963     -4.620763
   4       -4.495785     -4.495585
   5       -1.358597     -1.358444
   6       -1.302405     -1.302252
   7       -0.808989     -0.808778
   8        0.898102      0.898433
   9        9.559933      9.560036
  10       10.376839     10.377014
  11       12.069179     12.068744
  12       12.934451     12.935565
  13       13.303217     13.304382
  14       17.300845     17.300914
 
  0.3571429E+00  0.7142857E-01  0.0000000E+00  0.4373178E-02
   1      -11.294238    -11.293921
   2      -11.061891    -11.061568
   3       -6.453158     -6.452878
   4       -6.298519     -6.298241
   5       -1.831025     -1.830860
   6       -1.771001     -1.770837
   7        0.501638      0.501796
   8        1.989569      1.989843
   9        7.632464      7.632643
  10        8.585979      8.586241
  11       12.654703     12.655767
  12       13.003297     13.004256
  13       13.633331     13.633194
  14       17.971127     17.971563
 
  0.4285714E+00  0.7142857E-01  0.0000000E+00  0.4373178E-02
   1       -9.988160     -9.987948
   2       -9.798027     -9.797814
   3       -8.087846     -8.087438
   4       -7.930007     -7.929608
   5       -2.074452     -2.074283
   6       -2.014002     -2.013833
   7        1.767491      1.767537
   8        2.709637      2.709885
   9        6.380777      6.380988
  10        7.131481      7.131880
  11       12.522216     12.523328
  12       12.927813     12.928954
  13       15.262774     15.262434
  14       17.074248     17.074037
 
  0.1428571E+00  0.1428571E+00  0.0000000E+00  0.2186589E-02
   1      -13.530710    -13.530313
   2      -13.257970    -13.257562
   3       -2.174184     -2.174141
   4       -2.123641     -2.123589
   5       -2.068845     -2.068596
   6       -0.955716     -0.955509
   7       -0.918875     -0.918664
   8       -0.237787     -0.237410
   9       10.771593     10.771136
  10       12.030928     12.030938
  11       12.479777     12.479853
  12       14.251620     14.252797
  13       14.455678     14.456902
  14       15.995643     15.981269
 
  0.2142857E+00  0.1428571E+00  0.0000000E+00  0.4373178E-02
   1      -12.695625    -12.695253
   2      -12.437320    -12.436938
   3       -3.695393     -3.695288
   4       -3.609476     -3.609372
   5       -1.930606     -1.930341
   6       -1.873866     -1.873606
   7       -1.076363     -1.076140
   8        0.666317      0.666661
   9       10.267293     10.267334
  10       10.843011     10.843116
  11       11.804880     11.804428
  12       14.420029     14.421152
  13       14.765233     14.766440
  14       16.994383     16.995027
 
  0.2857143E+00  0.1428571E+00  0.0000000E+00  0.4373178E-02
   1      -11.639999    -11.639664
   2      -11.401821    -11.401479
   3       -5.418406     -5.418209
   4       -5.290304     -5.290110
   5       -2.604861     -2.604589
   6       -2.529554     -2.529287
   7        0.141664      0.141844
   8        1.734226      1.734523
   9        8.397796      8.397894
  10        9.144253      9.144407
  11       13.103591     13.103147
  12       14.187080     14.188149
  13       14.626979     14.628134
  14       17.260719     17.261276
 
  0.3571429E+00  0.1428571E+00  0.0000000E+00  0.4373178E-02
   1      -10.396411    -10.396141
   2      -10.183855    -10.183581
   3       -7.116974     -7.116676
   4       -6.961816     -6.961524
   5       -3.000089     -2.999817
   6       -2.916314     -2.916047
   7        1.487306      1.487414
   8        2.755951      2.756198
   9        6.778281      6.778443
  10        7.563487      7.563724
  11       13.965258     13.966227
  12       14.391176     14.391915
  13       14.748838     14.748897
  14       17.516111     17.517084
 
  0.4285714E+00  0.1428571E+00  0.0000000E+00  0.2186589E-02
   1       -9.316626     -9.316548
   2       -9.208619     -9.208487
   3       -8.266211     -8.265758
   4       -8.187232     -8.186740
   5       -3.131403     -3.131133
   6       -3.042489     -3.042222
   7        2.389948      2.389913
   8        3.068314      3.068615
   9        6.213626      6.213732
  10        6.612265      6.612658
  11       13.899928     13.900943
  12       14.381084     14.382149
  13       16.299473     16.298854
  14       16.456245     16.456389
 
  0.2142857E+00  0.2142857E+00  0.0000000E+00  0.2186589E-02
   1      -11.756262    -11.755922
   2      -11.515874    -11.515526
   3       -4.722200     -4.722129
   4       -4.655585     -4.655503
   5       -3.204114     -3.203714
   6       -3.152643     -3.152240
   7        0.024310      0.024500
   8        1.646632      1.646940
   9        8.772514      8.772562
  10        9.348727      9.348832
  11       12.971827     12.971389
  12       15.836546     15.837789
  13       16.150291     16.151539
  14       16.998378     16.997452
 
  0.2857143E+00  0.2142857E+00  0.0000000E+00  0.4373178E-02
   1      -10.614749    -10.614459
   2      -10.396044    -10.395748
   3       -6.094048     -6.093895
   4       -5.979153     -5.979006
   5       -4.037893     -4.037458
   6       -3.954104     -3.953679
   7        1.313585      1.313720
   8        2.738513      2.738775
   9        7.194115      7.194203
  10        7.838002      7.838117
  11       14.371799     14.371382
  12       15.869713     15.870665
  13       16.561543     16.562698
  14       16.774854     16.774369
 
  0.3571429E+00  0.2142857E+00  0.0000000E+00  0.4373178E-02
   1       -9.347350     -9.347161
   2       -9.167987     -9.167794
   3       -7.553179     -7.552880
   4       -7.414763     -7.414476
   5       -4.395145     -4.394727
   6       -4.291723     -4.291316
   7        2.612940      2.612964
   8        3.558274      3.558538
   9        6.043645      6.043784
  10        6.511011      6.511165
  11       15.680001     15.680613
  12       15.939054     15.938959
  13       16.472235     16.473259
  14       16.644719     16.646039
 
  0.2857143E+00  0.2857143E+00  0.0000000E+00  0.2186589E-02
   1       -9.424035     -9.423815
   2       -9.231638     -9.231413
   3       -6.832530     -6.832445
   4       -6.747200     -6.747104
   5       -5.181801     -5.181198
   6       -5.123979     -5.123377
   7        2.633858      2.633915
   8        3.809933      3.810189
   9        5.927163      5.927289
  10        6.579923      6.579974
  11       15.774640     15.774280
  12       16.211640     16.213089
  13       16.416042     16.417650
  14       17.225554     17.198352
 
  0.3571429E+00  0.2857143E+00  0.0000000E+00  0.2186589E-02
   1       -8.381521     -8.381457
   2       -8.280765     -8.280626
   3       -7.646753     -7.646580
   4       -7.645397     -7.645188
   5       -5.589041     -5.588394
   6       -5.511132     -5.510508
   7        3.677158      3.676990
   8        4.312345      4.312783
   9        5.250501      5.250849
  10        5.686098      5.685932
  11       15.995468     15.997078
  12       16.008534     16.010095
  13       16.867017     16.861674
  14       17.144680     17.149761
 
  0.0000000E+00  0.0000000E+00  0.7142857E-01  0.7288630E-03
   1      -14.981826    -14.981391
   2      -14.690153    -14.689704
   3       -3.801188     -3.800896
   4       -1.897242     -1.896814
   5        1.714338      1.714293
   6        1.714359      1.714313
   7        1.725916      1.725874
   8        1.725937      1.725894
   9        9.049979      9.049518
  10       13.136828     13.137634
  11       13.136838     13.137644
  12       13.183744     13.184556
  13       13.183754     13.184565
  14       15.193218     15.192118
 
  0.7142857E-01 -0.6938894E-17  0.7142857E-01  0.4373178E-02
   1      -14.859797    -14.859365
   2      -14.570156    -14.569710
   3       -3.652873     -3.652584
   4       -1.758607     -1.758184
   5        1.219082      1.219052
   6        1.244556      1.244527
   7        1.453121      1.453108
   8        1.477910      1.477897
   9        9.197302      9.196842
  10       13.179927     13.180786
  11       13.246579     13.247446
  12       13.664235     13.665027
  13       13.705523     13.706321
  14       15.418142     15.399068
 
  0.1428571E+00  0.0000000E+00  0.7142857E-01  0.4373178E-02
   1      -14.494393    -14.493970
   2      -14.210958    -14.210522
   3       -3.208974     -3.208693
   4       -1.344721     -1.344311
   5       -0.069596     -0.069566
   6       -0.018622     -0.018593
   7        0.817581      0.817610
   8        0.850678      0.850708
   9        9.640661      9.640202
  10       13.144778     13.145755
  11       13.274780     13.275772
  12       14.550870     14.550825
  13       14.905276     14.914302
  14       15.089439     15.090258
 
  0.2142857E+00  0.0000000E+00  0.7142857E-01  0.4373178E-02
   1      -13.888531    -13.888124
   2      -13.615778    -13.615359
   3       -2.482197     -2.481935
   4       -1.798969     -1.798867
   5       -1.718434     -1.718333
   6       -0.667656     -0.667269
   7        0.042649      0.042718
   8        0.090694      0.090764
   9       10.378368     10.377913
  10       12.765878     12.765933
  11       12.899602     12.900633
  12       13.132357     13.133416
  13       13.294575     13.294717
  14       16.199687     16.199385
 
  0.2857143E+00 -0.2775558E-16  0.7142857E-01  0.4373178E-02
   1      -13.048297    -13.047914
   2      -12.790622    -12.790230
   3       -3.698540     -3.698364
   4       -3.585114     -3.584938
   5       -1.485161     -1.484927
   6       -0.672560     -0.672463
   7       -0.620131     -0.620033
   8        0.244886      0.245239
   9       10.688377     10.688457
  10       11.398765     11.398354
  11       11.447054     11.447186
  12       12.565239     12.566361
  13       12.893908     12.895068
  14       16.898447     16.898286
 
  0.3571429E+00 -0.2775558E-16  0.7142857E-01  0.4373178E-02
   1      -11.985406    -11.985060
   2      -11.745502    -11.745148
   3       -5.598283     -5.598034
   4       -5.457984     -5.457735
   5       -1.234562     -1.234446
   6       -1.181527     -1.181411
   7       -0.257249     -0.257057
   8        1.324397      1.324701
   9        8.602127      8.602285
  10        9.549049      9.549287
  11       12.220969     12.221947
  12       12.481011     12.481691
  13       12.915058     12.915320
  14       17.699827     17.699916
 
  0.4285714E+00  0.0000000E+00  0.7142857E-01  0.4373178E-02
   1      -10.727808    -10.727524
   2      -10.514451    -10.514163
   3       -7.380157     -7.379819
   4       -7.219709     -7.219375
   5       -1.589826     -1.589701
   6       -1.536346     -1.536221
   7        1.081960      1.082076
   8        2.328919      2.329162
   9        6.880674      6.880903
  10        7.823775      7.824123
  11       12.044854     12.045999
  12       12.414032     12.415188
  13       14.357163     14.356832
  14       17.967580     17.967411
 
  0.5000000E+00  0.2775558E-16  0.7142857E-01  0.2186589E-02
   1       -9.627230     -9.627150
   2       -9.519923     -9.519790
   3       -8.566353     -8.565850
   4       -8.485696     -8.485154
   5       -1.709790     -1.709663
   6       -1.653910     -1.653779
   7        1.956066      1.956046
   8        2.630542      2.630824
   9        6.249461      6.249662
  10        6.898281      6.898771
  11       11.976159     11.977315
  12       12.364892     12.366071
  13       16.077594     16.076905
  14       16.187558     16.187650
 
  0.7142857E-01  0.7142857E-01  0.7142857E-01  0.4373178E-02
   1      -14.615967    -14.615541
   2      -14.330549    -14.330110
   3       -3.356534     -3.356250
   4       -1.481416     -1.481000
   5        0.403194      0.403183
   6        0.428007      0.427999
   7        0.945315      0.945356
   8        0.962828      0.962871
   9        9.493497      9.493038
  10       13.376683     13.377637
  11       13.460547     13.461515
  12       14.405672     14.406427
  13       14.466441     14.467205
  14       14.951059     14.951008
 
  0.1428571E+00  0.7142857E-01  0.7142857E-01  0.8746356E-02
   1      -14.130403    -14.129989
   2      -13.853433    -13.853008
   3       -2.771060     -2.770791
   4       -0.998389     -0.998343
   5       -0.944263     -0.944213
   6       -0.935785     -0.935394
   7        0.127897      0.127995
   8        0.162820      0.162918
   9       10.086660     10.086203
  10       13.447291     13.448114
  11       13.518056     13.518279
  12       13.631940     13.633002
  13       13.910902     13.910980
  14       15.680490     15.678232
 
  0.2142857E+00  0.7142857E-01  0.7142857E-01  0.8746356E-02
   1      -13.407358    -13.406964
   2      -13.143296    -13.142892
   3       -2.749386     -2.749264
   4       -2.658527     -2.658405
   5       -1.907929     -1.907683
   6       -0.685277     -0.685145
   7       -0.636086     -0.635954
   8       -0.137968     -0.137599
   9       10.968547     10.968097
  10       11.633107     11.633142
  11       12.205877     12.205987
  12       13.243477     13.244574
  13       13.528397     13.529538
  14       16.535455     16.535406
 
  0.2857143E+00  0.7142857E-01  0.7142857E-01  0.8746356E-02
   1      -12.455371    -12.455007
   2      -12.207920    -12.207548
   3       -4.619305     -4.619106
   4       -4.496566     -4.496367
   5       -1.357686     -1.357533
   6       -1.301957     -1.301805
   7       -0.789943     -0.789731
   8        0.870380      0.870708
   9        9.571665      9.571769
  10       10.372770     10.372943
  11       12.123489     12.123062
  12       12.938883     12.939995
  13       13.301869     13.303031
  14       17.213420     17.213469
 
  0.3571429E+00  0.7142857E-01  0.7142857E-01  0.8746356E-02
   1      -11.291447    -11.291130
   2      -11.064930    -11.064606
   3       -6.450380     -6.450100
   4       -6.300480     -6.300202
   5       -1.830085     -1.829920
   6       -1.771474     -1.771310
   7        0.519164      0.519323
   8        1.968985      1.969257
   9        7.640415      7.640595
  10        8.576244      8.576505
  11       12.660223     12.661292
  12       13.001570     13.002547
  13       13.682367     13.682211
  14       17.891313     17.891702
 
  0.4285714E+00  0.7142857E-01  0.7142857E-01  0.8746356E-02
   1       -9.985573     -9.985362
   2       -9.800095     -9.799882
   3       -8.085569     -8.085161
   4       -7.931753     -7.931354
   5       -2.072826     -2.072657
   6       -2.012934     -2.012765
   7        1.780818      1.780866
   8        2.700732      2.700976
   9        6.382591      6.382804
  10        7.120450      7.120847
  11       12.527985     12.529099
  12       12.923692     12.924834
  13       15.307203     15.306871
  14       17.099410     17.099207
 
  0.1428571E+00  0.1428571E+00  0.7142857E-01  0.4373178E-02
   1      -13.527476    -13.527079
   2      -13.261598    -13.261191
   3       -2.173505     -2.173462
   4       -2.124326     -2.124273
   5       -2.048700     -2.048450
   6       -0.954019     -0.953812
   7       -0.918880     -0.918669
   8       -0.265798     -0.265423
   9       10.830157     10.829704
  10       12.037947     12.037958
  11       12.480074     12.480150
  12       14.254673     14.255845
  13       14.456990     14.458214
  14       15.970165     15.967666
 
  0.2142857E+00  0.1428571E+00  0.7142857E-01  0.8746356E-02
   1      -12.692576    -12.692205
   2      -12.440769    -12.440388
   3       -3.694308     -3.694204
   4       -3.610040     -3.609936
   5       -1.929752     -1.929487
   6       -1.873769     -1.873509
   7       -1.059893     -1.059670
   8        0.636997      0.637338
   9       10.273672     10.273715
  10       10.827762     10.827868
  11       11.860441     11.859992
  12       14.423362     14.424481
  13       14.762452     14.763658
  14       16.847222     16.848773
 
  0.2857143E+00  0.1428571E+00  0.7142857E-01  0.8746356E-02
   1      -11.637357    -11.637023
   2      -11.404928    -11.404586
   3       -5.417373     -5.417176
   4       -5.290343     -5.290149
   5       -2.603601     -2.603328
   6       -2.529989     -2.529722
   7        0.161206      0.161389
   8        1.713678      1.713974
   9        8.407205      8.407304
  10        9.138592      9.138745
  11       13.151899     13.151460
  12       14.190733     14.191799
  13       14.624235     14.625388
  14       17.194180     17.194711
 
  0.3571429E+00  0.1428571E+00  0.7142857E-01  0.8746356E-02
   1      -10.393907    -10.393637
   2      -10.186676    -10.186402
   3       -7.115439     -7.115142
   4       -6.963829     -6.963537
   5       -2.999358     -2.999086
   6       -2.917900     -2.917633
   7        1.502682      1.502791
   8        2.739868      2.740112
   9        6.779754      6.779918
  10        7.549738      7.549973
  11       13.970198     13.971172
  12       14.387836     14.388616
  13       14.783338     14.783360
  14       17.412733     17.413544
 
  0.4285714E+00  0.1428571E+00  0.7142857E-01  0.4373178E-02
   1       -9.314994     -9.314915
   2       -9.209737     -9.209606
   3       -8.266068     -8.265615
   4       -8.189660     -8.189170
   5       -3.130780     -3.130509
   6       -3.046105     -3.045837
   7        2.400787      2.400755
   8        3.064028      3.064324
   9        6.205339      6.205449
  10        6.603312      6.603700
  11       13.902334     13.903347
  12       14.373526     14.374589
  13       16.332386     16.331786
  14       16.434352     16.434551
 
  0.2142857E+00  0.2142857E+00  0.7142857E-01  0.4373178E-02
   1      -11.753378    -11.753039
   2      -11.519128    -11.518780
   3       -4.721649     -4.721579
   4       -4.656371     -4.656289
   5       -3.204669     -3.204269
   6       -3.153711     -3.153307
   7        0.037022      0.037210
   8        1.621710      1.622015
   9        8.775612      8.775661
  10        9.327367      9.327470
  11       13.019638     13.019204
  12       15.828801     15.830026
  13       16.151752     16.153002
  14       16.933317     16.980941
 
  0.2857143E+00  0.2142857E+00  0.7142857E-01  0.8746356E-02
   1      -10.612100    -10.611810
   2      -10.399088    -10.398792
   3       -6.092759     -6.092607
   4       -5.980956     -5.980809
   5       -4.036881     -4.036447
   6       -3.954412     -3.953987
   7        1.333019      1.333156
   8        2.721914      2.722174
   9        7.206761      7.206849
  10        7.839624      7.839738
  11       14.403620     14.403219
  12       15.864417     15.865367
  13       16.554849     16.556003
  14       16.730290     16.731338
 
  0.3571429E+00  0.2142857E+00  0.7142857E-01  0.8746356E-02
   1       -9.344984     -9.344795
   2       -9.170332     -9.170139
   3       -7.551792     -7.551493
   4       -7.416644     -7.416357
   5       -4.393704     -4.393286
   6       -4.292685     -4.292278
   7        2.625825      2.625851
   8        3.549845      3.550105
   9        6.048720      6.048860
  10        6.505094      6.505248
  11       15.682340     15.682999
  12       15.885430     15.885471
  13       16.448049     16.449011
  14       16.583818     16.585078
 
  0.2857143E+00  0.2857143E+00  0.7142857E-01  0.4373178E-02
   1       -9.421646     -9.421427
   2       -9.234110     -9.233885
   3       -6.831701     -6.831615
   4       -6.748522     -6.748427
   5       -5.181601     -5.180999
   6       -5.125278     -5.124676
   7        2.653242      2.653303
   8        3.801521      3.801775
   9        5.939592      5.939718
  10        6.577690      6.577740
  11       15.700098     15.700061
  12       16.136732     16.138106
  13       16.497970     16.499125
  14       17.281914     17.303220
 
  0.3571429E+00  0.2857143E+00  0.7142857E-01  0.4373178E-02
   1       -8.379931     -8.379867
   2       -8.281895     -8.281757
   3       -7.648295     -7.648123
   4       -7.646124     -7.645915
   5       -5.588381     -5.587734
   6       -5.513294     -5.512670
   7        3.685909      3.685745
   8        4.307227      4.307655
   9        5.257395      5.257739
  10        5.674396      5.674233
  11       15.883782     15.885255
  12       15.920367     15.921837
  13       16.903740     16.902912
  14       17.266348     17.254966
 
  0.0000000E+00  0.0000000E+00  0.1428571E+00  0.7288630E-03
   1      -14.971433    -14.970998
   2      -14.701947    -14.701499
   3       -3.739599     -3.739304
   4       -1.986287     -1.985869
   5        1.713876      1.713831
   6        1.713897      1.713851
   7        1.724971      1.724929
   8        1.724992      1.724949
   9        9.237470      9.237017
  10       13.138387     13.139194
  11       13.138397     13.139203
  12       13.180872     13.181684
  13       13.180882     13.181694
  14       14.826787     14.826297
 
  0.7142857E-01 -0.6938894E-17  0.1428571E+00  0.4373178E-02
   1      -14.849456    -14.849023
   2      -14.581856    -14.581411
   3       -3.591790     -3.591498
   4       -1.847273     -1.846859
   5        1.217702      1.217672
   6        1.243560      1.243531
   7        1.452166      1.452153
   8        1.473682      1.473670
   9        9.383913      9.383460
  10       13.180823     13.181679
  11       13.244095     13.244962
  12       13.661602     13.662395
  13       13.702196     13.702994
  14       14.945378     14.996400
 
  0.1428571E+00  0.0000000E+00  0.1428571E+00  0.4373178E-02
   1      -14.484266    -14.483843
   2      -14.222506    -14.222070
   3       -3.151817     -3.151535
   4       -1.431947     -1.431545
   5       -0.068429     -0.068399
   6       -0.021173     -0.021144
   7        0.815926      0.815956
   8        0.849469      0.849499
   9        9.823824      9.823372
  10       13.141469     13.142441
  11       13.268944     13.269935
  12       14.558724     14.558623
  13       15.090257     14.969373
  14       15.122060     15.114306
 
  0.2142857E+00  0.0000000E+00  0.1428571E+00  0.4373178E-02
   1      -13.878752    -13.878344
   2      -13.626738    -13.626319
   3       -2.423086     -2.422821
   4       -1.795911     -1.795808
   5       -1.718055     -1.717953
   6       -0.751129     -0.750750
   7        0.052105      0.052174
   8        0.089529      0.089600
   9       10.553658     10.553212
  10       12.779277     12.779440
  11       12.919625     12.920545
  12       13.106016     13.106963
  13       13.294625     13.294875
  14       15.880815     15.880488
 
  0.2857143E+00 -0.2775558E-16  0.1428571E+00  0.4373178E-02
   1      -13.038959    -13.038576
   2      -12.800868    -12.800476
   3       -3.694175     -3.693999
   4       -3.589335     -3.589159
   5       -1.425620     -1.425381
   6       -0.663985     -0.663889
   7       -0.621737     -0.621639
   8        0.170562      0.170910
   9       10.703535     10.703616
  10       11.407011     11.407149
  11       11.585132     11.584728
  12       12.576817     12.577935
  13       12.894902     12.896055
  14       16.620982     16.620792
 
  0.3571429E+00 -0.2775558E-16  0.1428571E+00  0.4373178E-02
   1      -11.976785    -11.976438
   2      -11.755064    -11.754709
   3       -5.593228     -5.592979
   4       -5.463868     -5.463619
   5       -1.226363     -1.226248
   6       -1.184018     -1.183902
   7       -0.204271     -0.204076
   8        1.253750      1.254047
   9        8.629995      8.630157
  10        9.504655      9.504889
  11       12.241340     12.242377
  12       12.497885     12.498724