Automatically generated mesh
     192
Reciprocal lattice
    0.00000000000000    0.00000000000000    0.00000000000000             1
    0.07142857142857    0.00000000000000    0.00000000000000             6
    0.14285714285714    0.00000000000000    0.00000000000000             6
    0.21428571428571    0.00000000000000    0.00000000000000             6
    0.28571428571429    0.00000000000000    0.00000000000000             6
    0.35714285714286    0.00000000000000    0.00000000000000             6
    0.42857142857143    0.00000000000000    0.00000000000000             6
    0.50000000000000    0.00000000000000    0.00000000000000             3
    0.07142857142857    0.07142857142857    0.00000000000000             6
    0.14285714285714    0.07142857142857    0.00000000000000            12
    0.21428571428571    0.07142857142857    0.00000000000000            12
    0.28571428571429    0.07142857142857    0.00000000000000            12
    0.35714285714286    0.07142857142857    0.00000000000000            12
    0.42857142857143    0.07142857142857    0.00000000000000            12
    0.14285714285714    0.14285714285714    0.00000000000000             6
    0.21428571428571    0.14285714285714    0.00000000000000            12
    0.28571428571429    0.14285714285714    0.00000000000000            12
    0.35714285714286    0.14285714285714    0.00000000000000            12
    0.42857142857143    0.14285714285714    0.00000000000000             6
    0.21428571428571    0.21428571428571    0.00000000000000             6
    0.28571428571429    0.21428571428571    0.00000000000000            12
    0.35714285714286    0.21428571428571    0.00000000000000            12
    0.28571428571429    0.28571428571429    0.00000000000000             6
    0.35714285714286    0.28571428571429    0.00000000000000             6
    0.00000000000000    0.00000000000000    0.07142857142857             2
    0.07142857142857    0.00000000000000    0.07142857142857            12
    0.14285714285714    0.00000000000000    0.07142857142857            12
    0.21428571428571    0.00000000000000    0.07142857142857            12
    0.28571428571429    0.00000000000000    0.07142857142857            12
    0.35714285714286    0.00000000000000    0.07142857142857            12
    0.42857142857143    0.00000000000000    0.07142857142857            12
    0.50000000000000    0.00000000000000    0.07142857142857             6
    0.07142857142857    0.07142857142857    0.07142857142857            12
    0.14285714285714    0.07142857142857    0.07142857142857            24
    0.21428571428571    0.07142857142857    0.07142857142857            24
    0.28571428571429    0.07142857142857    0.07142857142857            24
    0.35714285714286    0.07142857142857    0.07142857142857            24
    0.42857142857143    0.07142857142857    0.07142857142857            24
    0.14285714285714    0.14285714285714    0.07142857142857            12
    0.21428571428571    0.14285714285714    0.07142857142857            24
    0.28571428571429    0.14285714285714    0.07142857142857            24
    0.35714285714286    0.14285714285714    0.07142857142857            24
    0.42857142857143    0.14285714285714    0.07142857142857            12
    0.21428571428571    0.21428571428571    0.07142857142857            12
    0.28571428571429    0.21428571428571    0.07142857142857            24
    0.35714285714286    0.21428571428571    0.07142857142857            24
    0.28571428571429    0.28571428571429    0.07142857142857            12
    0.35714285714286    0.28571428571429    0.07142857142857            12
    0.00000000000000    0.00000000000000    0.14285714285714             2
    0.07142857142857    0.00000000000000    0.14285714285714            12
    0.14285714285714    0.00000000000000    0.14285714285714            12
    0.21428571428571    0.00000000000000    0.14285714285714            12
    0.28571428571429    0.00000000000000    0.14285714285714            12
    0.35714285714286    0.00000000000000    0.14285714285714            12
    0.42857142857143    0.00000000000000    0.14285714285714            12
    0.50000000000000    0.00000000000000    0.14285714285714             6
    0.07142857142857    0.07142857142857    0.14285714285714            12
    0.14285714285714    0.07142857142857    0.14285714285714            24
    0.21428571428571    0.07142857142857    0.14285714285714            24
    0.28571428571429    0.07142857142857    0.14285714285714            24
    0.35714285714286    0.07142857142857    0.14285714285714            24
    0.42857142857143    0.07142857142857    0.14285714285714            24
    0.14285714285714    0.14285714285714    0.14285714285714            12
    0.21428571428571    0.14285714285714    0.14285714285714            24
    0.28571428571429    0.14285714285714    0.14285714285714            24
    0.35714285714286    0.14285714285714    0.14285714285714            24
    0.42857142857143    0.14285714285714    0.14285714285714            12
    0.21428571428571    0.21428571428571    0.14285714285714            12
    0.28571428571429    0.21428571428571    0.14285714285714            24
    0.35714285714286    0.21428571428571    0.14285714285714            24
    0.28571428571429    0.28571428571429    0.14285714285714            12
    0.35714285714286    0.28571428571429    0.14285714285714            12
    0.00000000000000    0.00000000000000    0.21428571428571             2
    0.07142857142857    0.00000000000000    0.21428571428571            12
    0.14285714285714    0.00000000000000    0.21428571428571            12
    0.21428571428571    0.00000000000000    0.21428571428571            12
    0.28571428571429    0.00000000000000    0.21428571428571            12
    0.35714285714286    0.00000000000000    0.21428571428571            12
    0.42857142857143    0.00000000000000    0.21428571428571            12
    0.50000000000000    0.00000000000000    0.21428571428571             6
    0.07142857142857    0.07142857142857    0.21428571428571            12
    0.14285714285714    0.07142857142857    0.21428571428571            24
    0.21428571428571    0.07142857142857    0.21428571428571            24
    0.28571428571429    0.07142857142857    0.21428571428571            24
    0.35714285714286    0.07142857142857    0.21428571428571            24
    0.42857142857143    0.07142857142857    0.21428571428571            24
    0.14285714285714    0.14285714285714    0.21428571428571            12
    0.21428571428571    0.14285714285714    0.21428571428571            24
    0.28571428571429    0.14285714285714    0.21428571428571            24
    0.35714285714286    0.14285714285714    0.21428571428571            24
    0.42857142857143    0.14285714285714    0.21428571428571            12
    0.21428571428571    0.21428571428571    0.21428571428571            12
    0.28571428571429    0.21428571428571    0.21428571428571            24
    0.35714285714286    0.21428571428571    0.21428571428571            24
    0.28571428571429    0.28571428571429    0.21428571428571            12
    0.35714285714286    0.28571428571429    0.21428571428571            12
    0.00000000000000    0.00000000000000    0.28571428571429             2
    0.07142857142857    0.00000000000000    0.28571428571429            12
    0.14285714285714    0.00000000000000    0.28571428571429            12
    0.21428571428571    0.00000000000000    0.28571428571429            12
    0.28571428571429    0.00000000000000    0.28571428571429            12
    0.35714285714286    0.00000000000000    0.28571428571429            12
    0.42857142857143    0.00000000000000    0.28571428571429            12
    0.50000000000000    0.00000000000000    0.28571428571429             6
    0.07142857142857    0.07142857142857    0.28571428571429            12
    0.14285714285714    0.07142857142857    0.28571428571429            24
    0.21428571428571    0.07142857142857    0.28571428571429            24
    0.28571428571429    0.07142857142857    0.28571428571429            24
    0.35714285714286    0.07142857142857    0.28571428571429            24
    0.42857142857143    0.07142857142857    0.28571428571429            24
    0.14285714285714    0.14285714285714    0.28571428571429            12
    0.21428571428571    0.14285714285714    0.28571428571429            24
    0.28571428571429    0.14285714285714    0.28571428571429            24
    0.35714285714286    0.14285714285714    0.28571428571429            24
    0.42857142857143    0.14285714285714    0.28571428571429            12
    0.21428571428571    0.21428571428571    0.28571428571429            12
    0.28571428571429    0.21428571428571    0.28571428571429            24
    0.35714285714286    0.21428571428571    0.28571428571429            24
    0.28571428571429    0.28571428571429    0.28571428571429            12
    0.35714285714286    0.28571428571429    0.28571428571429            12
    0.00000000000000    0.00000000000000    0.35714285714286             2
    0.07142857142857    0.00000000000000    0.35714285714286            12
    0.14285714285714    0.00000000000000    0.35714285714286            12
    0.21428571428571    0.00000000000000    0.35714285714286            12
    0.28571428571429    0.00000000000000    0.35714285714286            12
    0.35714285714286    0.00000000000000    0.35714285714286            12
    0.42857142857143    0.00000000000000    0.35714285714286            12
    0.50000000000000    0.00000000000000    0.35714285714286             6
    0.07142857142857    0.07142857142857    0.35714285714286            12
    0.14285714285714    0.07142857142857    0.35714285714286            24
    0.21428571428571    0.07142857142857    0.35714285714286            24
    0.28571428571429    0.07142857142857    0.35714285714286            24
    0.35714285714286    0.07142857142857    0.35714285714286            24
    0.42857142857143    0.07142857142857    0.35714285714286            24
    0.14285714285714    0.14285714285714    0.35714285714286            12
    0.21428571428571    0.14285714285714    0.35714285714286            24
    0.28571428571429    0.14285714285714    0.35714285714286            24
    0.35714285714286    0.14285714285714    0.35714285714286            24
    0.42857142857143    0.14285714285714    0.35714285714286            12
    0.21428571428571    0.21428571428571    0.35714285714286            12
    0.28571428571429    0.21428571428571    0.35714285714286            24
    0.35714285714286    0.21428571428571    0.35714285714286            24
    0.28571428571429    0.28571428571429    0.35714285714286            12
    0.35714285714286    0.28571428571429    0.35714285714286            12
    0.00000000000000    0.00000000000000    0.42857142857143             2
    0.07142857142857    0.00000000000000    0.42857142857143            12
    0.14285714285714    0.00000000000000    0.42857142857143            12
    0.21428571428571    0.00000000000000    0.42857142857143            12
    0.28571428571429    0.00000000000000    0.42857142857143            12
    0.35714285714286    0.00000000000000    0.42857142857143            12
    0.42857142857143    0.00000000000000    0.42857142857143            12
    0.50000000000000    0.00000000000000    0.42857142857143             6
    0.07142857142857    0.07142857142857    0.42857142857143            12
    0.14285714285714    0.07142857142857    0.42857142857143            24
    0.21428571428571    0.07142857142857    0.42857142857143            24
    0.28571428571429    0.07142857142857    0.42857142857143            24
    0.35714285714286    0.07142857142857    0.42857142857143            24
    0.42857142857143    0.07142857142857    0.42857142857143            24
    0.14285714285714    0.14285714285714    0.42857142857143            12
    0.21428571428571    0.14285714285714    0.42857142857143            24
    0.28571428571429    0.14285714285714    0.42857142857143            24
    0.35714285714286    0.14285714285714    0.42857142857143            24
    0.42857142857143    0.14285714285714    0.42857142857143            12
    0.21428571428571    0.21428571428571    0.42857142857143            12
    0.28571428571429    0.21428571428571    0.42857142857143            24
    0.35714285714286    0.21428571428571    0.42857142857143            24
    0.28571428571429    0.28571428571429    0.42857142857143            12
    0.35714285714286    0.28571428571429    0.42857142857143            12
    0.00000000000000    0.00000000000000    0.50000000000000             1
    0.07142857142857    0.00000000000000    0.50000000000000             6
    0.14285714285714    0.00000000000000    0.50000000000000             6
    0.21428571428571    0.00000000000000    0.50000000000000             6
    0.28571428571429    0.00000000000000    0.50000000000000             6
    0.35714285714286    0.00000000000000    0.50000000000000             6
    0.42857142857143    0.00000000000000    0.50000000000000             6
    0.50000000000000    0.00000000000000    0.50000000000000             3
    0.07142857142857    0.07142857142857    0.50000000000000             6
    0.14285714285714    0.07142857142857    0.50000000000000            12
    0.21428571428571    0.07142857142857    0.50000000000000            12
    0.28571428571429    0.07142857142857    0.50000000000000            12
    0.35714285714286    0.07142857142857    0.50000000000000            12
    0.42857142857143    0.07142857142857    0.50000000000000            12
    0.14285714285714    0.14285714285714    0.50000000000000             6
    0.21428571428571    0.14285714285714    0.50000000000000            12
    0.28571428571429    0.14285714285714    0.50000000000000            12
    0.35714285714286    0.14285714285714    0.50000000000000            12
    0.42857142857143    0.14285714285714    0.50000000000000             6
    0.21428571428571    0.21428571428571    0.50000000000000             6
    0.28571428571429    0.21428571428571    0.50000000000000            12
    0.35714285714286    0.21428571428571    0.50000000000000            12
    0.28571428571429    0.28571428571429    0.50000000000000             6
    0.35714285714286    0.28571428571429    0.50000000000000             6
