       N       E                     dE             d eps       ncg     rms          rms(c)
DAV:   1     0.217941953314E+02    0.21794E+02   -0.65087E+03 10878   0.751E+02
DAV:   2    -0.353608323254E+02   -0.57155E+02   -0.52425E+02 14654   0.173E+02
DAV:   3    -0.375825398382E+02   -0.22217E+01   -0.22105E+01 14238   0.329E+01
DAV:   4    -0.376033559141E+02   -0.20816E-01   -0.20807E-01 13018   0.362E+00
DAV:   5    -0.376037661248E+02   -0.41021E-03   -0.40994E-03 14406   0.485E-01    0.121E+01
DAV:   6    -0.369344704995E+02    0.66930E+00   -0.20706E+00 11952   0.918E+00    0.476E+00
DAV:   7    -0.369536215607E+02   -0.19151E-01   -0.12747E+00 12156   0.733E+00    0.185E+00
DAV:   8    -0.369026001372E+02    0.51021E-01   -0.23811E-01 13080   0.352E+00    0.667E-01
DAV:   9    -0.369146055475E+02   -0.12005E-01   -0.18446E-02 12360   0.118E+00    0.323E-01
DAV:  10    -0.369155339790E+02   -0.92843E-03   -0.16241E-03 13356   0.411E-01    0.122E-01
DAV:  11    -0.369157844361E+02   -0.25046E-03   -0.45653E-04 12450   0.193E-01    0.506E-02
DAV:  12    -0.369158266178E+02   -0.42182E-04   -0.94709E-05  9860   0.848E-02
   1 F= -.36915827E+02 E0= -.36915848E+02  d E =0.636278E-04  mag=    -0.0003
