 vasp.5.2.12 11Nov11 complex                                                    
  
 executed on             LinuxIFC date 2012.10.17  09:39:31
 running on    1 nodes
 distr:  one band on    1 nodes,    1 groups


--------------------------------------------------------------------------------------------------------


 INCAR:
 POTCAR:   PAW_PBE C 08Apr2002                    
 POTCAR:   PAW_PBE C 08Apr2002                    
   VRHFIN =C: s2p2                                                              
   LEXCH  = PE                                                                  
   EATOM  =   147.1560 eV,   10.8157 Ry                                         
                                                                                
   TITEL  = PAW_PBE C 08Apr2002                                                 
   LULTRA =        F    use ultrasoft PP ?                                      
   IUNSCR =        0    unscreen: 0-lin 1-nonlin 2-no                           
   RPACOR =     .000    partial core radius                                     
   POMASS =   12.011; ZVAL   =    4.000    mass and valenz                      
   RCORE  =    1.500    outmost cutoff radius                                   
   RWIGS  =    1.630; RWIGS  =     .863    wigner-seitz radius (au A)           
   ENMAX  =  400.000; ENMIN  =  300.000 eV                                      
   ICORE  =        2    local potential                                         
   LCOR   =        T    correct aug charges                                     
   LPAW   =        T    paw PP                                                  
   EAUG   =  644.873                                                            
   DEXC   =     .000                                                            
   RMAX   =    2.266    core radius for proj-oper                               
   RAUG   =    1.300    factor for augmentation sphere                          
   RDEP   =    1.501    radius for radial grids                                 
   RDEPT  =    1.300    core radius for aug-charge                              
   QCUT   =   -5.516; QGAM   =   11.032    optimization parameters              
                                                                                
   Description                                                                  
     l     E      TYP  RCUT    TYP  RCUT                                        
     0   .000     23  1.200                                                     
     0   .000     23  1.200                                                     
     1   .000     23  1.500                                                     
     1  2.500     23  1.500                                                     
     2   .000      7  1.500                                                     
  local pseudopotential read in
  atomic valenz-charges read in
  non local Contribution for L=           0  read in
    real space projection operators read in
  non local Contribution for L=           0  read in
    real space projection operators read in
  non local Contribution for L=           1  read in
    real space projection operators read in
  non local Contribution for L=           1  read in
    real space projection operators read in
    PAW grid and wavefunctions read in
 
   number of l-projection  operators is LMAX  =           4
   number of lm-projection operators is LMMAX =           8
 
 PAW_PBE C 08Apr2002                    :
 energy of atom  1       EATOM= -147.1560
 kinetic energy error for atom=    0.0854 (will be added to EATOM!!)
 
 
 POSCAR:  C                                      
  positions in cartesian coordinates
  No initial velocities read in
 exchange correlation table for  LEXCH =        8
   RHO(1)=    0.500       N(1)  =     2000
   RHO(2)=  100.500       N(2)  =     4000
 


--------------------------------------------------------------------------------------------------------


 ion  position               nearest neighbor table
   1  0.000  0.000  0.000-   2 1.42   2 1.42   2 1.42
   2  0.333  0.667  0.000-   1 1.42   1 1.42   1 1.42
   3  0.333  0.667  0.500-   4 1.42   4 1.42   4 1.42
   4  0.667  0.333  0.500-   3 1.42   3 1.42   3 1.42
 
  LATTYP: Found a hexagonal cell.
 ALAT       =     2.4612000000
 C/A-ratio  =     2.7254591256
  
  Lattice vectors:
  
 A1 = (   2.4612000000,   0.0000000000,   0.0000000000)
 A2 = (  -1.2306000000,   2.1314617238,   0.0000000000)
 A3 = (   0.0000000000,   0.0000000000,   6.7079000000)
 Subroutine PRICEL returns:
 Original cell was already a primitive cell.
 

Analysis of symmetry for initial positions (statically):

 Routine SETGRP: Setting up the symmetry group for a 
 hexagonal supercell.


 Subroutine GETGRP returns: Found 24 space group operations
 (whereof 12 operations were pure point group operations)
 out of a pool of 24 trial point group operations.


The static configuration has the point symmetry D_3h.
 The point group associated with its full space group is D_6h.

Analysis of symmetry for dynamics (positions and initial velocities):

 Subroutine DYNSYM returns: Found 24 space group operations
 (whereof 12 operations were pure point group operations)
 out of a pool of 24 trial space group operations
 (whereof 12 operations were pure point group operations)
 and found also     1 'primitive' translations


The dynamic configuration has the point symmetry D_3h.
 The point group associated with its full space group is D_6h.

Analysis of magnetic symmetry:

 Subroutine MAGSYM returns: Found 24 space group operations
 (whereof 12 operations were pure point group operations)
 out of a pool of 24 trial space group operations
 (whereof 12 operations were pure point group operations)
 and found also     1 'primitive' translations


The magnetic configuration has the point symmetry D_3h.
 The point group associated with its full space group is D_6h.
 
 
 KPOINTS: KPOINTS created by Atomic Simulation Env

Automatic generation of k-mesh.
 
 Subroutine IBZKPT returns following result:
 ===========================================
 
 Found    192 irreducible k-points:
 
 Following reciprocal coordinates:
            Coordinates               Weight
  0.000000  0.000000  0.000000      1.000000
  0.071429  0.000000  0.000000      6.000000
  0.142857  0.000000  0.000000      6.000000
  0.214286  0.000000  0.000000      6.000000
  0.285714  0.000000  0.000000      6.000000
  0.357143  0.000000  0.000000      6.000000
  0.428571  0.000000  0.000000      6.000000
  0.500000  0.000000  0.000000      3.000000
  0.071429  0.071429  0.000000      6.000000
  0.142857  0.071429  0.000000     12.000000
  0.214286  0.071429  0.000000     12.000000
  0.285714  0.071429  0.000000     12.000000
  0.357143  0.071429  0.000000     12.000000
  0.428571  0.071429  0.000000     12.000000
  0.142857  0.142857  0.000000      6.000000
  0.214286  0.142857  0.000000     12.000000
  0.285714  0.142857  0.000000     12.000000
  0.357143  0.142857  0.000000     12.000000
  0.428571  0.142857  0.000000      6.000000
  0.214286  0.214286  0.000000      6.000000
  0.285714  0.214286  0.000000     12.000000
  0.357143  0.214286  0.000000     12.000000
  0.285714  0.285714  0.000000      6.000000
  0.357143  0.285714  0.000000      6.000000
  0.000000  0.000000  0.071429      2.000000
  0.071429  0.000000  0.071429     12.000000
  0.142857  0.000000  0.071429     12.000000
  0.214286  0.000000  0.071429     12.000000
  0.285714  0.000000  0.071429     12.000000
  0.357143  0.000000  0.071429     12.000000
  0.428571  0.000000  0.071429     12.000000
  0.500000  0.000000  0.071429      6.000000
  0.071429  0.071429  0.071429     12.000000
  0.142857  0.071429  0.071429     24.000000
  0.214286  0.071429  0.071429     24.000000
  0.285714  0.071429  0.071429     24.000000
  0.357143  0.071429  0.071429     24.000000
  0.428571  0.071429  0.071429     24.000000
  0.142857  0.142857  0.071429     12.000000
  0.214286  0.142857  0.071429     24.000000
  0.285714  0.142857  0.071429     24.000000
  0.357143  0.142857  0.071429     24.000000
  0.428571  0.142857  0.071429     12.000000
  0.214286  0.214286  0.071429     12.000000
  0.285714  0.214286  0.071429     24.000000
  0.357143  0.214286  0.071429     24.000000
  0.285714  0.285714  0.071429     12.000000
  0.357143  0.285714  0.071429     12.000000
  0.000000  0.000000  0.142857      2.000000
  0.071429  0.000000  0.142857     12.000000
  0.142857  0.000000  0.142857     12.000000
  0.214286  0.000000  0.142857     12.000000
  0.285714  0.000000  0.142857     12.000000
  0.357143  0.000000  0.142857     12.000000
  0.428571  0.000000  0.142857     12.000000
  0.500000  0.000000  0.142857      6.000000
  0.071429  0.071429  0.142857     12.000000
  0.142857  0.071429  0.142857     24.000000
  0.214286  0.071429  0.142857     24.000000
  0.285714  0.071429  0.142857     24.000000
  0.357143  0.071429  0.142857     24.000000
  0.428571  0.071429  0.142857     24.000000
  0.142857  0.142857  0.142857     12.000000
  0.214286  0.142857  0.142857     24.000000
  0.285714  0.142857  0.142857     24.000000
  0.357143  0.142857  0.142857     24.000000
  0.428571  0.142857  0.142857     12.000000
  0.214286  0.214286  0.142857     12.000000
  0.285714  0.214286  0.142857     24.000000
  0.357143  0.214286  0.142857     24.000000
  0.285714  0.285714  0.142857     12.000000
  0.357143  0.285714  0.142857     12.000000
  0.000000  0.000000  0.214286      2.000000
  0.071429  0.000000  0.214286     12.000000
  0.142857  0.000000  0.214286     12.000000
  0.214286  0.000000  0.214286     12.000000
  0.285714  0.000000  0.214286     12.000000
  0.357143  0.000000  0.214286     12.000000
  0.428571  0.000000  0.214286     12.000000
  0.500000  0.000000  0.214286      6.000000
  0.071429  0.071429  0.214286     12.000000
  0.142857  0.071429  0.214286     24.000000
  0.214286  0.071429  0.214286     24.000000
  0.285714  0.071429  0.214286     24.000000
  0.357143  0.071429  0.214286     24.000000
  0.428571  0.071429  0.214286     24.000000
  0.142857  0.142857  0.214286     12.000000
  0.214286  0.142857  0.214286     24.000000
  0.285714  0.142857  0.214286     24.000000
  0.357143  0.142857  0.214286     24.000000
  0.428571  0.142857  0.214286     12.000000
  0.214286  0.214286  0.214286     12.000000
  0.285714  0.214286  0.214286     24.000000
  0.357143  0.214286  0.214286     24.000000
  0.285714  0.285714  0.214286     12.000000
  0.357143  0.285714  0.214286     12.000000
  0.000000  0.000000  0.285714      2.000000
  0.071429  0.000000  0.285714     12.000000
  0.142857  0.000000  0.285714     12.000000
  0.214286  0.000000  0.285714     12.000000
  0.285714  0.000000  0.285714     12.000000
  0.357143  0.000000  0.285714     12.000000
  0.428571  0.000000  0.285714     12.000000
  0.500000  0.000000  0.285714      6.000000
  0.071429  0.071429  0.285714     12.000000
  0.142857  0.071429  0.285714     24.000000
  0.214286  0.071429  0.285714     24.000000
  0.285714  0.071429  0.285714     24.000000
  0.357143  0.071429  0.285714     24.000000
  0.428571  0.071429  0.285714     24.000000
  0.142857  0.142857  0.285714     12.000000
  0.214286  0.142857  0.285714     24.000000
  0.285714  0.142857  0.285714     24.000000
  0.357143  0.142857  0.285714     24.000000
  0.428571  0.142857  0.285714     12.000000
  0.214286  0.214286  0.285714     12.000000
  0.285714  0.214286  0.285714     24.000000
  0.357143  0.214286  0.285714     24.000000
  0.285714  0.285714  0.285714     12.000000
  0.357143  0.285714  0.285714     12.000000
  0.000000  0.000000  0.357143      2.000000
  0.071429  0.000000  0.357143     12.000000
  0.142857  0.000000  0.357143     12.000000
  0.214286  0.000000  0.357143     12.000000
  0.285714  0.000000  0.357143     12.000000
  0.357143  0.000000  0.357143     12.000000
  0.428571  0.000000  0.357143     12.000000
  0.500000  0.000000  0.357143      6.000000
  0.071429  0.071429  0.357143     12.000000
  0.142857  0.071429  0.357143     24.000000
  0.214286  0.071429  0.357143     24.000000
  0.285714  0.071429  0.357143     24.000000
  0.357143  0.071429  0.357143     24.000000
  0.428571  0.071429  0.357143     24.000000
  0.142857  0.142857  0.357143     12.000000
  0.214286  0.142857  0.357143     24.000000
  0.285714  0.142857  0.357143     24.000000
  0.357143  0.142857  0.357143     24.000000
  0.428571  0.142857  0.357143     12.000000
  0.214286  0.214286  0.357143     12.000000
  0.285714  0.214286  0.357143     24.000000
  0.357143  0.214286  0.357143     24.000000
  0.285714  0.285714  0.357143     12.000000
  0.357143  0.285714  0.357143     12.000000
  0.000000  0.000000  0.428571      2.000000
  0.071429  0.000000  0.428571     12.000000
  0.142857  0.000000  0.428571     12.000000
  0.214286  0.000000  0.428571     12.000000
  0.285714  0.000000  0.428571     12.000000
  0.357143  0.000000  0.428571     12.000000
  0.428571  0.000000  0.428571     12.000000
  0.500000  0.000000  0.428571      6.000000
  0.071429  0.071429  0.428571     12.000000
  0.142857  0.071429  0.428571     24.000000
  0.214286  0.071429  0.428571     24.000000
  0.285714  0.071429  0.428571     24.000000
  0.357143  0.071429  0.428571     24.000000
  0.428571  0.071429  0.428571     24.000000
  0.142857  0.142857  0.428571     12.000000
  0.214286  0.142857  0.428571     24.000000
  0.285714  0.142857  0.428571     24.000000
  0.357143  0.142857  0.428571     24.000000
  0.428571  0.142857  0.428571     12.000000
  0.214286  0.214286  0.428571     12.000000
  0.285714  0.214286  0.428571     24.000000
  0.357143  0.214286  0.428571     24.000000
  0.285714  0.285714  0.428571     12.000000
  0.357143  0.285714  0.428571     12.000000
  0.000000  0.000000  0.500000      1.000000
  0.071429  0.000000  0.500000      6.000000
  0.142857  0.000000  0.500000      6.000000
  0.214286  0.000000  0.500000      6.000000
  0.285714  0.000000  0.500000      6.000000
  0.357143  0.000000  0.500000      6.000000
  0.428571  0.000000  0.500000      6.000000
  0.500000  0.000000  0.500000      3.000000
  0.071429  0.071429  0.500000      6.000000
  0.142857  0.071429  0.500000     12.000000
  0.214286  0.071429  0.500000     12.000000
  0.285714  0.071429  0.500000     12.000000
  0.357143  0.071429  0.500000     12.000000
  0.428571  0.071429  0.500000     12.000000
  0.142857  0.142857  0.500000      6.000000
  0.214286  0.142857  0.500000     12.000000
  0.285714  0.142857  0.500000     12.000000
  0.357143  0.142857  0.500000     12.000000
  0.428571  0.142857  0.500000      6.000000
  0.214286  0.214286  0.500000      6.000000
  0.285714  0.214286  0.500000     12.000000
  0.357143  0.214286  0.500000     12.000000
  0.285714  0.285714  0.500000      6.000000
  0.357143  0.285714  0.500000      6.000000
 
 Following cartesian coordinates:
            Coordinates               Weight
  0.000000  0.000000  0.000000      1.000000
  0.029022  0.016756  0.000000      6.000000
  0.058044  0.033512  0.000000      6.000000
  0.087066  0.050267  0.000000      6.000000
  0.116087  0.067023  0.000000      6.000000
  0.145109  0.083779  0.000000      6.000000
  0.174131  0.100535  0.000000      6.000000
  0.203153  0.117290  0.000000      3.000000
  0.029022  0.050267  0.000000      6.000000
  0.058044  0.067023  0.000000     12.000000
  0.087066  0.083779  0.000000     12.000000
  0.116087  0.100535  0.000000     12.000000
  0.145109  0.117290  0.000000     12.000000
  0.174131  0.134046  0.000000     12.000000
  0.058044  0.100535  0.000000      6.000000
  0.087066  0.117290  0.000000     12.000000
  0.116087  0.134046  0.000000     12.000000
  0.145109  0.150802  0.000000     12.000000
  0.174131  0.167558  0.000000      6.000000
  0.087066  0.150802  0.000000      6.000000
  0.116087  0.167558  0.000000     12.000000
  0.145109  0.184313  0.000000     12.000000
  0.116087  0.201069  0.000000      6.000000
  0.145109  0.217825  0.000000      6.000000
  0.000000  0.000000  0.010648      2.000000
  0.029022  0.016756  0.010648     12.000000
  0.058044  0.033512  0.010648     12.000000
  0.087066  0.050267  0.010648     12.000000
  0.116087  0.067023  0.010648     12.000000
  0.145109  0.083779  0.010648     12.000000
  0.174131  0.100535  0.010648     12.000000
  0.203153  0.117290  0.010648      6.000000
  0.029022  0.050267  0.010648     12.000000
  0.058044  0.067023  0.010648     24.000000
  0.087066  0.083779  0.010648     24.000000
  0.116087  0.100535  0.010648     24.000000
  0.145109  0.117290  0.010648     24.000000
  0.174131  0.134046  0.010648     24.000000
  0.058044  0.100535  0.010648     12.000000
  0.087066  0.117290  0.010648     24.000000
  0.116087  0.134046  0.010648     24.000000
  0.145109  0.150802  0.010648     24.000000
  0.174131  0.167558  0.010648     12.000000
  0.087066  0.150802  0.010648     12.000000
  0.116087  0.167558  0.010648     24.000000
  0.145109  0.184313  0.010648     24.000000
  0.116087  0.201069  0.010648     12.000000
  0.145109  0.217825  0.010648     12.000000
  0.000000  0.000000  0.021297      2.000000
  0.029022  0.016756  0.021297     12.000000
  0.058044  0.033512  0.021297     12.000000
  0.087066  0.050267  0.021297     12.000000
  0.116087  0.067023  0.021297     12.000000
  0.145109  0.083779  0.021297     12.000000
  0.174131  0.100535  0.021297     12.000000
  0.203153  0.117290  0.021297      6.000000
  0.029022  0.050267  0.021297     12.000000
  0.058044  0.067023  0.021297     24.000000
  0.087066  0.083779  0.021297     24.000000
  0.116087  0.100535  0.021297     24.000000
  0.145109  0.117290  0.021297     24.000000
  0.174131  0.134046  0.021297     24.000000
  0.058044  0.100535  0.021297     12.000000
  0.087066  0.117290  0.021297     24.000000
  0.116087  0.134046  0.021297     24.000000
  0.145109  0.150802  0.021297     24.000000
  0.174131  0.167558  0.021297     12.000000
  0.087066  0.150802  0.021297     12.000000
  0.116087  0.167558  0.021297     24.000000
  0.145109  0.184313  0.021297     24.000000
  0.116087  0.201069  0.021297     12.000000
  0.145109  0.217825  0.021297     12.000000
  0.000000  0.000000  0.031945      2.000000
  0.029022  0.016756  0.031945     12.000000
  0.058044  0.033512  0.031945     12.000000
  0.087066  0.050267  0.031945     12.000000
  0.116087  0.067023  0.031945     12.000000
  0.145109  0.083779  0.031945     12.000000
  0.174131  0.100535  0.031945     12.000000
  0.203153  0.117290  0.031945      6.000000
  0.029022  0.050267  0.031945     12.000000
  0.058044  0.067023  0.031945     24.000000
  0.087066  0.083779  0.031945     24.000000
  0.116087  0.100535  0.031945     24.000000
  0.145109  0.117290  0.031945     24.000000
  0.174131  0.134046  0.031945     24.000000
  0.058044  0.100535  0.031945     12.000000
  0.087066  0.117290  0.031945     24.000000
  0.116087  0.134046  0.031945     24.000000
  0.145109  0.150802  0.031945     24.000000
  0.174131  0.167558  0.031945     12.000000
  0.087066  0.150802  0.031945     12.000000
  0.116087  0.167558  0.031945     24.000000
  0.145109  0.184313  0.031945     24.000000
  0.116087  0.201069  0.031945     12.000000
  0.145109  0.217825  0.031945     12.000000
  0.000000  0.000000  0.042594      2.000000
  0.029022  0.016756  0.042594     12.000000
  0.058044  0.033512  0.042594     12.000000
  0.087066  0.050267  0.042594     12.000000
  0.116087  0.067023  0.042594     12.000000
  0.145109  0.083779  0.042594     12.000000
  0.174131  0.100535  0.042594     12.000000
  0.203153  0.117290  0.042594      6.000000
  0.029022  0.050267  0.042594     12.000000
  0.058044  0.067023  0.042594     24.000000
  0.087066  0.083779  0.042594     24.000000
  0.116087  0.100535  0.042594     24.000000
  0.145109  0.117290  0.042594     24.000000
  0.174131  0.134046  0.042594     24.000000
  0.058044  0.100535  0.042594     12.000000
  0.087066  0.117290  0.042594     24.000000
  0.116087  0.134046  0.042594     24.000000
  0.145109  0.150802  0.042594     24.000000
  0.174131  0.167558  0.042594     12.000000
  0.087066  0.150802  0.042594     12.000000
  0.116087  0.167558  0.042594     24.000000
  0.145109  0.184313  0.042594     24.000000
  0.116087  0.201069  0.042594     12.000000
  0.145109  0.217825  0.042594     12.000000
  0.000000  0.000000  0.053242      2.000000
  0.029022  0.016756  0.053242     12.000000
  0.058044  0.033512  0.053242     12.000000
  0.087066  0.050267  0.053242     12.000000
  0.116087  0.067023  0.053242     12.000000
  0.145109  0.083779  0.053242     12.000000
  0.174131  0.100535  0.053242     12.000000
  0.203153  0.117290  0.053242      6.000000
  0.029022  0.050267  0.053242     12.000000
  0.058044  0.067023  0.053242     24.000000
  0.087066  0.083779  0.053242     24.000000
  0.116087  0.100535  0.053242     24.000000
  0.145109  0.117290  0.053242     24.000000
  0.174131  0.134046  0.053242     24.000000
  0.058044  0.100535  0.053242     12.000000
  0.087066  0.117290  0.053242     24.000000
  0.116087  0.134046  0.053242     24.000000
  0.145109  0.150802  0.053242     24.000000
  0.174131  0.167558  0.053242     12.000000
  0.087066  0.150802  0.053242     12.000000
  0.116087  0.167558  0.053242     24.000000
  0.145109  0.184313  0.053242     24.000000
  0.116087  0.201069  0.053242     12.000000
  0.145109  0.217825  0.053242     12.000000
  0.000000  0.000000  0.063891      2.000000
  0.029022  0.016756  0.063891     12.000000
  0.058044  0.033512  0.063891     12.000000
  0.087066  0.050267  0.063891     12.000000
  0.116087  0.067023  0.063891     12.000000
  0.145109  0.083779  0.063891     12.000000
  0.174131  0.100535  0.063891     12.000000
  0.203153  0.117290  0.063891      6.000000
  0.029022  0.050267  0.063891     12.000000
  0.058044  0.067023  0.063891     24.000000
  0.087066  0.083779  0.063891     24.000000
  0.116087  0.100535  0.063891     24.000000
  0.145109  0.117290  0.063891     24.000000
  0.174131  0.134046  0.063891     24.000000
  0.058044  0.100535  0.063891     12.000000
  0.087066  0.117290  0.063891     24.000000
  0.116087  0.134046  0.063891     24.000000
  0.145109  0.150802  0.063891     24.000000
  0.174131  0.167558  0.063891     12.000000
  0.087066  0.150802  0.063891     12.000000
  0.116087  0.167558  0.063891     24.000000
  0.145109  0.184313  0.063891     24.000000
  0.116087  0.201069  0.063891     12.000000
  0.145109  0.217825  0.063891     12.000000
  0.000000  0.000000  0.074539      1.000000
  0.029022  0.016756  0.074539      6.000000
  0.058044  0.033512  0.074539      6.000000
  0.087066  0.050267  0.074539      6.000000
  0.116087  0.067023  0.074539      6.000000
  0.145109  0.083779  0.074539      6.000000
  0.174131  0.100535  0.074539      6.000000
  0.203153  0.117290  0.074539      3.000000
  0.029022  0.050267  0.074539      6.000000
  0.058044  0.067023  0.074539     12.000000
  0.087066  0.083779  0.074539     12.000000
  0.116087  0.100535  0.074539     12.000000
  0.145109  0.117290  0.074539     12.000000
  0.174131  0.134046  0.074539     12.000000
  0.058044  0.100535  0.074539      6.000000
  0.087066  0.117290  0.074539     12.000000
  0.116087  0.134046  0.074539     12.000000
  0.145109  0.150802  0.074539     12.000000
  0.174131  0.167558  0.074539      6.000000
  0.087066  0.150802  0.074539      6.000000
  0.116087  0.167558  0.074539     12.000000
  0.145109  0.184313  0.074539     12.000000
  0.116087  0.201069  0.074539      6.000000
  0.145109  0.217825  0.074539      6.000000
 


--------------------------------------------------------------------------------------------------------




 Dimension of arrays:
   k-points           NKPTS =    192   k-points in BZ     NKDIM =    192   number of bands    NBANDS=     14
   number of dos      NEDOS =    301   number of ions     NIONS =      4
   non local maximal  LDIM  =      4   non local SUM 2l+1 LMDIM =      8
   total plane-waves  NPLWV =  10752
   max r-space proj   IRMAX =      1   max aug-charges    IRDMAX=   3805
   dimension x,y,z NGX =    16 NGY =   16 NGZ =   42
   dimension x,y,z NGXF=    32 NGYF=   32 NGZF=   84
   support grid    NGXF=    32 NGYF=   32 NGZF=   84
   ions per type =               4
 NGX,Y,Z   is equivalent  to a cutoff of  10.81, 10.81, 10.41 a.u.
 NGXF,Y,Z  is equivalent  to a cutoff of  21.61, 21.61, 20.82 a.u.


 I would recommend the setting:
   dimension x,y,z NGX =    15 NGY =   15 NGZ =   41
 SYSTEM =  unknown system                          
 POSCAR =   C                                      

 Startparameter for this run:
   NWRITE =      2    write-flag & timer
   PREC   = accura    normal or accurate (medium, high low for compatibility)
   ISTART =      0    job   : 0-new  1-cont  2-samecut
   ICHARG =      2    charge: 1-file 2-atom 10-const
   ISPIN  =      2    spin polarized calculation?
   LNONCOLLINEAR =      F non collinear calculations
   LSORBIT =      F    spin-orbit coupling
   INIWAV =      1    electr: 0-lowe 1-rand  2-diag
   LASPH  =      F    aspherical Exc in radial PAW
   METAGGA=      F    non-selfconsistent MetaGGA calc.

 Electronic Relaxation 1
   ENCUT  =  350.0 eV  25.72 Ry    5.07 a.u.   3.75  3.75 10.23*2*pi/ulx,y,z
   ENINI  =  350.0     initial cutoff
   ENAUG  =  644.9 eV  augmentation charge cutoff
   NELM   =     60;   NELMIN=  2; NELMDL= -5     # of ELM steps 
   EDIFF  = 0.1E-03   stopping-criterion for ELM
   LREAL  =      F    real-space projection
   NLSPLINE    = F    spline interpolate recip. space projectors
   LCOMPAT=      F    compatible to vasp.4.4
   GGA_COMPAT  = T    GGA compatible to vasp.4.4-vasp.4.6
   LMAXPAW     = -100 max onsite density
   LMAXMIX     =    2 max onsite mixed and CHGCAR
   VOSKOWN=      0    Vosko Wilk Nusair interpolation
   ROPT   =    0.00000
 Ionic relaxation
   EDIFFG = 0.1E-02   stopping-criterion for IOM
   NSW    =      0    number of steps for IOM
   NBLOCK =      1;   KBLOCK =      1    inner block; outer block 
   IBRION =     -1    ionic relax: 0-MD 1-quasi-New 2-CG
   NFREE  =      0    steps in history (QN), initial steepest desc. (CG)
   ISIF   =      2    stress and relaxation
   IWAVPR =     10    prediction:  0-non 1-charg 2-wave 3-comb
   ISYM   =      2    0-nonsym 1-usesym 2-fastsym
   LCORR  =      T    Harris-Foulkes like correction to forces

   POTIM  = 0.5000    time-step for ionic-motion
   TEIN   =    0.0    initial temperature
   TEBEG  =    0.0;   TEEND  =   0.0 temperature during run
   SMASS  =  -3.00    Nose mass-parameter (am)
   estimated Nose-frequenzy (Omega)   =  0.10E-29 period in steps =****** mass=  -0.138E-27a.u.
   SCALEE = 1.0000    scale energy and forces
   NPACO  =    256;   APACO  = 16.0  distance and # of slots for P.C.
   PSTRESS=    0.0 pullay stress

  Mass of Ions in am
   POMASS =  12.01
  Ionic Valenz
   ZVAL   =   4.00
  Atomic Wigner-Seitz radii
   RWIGS  =  -1.00
  virtual crystal weights 
   VCA    =   1.00
   NELECT =      16.0000    total number of electrons
   NUPDOWN=      -1.0000    fix difference up-down

 DOS related values:
   EMIN   =  10.00;   EMAX   =-10.00  energy-range for DOS
   EFERMI =   0.00
   ISMEAR =     1;   SIGMA  =   0.05  broadening in eV -4-tet -1-fermi 0-gaus

 Electronic relaxation 2 (details)
   IALGO  =     38    algorithm
   LDIAG  =      T    sub-space diagonalisation (order eigenvalues)
   LSUBROT=      T    optimize rotation matrix (better conditioning)
   TURBO    =      0    0=normal 1=particle mesh
   IRESTART =      0    0=no restart 2=restart with 2 vectors
   NREBOOT  =      0    no. of reboots
   NMIN     =      0    reboot dimension
   EREF     =   0.00    reference energy to select bands
   IMIX   =      4    mixing-type and parameters
     AMIX     =   0.40;   BMIX     =  1.00
     AMIX_MAG =   1.60;   BMIX_MAG =  1.00
     AMIN     =   0.10
     WC   =   100.;   INIMIX=   1;  MIXPRE=   1

 Intra band minimization:
   WEIMIN = 0.0000     energy-eigenvalue tresh-hold
   EBREAK =  0.18E-05  absolut break condition
   DEPER  =   0.30     relativ break condition  

   TIME   =   0.40     timestep for ELM

  volume/ion in A,a.u.               =       8.80        59.37
  Fermi-wavevector in a.u.,A,eV,Ry     =   1.258861  2.378903 21.561578  1.584731
  Thomas-Fermi vector in A             =   2.392450
 
 Write flags
   LWAVE  =      T    write WAVECAR
   LCHARG =      T    write CHGCAR
   LVTOT  =      F    write LOCPOT, total local potential
   LVHAR  =      F    write LOCPOT, Hartree potential only
   LELF   =      F    write electronic localiz. function (ELF)
   LORBIT =     11    0 simple, 1 ext, 2 COOP (PROOUT)


 Dipole corrections
   LMONO  =      F    monopole corrections only (constant potential shift)
   LDIPOL =      F    correct potential (dipole corrections)
   IDIPOL =      0    1-x, 2-y, 3-z, 4-all directions 
   EPSILON=  1.0000000 bulk dielectric constant

 Exchange correlation treatment:
   GGA     =    --    GGA type
   LEXCH   =     8    internal setting for exchange type
   VOSKOWN=      0    Vosko Wilk Nusair interpolation
   LHFCALC =     F    Hartree Fock is set to
   LHFONE  =     F    Hartree Fock one center treatment
   AEXX    =    0.0000 exact exchange contribution

 Linear response parameters
   LEPSILON=     F    determine dielectric tensor
   LRPA    =     F    only Hartree local field effects (RPA)
   LNABLA  =     F    use nabla operator in PAW spheres
   LVEL    =     F    velocity operator in full k-point grid
   LINTERFAST=   F  fast interpolation
   KINTER  =     0    interpolate to denser k-point grid
   CSHIFT  =0.1000    complex shift for real part using Kramers Kronig
   OMEGAMAX=  -1.0    maximum frequency
   RTIME   =    0.100 relaxation time in fs

 Orbital magnetization related:
   ORBITALMAG=     F  switch on orbital magnetization
   LCHIMAG   =     F  perturbation theory with respect to B field
   DQ        =  0.001000  dq finite difference perturbation B field



--------------------------------------------------------------------------------------------------------


 Static calculation
 charge density and potential will be updated during run
 spin polarized calculation
 Variant of blocked Davidson
 Davidson routine will perform the subspace rotation
 perform sub-space diagonalisation
    after iterative eigenvector-optimisation
 modified Broyden-mixing scheme, WC =      100.0
 initial mixing is a Kerker type mixing with AMIX =  0.4000 and BMIX =      1.0000
 Hartree-type preconditioning will be used
 using additional bands            6
 reciprocal scheme for non local part
 calculate Harris-corrections to forces 
   (improved forces if not selfconsistent)
 use gradient corrections 
 use of overlap-Matrix (Vanderbilt PP)
 Methfessel and Paxton  Order N= 1 SIGMA  =   0.05


--------------------------------------------------------------------------------------------------------


  energy-cutoff  :      350.00
  volume of cell :       35.19
      direct lattice vectors                 reciprocal lattice vectors
     2.461200000  0.000000000  0.000000000     0.406305867  0.234580802  0.000000000
    -1.230600000  2.131461724  0.000000000     0.000000000  0.469161603  0.000000000
     0.000000000  0.000000000  6.707900000     0.000000000  0.000000000  0.149077953

  length of vectors
     2.461200000  2.461200000  6.707900000     0.469161603  0.469161603  0.149077953


 
 k-points in units of 2pi/SCALE and weight: KPOINTS created by Atomic Simulation Env
   0.00000000  0.00000000  0.00000000       0.000
   0.02902185  0.01675577  0.00000000       0.002
   0.05804370  0.03351154  0.00000000       0.002
   0.08706554  0.05026731  0.00000000       0.002
   0.11608739  0.06702309  0.00000000       0.002
   0.14510924  0.08377886  0.00000000       0.002
   0.17413109  0.10053463  0.00000000       0.002
   0.20315293  0.11729040  0.00000000       0.001
   0.02902185  0.05026731  0.00000000       0.002
   0.05804370  0.06702309  0.00000000       0.004
   0.08706554  0.08377886  0.00000000       0.004
   0.11608739  0.10053463  0.00000000       0.004
   0.14510924  0.11729040  0.00000000       0.004
   0.17413109  0.13404617  0.00000000       0.004
   0.05804370  0.10053463  0.00000000       0.002
   0.08706554  0.11729040  0.00000000       0.004
   0.11608739  0.13404617  0.00000000       0.004
   0.14510924  0.15080194  0.00000000       0.004
   0.17413109  0.16755772  0.00000000       0.002
   0.08706554  0.15080194  0.00000000       0.002
   0.11608739  0.16755772  0.00000000       0.004
   0.14510924  0.18431349  0.00000000       0.004
   0.11608739  0.20106926  0.00000000       0.002
   0.14510924  0.21782503  0.00000000       0.002
   0.00000000  0.00000000  0.01064843       0.001
   0.02902185  0.01675577  0.01064843       0.004
   0.05804370  0.03351154  0.01064843       0.004
   0.08706554  0.05026731  0.01064843       0.004
   0.11608739  0.06702309  0.01064843       0.004
   0.14510924  0.08377886  0.01064843       0.004
   0.17413109  0.10053463  0.01064843       0.004
   0.20315293  0.11729040  0.01064843       0.002
   0.02902185  0.05026731  0.01064843       0.004
   0.05804370  0.06702309  0.01064843       0.009
   0.08706554  0.08377886  0.01064843       0.009
   0.11608739  0.10053463  0.01064843       0.009
   0.14510924  0.11729040  0.01064843       0.009
   0.17413109  0.13404617  0.01064843       0.009
   0.05804370  0.10053463  0.01064843       0.004
   0.08706554  0.11729040  0.01064843       0.009
   0.11608739  0.13404617  0.01064843       0.009
   0.14510924  0.15080194  0.01064843       0.009
   0.17413109  0.16755772  0.01064843       0.004
   0.08706554  0.15080194  0.01064843       0.004
   0.11608739  0.16755772  0.01064843       0.009
   0.14510924  0.18431349  0.01064843       0.009
   0.11608739  0.20106926  0.01064843       0.004
   0.14510924  0.21782503  0.01064843       0.004
   0.00000000  0.00000000  0.02129685       0.001
   0.02902185  0.01675577  0.02129685       0.004
   0.05804370  0.03351154  0.02129685       0.004
   0.08706554  0.05026731  0.02129685       0.004
   0.11608739  0.06702309  0.02129685       0.004
   0.14510924  0.08377886  0.02129685       0.004
   0.17413109  0.10053463  0.02129685       0.004
   0.20315293  0.11729040  0.02129685       0.002
   0.02902185  0.05026731  0.02129685       0.004
   0.05804370  0.06702309  0.02129685       0.009
   0.08706554  0.08377886  0.02129685       0.009
   0.11608739  0.10053463  0.02129685       0.009
   0.14510924  0.11729040  0.02129685       0.009
   0.17413109  0.13404617  0.02129685       0.009
   0.05804370  0.10053463  0.02129685       0.004
   0.08706554  0.11729040  0.02129685       0.009
   0.11608739  0.13404617  0.02129685       0.009
   0.14510924  0.15080194  0.02129685       0.009
   0.17413109  0.16755772  0.02129685       0.004
   0.08706554  0.15080194  0.02129685       0.004
   0.11608739  0.16755772  0.02129685       0.009
   0.14510924  0.18431349  0.02129685       0.009
   0.11608739  0.20106926  0.02129685       0.004
   0.14510924  0.21782503  0.02129685       0.004
   0.00000000  0.00000000  0.03194528       0.001
   0.02902185  0.01675577  0.03194528       0.004
   0.05804370  0.03351154  0.03194528       0.004
   0.08706554  0.05026731  0.03194528       0.004
   0.11608739  0.06702309  0.03194528       0.004
   0.14510924  0.08377886  0.03194528       0.004
   0.17413109  0.10053463  0.03194528       0.004
   0.20315293  0.11729040  0.03194528       0.002
   0.02902185  0.05026731  0.03194528       0.004
   0.05804370  0.06702309  0.03194528       0.009
   0.08706554  0.08377886  0.03194528       0.009
   0.11608739  0.10053463  0.03194528       0.009
   0.14510924  0.11729040  0.03194528       0.009
   0.17413109  0.13404617  0.03194528       0.009
   0.05804370  0.10053463  0.03194528       0.004
   0.08706554  0.11729040  0.03194528       0.009
   0.11608739  0.13404617  0.03194528       0.009
   0.14510924  0.15080194  0.03194528       0.009
   0.17413109  0.16755772  0.03194528       0.004
   0.08706554  0.15080194  0.03194528       0.004
   0.11608739  0.16755772  0.03194528       0.009
   0.14510924  0.18431349  0.03194528       0.009
   0.11608739  0.20106926  0.03194528       0.004
   0.14510924  0.21782503  0.03194528       0.004
   0.00000000  0.00000000  0.04259370       0.001
   0.02902185  0.01675577  0.04259370       0.004
   0.05804370  0.03351154  0.04259370       0.004
   0.08706554  0.05026731  0.04259370       0.004
   0.11608739  0.06702309  0.04259370       0.004
   0.14510924  0.08377886  0.04259370       0.004
   0.17413109  0.10053463  0.04259370       0.004
   0.20315293  0.11729040  0.04259370       0.002
   0.02902185  0.05026731  0.04259370       0.004
   0.05804370  0.06702309  0.04259370       0.009
   0.08706554  0.08377886  0.04259370       0.009
   0.11608739  0.10053463  0.04259370       0.009
   0.14510924  0.11729040  0.04259370       0.009
   0.17413109  0.13404617  0.04259370       0.009
   0.05804370  0.10053463  0.04259370       0.004
   0.08706554  0.11729040  0.04259370       0.009
   0.11608739  0.13404617  0.04259370       0.009
   0.14510924  0.15080194  0.04259370       0.009
   0.17413109  0.16755772  0.04259370       0.004
   0.08706554  0.15080194  0.04259370       0.004
   0.11608739  0.16755772  0.04259370       0.009
   0.14510924  0.18431349  0.04259370       0.009
   0.11608739  0.20106926  0.04259370       0.004
   0.14510924  0.21782503  0.04259370       0.004
   0.00000000  0.00000000  0.05324213       0.001
   0.02902185  0.01675577  0.05324213       0.004
   0.05804370  0.03351154  0.05324213       0.004
   0.08706554  0.05026731  0.05324213       0.004
   0.11608739  0.06702309  0.05324213       0.004
   0.14510924  0.08377886  0.05324213       0.004
   0.17413109  0.10053463  0.05324213       0.004
   0.20315293  0.11729040  0.05324213       0.002
   0.02902185  0.05026731  0.05324213       0.004
   0.05804370  0.06702309  0.05324213       0.009
   0.08706554  0.08377886  0.05324213       0.009
   0.11608739  0.10053463  0.05324213       0.009
   0.14510924  0.11729040  0.05324213       0.009
   0.17413109  0.13404617  0.05324213       0.009
   0.05804370  0.10053463  0.05324213       0.004
   0.08706554  0.11729040  0.05324213       0.009
   0.11608739  0.13404617  0.05324213       0.009
   0.14510924  0.15080194  0.05324213       0.009
   0.17413109  0.16755772  0.05324213       0.004
   0.08706554  0.15080194  0.05324213       0.004
   0.11608739  0.16755772  0.05324213       0.009
   0.14510924  0.18431349  0.05324213       0.009
   0.11608739  0.20106926  0.05324213       0.004
   0.14510924  0.21782503  0.05324213       0.004
   0.00000000  0.00000000  0.06389055       0.001
   0.02902185  0.01675577  0.06389055       0.004
   0.05804370  0.03351154  0.06389055       0.004
   0.08706554  0.05026731  0.06389055       0.004
   0.11608739  0.06702309  0.06389055       0.004
   0.14510924  0.08377886  0.06389055       0.004
   0.17413109  0.10053463  0.06389055       0.004
   0.20315293  0.11729040  0.06389055       0.002
   0.02902185  0.05026731  0.06389055       0.004
   0.05804370  0.06702309  0.06389055       0.009
   0.08706554  0.08377886  0.06389055       0.009
   0.11608739  0.10053463  0.06389055       0.009
   0.14510924  0.11729040  0.06389055       0.009
   0.17413109  0.13404617  0.06389055       0.009
   0.05804370  0.10053463  0.06389055       0.004
   0.08706554  0.11729040  0.06389055       0.009
   0.11608739  0.13404617  0.06389055       0.009
   0.14510924  0.15080194  0.06389055       0.009
   0.17413109  0.16755772  0.06389055       0.004
   0.08706554  0.15080194  0.06389055       0.004
   0.11608739  0.16755772  0.06389055       0.009
   0.14510924  0.18431349  0.06389055       0.009
   0.11608739  0.20106926  0.06389055       0.004
   0.14510924  0.21782503  0.06389055       0.004
   0.00000000  0.00000000  0.07453898       0.000
   0.02902185  0.01675577  0.07453898       0.002
   0.05804370  0.03351154  0.07453898       0.002
   0.08706554  0.05026731  0.07453898       0.002
   0.11608739  0.06702309  0.07453898       0.002
   0.14510924  0.08377886  0.07453898       0.002
   0.17413109  0.10053463  0.07453898       0.002
   0.20315293  0.11729040  0.07453898       0.001
   0.02902185  0.05026731  0.07453898       0.002
   0.05804370  0.06702309  0.07453898       0.004
   0.08706554  0.08377886  0.07453898       0.004
   0.11608739  0.10053463  0.07453898       0.004
   0.14510924  0.11729040  0.07453898       0.004
   0.17413109  0.13404617  0.07453898       0.004
   0.05804370  0.10053463  0.07453898       0.002
   0.08706554  0.11729040  0.07453898       0.004
   0.11608739  0.13404617  0.07453898       0.004
   0.14510924  0.15080194  0.07453898       0.004
   0.17413109  0.16755772  0.07453898       0.002
   0.08706554  0.15080194  0.07453898       0.002
   0.11608739  0.16755772  0.07453898       0.004
   0.14510924  0.18431349  0.07453898       0.004
   0.11608739  0.20106926  0.07453898       0.002
   0.14510924  0.21782503  0.07453898       0.002
 
 k-points in reciprocal lattice and weights: KPOINTS created by Atomic Simulation Env
   0.00000000  0.00000000  0.00000000       0.000
   0.07142857  0.00000000  0.00000000       0.002
   0.14285714  0.00000000  0.00000000       0.002
   0.21428571  0.00000000  0.00000000       0.002
   0.28571429  0.00000000  0.00000000       0.002
   0.35714286  0.00000000  0.00000000       0.002
   0.42857143  0.00000000  0.00000000       0.002
   0.50000000  0.00000000  0.00000000       0.001
   0.07142857  0.07142857  0.00000000       0.002
   0.14285714  0.07142857  0.00000000       0.004
   0.21428571  0.07142857  0.00000000       0.004
   0.28571429  0.07142857  0.00000000       0.004
   0.35714286  0.07142857  0.00000000       0.004
   0.42857143  0.07142857  0.00000000       0.004
   0.14285714  0.14285714  0.00000000       0.002
   0.21428571  0.14285714  0.00000000       0.004
   0.28571429  0.14285714  0.00000000       0.004
   0.35714286  0.14285714  0.00000000       0.004
   0.42857143  0.14285714  0.00000000       0.002
   0.21428571  0.21428571  0.00000000       0.002
   0.28571429  0.21428571  0.00000000       0.004
   0.35714286  0.21428571  0.00000000       0.004
   0.28571429  0.28571429  0.00000000       0.002
   0.35714286  0.28571429  0.00000000       0.002
   0.00000000  0.00000000  0.07142857       0.001
   0.07142857  0.00000000  0.07142857       0.004
   0.14285714  0.00000000  0.07142857       0.004
   0.21428571  0.00000000  0.07142857       0.004
   0.28571429  0.00000000  0.07142857       0.004
   0.35714286  0.00000000  0.07142857       0.004
   0.42857143  0.00000000  0.07142857       0.004
   0.50000000  0.00000000  0.07142857       0.002
   0.07142857  0.07142857  0.07142857       0.004
   0.14285714  0.07142857  0.07142857       0.009
   0.21428571  0.07142857  0.07142857       0.009
   0.28571429  0.07142857  0.07142857       0.009
   0.35714286  0.07142857  0.07142857       0.009
   0.42857143  0.07142857  0.07142857       0.009
   0.14285714  0.14285714  0.07142857       0.004
   0.21428571  0.14285714  0.07142857       0.009
   0.28571429  0.14285714  0.07142857       0.009
   0.35714286  0.14285714  0.07142857       0.009
   0.42857143  0.14285714  0.07142857       0.004
   0.21428571  0.21428571  0.07142857       0.004
   0.28571429  0.21428571  0.07142857       0.009
   0.35714286  0.21428571  0.07142857       0.009
   0.28571429  0.28571429  0.07142857       0.004
   0.35714286  0.28571429  0.07142857       0.004
   0.00000000  0.00000000  0.14285714       0.001
   0.07142857  0.00000000  0.14285714       0.004
   0.14285714  0.00000000  0.14285714       0.004
   0.21428571  0.00000000  0.14285714       0.004
   0.28571429  0.00000000  0.14285714       0.004
   0.35714286  0.00000000  0.14285714       0.004
   0.42857143  0.00000000  0.14285714       0.004
   0.50000000  0.00000000  0.14285714       0.002
   0.07142857  0.07142857  0.14285714       0.004
   0.14285714  0.07142857  0.14285714       0.009
   0.21428571  0.07142857  0.14285714       0.009
   0.28571429  0.07142857  0.14285714       0.009
   0.35714286  0.07142857  0.14285714       0.009
   0.42857143  0.07142857  0.14285714       0.009
   0.14285714  0.14285714  0.14285714       0.004
   0.21428571  0.14285714  0.14285714       0.009
   0.28571429  0.14285714  0.14285714       0.009
   0.35714286  0.14285714  0.14285714       0.009
   0.42857143  0.14285714  0.14285714       0.004
   0.21428571  0.21428571  0.14285714       0.004
   0.28571429  0.21428571  0.14285714       0.009
   0.35714286  0.21428571  0.14285714       0.009
   0.28571429  0.28571429  0.14285714       0.004
   0.35714286  0.28571429  0.14285714       0.004
   0.00000000  0.00000000  0.21428571       0.001
   0.07142857  0.00000000  0.21428571       0.004
   0.14285714  0.00000000  0.21428571       0.004
   0.21428571  0.00000000  0.21428571       0.004
   0.28571429  0.00000000  0.21428571       0.004
   0.35714286  0.00000000  0.21428571       0.004
   0.42857143  0.00000000  0.21428571       0.004
   0.50000000  0.00000000  0.21428571       0.002
   0.07142857  0.07142857  0.21428571       0.004
   0.14285714  0.07142857  0.21428571       0.009
   0.21428571  0.07142857  0.21428571       0.009
   0.28571429  0.07142857  0.21428571       0.009
   0.35714286  0.07142857  0.21428571       0.009
   0.42857143  0.07142857  0.21428571       0.009
   0.14285714  0.14285714  0.21428571       0.004
   0.21428571  0.14285714  0.21428571       0.009
   0.28571429  0.14285714  0.21428571       0.009
   0.35714286  0.14285714  0.21428571       0.009
   0.42857143  0.14285714  0.21428571       0.004
   0.21428571  0.21428571  0.21428571       0.004
   0.28571429  0.21428571  0.21428571       0.009
   0.35714286  0.21428571  0.21428571       0.009
   0.28571429  0.28571429  0.21428571       0.004
   0.35714286  0.28571429  0.21428571       0.004
   0.00000000  0.00000000  0.28571429       0.001
   0.07142857  0.00000000  0.28571429       0.004
   0.14285714  0.00000000  0.28571429       0.004
   0.21428571  0.00000000  0.28571429       0.004
   0.28571429  0.00000000  0.28571429       0.004
   0.35714286  0.00000000  0.28571429       0.004
   0.42857143  0.00000000  0.28571429       0.004
   0.50000000  0.00000000  0.28571429       0.002
   0.07142857  0.07142857  0.28571429       0.004
   0.14285714  0.07142857  0.28571429       0.009
   0.21428571  0.07142857  0.28571429       0.009
   0.28571429  0.07142857  0.28571429       0.009
   0.35714286  0.07142857  0.28571429       0.009
   0.42857143  0.07142857  0.28571429       0.009
   0.14285714  0.14285714  0.28571429       0.004
   0.21428571  0.14285714  0.28571429       0.009
   0.28571429  0.14285714  0.28571429       0.009
   0.35714286  0.14285714  0.28571429       0.009
   0.42857143  0.14285714  0.28571429       0.004
   0.21428571  0.21428571  0.28571429       0.004
   0.28571429  0.21428571  0.28571429       0.009
   0.35714286  0.21428571  0.28571429       0.009
   0.28571429  0.28571429  0.28571429       0.004
   0.35714286  0.28571429  0.28571429       0.004
   0.00000000  0.00000000  0.35714286       0.001
   0.07142857  0.00000000  0.35714286       0.004
   0.14285714  0.00000000  0.35714286       0.004
   0.21428571  0.00000000  0.35714286       0.004
   0.28571429  0.00000000  0.35714286       0.004
   0.35714286  0.00000000  0.35714286       0.004
   0.42857143  0.00000000  0.35714286       0.004
   0.50000000  0.00000000  0.35714286       0.002
   0.07142857  0.07142857  0.35714286       0.004
   0.14285714  0.07142857  0.35714286       0.009
   0.21428571  0.07142857  0.35714286       0.009
   0.28571429  0.07142857  0.35714286       0.009
   0.35714286  0.07142857  0.35714286       0.009
   0.42857143  0.07142857  0.35714286       0.009
   0.14285714  0.14285714  0.35714286       0.004
   0.21428571  0.14285714  0.35714286       0.009
   0.28571429  0.14285714  0.35714286       0.009
   0.35714286  0.14285714  0.35714286       0.009
   0.42857143  0.14285714  0.35714286       0.004
   0.21428571  0.21428571  0.35714286       0.004
   0.28571429  0.21428571  0.35714286       0.009
   0.35714286  0.21428571  0.35714286       0.009
   0.28571429  0.28571429  0.35714286       0.004
   0.35714286  0.28571429  0.35714286       0.004
   0.00000000  0.00000000  0.42857143       0.001
   0.07142857  0.00000000  0.42857143       0.004
   0.14285714  0.00000000  0.42857143       0.004
   0.21428571  0.00000000  0.42857143       0.004
   0.28571429  0.00000000  0.42857143       0.004
   0.35714286  0.00000000  0.42857143       0.004
   0.42857143  0.00000000  0.42857143       0.004
   0.50000000  0.00000000  0.42857143       0.002
   0.07142857  0.07142857  0.42857143       0.004
   0.14285714  0.07142857  0.42857143       0.009
   0.21428571  0.07142857  0.42857143       0.009
   0.28571429  0.07142857  0.42857143       0.009
   0.35714286  0.07142857  0.42857143       0.009
   0.42857143  0.07142857  0.42857143       0.009
   0.14285714  0.14285714  0.42857143       0.004
   0.21428571  0.14285714  0.42857143       0.009
   0.28571429  0.14285714  0.42857143       0.009
   0.35714286  0.14285714  0.42857143       0.009
   0.42857143  0.14285714  0.42857143       0.004
   0.21428571  0.21428571  0.42857143       0.004
   0.28571429  0.21428571  0.42857143       0.009
   0.35714286  0.21428571  0.42857143       0.009
   0.28571429  0.28571429  0.42857143       0.004
   0.35714286  0.28571429  0.42857143       0.004
   0.00000000  0.00000000  0.50000000       0.000
   0.07142857  0.00000000  0.50000000       0.002
   0.14285714  0.00000000  0.50000000       0.002
   0.21428571  0.00000000  0.50000000       0.002
   0.28571429  0.00000000  0.50000000       0.002
   0.35714286  0.00000000  0.50000000       0.002
   0.42857143  0.00000000  0.50000000       0.002
   0.50000000  0.00000000  0.50000000       0.001
   0.07142857  0.07142857  0.50000000       0.002
   0.14285714  0.07142857  0.50000000       0.004
   0.21428571  0.07142857  0.50000000       0.004
   0.28571429  0.07142857  0.50000000       0.004
   0.35714286  0.07142857  0.50000000       0.004
   0.42857143  0.07142857  0.50000000       0.004
   0.14285714  0.14285714  0.50000000       0.002
   0.21428571  0.14285714  0.50000000       0.004
   0.28571429  0.14285714  0.50000000       0.004
   0.35714286  0.14285714  0.50000000       0.004
   0.42857143  0.14285714  0.50000000       0.002
   0.21428571  0.21428571  0.50000000       0.002
   0.28571429  0.21428571  0.50000000       0.004
   0.35714286  0.21428571  0.50000000       0.004
   0.28571429  0.28571429  0.50000000       0.002
   0.35714286  0.28571429  0.50000000       0.002
 
 position of ions in fractional coordinates (direct lattice) 
   0.00000000  0.00000000  0.00000000
   0.33333333  0.66666667  0.00000000
   0.33333333  0.66666667  0.50000000
   0.66666667  0.33333333  0.50000000
 
 position of ions in cartesian coordinates  (Angst):
   0.00000000  0.00000000  0.00000000
   0.00000000  1.42097448  0.00000000
   0.00000000  1.42097448  3.35395000
   1.23060000  0.71048724  3.35395000
 


--------------------------------------------------------------------------------------------------------


 k-point  1 :  0.00000.00000.0000  plane waves:     513
 k-point  2 :  0.07140.00000.0000  plane waves:     525
 k-point  3 :  0.14290.00000.0000  plane waves:     523
 k-point  4 :  0.21430.00000.0000  plane waves:     515
 k-point  5 :  0.28570.00000.0000  plane waves:     518
 k-point  6 :  0.35710.00000.0000  plane waves:     520
 k-point  7 :  0.42860.00000.0000  plane waves:     534
 k-point  8 :  0.50000.00000.0000  plane waves:     526
 k-point  9 :  0.07140.07140.0000  plane waves:     525
 k-point 10 :  0.14290.07140.0000  plane waves:     525
 k-point 11 :  0.21430.07140.0000  plane waves:     518
 k-point 12 :  0.28570.07140.0000  plane waves:     524
 k-point 13 :  0.35710.07140.0000  plane waves:     523
 k-point 14 :  0.42860.07140.0000  plane waves:     531
 k-point 15 :  0.14290.14290.0000  plane waves:     522
 k-point 16 :  0.21430.14290.0000  plane waves:     518
 k-point 17 :  0.28570.14290.0000  plane waves:     524
 k-point 18 :  0.35710.14290.0000  plane waves:     526
 k-point 19 :  0.42860.14290.0000  plane waves:     530
 k-point 20 :  0.21430.21430.0000  plane waves:     512
 k-point 21 :  0.28570.21430.0000  plane waves:     527
 k-point 22 :  0.35710.21430.0000  plane waves:     532
 k-point 23 :  0.28570.28570.0000  plane waves:     524
 k-point 24 :  0.35710.28570.0000  plane waves:     524
 k-point 25 :  0.00000.00000.0714  plane waves:     525
 k-point 26 :  0.07140.00000.0714  plane waves:     525
 k-point 27 :  0.14290.00000.0714  plane waves:     521
 k-point 28 :  0.21430.00000.0714  plane waves:     522
 k-point 29 :  0.28570.00000.0714  plane waves:     521
 k-point 30 :  0.35710.00000.0714  plane waves:     523
 k-point 31 :  0.42860.00000.0714  plane waves:     533
 k-point 32 :  0.50000.00000.0714  plane waves:     526
 k-point 33 :  0.07140.07140.0714  plane waves:     521
 k-point 34 :  0.14290.07140.0714  plane waves:     523
 k-point 35 :  0.21430.07140.0714  plane waves:     521
 k-point 36 :  0.28570.07140.0714  plane waves:     522
 k-point 37 :  0.35710.07140.0714  plane waves:     521
 k-point 38 :  0.42860.07140.0714  plane waves:     526
 k-point 39 :  0.14290.14290.0714  plane waves:     520
 k-point 40 :  0.21430.14290.0714  plane waves:     520
 k-point 41 :  0.28570.14290.0714  plane waves:     521
 k-point 42 :  0.35710.14290.0714  plane waves:     528
 k-point 43 :  0.42860.14290.0714  plane waves:     533
 k-point 44 :  0.21430.21430.0714  plane waves:     518
 k-point 45 :  0.28570.21430.0714  plane waves:     523
 k-point 46 :  0.35710.21430.0714  plane waves:     531
 k-point 47 :  0.28570.28570.0714  plane waves:     520
 k-point 48 :  0.35710.28570.0714  plane waves:     527
 k-point 49 :  0.00000.00000.1429  plane waves:     525
 k-point 50 :  0.07140.00000.1429  plane waves:     528
 k-point 51 :  0.14290.00000.1429  plane waves:     527
 k-point 52 :  0.21430.00000.1429  plane waves:     518
 k-point 53 :  0.28570.00000.1429  plane waves:     515
 k-point 54 :  0.35710.00000.1429  plane waves:     523
 k-point 55 :  0.42860.00000.1429  plane waves:     530
 k-point 56 :  0.50000.00000.1429  plane waves:     524
 k-point 57 :  0.07140.07140.1429  plane waves:     522
 k-point 58 :  0.14290.07140.1429  plane waves:     524
 k-point 59 :  0.21430.07140.1429  plane waves:     519
 k-point 60 :  0.28570.07140.1429  plane waves:     524
 k-point 61 :  0.35710.07140.1429  plane waves:     526
 k-point 62 :  0.42860.07140.1429  plane waves:     525
 k-point 63 :  0.14290.14290.1429  plane waves:     524
 k-point 64 :  0.21430.14290.1429  plane waves:     518
 k-point 65 :  0.28570.14290.1429  plane waves:     523
 k-point 66 :  0.35710.14290.1429  plane waves:     527
 k-point 67 :  0.42860.14290.1429  plane waves:     529
 k-point 68 :  0.21430.21430.1429  plane waves:     518
 k-point 69 :  0.28570.21430.1429  plane waves:     525
 k-point 70 :  0.35710.21430.1429  plane waves:     529
 k-point 71 :  0.28570.28570.1429  plane waves:     523
 k-point 72 :  0.35710.28570.1429  plane waves:     523
 k-point 73 :  0.00000.00000.2143  plane waves:     525
 k-point 74 :  0.07140.00000.2143  plane waves:     523
 k-point 75 :  0.14290.00000.2143  plane waves:     531
 k-point 76 :  0.21430.00000.2143  plane waves:     519
 k-point 77 :  0.28570.00000.2143  plane waves:     520
 k-point 78 :  0.35710.00000.2143  plane waves:     521
 k-point 79 :  0.42860.00000.2143  plane waves:     525
 k-point 80 :  0.50000.00000.2143  plane waves:     526
 k-point 81 :  0.07140.07140.2143  plane waves:     526
 k-point 82 :  0.14290.07140.2143  plane waves:     523
 k-point 83 :  0.21430.07140.2143  plane waves:     520
 k-point 84 :  0.28570.07140.2143  plane waves:     522
 k-point 85 :  0.35710.07140.2143  plane waves:     524
 k-point 86 :  0.42860.07140.2143  plane waves:     524
 k-point 87 :  0.14290.14290.2143  plane waves:     523
 k-point 88 :  0.21430.14290.2143  plane waves:     517
 k-point 89 :  0.28570.14290.2143  plane waves:     521
 k-point 90 :  0.35710.14290.2143  plane waves:     526
 k-point 91 :  0.42860.14290.2143  plane waves:     527
 k-point 92 :  0.21430.21430.2143  plane waves:     517
 k-point 93 :  0.28570.21430.2143  plane waves:     525
 k-point 94 :  0.35710.21430.2143  plane waves:     526
 k-point 95 :  0.28570.28570.2143  plane waves:     518
 k-point 96 :  0.35710.28570.2143  plane waves:     529
 k-point 97 :  0.00000.00000.2857  plane waves:     530
 k-point 98 :  0.07140.00000.2857  plane waves:     523
 k-point 99 :  0.14290.00000.2857  plane waves:     528
 k-point ** :  0.21430.00000.2857  plane waves:     522
 k-point ** :  0.28570.00000.2857  plane waves:     521
 k-point ** :  0.35710.00000.2857  plane waves:     521
 k-point ** :  0.42860.00000.2857  plane waves:     524
 k-point ** :  0.50000.00000.2857  plane waves:     522
 k-point ** :  0.07140.07140.2857  plane waves:     529
 k-point ** :  0.14290.07140.2857  plane waves:     522
 k-point ** :  0.21430.07140.2857  plane waves:     521
 k-point ** :  0.28570.07140.2857  plane waves:     523
 k-point ** :  0.35710.07140.2857  plane waves:     524
 k-point ** :  0.42860.07140.2857  plane waves:     524
 k-point ** :  0.14290.14290.2857  plane waves:     519
 k-point ** :  0.21430.14290.2857  plane waves:     515
 k-point ** :  0.28570.14290.2857  plane waves:     521
 k-point ** :  0.35710.14290.2857  plane waves:     525
 k-point ** :  0.42860.14290.2857  plane waves:     528
 k-point ** :  0.21430.21430.2857  plane waves:     519
 k-point ** :  0.28570.21430.2857  plane waves:     522
 k-point ** :  0.35710.21430.2857  plane waves:     526
 k-point ** :  0.28570.28570.2857  plane waves:     524
 k-point ** :  0.35710.28570.2857  plane waves:     527
 k-point ** :  0.00000.00000.3571  plane waves:     536
 k-point ** :  0.07140.00000.3571  plane waves:     531
 k-point ** :  0.14290.00000.3571  plane waves:     529
 k-point ** :  0.21430.00000.3571  plane waves:     520
 k-point ** :  0.28570.00000.3571  plane waves:     524
 k-point ** :  0.35710.00000.3571  plane waves:     520
 k-point ** :  0.42860.00000.3571  plane waves:     524
 k-point ** :  0.50000.00000.3571  plane waves:     514
 k-point ** :  0.07140.07140.3571  plane waves:     529
 k-point ** :  0.14290.07140.3571  plane waves:     524
 k-point ** :  0.21430.07140.3571  plane waves:     520
 k-point ** :  0.28570.07140.3571  plane waves:     520
 k-point ** :  0.35710.07140.3571  plane waves:     522
 k-point ** :  0.42860.07140.3571  plane waves:     526
 k-point ** :  0.14290.14290.3571  plane waves:     523
 k-point ** :  0.21430.14290.3571  plane waves:     515
 k-point ** :  0.28570.14290.3571  plane waves:     516
 k-point ** :  0.35710.14290.3571  plane waves:     527
 k-point ** :  0.42860.14290.3571  plane waves:     528
 k-point ** :  0.21430.21430.3571  plane waves:     514
 k-point ** :  0.28570.21430.3571  plane waves:     523
 k-point ** :  0.35710.21430.3571  plane waves:     528
 k-point ** :  0.28570.28570.3571  plane waves:     526
 k-point ** :  0.35710.28570.3571  plane waves:     525
 k-point ** :  0.00000.00000.4286  plane waves:     536
 k-point ** :  0.07140.00000.4286  plane waves:     533
 k-point ** :  0.14290.00000.4286  plane waves:     524
 k-point ** :  0.21430.00000.4286  plane waves:     528
 k-point ** :  0.28570.00000.4286  plane waves:     524
 k-point ** :  0.35710.00000.4286  plane waves:     518
 k-point ** :  0.42860.00000.4286  plane waves:     516
 k-point ** :  0.50000.00000.4286  plane waves:     522
 k-point ** :  0.07140.07140.4286  plane waves:     528
 k-point ** :  0.14290.07140.4286  plane waves:     526
 k-point ** :  0.21430.07140.4286  plane waves:     521
 k-point ** :  0.28570.07140.4286  plane waves:     518
 k-point ** :  0.35710.07140.4286  plane waves:     520
 k-point ** :  0.42860.07140.4286  plane waves:     523
 k-point ** :  0.14290.14290.4286  plane waves:     523
 k-point ** :  0.21430.14290.4286  plane waves:     514
 k-point ** :  0.28570.14290.4286  plane waves:     520
 k-point ** :  0.35710.14290.4286  plane waves:     527
 k-point ** :  0.42860.14290.4286  plane waves:     530
 k-point ** :  0.21430.21430.4286  plane waves:     516
 k-point ** :  0.28570.21430.4286  plane waves:     522
 k-point ** :  0.35710.21430.4286  plane waves:     531
 k-point ** :  0.28570.28570.4286  plane waves:     532
 k-point ** :  0.35710.28570.4286  plane waves:     530
 k-point ** :  0.00000.00000.5000  plane waves:     536
 k-point ** :  0.07140.00000.5000  plane waves:     534
 k-point ** :  0.14290.00000.5000  plane waves:     520
 k-point ** :  0.21430.00000.5000  plane waves:     528
 k-point ** :  0.28570.00000.5000  plane waves:     530
 k-point ** :  0.35710.00000.5000  plane waves:     518
 k-point ** :  0.42860.00000.5000  plane waves:     518
 k-point ** :  0.50000.00000.5000  plane waves:     528
 k-point ** :  0.07140.07140.5000  plane waves:     530
 k-point ** :  0.14290.07140.5000  plane waves:     526
 k-point ** :  0.21430.07140.5000  plane waves:     518
 k-point ** :  0.28570.07140.5000  plane waves:     516
 k-point ** :  0.35710.07140.5000  plane waves:     522
 k-point ** :  0.42860.07140.5000  plane waves:     524
 k-point ** :  0.14290.14290.5000  plane waves:     520
 k-point ** :  0.21430.14290.5000  plane waves:     514
 k-point ** :  0.28570.14290.5000  plane waves:     520
 k-point ** :  0.35710.14290.5000  plane waves:     528
 k-point ** :  0.42860.14290.5000  plane waves:     530
 k-point ** :  0.21430.21430.5000  plane waves:     516
 k-point ** :  0.28570.21430.5000  plane waves:     520
 k-point ** :  0.35710.21430.5000  plane waves:     530
 k-point ** :  0.28570.28570.5000  plane waves:     528
 k-point ** :  0.35710.28570.5000  plane waves:     528

 maximum and minimum number of plane-waves per node :       536      512

 maximum number of plane-waves:       536
 maximum index in each direction: 
   IXMAX=    3   IYMAX=    3   IZMAX=   10
   IXMIN=   -4   IYMIN=   -4   IZMIN=  -10

 NGX is ok and might be reduce to  16
 NGY is ok and might be reduce to  16
 NGZ is ok and might be reduce to  42

 serial   3D FFT for wavefunctions
 parallel 3D FFT for charge:
    minimum data exchange during FFTs selected (reduces bandwidth)


 total amount of memory used by VASP on root node    95673. kBytes
========================================================================

   base      :      30000. kBytes
   nonl-proj :       6620. kBytes
   fftplans  :       2996. kBytes
   grid      :       7176. kBytes
   one-center:         24. kBytes
   wavefun   :      48857. kBytes
 
 Broyden mixing: mesh for mixing (old mesh)
   NGX =  7   NGY =  7   NGZ = 21
  (NGX  = 32   NGY  = 32   NGZ  = 84)
  gives a total of   1029 points

 initial charge density was supplied:
 charge density of overlapping atoms calculated
 number of electron      16.0000000 magnetization       4.0000000
 keeping initial charge density in first step


--------------------------------------------------------------------------------------------------------


 Maximum index for augmentation-charges         3509 (set IRDMAX)


--------------------------------------------------------------------------------------------------------


 First call to EWALD:  gamma=   0.541
 Maximum number of real-space cells 4x 4x 2
 Maximum number of reciprocal cells 2x 2x 5

    FEWALD:  cpu time    0.00: real time    0.00


----------------------------------------- Iteration    1(   1)  ---------------------------------------


    POTLOK:  cpu time    0.30: real time    0.30
    SETDIJ:  cpu time    0.04: real time    0.04
     EDDAV:  cpu time   21.33: real time   21.33
       DOS:  cpu time    0.04: real time    0.04
    --------------------------------------------
      LOOP:  cpu time   21.71: real time   21.71

 eigenvalue-minimisations  : 10878
 total energy-change (2. order) : 0.2179420E+02  (-0.6508737E+03)
 number of electron      16.0000000 magnetization       4.0000000
 augmentation part       16.0000000 magnetization       4.0000000

 Free energy of the ion-electron system (eV)
  ---------------------------------------------------
  alpha Z        PSCENC =        37.04766603
  Ewald energy   TEWEN  =      -460.60042082
  -1/2 Hartree   DENC   =      -148.78490797
  -exchange  EXHF       =         0.00000000
  -V(xc)+E(xc)   XCENC  =        56.10990993
  PAW double counting   =       150.95130483     -155.51722924
  entropy T*S    EENTRO =         0.00002597
  eigenvalues    EBANDS =       -45.69461727
  atomic energy  EATOM  =       588.28246388
  ---------------------------------------------------
  free energy    TOTEN  =        21.79419533 eV

  energy without entropy =       21.79416936  energy(sigma->0) =       21.79418668


--------------------------------------------------------------------------------------------------------




----------------------------------------- Iteration    1(   2)  ---------------------------------------


     EDDAV:  cpu time   25.86: real time   25.90
       DOS:  cpu time    0.03: real time    0.03
    --------------------------------------------
      LOOP:  cpu time   25.90: real time   25.97

 eigenvalue-minimisations  : 14654
 total energy-change (2. order) :-0.5715503E+02  (-0.5242499E+02)
 number of electron      16.0000000 magnetization       4.0000000
 augmentation part       16.0000000 magnetization       4.0000000

 Free energy of the ion-electron system (eV)
  ---------------------------------------------------
  alpha Z        PSCENC =        37.04766603
  Ewald energy   TEWEN  =      -460.60042082
  -1/2 Hartree   DENC   =      -148.78490797
  -exchange  EXHF       =         0.00000000
  -V(xc)+E(xc)   XCENC  =        56.10990993
  PAW double counting   =       150.95130483     -155.51722924
  entropy T*S    EENTRO =         0.00006845
  eigenvalues    EBANDS =      -102.84968742
  atomic energy  EATOM  =       588.28246388
  ---------------------------------------------------
  free energy    TOTEN  =       -35.36083233 eV

  energy without entropy =      -35.36090078  energy(sigma->0) =      -35.36085514


--------------------------------------------------------------------------------------------------------




----------------------------------------- Iteration    1(   3)  ---------------------------------------


     EDDAV:  cpu time   25.07: real time   25.08
       DOS:  cpu time    0.04: real time    0.04
    --------------------------------------------
      LOOP:  cpu time   25.10: real time   25.13

 eigenvalue-minimisations  : 14238
 total energy-change (2. order) :-0.2221708E+01  (-0.2210509E+01)
 number of electron      16.0000000 magnetization       4.0000000
 augmentation part       16.0000000 magnetization       4.0000000

 Free energy of the ion-electron system (eV)
  ---------------------------------------------------
  alpha Z        PSCENC =        37.04766603
  Ewald energy   TEWEN  =      -460.60042082
  -1/2 Hartree   DENC   =      -148.78490797
  -exchange  EXHF       =         0.00000000
  -V(xc)+E(xc)   XCENC  =        56.10990993
  PAW double counting   =       150.95130483     -155.51722924
  entropy T*S    EENTRO =         0.00002468
  eigenvalues    EBANDS =      -105.07135115
  atomic energy  EATOM  =       588.28246388
  ---------------------------------------------------
  free energy    TOTEN  =       -37.58253984 eV

  energy without entropy =      -37.58256452  energy(sigma->0) =      -37.58254806


--------------------------------------------------------------------------------------------------------




----------------------------------------- Iteration    1(   4)  ---------------------------------------


     EDDAV:  cpu time   23.44: real time   23.44
       DOS:  cpu time    0.03: real time    0.03
    --------------------------------------------
      LOOP:  cpu time   23.47: real time   23.49

 eigenvalue-minimisations  : 13018
 total energy-change (2. order) :-0.2081608E-01  (-0.2080717E-01)
 number of electron      16.0000000 magnetization       4.0000000
 augmentation part       16.0000000 magnetization       4.0000000

 Free energy of the ion-electron system (eV)
  ---------------------------------------------------
  alpha Z        PSCENC =        37.04766603
  Ewald energy   TEWEN  =      -460.60042082
  -1/2 Hartree   DENC   =      -148.78490797
  -exchange  EXHF       =         0.00000000
  -V(xc)+E(xc)   XCENC  =        56.10990993
  PAW double counting   =       150.95130483     -155.51722924
  entropy T*S    EENTRO =         0.00002631
  eigenvalues    EBANDS =      -105.09216887
  atomic energy  EATOM  =       588.28246388
  ---------------------------------------------------
  free energy    TOTEN  =       -37.60335591 eV

  energy without entropy =      -37.60338223  energy(sigma->0) =      -37.60336469


--------------------------------------------------------------------------------------------------------




----------------------------------------- Iteration    1(   5)  ---------------------------------------


     EDDAV:  cpu time   25.31: real time   25.32
       DOS:  cpu time    0.04: real time    0.04
    CHARGE:  cpu time    1.65: real time    1.65
    MIXING:  cpu time    0.01: real time    0.01
    --------------------------------------------
      LOOP:  cpu time   27.01: real time   27.03

 eigenvalue-minimisations  : 14406
 total energy-change (2. order) :-0.4102107E-03  (-0.4099433E-03)
 number of electron      15.9999998 magnetization       1.0776109
 augmentation part        0.4141966 magnetization       0.9934088

 Broyden mixing:
  rms(total) = 0.12117E+01    rms(broyden)= 0.12112E+01
  rms(prec ) = 0.15569E+01
  weight for this iteration     100.00

 Free energy of the ion-electron system (eV)
  ---------------------------------------------------
  alpha Z        PSCENC =        37.04766603
  Ewald energy   TEWEN  =      -460.60042082
  -1/2 Hartree   DENC   =      -148.78490797
  -exchange  EXHF       =         0.00000000
  -V(xc)+E(xc)   XCENC  =        56.10990993
  PAW double counting   =       150.95130483     -155.51722924
  entropy T*S    EENTRO =         0.00002636
  eigenvalues    EBANDS =      -105.09257912
  atomic energy  EATOM  =       588.28246388
  ---------------------------------------------------
  free energy    TOTEN  =       -37.60376612 eV

  energy without entropy =      -37.60379248  energy(sigma->0) =      -37.60377491


--------------------------------------------------------------------------------------------------------




----------------------------------------- Iteration    1(   6)  ---------------------------------------


    POTLOK:  cpu time    0.30: real time    0.30
    SETDIJ:  cpu time    0.04: real time    0.04
     EDDAV:  cpu time   21.96: real time   21.96
       DOS:  cpu time    0.04: real time    0.04
    CHARGE:  cpu time    1.62: real time    1.62
    MIXING:  cpu time    0.01: real time    0.01
    --------------------------------------------
      LOOP:  cpu time   23.97: real time   23.99

 eigenvalue-minimisations  : 11952
 total energy-change (2. order) : 0.6692956E+00  (-0.2070621E+00)
 number of electron      15.9999999 magnetization       0.0353225
 augmentation part        0.3973495 magnetization       0.0285949

 Broyden mixing:
  rms(total) = 0.47576E+00    rms(broyden)= 0.47567E+00
  rms(prec ) = 0.69680E+00
  weight for this iteration     100.00

 eigenvalues of (default mixing * dielectric matrix)
  average eigenvalue GAMMA=   0.9670
  0.9670

 Free energy of the ion-electron system (eV)
  ---------------------------------------------------
  alpha Z        PSCENC =        37.04766603
  Ewald energy   TEWEN  =      -460.60042082
  -1/2 Hartree   DENC   =      -165.08662081
  -exchange  EXHF       =         0.00000000
  -V(xc)+E(xc)   XCENC  =        56.78967541
  PAW double counting   =       206.13080374     -211.04322165
  entropy T*S    EENTRO =         0.00002827
  eigenvalues    EBANDS =       -88.45484455
  atomic energy  EATOM  =       588.28246388
  ---------------------------------------------------
  free energy    TOTEN  =       -36.93447050 eV

  energy without entropy =      -36.93449877  energy(sigma->0) =      -36.93447992


--------------------------------------------------------------------------------------------------------




----------------------------------------- Iteration    1(   7)  ---------------------------------------


    POTLOK:  cpu time    0.30: real time    0.30
    SETDIJ:  cpu time    0.04: real time    0.04
     EDDAV:  cpu time   22.25: real time   22.25
       DOS:  cpu time    0.04: real time    0.04
    CHARGE:  cpu time    1.62: real time    1.62
    MIXING:  cpu time    0.01: real time    0.01
    --------------------------------------------
      LOOP:  cpu time   24.25: real time   24.27

 eigenvalue-minimisations  : 12156
 total energy-change (2. order) :-0.1915106E-01  (-0.1274746E+00)
 number of electron      15.9999999 magnetization      -0.1512451
 augmentation part        0.3838843 magnetization      -0.1505351

 Broyden mixing:
  rms(total) = 0.18477E+00    rms(broyden)= 0.18471E+00
  rms(prec ) = 0.26324E+00
  weight for this iteration     100.00

 eigenvalues of (default mixing * dielectric matrix)
  average eigenvalue GAMMA=   1.1881
  0.8424  1.5338

 Free energy of the ion-electron system (eV)
  ---------------------------------------------------
  alpha Z        PSCENC =        37.04766603
  Ewald energy   TEWEN  =      -460.60042082
  -1/2 Hartree   DENC   =      -176.67204180
  -exchange  EXHF       =         0.00000000
  -V(xc)+E(xc)   XCENC  =        57.23954529
  PAW double counting   =       249.42718882     -254.50965009
  entropy T*S    EENTRO =         0.00006061
  eigenvalues    EBANDS =       -77.16843347
  atomic energy  EATOM  =       588.28246388
  ---------------------------------------------------
  free energy    TOTEN  =       -36.95362156 eV

  energy without entropy =      -36.95368217  energy(sigma->0) =      -36.95364176


--------------------------------------------------------------------------------------------------------




----------------------------------------- Iteration    1(   8)  ---------------------------------------


    POTLOK:  cpu time    0.30: real time    0.30
    SETDIJ:  cpu time    0.04: real time    0.04
     EDDAV:  cpu time   23.46: real time   23.47
       DOS:  cpu time    0.03: real time    0.04
    CHARGE:  cpu time    1.62: real time    1.62
    MIXING:  cpu time    0.01: real time    0.01
    --------------------------------------------
      LOOP:  cpu time   25.47: real time   25.49

 eigenvalue-minimisations  : 13080
 total energy-change (2. order) : 0.5102142E-01  (-0.2381111E-01)
 number of electron      15.9999999 magnetization      -0.0334844
 augmentation part        0.3771225 magnetization      -0.0320827

 Broyden mixing:
  rms(total) = 0.66682E-01    rms(broyden)= 0.66620E-01
  rms(prec ) = 0.78935E-01
  weight for this iteration     100.00

 eigenvalues of (default mixing * dielectric matrix)
  average eigenvalue GAMMA=   1.1809
  1.7924  0.9816  0.7686

 Free energy of the ion-electron system (eV)
  ---------------------------------------------------
  alpha Z        PSCENC =        37.04766603
  Ewald energy   TEWEN  =      -460.60042082
  -1/2 Hartree   DENC   =      -182.47534698
  -exchange  EXHF       =         0.00000000
  -V(xc)+E(xc)   XCENC  =        57.62768513
  PAW double counting   =       273.80909306     -278.94520236
  entropy T*S    EENTRO =         0.00006413
  eigenvalues    EBANDS =       -71.64860220
  atomic energy  EATOM  =       588.28246388
  ---------------------------------------------------
  free energy    TOTEN  =       -36.90260014 eV

  energy without entropy =      -36.90266427  energy(sigma->0) =      -36.90262151


--------------------------------------------------------------------------------------------------------




----------------------------------------- Iteration    1(   9)  ---------------------------------------


    POTLOK:  cpu time    0.30: real time    0.30
    SETDIJ:  cpu time    0.04: real time    0.04
     EDDAV:  cpu time   22.41: real time   22.42
       DOS:  cpu time    0.03: real time    0.04
    CHARGE:  cpu time    1.62: real time    1.62
    MIXING:  cpu time    0.01: real time    0.01
    --------------------------------------------
      LOOP:  cpu time   24.41: real time   24.43

 eigenvalue-minimisations  : 12360
 total energy-change (2. order) :-0.1200541E-01  (-0.1844640E-02)
 number of electron      15.9999999 magnetization       0.0154919
 augmentation part        0.3758180 magnetization       0.0164259

 Broyden mixing:
  rms(total) = 0.32254E-01    rms(broyden)= 0.32244E-01
  rms(prec ) = 0.38670E-01
  weight for this iteration     100.00

 eigenvalues of (default mixing * dielectric matrix)
  average eigenvalue GAMMA=   1.2747
  2.1422  1.3665  0.9048  0.6853

 Free energy of the ion-electron system (eV)
  ---------------------------------------------------
  alpha Z        PSCENC =        37.04766603
  Ewald energy   TEWEN  =      -460.60042082
  -1/2 Hartree   DENC   =      -183.18568332
  -exchange  EXHF       =         0.00000000
  -V(xc)+E(xc)   XCENC  =        57.66757122
  PAW double counting   =       278.37323450     -283.49043434
  entropy T*S    EENTRO =         0.00006157
  eigenvalues    EBANDS =       -71.00906428
  atomic energy  EATOM  =       588.28246388
  ---------------------------------------------------
  free energy    TOTEN  =       -36.91460555 eV

  energy without entropy =      -36.91466712  energy(sigma->0) =      -36.91462607


--------------------------------------------------------------------------------------------------------




----------------------------------------- Iteration    1(  10)  ---------------------------------------


    POTLOK:  cpu time    0.30: real time    0.30
    SETDIJ:  cpu time    0.04: real time    0.04
     EDDAV:  cpu time   23.62: real time   23.62
       DOS:  cpu time    0.03: real time    0.04
    CHARGE:  cpu time    1.62: real time    1.62
    MIXING:  cpu time    0.01: real time    0.01
    --------------------------------------------
      LOOP:  cpu time   25.62: real time   25.64

 eigenvalue-minimisations  : 13356
 total energy-change (2. order) :-0.9284315E-03  (-0.1624149E-03)
 number of electron      15.9999999 magnetization       0.0086501
 augmentation part        0.3757041 magnetization       0.0082948

 Broyden mixing:
  rms(total) = 0.12151E-01    rms(broyden)= 0.12150E-01
  rms(prec ) = 0.14880E-01
  weight for this iteration     100.00

 eigenvalues of (default mixing * dielectric matrix)
  average eigenvalue GAMMA=   1.2432
  2.3050  1.4950  0.9300  0.8270  0.6590

 Free energy of the ion-electron system (eV)
  ---------------------------------------------------
  alpha Z        PSCENC =        37.04766603
  Ewald energy   TEWEN  =      -460.60042082
  -1/2 Hartree   DENC   =      -183.43789777
  -exchange  EXHF       =         0.00000000
  -V(xc)+E(xc)   XCENC  =        57.68638012
  PAW double counting   =       280.57050680     -285.66799871
  entropy T*S    EENTRO =         0.00006427
  eigenvalues    EBANDS =       -70.79629777
  atomic energy  EATOM  =       588.28246388
  ---------------------------------------------------
  free energy    TOTEN  =       -36.91553398 eV

  energy without entropy =      -36.91559825  energy(sigma->0) =      -36.91555540


--------------------------------------------------------------------------------------------------------




[...]
      3      -7.3006      1.00000
      4      -7.3006      1.00000
      5      -1.5561      1.00000
      6      -1.5560      1.00000
      7       1.6963      1.00000
      8       1.6963      1.00000
      9       7.2541      0.00000
     10       7.2541      0.00000
     11      12.2291      0.00000
     12      12.2291      0.00000
     13      16.3374      0.00000
     14      16.3374      0.00000

 k-point 176 :       0.5000    0.0000    0.5000
  band No.  band energies     occupation 
      1      -9.5690      1.00000
      2      -9.5690      1.00000
      3      -8.5359      1.00000
      4      -8.5359      1.00000
      5      -1.6771      1.00000
      6      -1.6771      1.00000
      7       2.3549      1.00000
      8       2.3549      1.00000
      9       6.3902      0.00000
     10       6.3902      0.00000
     11      12.1647      0.00000
     12      12.1647      0.00000
     13      17.3451      0.00000
     14      17.3451      0.00000

 k-point 177 :       0.0714    0.0714    0.5000
  band No.  band energies     occupation 
      1     -14.4774      1.00000
      2     -14.4774      1.00000
      3      -2.5094      1.00000
      4      -2.5094      1.00000
      5       0.4190      1.00000
      6       0.4190      1.00000
      7       0.9527      1.00000
      8       0.9527      1.00000
      9      12.0234      0.00000
     10      12.0234      0.00000
     11      13.4410      0.00000
     12      13.4410      0.00000
     13      14.4239      0.00000
     14      14.4239      0.00000

 k-point 178 :       0.1429    0.0714    0.5000
  band No.  band energies     occupation 
      1     -13.9957      1.00000
      2     -13.9957      1.00000
      3      -1.9385      1.00000
      4      -1.9385      1.00000
      5      -0.9711      1.00000
      6      -0.9711      1.00000
      7       0.1459      1.00000
      8       0.1459      1.00000
      9      12.5271      0.00000
     10      12.5271      0.00000
     11      13.5068      0.00000
     12      13.5068      0.00000
     13      13.8154      0.00000
     14      13.8154      0.00000

 k-point 179 :       0.2143    0.0714    0.5000
  band No.  band energies     occupation 
      1     -13.2785      1.00000
      2     -13.2785      1.00000
      3      -2.7048      1.00000
      4      -2.7048      1.00000
      5      -1.0980      1.00000
      6      -1.0980      1.00000
      7      -0.6619      1.00000
      8      -0.6619      1.00000
      9      11.8578      0.00000
     10      11.8578      0.00000
     11      13.1457      0.00000
     12      13.1457      0.00000
     13      13.6908      0.00000
     14      13.6908      0.00000

 k-point 180 :       0.2857    0.0714    0.5000
  band No.  band energies     occupation 
      1     -12.3343      1.00000
      2     -12.3343      1.00000
      3      -4.5570      1.00000
      4      -4.5570      1.00000
      5      -1.3300      1.00000
      6      -1.3300      1.00000
      7      -0.0235      1.00000
      8      -0.0235      1.00000
      9       9.9256      0.00000
     10       9.9256      0.00000
     11      13.0564      0.00000
     12      13.0564      0.00000
     13      14.5103      0.00000
     14      14.5103      0.00000

 k-point 181 :       0.3571    0.0714    0.5000
  band No.  band energies     occupation 
      1     -11.1803      1.00000
      2     -11.1803      1.00000
      3      -6.3771      1.00000
      4      -6.3771      1.00000
      5      -1.8012      1.00000
      6      -1.8012      1.00000
      7       1.2031      1.00000
      8       1.2031      1.00000
      9       8.0357      0.00000
     10       8.0357      0.00000
     11      12.8427      0.00000
     12      12.8427      0.00000
     13      15.6765      0.00000
     14      15.6765      0.00000

 k-point 182 :       0.4286    0.0714    0.5000
  band No.  band energies     occupation 
      1      -9.8937      1.00000
      2      -9.8937      1.00000
      3      -8.0112      1.00000
      4      -8.0112      1.00000
      5      -2.0426      1.00000
      6      -2.0426      1.00000
      7       2.2762      1.00000
      8       2.2762      1.00000
      9       6.6085      0.00000
     10       6.6085      0.00000
     11      12.7195      0.00000
     12      12.7195      0.00000
     13      16.8435      0.00000
     14      16.8435      0.00000

 k-point 183 :       0.1429    0.1429    0.5000
  band No.  band energies     occupation 
      1     -13.3978      1.00000
      2     -13.3978      1.00000
      3      -2.1502      1.00000
      4      -2.1502      1.00000
      5      -1.2345      1.00000
      6      -1.2345      1.00000
      7      -0.9376      1.00000
      8      -0.9376      1.00000
      9      12.2293      0.00000
     10      12.2293      0.00000
     11      13.1858      0.00000
     12      13.1858      0.00000
     13      14.4627      0.00000
     14      14.4627      0.00000

 k-point 184 :       0.2143    0.1429    0.5000
  band No.  band energies     occupation 
      1     -12.5695      1.00000
      2     -12.5695      1.00000
      3      -3.6501      1.00000
      4      -3.6501      1.00000
      5      -1.9018      1.00000
      6      -1.9018      1.00000
      7      -0.2799      1.00000
      8      -0.2799      1.00000
      9      10.5381      0.00000
     10      10.5381      0.00000
     11      13.9833      0.00000
     12      13.9833      0.00000
     13      14.7361      0.00000
     14      14.7361      0.00000

 k-point 185 :       0.2857    0.1429    0.5000
  band No.  band energies     occupation 
      1     -11.5234      1.00000
      2     -11.5234      1.00000
      3      -5.3547      1.00000
      4      -5.3547      1.00000
      5      -2.5698      1.00000
      6      -2.5698      1.00000
      7       0.8813      1.00000
      8       0.8813      1.00000
      9       8.7436      0.00000
     10       8.7436      0.00000
     11      14.3081      0.00000
     12      14.3081      0.00000
     13      15.2015      0.00000
     14      15.2015      0.00000

 k-point 186 :       0.3571    0.1429    0.5000
  band No.  band energies     occupation 
      1     -10.2919      1.00000
      2     -10.2919      1.00000
      3      -7.0410      1.00000
      4      -7.0410      1.00000
      5      -2.9609      1.00000
      6      -2.9609      1.00000
      7       2.1064      1.00000
      8       2.1064      1.00000
      9       7.0918      0.00000
     10       7.0918      0.00000
     11      14.1728      0.00000
     12      14.1728      0.00000
     13      16.0786      0.00000
     14      16.0786      0.00000

 k-point 187 :       0.4286    0.1429    0.5000
  band No.  band energies     occupation 
      1      -9.2570      1.00000
      2      -9.2570      1.00000
      3      -8.2353      1.00000
      4      -8.2353      1.00000
      5      -3.0913      1.00000
      6      -3.0913      1.00000
      7       2.8030      1.00000
      8       2.8030      1.00000
      9       6.2490      0.00000
     10       6.2490      0.00000
     11      14.1097      0.00000
     12      14.1097      0.00000
     13      16.5025      0.00000
     14      16.5025      0.00000

 k-point 188 :       0.2143    0.2143    0.5000
  band No.  band energies     occupation 
      1     -11.6388      1.00000
      2     -11.6388      1.00000
      3      -4.6886      1.00000
      4      -4.6886      1.00000
      5      -3.1792      1.00000
      6      -3.1792      1.00000
      7       0.7702      1.00000
      8       0.7702      1.00000
      9       9.0498      0.00000
     10       9.0498      0.00000
     11      14.7948      0.00000
     12      14.7948      0.00000
     13      16.1862      0.00000
     14      16.1862      0.00000

 k-point 189 :       0.2857    0.2143    0.5000
  band No.  band energies     occupation 
      1     -10.5079      1.00000
      2     -10.5079      1.00000
      3      -6.0358      1.00000
      4      -6.0358      1.00000
      5      -3.9975      1.00000
      6      -3.9975      1.00000
      7       1.9875      1.00000
      8       1.9875      1.00000
      9       7.5091      0.00000
     10       7.5091      0.00000
     11      15.3168      0.00000
     12      15.3168      0.00000
     13      16.3796      0.00000
     14      16.3796      0.00000

 k-point 190 :       0.3571    0.2143    0.5000
  band No.  band energies     occupation 
      1      -9.2580      1.00000
      2      -9.2580      1.00000
      3      -7.4866      1.00000
      4      -7.4866      1.00000
      5      -4.3447      1.00000
      6      -4.3447      1.00000
      7       3.1230      1.00000
      8       3.1230      1.00000
      9       6.1942      0.00000
     10       6.1942      0.00000
     11      15.3960      0.00000
     12      15.3960      0.00000
     13      16.3651      0.00000
     14      16.3651      0.00000

 k-point 191 :       0.2857    0.2857    0.5000
  band No.  band energies     occupation 
      1      -9.3292      1.00000
      2      -9.3292      1.00000
      3      -6.7910      1.00000
      4      -6.7910      1.00000
      5      -5.1569      1.00000
      6      -5.1569      1.00000
      7       3.2168      1.00000
      8       3.2168      1.00000
      9       6.2341      0.00000
     10       6.2341      0.00000
     11      15.1747      0.00000
     12      15.1747      0.00000
     13      17.9629      0.00000
     14      17.9629      0.00000

 k-point 192 :       0.3571    0.2857    0.5000
  band No.  band energies     occupation 
      1      -8.3252      1.00000
      2      -8.3252      1.00000
      3      -7.6534      1.00000
      4      -7.6534      1.00000
      5      -5.5551      1.00000
      6      -5.5551      1.00000
      7       4.1112      1.00000
      8       4.1112      1.00000
      9       5.3296      0.00000
     10       5.3296      0.00000
     11      15.0050      0.00000
     12      15.0050      0.00000
     13      18.0674      0.00000
     14      18.0674      0.00000


--------------------------------------------------------------------------------------------------------


 soft charge-density along one line, spin component           1
         0         1         2         3         4         5         6         7         8         9
 total charge-density along one line
 
 soft charge-density along one line, spin component           2
         0         1         2         3         4         5         6         7         8         9
 total charge-density along one line
 
 pseudopotential strength for first ion, spin component:           1
  9.767   0.005   0.000   0.000   0.000   0.000   0.000   0.000
  0.005  -0.002   0.000   0.000   0.000   0.000   0.000   0.000
  0.000   0.000  -3.947   0.000   0.000  -0.015   0.000   0.000
  0.000   0.000   0.000  -3.940   0.000   0.000  -0.012   0.000
  0.000   0.000   0.000   0.000  -3.947   0.000   0.000  -0.015
  0.000   0.000  -0.015   0.000   0.000  -0.764   0.000   0.000
  0.000   0.000   0.000  -0.012   0.000   0.000  -0.764   0.000
  0.000   0.000   0.000   0.000  -0.015   0.000   0.000  -0.764
 pseudopotential strength for first ion, spin component:           2
  9.767   0.005   0.000   0.000   0.000   0.000   0.000   0.000
  0.005  -0.002   0.000   0.000   0.000   0.000   0.000   0.000
  0.000   0.000  -3.947   0.000   0.000  -0.015   0.000   0.000
  0.000   0.000   0.000  -3.940   0.000   0.000  -0.012   0.000
  0.000   0.000   0.000   0.000  -3.947   0.000   0.000  -0.015
  0.000   0.000  -0.015   0.000   0.000  -0.764   0.000   0.000
  0.000   0.000   0.000  -0.012   0.000   0.000  -0.764   0.000
  0.000   0.000   0.000   0.000  -0.015   0.000   0.000  -0.764
 total augmentation occupancy for first ion, spin component:           1
  1.474  -1.120   0.000   0.000   0.000   0.000   0.000   0.000
 -1.120   1.056   0.000   0.000   0.000   0.000   0.000   0.000
  0.000   0.000   1.215   0.000   0.000   0.244   0.000   0.000
  0.000   0.000   0.000   0.923   0.000   0.000   0.128   0.000
  0.000   0.000   0.000   0.000   1.215   0.000   0.000   0.244
  0.000   0.000   0.244   0.000   0.000   0.055   0.000   0.000
  0.000   0.000   0.000   0.128   0.000   0.000   0.019   0.000
  0.000   0.000   0.000   0.000   0.244   0.000   0.000   0.055
 total augmentation occupancy for first ion, spin component:           2
  0.000  -0.001   0.000   0.000   0.000   0.000   0.000   0.000
 -0.001   0.002   0.000   0.000   0.000   0.000   0.000   0.000
  0.000   0.000   0.000   0.000   0.000   0.000   0.000   0.000
  0.000   0.000   0.000   0.000   0.000   0.000   0.000   0.000
  0.000   0.000   0.000   0.000   0.000   0.000   0.000   0.000
  0.000   0.000   0.000   0.000   0.000   0.000   0.000   0.000
  0.000   0.000   0.000   0.000   0.000   0.000   0.000   0.000
  0.000   0.000   0.000   0.000   0.000   0.000   0.000   0.000


------------------------ aborting loop because EDIFF is reached ----------------------------------------


 


 total charge     
 
# of ion     s       p       d       tot
----------------------------------------
  1        0.866   1.804   0.000   2.670
  2        0.867   1.800   0.000   2.667
  3        0.867   1.800   0.000   2.667
  4        0.866   1.804   0.000   2.670
------------------------------------------------
tot        3.466   7.207   0.000  10.673
 


 magnetization (x)
 
# of ion     s       p       d       tot
----------------------------------------
  1        0.000   0.000   0.000   0.000
  2        0.000   0.000   0.000   0.000
  3        0.000   0.000   0.000   0.000
  4        0.000   0.000   0.000   0.000
------------------------------------------------
tot        0.000   0.000   0.000   0.000
 
    CHARGE:  cpu time    1.62: real time    1.62
    FORLOC:  cpu time    0.01: real time    0.01
    FORNL :  cpu time    2.11: real time    2.11
    STRESS:  cpu time    2.42: real time    2.42
    FORHAR:  cpu time    0.04: real time    0.04
    MIXING:  cpu time    0.01: real time    0.01

  FORCE on cell =-STRESS in cart. coord.  units (eV):
  Direction    XX          YY          ZZ          XY          YZ          ZX
  --------------------------------------------------------------------------------------
  Alpha Z    37.04767    37.04767    37.04767
  Ewald      78.34827    78.34827  -617.29730     0.00000     0.00000     0.00000
  Hartree   161.13067   161.13067  -138.74427     0.00000     0.00000     0.00000
  E(xc)     -58.50752   -58.50752   -60.65103     0.00000     0.00000     0.00000
  Local    -443.66881  -443.66886   517.51728    -0.00004     0.00000     0.00000
  n-local   -13.46154   -14.48795   -12.78313    -0.70563     0.02350     0.02688
  augment    -1.51755    -1.51750    -1.39206     0.00004     0.00000     0.00000
  Kinetic   236.84346   244.28138   275.35096     6.50419    -0.32328    -0.39681
  Fock        0.00000     0.00000     0.00000     0.00000     0.00000     0.00000
  -------------------------------------------------------------------------------------
  Total      -0.57960    -0.57960    -0.95189     0.00000     0.00000     0.00000
  in kB     -26.38927   -26.38927   -43.33980     0.00000     0.00000     0.00000
  external pressure =      -32.04 kB  Pullay stress =        0.00 kB


 VOLUME and BASIS-vectors are now :
 -----------------------------------------------------------------------------
  energy-cutoff  :      350.00
  volume of cell :       35.19
      direct lattice vectors                 reciprocal lattice vectors
     2.461200000  0.000000000  0.000000000     0.406305867  0.234580802  0.000000000
    -1.230600000  2.131461724  0.000000000     0.000000000  0.469161603  0.000000000
     0.000000000  0.000000000  6.707900000     0.000000000  0.000000000  0.149077953

  length of vectors
     2.461200000  2.461200000  6.707900000     0.469161603  0.469161603  0.149077953


 FORCES acting on ions
    electron-ion (+dipol)            ewald-force                    non-local-force                 convergence-correction
 -----------------------------------------------------------------------------------------------
   0.136E-06 -.787E-07 0.135E-13   0.624E-11 -.358E-11 -.182E-13   0.000E+00 -.111E-15 0.000E+00   0.175E-06 -.101E-06 -.687E-13
   -.173E-05 0.999E-06 -.274E-12   -.624E-11 0.358E-11 -.182E-13   0.180E-15 -.555E-16 0.000E+00   -.176E-06 0.101E-06 -.686E-13
   -.165E-05 0.954E-06 -.930E-13   -.126E-10 0.731E-11 0.182E-13   -.153E-15 0.555E-16 0.000E+00   0.176E-06 -.101E-06 0.121E-12
   0.166E-05 -.957E-06 -.897E-12   0.126E-10 -.731E-11 0.182E-13   0.139E-16 0.111E-15 0.000E+00   -.175E-06 0.101E-06 0.120E-12
 -----------------------------------------------------------------------------------------------
   -.159E-05 0.917E-06 -.125E-11   0.658E-14 -.737E-15 0.316E-29   0.416E-16 0.000E+00 0.000E+00   -.855E-10 0.493E-10 0.104E-12
 
 
 POSITION                                       TOTAL-FORCE (eV/Angst)
 -----------------------------------------------------------------------------------
      0.00000      0.00000      0.00000         0.000000      0.000000      0.000000
      0.00000      1.42097      0.00000         0.000000      0.000000      0.000000
      0.00000      1.42097      3.35395         0.000000      0.000000      0.000000
      1.23060      0.71049      3.35395         0.000000      0.000000      0.000000
 -----------------------------------------------------------------------------------
    total drift:                               -0.000002      0.000001      0.000000


--------------------------------------------------------------------------------------------------------



  FREE ENERGIE OF THE ION-ELECTRON SYSTEM (eV)
  ---------------------------------------------------
  free  energy   TOTEN  =       -36.915827 eV

  energy  without entropy=      -36.915890  energy(sigma->0) =      -36.915848
 


--------------------------------------------------------------------------------------------------------


    POTLOK:  cpu time    0.34: real time    0.34


--------------------------------------------------------------------------------------------------------


 writing wavefunctions
     LOOP+:  cpu time  298.09: real time  298.70
    4ORBIT:  cpu time    0.00: real time    0.00
 


 total charge     
 
# of ion     s       p       d       tot
----------------------------------------
  1        0.866   1.804   0.000   2.670
  2        0.867   1.800   0.000   2.667
  3        0.867   1.800   0.000   2.667
  4        0.866   1.804   0.000   2.670
------------------------------------------------
tot        3.466   7.207   0.000  10.673
 


 magnetization (x)
 
# of ion     s       p       d       tot
----------------------------------------
  1        0.000   0.000   0.000   0.000
  2        0.000   0.000   0.000   0.000
  3        0.000   0.000   0.000   0.000
  4        0.000   0.000   0.000   0.000
------------------------------------------------
tot        0.000   0.000   0.000   0.000
 

 total amount of memory used by VASP on root node    95673. kBytes
========================================================================

   base      :      30000. kBytes
   nonl-proj :       6620. kBytes
   fftplans  :       2996. kBytes
   grid      :       7176. kBytes
   one-center:         24. kBytes
   wavefun   :      48857. kBytes
 
  
  
 General timing and accounting informations for this job:
 ========================================================
  
                  Total CPU time used (sec):      300.318
                            User time (sec):      299.934
                          System time (sec):        0.384
                         Elapsed time (sec):      301.316
  
                   Maximum memory used (kb):           0.
                   Average memory used (kb):           0.
  
                          Minor page faults:        60559
                          Major page faults:            0
                 Voluntary context switches:         1378
