PROCAR lm decomposed
# of k-points:  192         # of bands:  14         # of ions:   4

 k-point    1 :    0.00000000 0.00000000 0.00000000     weight = 0.00036443

band   1 # energy  -14.98516376 # occ.  1.00000000
 
ion      s     py     pz     px    dxy    dyz    dz2    dxz    dx2    tot
  1  0.159  0.000  0.000  0.000  0.000  0.000  0.000  0.000  0.000  0.159
  2  0.159  0.000  0.000  0.000  0.000  0.000  0.000  0.000  0.000  0.159
  3  0.159  0.000  0.000  0.000  0.000  0.000  0.000  0.000  0.000  0.159
  4  0.159  0.000  0.000  0.000  0.000  0.000  0.000  0.000  0.000  0.159
tot  0.635  0.000  0.000  0.000  0.000  0.000  0.000  0.000  0.000  0.635
 
band   2 # energy  -14.68613651 # occ.  1.00000000
 
ion      s     py     pz     px    dxy    dyz    dz2    dxz    dx2    tot
  1  0.165  0.000  0.000  0.000  0.000  0.000  0.000  0.000  0.000  0.165
  2  0.165  0.000  0.000  0.000  0.000  0.000  0.000  0.000  0.000  0.165
  3  0.165  0.000  0.000  0.000  0.000  0.000  0.000  0.000  0.000  0.165
  4  0.165  0.000  0.000  0.000  0.000  0.000  0.000  0.000  0.000  0.165
tot  0.659  0.000  0.000  0.000  0.000  0.000  0.000  0.000  0.000  0.659
 
band   3 # energy   -3.82168302 # occ.  1.00000000
 
ion      s     py     pz     px    dxy    dyz    dz2    dxz    dx2    tot
  1  0.000  0.000  0.096  0.000  0.000  0.000  0.000  0.000  0.000  0.096
  2  0.000  0.000  0.097  0.000  0.000  0.000  0.000  0.000  0.000  0.097
  3  0.000  0.000  0.097  0.000  0.000  0.000  0.000  0.000  0.000  0.097
  4  0.000  0.000  0.096  0.000  0.000  0.000  0.000  0.000  0.000  0.096
tot  0.000  0.000  0.387  0.000  0.000  0.000  0.000  0.000  0.000  0.387
 
band   4 # energy   -1.86465392 # occ.  1.00000000
 
ion      s     py     pz     px    dxy    dyz    dz2    dxz    dx2    tot
  1  0.000  0.000  0.127  0.000  0.000  0.000  0.000  0.000  0.000  0.127
  2  0.000  0.000  0.126  0.000  0.000  0.000  0.000  0.000  0.000  0.126
  3  0.000  0.000  0.126  0.000  0.000  0.000  0.000  0.000  0.000  0.126
  4  0.000  0.000  0.127  0.000  0.000  0.000  0.000  0.000  0.000  0.127
tot  0.000  0.000  0.506  0.000  0.000  0.000  0.000  0.000  0.000  0.506
 
band   5 # energy    1.72546859 # occ.  1.00000000
 
ion      s     py     pz     px    dxy    dyz    dz2    dxz    dx2    tot
  1  0.000  0.052  0.000  0.156  0.000  0.000  0.000  0.000  0.000  0.207
  2  0.000  0.052  0.000  0.156  0.000  0.000  0.000  0.000  0.000  0.208
  3  0.000  0.052  0.000  0.156  0.000  0.000  0.000  0.000  0.000  0.208
  4  0.000  0.052  0.000  0.155  0.000  0.000  0.000  0.000  0.000  0.207
tot  0.000  0.208  0.000  0.623  0.000  0.000  0.000  0.000  0.000  0.831
 
band   6 # energy    1.72548825 # occ.  1.00000000
 
ion      s     py     pz     px    dxy    dyz    dz2    dxz    dx2    tot
  1  0.000  0.156  0.000  0.052  0.000  0.000  0.000  0.000  0.000  0.207
  2  0.000  0.156  0.000  0.052  0.000  0.000  0.000  0.000  0.000  0.208
  3  0.000  0.156  0.000  0.052  0.000  0.000  0.000  0.000  0.000  0.208
  4  0.000  0.155  0.000  0.052  0.000  0.000  0.000  0.000  0.000  0.207
tot  0.000  0.623  0.000  0.208  0.000  0.000  0.000  0.000  0.000  0.831
 
band   7 # energy    1.73019741 # occ.  1.00000000
 
ion      s     py     pz     px    dxy    dyz    dz2    dxz    dx2    tot
  1  0.000  0.052  0.000  0.156  0.000  0.000  0.000  0.000  0.000  0.208
  2  0.000  0.052  0.000  0.156  0.000  0.000  0.000  0.000  0.000  0.208
  3  0.000  0.052  0.000  0.156  0.000  0.000  0.000  0.000  0.000  0.208
  4  0.000  0.052  0.000  0.156  0.000  0.000  0.000  0.000  0.000  0.208
tot  0.000  0.208  0.000  0.623  0.000  0.000  0.000  0.000  0.000  0.831
 
band   8 # energy    1.73021769 # occ.  1.00000000
 
ion      s     py     pz     px    dxy    dyz    dz2    dxz    dx2    tot
  1  0.000  0.156  0.000  0.052  0.000  0.000  0.000  0.000  0.000  0.208
  2  0.000  0.156  0.000  0.052  0.000  0.000  0.000  0.000  0.000  0.208
  3  0.000  0.156  0.000  0.052  0.000  0.000  0.000  0.000  0.000  0.208
  4  0.000  0.156  0.000  0.052  0.000  0.000  0.000  0.000  0.000  0.208
tot  0.000  0.623  0.000  0.208  0.000  0.000  0.000  0.000  0.000  0.831
 
band   9 # energy    8.98699321 # occ.  0.00000000
 
ion      s     py     pz     px    dxy    dyz    dz2    dxz    dx2    tot
  1  0.021  0.000  0.000  0.000  0.000  0.000  0.000  0.000  0.000  0.021
  2  0.020  0.000  0.000  0.000  0.000  0.000  0.000  0.000  0.000  0.020
  3  0.020  0.000  0.000  0.000  0.000  0.000  0.000  0.000  0.000  0.020
  4  0.021  0.000  0.000  0.000  0.000  0.000  0.000  0.000  0.000  0.021
tot  0.082  0.000  0.000  0.000  0.000  0.000  0.000  0.000  0.000  0.082
 
band  10 # energy   13.14502471 # occ.  0.00000000
 
ion      s     py     pz     px    dxy    dyz    dz2    dxz    dx2    tot
  1  0.000  0.033  0.000  0.098  0.000  0.000  0.000  0.000  0.000  0.131
  2  0.000  0.033  0.000  0.099  0.000  0.000  0.000  0.000  0.000  0.132
  3  0.000  0.033  0.000  0.099  0.000  0.000  0.000  0.000  0.000  0.132
  4  0.000  0.033  0.000  0.098  0.000  0.000  0.000  0.000  0.000  0.131
tot  0.000  0.132  0.000  0.395  0.000  0.000  0.000  0.000  0.000  0.526
 
band  11 # energy   13.14503418 # occ.  0.00000000
 
ion      s     py     pz     px    dxy    dyz    dz2    dxz    dx2    tot
  1  0.000  0.098  0.000  0.033  0.000  0.000  0.000  0.000  0.000  0.131
  2  0.000  0.099  0.000  0.033  0.000  0.000  0.000  0.000  0.000  0.132
  3  0.000  0.099  0.000  0.033  0.000  0.000  0.000  0.000  0.000  0.132
  4  0.000  0.098  0.000  0.033  0.000  0.000  0.000  0.000  0.000  0.131
tot  0.000  0.395  0.000  0.132  0.000  0.000  0.000  0.000  0.000  0.526
 
band  12 # energy   13.20811212 # occ.  0.00000000
 
ion      s     py     pz     px    dxy    dyz    dz2    dxz    dx2    tot
  1  0.000  0.033  0.000  0.100  0.000  0.000  0.000  0.000  0.000  0.134
  2  0.000  0.033  0.000  0.098  0.000  0.000  0.000  0.000  0.000  0.131
  3  0.000  0.033  0.000  0.098  0.000  0.000  0.000  0.000  0.000  0.131
  4  0.000  0.033  0.000  0.100  0.000  0.000  0.000  0.000  0.000  0.134
tot  0.000  0.132  0.000  0.397  0.000  0.000  0.000  0.000  0.000  0.530
 
band  13 # energy   13.20812093 # occ.  0.00000000
 
ion      s     py     pz     px    dxy    dyz    dz2    dxz    dx2    tot
  1  0.000  0.100  0.000  0.033  0.000  0.000  0.000  0.000  0.000  0.134
  2  0.000  0.098  0.000  0.033  0.000  0.000  0.000  0.000  0.000  0.131
  3  0.000  0.098  0.000  0.033  0.000  0.000  0.000  0.000  0.000  0.131
  4  0.000  0.100  0.000  0.033  0.000  0.000  0.000  0.000  0.000  0.134
tot  0.000  0.397  0.000  0.132  0.000  0.000  0.000  0.000  0.000  0.530
 
band  14 # energy   15.32534376 # occ.  0.00000000
 
ion      s     py     pz     px    dxy    dyz    dz2    dxz    dx2    tot
  1  0.000  0.000  0.063  0.000  0.000  0.000  0.000  0.000  0.000  0.063
  2  0.000  0.000  0.089  0.000  0.000  0.000  0.000  0.000  0.000  0.089
  3  0.000  0.000  0.092  0.000  0.000  0.000  0.000  0.000  0.000  0.092
  4  0.000  0.000  0.061  0.000  0.000  0.000  0.000  0.000  0.000  0.061
tot  0.000  0.000  0.306  0.000  0.000  0.000  0.000  0.000  0.000  0.306
 

 k-point    2 :    0.07142857 0.00000000 0.00000000     weight = 0.00218659

band   1 # energy  -14.86329283 # occ.  1.00000000
 
ion      s     py     pz     px    dxy    dyz    dz2    dxz    dx2    tot
  1  0.158  0.000  0.000  0.001  0.000  0.000  0.000  0.000  0.000  0.159
  2  0.158  0.000  0.000  0.001  0.000  0.000  0.000  0.000  0.000  0.159
  3  0.158  0.000  0.000  0.001  0.000  0.000  0.000  0.000  0.000  0.159
  4  0.158  0.000  0.000  0.001  0.000  0.000  0.000  0.000  0.000  0.159
tot  0.633  0.001  0.000  0.004  0.000  0.000  0.000  0.000  0.000  0.638
 
band   2 # energy  -14.56617805 # occ.  1.00000000
 
ion      s     py     pz     px    dxy    dyz    dz2    dxz    dx2    tot
  1  0.164  0.000  0.000  0.001  0.000  0.000  0.000  0.000  0.000  0.165
  2  0.164  0.000  0.000  0.001  0.000  0.000  0.000  0.000  0.000  0.165
  3  0.164  0.000  0.000  0.001  0.000  0.000  0.000  0.000  0.000  0.165
  4  0.164  0.000  0.000  0.001  0.000  0.000  0.000  0.000  0.000  0.165
tot  0.655  0.001  0.000  0.004  0.000  0.000  0.000  0.000  0.000  0.660
 
band   3 # energy   -3.67343871 # occ.  1.00000000
 
ion      s     py     pz     px    dxy    dyz    dz2    dxz    dx2    tot
  1  0.000  0.000  0.097  0.000  0.000  0.000  0.000  0.000  0.000  0.097
  2  0.000  0.000  0.097  0.000  0.000  0.000  0.000  0.000  0.000  0.097
  3  0.000  0.000  0.097  0.000  0.000  0.000  0.000  0.000  0.000  0.097
  4  0.000  0.000  0.097  0.000  0.000  0.000  0.000  0.000  0.000  0.097
tot  0.000  0.000  0.388  0.000  0.000  0.000  0.000  0.000  0.000  0.388
 
band   4 # energy   -1.72808435 # occ.  1.00000000
 
ion      s     py     pz     px    dxy    dyz    dz2    dxz    dx2    tot
  1  0.000  0.000  0.127  0.000  0.000  0.000  0.000  0.000  0.000  0.127
  2  0.000  0.000  0.126  0.000  0.000  0.000  0.000  0.000  0.000  0.126
  3  0.000  0.000  0.126  0.000  0.000  0.000  0.000  0.000  0.000  0.126
  4  0.000  0.000  0.127  0.000  0.000  0.000  0.000  0.000  0.000  0.127
tot  0.000  0.000  0.507  0.000  0.000  0.000  0.000  0.000  0.000  0.507
 
band   5 # energy    1.21886443 # occ.  1.00000000
 
ion      s     py     pz     px    dxy    dyz    dz2    dxz    dx2    tot
  1  0.007  0.049  0.000  0.148  0.000  0.000  0.000  0.000  0.000  0.204
  2  0.006  0.050  0.000  0.149  0.000  0.000  0.000  0.000  0.000  0.205
  3  0.006  0.050  0.000  0.149  0.000  0.000  0.000  0.000  0.000  0.205
  4  0.007  0.049  0.000  0.148  0.000  0.000  0.000  0.000  0.000  0.204
tot  0.026  0.198  0.000  0.594  0.000  0.000  0.000  0.000  0.000  0.818
 
band   6 # energy    1.24533072 # occ.  1.00000000
 
ion      s     py     pz     px    dxy    dyz    dz2    dxz    dx2    tot
  1  0.007  0.050  0.000  0.149  0.000  0.000  0.000  0.000  0.000  0.205
  2  0.007  0.050  0.000  0.149  0.000  0.000  0.000  0.000  0.000  0.206
  3  0.007  0.050  0.000  0.149  0.000  0.000  0.000  0.000  0.000  0.206
  4  0.007  0.050  0.000  0.149  0.000  0.000  0.000  0.000  0.000  0.205
tot  0.027  0.199  0.000  0.596  0.000  0.000  0.000  0.000  0.000  0.822
 
band   7 # energy    1.44902212 # occ.  1.00000000
 
ion      s     py     pz     px    dxy    dyz    dz2    dxz    dx2    tot
  1  0.000  0.154  0.000  0.051  0.000  0.000  0.000  0.000  0.000  0.205
  2  0.000  0.154  0.000  0.051  0.000  0.000  0.000  0.000  0.000  0.206
  3  0.000  0.154  0.000  0.051  0.000  0.000  0.000  0.000  0.000  0.206
  4  0.000  0.154  0.000  0.051  0.000  0.000  0.000  0.000  0.000  0.205
tot  0.000  0.617  0.000  0.206  0.000  0.000  0.000  0.000  0.000  0.823
 
band   8 # energy    1.47814584 # occ.  1.00000000
 
ion      s     py     pz     px    dxy    dyz    dz2    dxz    dx2    tot
  1  0.000  0.155  0.000  0.052  0.000  0.000  0.000  0.000  0.000  0.206
  2  0.000  0.155  0.000  0.052  0.000  0.000  0.000  0.000  0.000  0.207
  3  0.000  0.155  0.000  0.052  0.000  0.000  0.000  0.000  0.000  0.207
  4  0.000  0.155  0.000  0.052  0.000  0.000  0.000  0.000  0.000  0.206
tot  0.000  0.619  0.000  0.206  0.000  0.000  0.000  0.000  0.000  0.826
 
band   9 # energy    9.13407131 # occ.  0.00000000
 
ion      s     py     pz     px    dxy    dyz    dz2    dxz    dx2    tot
  1  0.020  0.000  0.000  0.001  0.000  0.000  0.000  0.000  0.000  0.021
  2  0.020  0.000  0.000  0.001  0.000  0.000  0.000  0.000  0.000  0.021
  3  0.020  0.000  0.000  0.001  0.000  0.000  0.000  0.000  0.000  0.021
  4  0.020  0.000  0.000  0.001  0.000  0.000  0.000  0.000  0.000  0.021
tot  0.080  0.001  0.000  0.003  0.000  0.000  0.000  0.000  0.000  0.083
 
band  10 # energy   13.17934207 # occ.  0.00000000
 
ion      s     py     pz     px    dxy    dyz    dz2    dxz    dx2    tot
  1  0.004  0.031  0.000  0.092  0.000  0.000  0.000  0.000  0.000  0.127
  2  0.004  0.032  0.000  0.095  0.000  0.000  0.000  0.000  0.000  0.131
  3  0.004  0.032  0.000  0.095  0.000  0.000  0.000  0.000  0.000  0.131
  4  0.004  0.031  0.000  0.092  0.000  0.000  0.000  0.000  0.000  0.127
tot  0.017  0.125  0.000  0.374  0.000  0.000  0.000  0.000  0.000  0.515
 
band  11 # energy   13.24734620 # occ.  0.00000000
 
ion      s     py     pz     px    dxy    dyz    dz2    dxz    dx2    tot
  1  0.005  0.032  0.000  0.096  0.000  0.000  0.000  0.000  0.000  0.132
  2  0.005  0.031  0.000  0.092  0.000  0.000  0.000  0.000  0.000  0.128
  3  0.005  0.031  0.000  0.092  0.000  0.000  0.000  0.000  0.000  0.128
  4  0.005  0.032  0.000  0.096  0.000  0.000  0.000  0.000  0.000  0.132
tot  0.020  0.125  0.000  0.376  0.000  0.000  0.000  0.000  0.000  0.520
 
band  12 # energy   13.66240784 # occ.  0.00000000
 
ion      s     py     pz     px    dxy    dyz    dz2    dxz    dx2    tot
  1  0.000  0.100  0.000  0.033  0.000  0.000  0.000  0.000  0.000  0.133
  2  0.000  0.101  0.000  0.034  0.000  0.000  0.000  0.000  0.000  0.135
  3  0.000  0.101  0.000  0.034  0.000  0.000  0.000  0.000  0.000  0.135
  4  0.000  0.100  0.000  0.033  0.000  0.000  0.000  0.000  0.000  0.133
tot  0.000  0.401  0.000  0.134  0.000  0.000  0.000  0.000  0.000  0.535
 
band  13 # energy   13.70578900 # occ.  0.00000000
 
ion      s     py     pz     px    dxy    dyz    dz2    dxz    dx2    tot
  1  0.000  0.102  0.000  0.034  0.000  0.000  0.000  0.000  0.000  0.136
  2  0.000  0.100  0.000  0.033  0.000  0.000  0.000  0.000  0.000  0.133
  3  0.000  0.100  0.000  0.033  0.000  0.000  0.000  0.000  0.000  0.133
  4  0.000  0.102  0.000  0.034  0.000  0.000  0.000  0.000  0.000  0.136
tot  0.000  0.404  0.000  0.135  0.000  0.000  0.000  0.000  0.000  0.538
 
band  14 # energy   15.43697058 # occ.  0.00000000
 
ion      s     py     pz     px    dxy    dyz    dz2    dxz    dx2    tot
  1  0.000  0.000  0.023  0.000  0.000  0.000  0.000  0.000  0.000  0.023
  2  0.000  0.000  0.146  0.000  0.000  0.000  0.000  0.000  0.000  0.146
  3  0.000  0.000  0.141  0.000  0.000  0.000  0.000  0.000  0.000  0.141
  4  0.000  0.000  0.025  0.000  0.000  0.000  0.000  0.000  0.000  0.025
tot  0.000  0.000  0.334  0.000  0.000  0.000  0.000  0.000  0.000  0.334
 

 k-point    3 :    0.14285714 0.00000000 0.00000000     weight = 0.00218659

band   1 # energy  -14.49781806 # occ.  1.00000000
 
ion      s     py     pz     px    dxy    dyz    dz2    dxz    dx2    tot
  1  0.155  0.001  0.000  0.004  0.000  0.000  0.000  0.000  0.000  0.160
  2  0.155  0.001  0.000  0.004  0.000  0.000  0.000  0.000  0.000  0.160
  3  0.155  0.001  0.000  0.004  0.000  0.000  0.000  0.000  0.000  0.160
  4  0.155  0.001  0.000  0.004  0.000  0.000  0.000  0.000  0.000  0.160
tot  0.621  0.005  0.000  0.015  0.000  0.000  0.000  0.000  0.000  0.641
 
band   2 # energy  -14.20707632 # occ.  1.00000000
 
ion      s     py     pz     px    dxy    dyz    dz2    dxz    dx2    tot
  1  0.160  0.001  0.000  0.004  0.000  0.000  0.000  0.000  0.000  0.166
  2  0.160  0.001  0.000  0.004  0.000  0.000  0.000  0.000  0.000  0.166
  3  0.160  0.001  0.000  0.004  0.000  0.000  0.000  0.000  0.000  0.166
  4  0.160  0.001  0.000  0.004  0.000  0.000  0.000  0.000  0.000  0.166
tot  0.641  0.005  0.000  0.016  0.000  0.000  0.000  0.000  0.000  0.662
 
band   3 # energy   -3.22963341 # occ.  1.00000000
 
ion      s     py     pz     px    dxy    dyz    dz2    dxz    dx2    tot
  1  0.000  0.000  0.097  0.000  0.000  0.000  0.000  0.000  0.000  0.097
  2  0.000  0.000  0.098  0.000  0.000  0.000  0.000  0.000  0.000  0.098
  3  0.000  0.000  0.098  0.000  0.000  0.000  0.000  0.000  0.000  0.098
  4  0.000  0.000  0.097  0.000  0.000  0.000  0.000  0.000  0.000  0.097
tot  0.000  0.000  0.391  0.000  0.000  0.000  0.000  0.000  0.000  0.391
 
band   4 # energy   -1.31495253 # occ.  1.00000000
 
ion      s     py     pz     px    dxy    dyz    dz2    dxz    dx2    tot
  1  0.000  0.000  0.128  0.000  0.000  0.000  0.000  0.000  0.000  0.128
  2  0.000  0.000  0.127  0.000  0.000  0.000  0.000  0.000  0.000  0.127
  3  0.000  0.000  0.127  0.000  0.000  0.000  0.000  0.000  0.000  0.127
  4  0.000  0.000  0.128  0.000  0.000  0.000  0.000  0.000  0.000  0.128
tot  0.000  0.000  0.509  0.000  0.000  0.000  0.000  0.000  0.000  0.509
 
band   5 # energy   -0.07036365 # occ.  1.00000000
 
ion      s     py     pz     px    dxy    dyz    dz2    dxz    dx2    tot
  1  0.023  0.044  0.000  0.132  0.000  0.000  0.000  0.000  0.000  0.199
  2  0.022  0.044  0.000  0.133  0.000  0.000  0.000  0.000  0.000  0.199
  3  0.022  0.044  0.000  0.133  0.000  0.000  0.000  0.000  0.000  0.199
  4  0.023  0.044  0.000  0.132  0.000  0.000  0.000  0.000  0.000  0.199
tot  0.090  0.176  0.000  0.529  0.000  0.000  0.000  0.000  0.000  0.795
 
band   6 # energy   -0.01804015 # occ.  1.00000000
 
ion      s     py     pz     px    dxy    dyz    dz2    dxz    dx2    tot
  1  0.023  0.044  0.000  0.133  0.000  0.000  0.000  0.000  0.000  0.200
  2  0.023  0.044  0.000  0.133  0.000  0.000  0.000  0.000  0.000  0.201
  3  0.023  0.044  0.000  0.133  0.000  0.000  0.000  0.000  0.000  0.201
  4  0.023  0.044  0.000  0.133  0.000  0.000  0.000  0.000  0.000  0.200
tot  0.092  0.178  0.000  0.533  0.000  0.000  0.000  0.000  0.000  0.803
 
band   7 # energy    0.81013800 # occ.  1.00000000
 
ion      s     py     pz     px    dxy    dyz    dz2    dxz    dx2    tot
  1  0.000  0.152  0.000  0.051  0.000  0.000  0.000  0.000  0.000  0.202
  2  0.000  0.152  0.000  0.051  0.000  0.000  0.000  0.000  0.000  0.203
  3  0.000  0.152  0.000  0.051  0.000  0.000  0.000  0.000  0.000  0.203
  4  0.000  0.152  0.000  0.051  0.000  0.000  0.000  0.000  0.000  0.202
tot  0.000  0.607  0.000  0.202  0.000  0.000  0.000  0.000  0.000  0.810
 
band   8 # energy    0.85106775 # occ.  1.00000000
 
ion      s     py     pz     px    dxy    dyz    dz2    dxz    dx2    tot
  1  0.000  0.152  0.000  0.051  0.000  0.000  0.000  0.000  0.000  0.203
  2  0.000  0.153  0.000  0.051  0.000  0.000  0.000  0.000  0.000  0.204
  3  0.000  0.153  0.000  0.051  0.000  0.000  0.000  0.000  0.000  0.204
  4  0.000  0.152  0.000  0.051  0.000  0.000  0.000  0.000  0.000  0.203
tot  0.000  0.610  0.000  0.203  0.000  0.000  0.000  0.000  0.000  0.814
 
band   9 # energy    9.57859416 # occ.  0.00000000
 
ion      s     py     pz     px    dxy    dyz    dz2    dxz    dx2    tot
  1  0.018  0.001  0.000  0.002  0.000  0.000  0.000  0.000  0.000  0.021
  2  0.018  0.001  0.000  0.002  0.000  0.000  0.000  0.000  0.000  0.021
  3  0.018  0.001  0.000  0.002  0.000  0.000  0.000  0.000  0.000  0.021
  4  0.018  0.001  0.000  0.002  0.000  0.000  0.000  0.000  0.000  0.021
tot  0.072  0.003  0.000  0.009  0.000  0.000  0.000  0.000  0.000  0.084
 
band  10 # energy   13.14363348 # occ.  0.00000000
 
ion      s     py     pz     px    dxy    dyz    dz2    dxz    dx2    tot
  1  0.022  0.025  0.000  0.074  0.000  0.000  0.000  0.000  0.000  0.120
  2  0.023  0.025  0.000  0.076  0.000  0.000  0.000  0.000  0.000  0.125
  3  0.023  0.025  0.000  0.076  0.000  0.000  0.000  0.000  0.000  0.125
  4  0.022  0.025  0.000  0.074  0.000  0.000  0.000  0.000  0.000  0.120
tot  0.091  0.100  0.000  0.300  0.000  0.000  0.000  0.000  0.000  0.491
 
band  11 # energy   13.27661083 # occ.  0.00000000
 
ion      s     py     pz     px    dxy    dyz    dz2    dxz    dx2    tot
  1  0.025  0.026  0.000  0.078  0.000  0.000  0.000  0.000  0.000  0.128
  2  0.024  0.025  0.000  0.074  0.000  0.000  0.000  0.000  0.000  0.123
  3  0.024  0.025  0.000  0.074  0.000  0.000  0.000  0.000  0.000  0.123
  4  0.025  0.026  0.000  0.078  0.000  0.000  0.000  0.000  0.000  0.128
tot  0.098  0.101  0.000  0.304  0.000  0.000  0.000  0.000  0.000  0.503
 
band  12 # energy   14.54373223 # occ.  0.00000000
 
ion      s     py     pz     px    dxy    dyz    dz2    dxz    dx2    tot
  1  0.000  0.000  0.155  0.000  0.000  0.000  0.000  0.000  0.000  0.155
  2  0.000  0.000  0.188  0.000  0.000  0.000  0.000  0.000  0.000  0.188
  3  0.000  0.000  0.192  0.000  0.000  0.000  0.000  0.000  0.000  0.192
  4  0.000  0.000  0.159  0.000  0.000  0.000  0.000  0.000  0.000  0.159
tot  0.000  0.000  0.693  0.000  0.000  0.000  0.000  0.000  0.000  0.693
 
band  13 # energy   15.08187542 # occ.  0.00000000
 
ion      s     py     pz     px    dxy    dyz    dz2    dxz    dx2    tot
  1  0.000  0.135  0.009  0.045  0.000  0.000  0.000  0.000  0.000  0.189
  2  0.000  0.136  0.009  0.045  0.000  0.000  0.000  0.000  0.000  0.190
  3  0.000  0.063  0.009  0.021  0.000  0.000  0.000  0.000  0.000  0.093
  4  0.000  0.062  0.010  0.021  0.000  0.000  0.000  0.000  0.000  0.092
tot  0.000  0.396  0.037  0.132  0.000  0.000  0.000  0.000  0.000  0.565
 
band  14 # energy   15.11257157 # occ.  0.00000000
 
ion      s     py     pz     px    dxy    dyz    dz2    dxz    dx2    tot
  1  0.000  0.057  0.009  0.019  0.000  0.000  0.000  0.000  0.000  0.085
  2  0.000  0.056  0.008  0.019  0.000  0.000  0.000  0.000  0.000  0.083
  3  0.000  0.143  0.008  0.047  0.000  0.000  0.000  0.000  0.000  0.198
  4  0.000  0.144  0.009  0.048  0.000  0.000  0.000  0.000  0.000  0.201
tot  0.000  0.399  0.034  0.133  0.000  0.000  0.000  0.000  0.000  0.567
 

 k-point    4 :    0.21428571 0.00000000 0.00000000     weight = 0.00218659

band   1 # energy  -13.89183076 # occ.  1.00000000
 
ion      s     py     pz     px    dxy    dyz    dz2    dxz    dx2    tot
  1  0.150  0.003  0.000  0.008  0.000  0.000  0.000  0.000  0.000  0.161
  2  0.151  0.003  0.000  0.008  0.000  0.000  0.000  0.000  0.000  0.162
  3  0.151  0.003  0.000  0.008  0.000  0.000  0.000  0.000  0.000  0.162
  4  0.150  0.003  0.000  0.008  0.000  0.000  0.000  0.000  0.000  0.161
tot  0.602  0.011  0.000  0.034  0.000  0.000  0.000  0.000  0.000  0.647
 
band   2 # energy  -13.61197207 # occ.  1.00000000
 
ion      s     py     pz     px    dxy    dyz    dz2    dxz    dx2    tot
  1  0.155  0.003  0.000  0.009  0.000  0.000  0.000  0.000  0.000  0.167
  2  0.155  0.003  0.000  0.009  0.000  0.000  0.000  0.000  0.000  0.167
  3  0.155  0.003  0.000  0.009  0.000  0.000  0.000  0.000  0.000  0.167
  4  0.155  0.003  0.000  0.009  0.000  0.000  0.000  0.000  0.000  0.167
tot  0.621  0.012  0.000  0.035  0.000  0.000  0.000  0.000  0.000  0.667
 
band   3 # energy   -2.49862344 # occ.  1.00000000
 
ion      s     py     pz     px    dxy    dyz    dz2    dxz    dx2    tot
  1  0.000  0.000  0.099  0.000  0.000  0.000  0.000  0.000  0.000  0.099
  2  0.000  0.000  0.100  0.000  0.000  0.000  0.000  0.000  0.000  0.100
  3  0.000  0.000  0.100  0.000  0.000  0.000  0.000  0.000  0.000  0.100
  4  0.000  0.000  0.099  0.000  0.000  0.000  0.000  0.000  0.000  0.099
tot  0.000  0.000  0.396  0.000  0.000  0.000  0.000  0.000  0.000  0.396
 
band   4 # energy   -1.79773375 # occ.  1.00000000
 
ion      s     py     pz     px    dxy    dyz    dz2    dxz    dx2    tot
  1  0.041  0.038  0.000  0.114  0.000  0.000  0.000  0.000  0.000  0.192
  2  0.040  0.038  0.000  0.114  0.000  0.000  0.000  0.000  0.000  0.193
  3  0.040  0.038  0.000  0.114  0.000  0.000  0.000  0.000  0.000  0.193
  4  0.041  0.038  0.000  0.114  0.000  0.000  0.000  0.000  0.000  0.192
tot  0.162  0.152  0.000  0.456  0.000  0.000  0.000  0.000  0.000  0.769
 
band   5 # energy   -1.71657289 # occ.  1.00000000
 
ion      s     py     pz     px    dxy    dyz    dz2    dxz    dx2    tot
  1  0.042  0.038  0.000  0.115  0.000  0.000  0.000  0.000  0.000  0.195
  2  0.042  0.038  0.000  0.115  0.000  0.000  0.000  0.000  0.000  0.195
  3  0.042  0.038  0.000  0.115  0.000  0.000  0.000  0.000  0.000  0.195
  4  0.042  0.038  0.000  0.115  0.000  0.000  0.000  0.000  0.000  0.195
tot  0.167  0.154  0.000  0.461  0.000  0.000  0.000  0.000  0.000  0.781
 
band   6 # energy   -0.63831617 # occ.  1.00000000
 
ion      s     py     pz     px    dxy    dyz    dz2    dxz    dx2    tot
  1  0.000  0.000  0.129  0.000  0.000  0.000  0.000  0.000  0.000  0.129
  2  0.000  0.000  0.128  0.000  0.000  0.000  0.000  0.000  0.000  0.128
  3  0.000  0.000  0.128  0.000  0.000  0.000  0.000  0.000  0.000  0.128
  4  0.000  0.000  0.129  0.000  0.000  0.000  0.000  0.000  0.000  0.129
tot  0.000  0.000  0.514  0.000  0.000  0.000  0.000  0.000  0.000  0.514
 
band   7 # energy    0.04235258 # occ.  1.00000000
 
ion      s     py     pz     px    dxy    dyz    dz2    dxz    dx2    tot
  1  0.000  0.150  0.000  0.050  0.000  0.000  0.000  0.000  0.000  0.200
  2  0.000  0.150  0.000  0.050  0.000  0.000  0.000  0.000  0.000  0.200
  3  0.000  0.150  0.000  0.050  0.000  0.000  0.000  0.000  0.000  0.200
  4  0.000  0.150  0.000  0.050  0.000  0.000  0.000  0.000  0.000  0.200
tot  0.000  0.600  0.000  0.200  0.000  0.000  0.000  0.000  0.000  0.800
 
band   8 # energy    0.09171879 # occ.  1.00000000
 
ion      s     py     pz     px    dxy    dyz    dz2    dxz    dx2    tot
  1  0.000  0.151  0.000  0.050  0.000  0.000  0.000  0.000  0.000  0.201
  2  0.000  0.151  0.000  0.050  0.000  0.000  0.000  0.000  0.000  0.201
  3  0.000  0.151  0.000  0.050  0.000  0.000  0.000  0.000  0.000  0.201
  4  0.000  0.151  0.000  0.050  0.000  0.000  0.000  0.000  0.000  0.201
tot  0.000  0.603  0.000  0.201  0.000  0.000  0.000  0.000  0.000  0.804
 
band   9 # energy   10.31901780 # occ.  0.00000000
 
ion      s     py     pz     px    dxy    dyz    dz2    dxz    dx2    tot
  1  0.015  0.002  0.000  0.005  0.000  0.000  0.000  0.000  0.000  0.022
  2  0.015  0.002  0.000  0.005  0.000  0.000  0.000  0.000  0.000  0.021
  3  0.015  0.002  0.000  0.005  0.000  0.000  0.000  0.000  0.000  0.021
  4  0.015  0.002  0.000  0.005  0.000  0.000  0.000  0.000  0.000  0.022
tot  0.060  0.007  0.000  0.020  0.000  0.000  0.000  0.000  0.000  0.087
 
band  10 # energy   12.76470253 # occ.  0.00000000
 
ion      s     py     pz     px    dxy    dyz    dz2    dxz    dx2    tot
  1  0.000  0.000  0.144  0.000  0.000  0.000  0.000  0.000  0.000  0.144
  2  0.000  0.000  0.166  0.000  0.000  0.000  0.000  0.000  0.000  0.166
  3  0.000  0.000  0.166  0.000  0.000  0.000  0.000  0.000  0.000  0.166
  4  0.000  0.000  0.144  0.000  0.000  0.000  0.000  0.000  0.000  0.144
tot  0.000  0.000  0.619  0.000  0.000  0.000  0.000  0.000  0.000  0.619
 
band  11 # energy   12.89534253 # occ.  0.00000000
 
ion      s     py     pz     px    dxy    dyz    dz2    dxz    dx2    tot
  1  0.045  0.017  0.000  0.051  0.000  0.000  0.000  0.000  0.000  0.113
  2  0.050  0.018  0.000  0.053  0.000  0.000  0.000  0.000  0.000  0.121
  3  0.050  0.018  0.000  0.053  0.000  0.000  0.000  0.000  0.000  0.121
  4  0.045  0.017  0.000  0.051  0.000  0.000  0.000  0.000  0.000  0.113
tot  0.190  0.070  0.000  0.209  0.000  0.000  0.000  0.000  0.000  0.469
 
band  12 # energy   13.14876824 # occ.  0.00000000
 
ion      s     py     pz     px    dxy    dyz    dz2    dxz    dx2    tot
  1  0.053  0.018  0.000  0.053  0.000  0.000  0.000  0.000  0.000  0.124
  2  0.049  0.017  0.000  0.051  0.000  0.000  0.000  0.000  0.000  0.117
  3  0.049  0.017  0.000  0.051  0.000  0.000  0.000  0.000  0.000  0.117
  4  0.053  0.018  0.000  0.053  0.000  0.000  0.000  0.000  0.000  0.124
tot  0.203  0.070  0.000  0.209  0.000  0.000  0.000  0.000  0.000  0.482
 
band  13 # energy   13.30540928 # occ.  0.00000000
 
ion      s     py     pz     px    dxy    dyz    dz2    dxz    dx2    tot
  1  0.000  0.000  0.176  0.000  0.000  0.000  0.000  0.000  0.000  0.176
  2  0.000  0.000  0.161  0.000  0.000  0.000  0.000  0.000  0.000  0.161
  3  0.000  0.000  0.161  0.000  0.000  0.000  0.000  0.000  0.000  0.161
  4  0.000  0.000  0.176  0.000  0.000  0.000  0.000  0.000  0.000  0.176
tot  0.000  0.000  0.675  0.000  0.000  0.000  0.000  0.000  0.000  0.675
 
band  14 # energy   16.32504941 # occ.  0.00000000
 
ion      s     py     pz     px    dxy    dyz    dz2    dxz    dx2    tot
  1  0.000  0.000  0.086  0.000  0.000  0.000  0.000  0.000  0.000  0.086
  2  0.000  0.000  0.071  0.000  0.000  0.000  0.000  0.000  0.000  0.071
  3  0.000  0.000  0.071  0.000  0.000  0.000  0.000  0.000  0.000  0.071
  4  0.000  0.000  0.086  0.000  0.000  0.000  0.000  0.000  0.000  0.086
tot  0.000  0.000  0.314  0.000  0.000  0.000  0.000  0.000  0.000  0.314
 

 k-point    5 :    0.28571429 0.00000000 0.00000000     weight = 0.00218659

band   1 # energy  -13.05140174 # occ.  1.00000000
 
ion      s     py     pz     px    dxy    dyz    dz2    dxz    dx2    tot
  1  0.144  0.005  0.000  0.015  0.000  0.000  0.000  0.000  0.000  0.164
  2  0.144  0.005  0.000  0.015  0.000  0.000  0.000  0.000  0.000  0.164
  3  0.144  0.005  0.000  0.015  0.000  0.000  0.000  0.000  0.000  0.164
  4  0.144  0.005  0.000  0.015  0.000  0.000  0.000  0.000  0.000  0.164
tot  0.577  0.020  0.000  0.059  0.000  0.000  0.000  0.000  0.000  0.655
 
band   2 # energy  -12.78709001 # occ.  1.00000000
 
ion      s     py     pz     px    dxy    dyz    dz2    dxz    dx2    tot
  1  0.149  0.005  0.000  0.015  0.000  0.000  0.000  0.000  0.000  0.169
  2  0.149  0.005  0.000  0.015  0.000  0.000  0.000  0.000  0.000  0.169
  3  0.149  0.005  0.000  0.015  0.000  0.000  0.000  0.000  0.000  0.169
  4  0.149  0.005  0.000  0.015  0.000  0.000  0.000  0.000  0.000  0.169
tot  0.596  0.020  0.000  0.061  0.000  0.000  0.000  0.000  0.000  0.677
 
band   3 # energy   -3.69987038 # occ.  1.00000000
 
ion      s     py     pz     px    dxy    dyz    dz2    dxz    dx2    tot
  1  0.058  0.032  0.000  0.096  0.000  0.000  0.000  0.000  0.000  0.186
  2  0.058  0.032  0.000  0.097  0.000  0.000  0.000  0.000  0.000  0.187
  3  0.058  0.032  0.000  0.097  0.000  0.000  0.000  0.000  0.000  0.187
  4  0.058  0.032  0.000  0.096  0.000  0.000  0.000  0.000  0.000  0.186
tot  0.232  0.129  0.000  0.386  0.000  0.000  0.000  0.000  0.000  0.746
 
band   4 # energy   -3.58136294 # occ.  1.00000000
 