<?xml version="1.0" encoding="ISO-8859-1"?>
<modeling>
 <generator>
  <i name="program" type="string">vasp </i>
  <i name="version" type="string">5.2.12  </i>
  <i name="subversion" type="string">11Nov11 complex                                                      parallel </i>
  <i name="platform" type="string">LinuxIFC </i>
  <i name="date" type="string">2012 10 17 </i>
  <i name="time" type="string">09:39:31 </i>
 </generator>
 <incar>
  <i type="string" name="PREC">accurate</i>
  <i type="int" name="ISPIN">     2</i>
  <i name="ENCUT">    350.00000000</i>
  <i type="logical" name="LREAL"> F  </i>
  <i type="int" name="ISMEAR">     1</i>
  <i name="SIGMA">      0.05000000</i>
  <i type="logical" name="LORBIT"> F  </i>
 </incar>
 <kpoints>
  <generation param="Gamma">
   <v type="int" name="divisions">      14       14       14 </v>
   <v name="usershift">      0.00000000       0.00000000       0.00000000 </v>
   <v name="genvec1">      0.07142857       0.00000000       0.00000000 </v>
   <v name="genvec2">      0.00000000       0.07142857       0.00000000 </v>
   <v name="genvec3">      0.00000000       0.00000000       0.07142857 </v>
   <v name="shift">      0.00000000       0.00000000       0.00000000 </v>
  </generation>
  <varray name="kpointlist" >
   <v>       0.00000000       0.00000000       0.00000000 </v>
   <v>       0.07142857       0.00000000       0.00000000 </v>
   <v>       0.14285714       0.00000000       0.00000000 </v>
   <v>       0.21428571       0.00000000       0.00000000 </v>
   <v>       0.28571429       0.00000000       0.00000000 </v>
   <v>       0.35714286       0.00000000       0.00000000 </v>
   <v>       0.42857143       0.00000000       0.00000000 </v>
   <v>       0.50000000       0.00000000       0.00000000 </v>
   <v>       0.07142857       0.07142857       0.00000000 </v>
   <v>       0.14285714       0.07142857       0.00000000 </v>
   <v>       0.21428571       0.07142857       0.00000000 </v>
   <v>       0.28571429       0.07142857       0.00000000 </v>
   <v>       0.35714286       0.07142857       0.00000000 </v>
   <v>       0.42857143       0.07142857       0.00000000 </v>
   <v>       0.14285714       0.14285714       0.00000000 </v>
   <v>       0.21428571       0.14285714       0.00000000 </v>
   <v>       0.28571429       0.14285714       0.00000000 </v>
   <v>       0.35714286       0.14285714       0.00000000 </v>
   <v>       0.42857143       0.14285714       0.00000000 </v>
   <v>       0.21428571       0.21428571       0.00000000 </v>
   <v>       0.28571429       0.21428571       0.00000000 </v>
   <v>       0.35714286       0.21428571       0.00000000 </v>
   <v>       0.28571429       0.28571429       0.00000000 </v>
   <v>       0.35714286       0.28571429       0.00000000 </v>
   <v>       0.00000000       0.00000000       0.07142857 </v>
   <v>       0.07142857       0.00000000       0.07142857 </v>
   <v>       0.14285714       0.00000000       0.07142857 </v>
   <v>       0.21428571       0.00000000       0.07142857 </v>
   <v>       0.28571429       0.00000000       0.07142857 </v>
   <v>       0.35714286       0.00000000       0.07142857 </v>
   <v>       0.42857143       0.00000000       0.07142857 </v>
   <v>       0.50000000       0.00000000       0.07142857 </v>
   <v>       0.07142857       0.07142857       0.07142857 </v>
   <v>       0.14285714       0.07142857       0.07142857 </v>
   <v>       0.21428571       0.07142857       0.07142857 </v>
   <v>       0.28571429       0.07142857       0.07142857 </v>
   <v>       0.35714286       0.07142857       0.07142857 </v>
   <v>       0.42857143       0.07142857       0.07142857 </v>
   <v>       0.14285714       0.14285714       0.07142857 </v>
   <v>       0.21428571       0.14285714       0.07142857 </v>
   <v>       0.28571429       0.14285714       0.07142857 </v>
   <v>       0.35714286       0.14285714       0.07142857 </v>
   <v>       0.42857143       0.14285714       0.07142857 </v>
   <v>       0.21428571       0.21428571       0.07142857 </v>
   <v>       0.28571429       0.21428571       0.07142857 </v>
   <v>       0.35714286       0.21428571       0.07142857 </v>
   <v>       0.28571429       0.28571429       0.07142857 </v>
   <v>       0.35714286       0.28571429       0.07142857 </v>
   <v>       0.00000000       0.00000000       0.14285714 </v>
   <v>       0.07142857       0.00000000       0.14285714 </v>
   <v>       0.14285714       0.00000000       0.14285714 </v>
   <v>       0.21428571       0.00000000       0.14285714 </v>
   <v>       0.28571429       0.00000000       0.14285714 </v>
   <v>       0.35714286       0.00000000       0.14285714 </v>
   <v>       0.42857143       0.00000000       0.14285714 </v>
   <v>       0.50000000       0.00000000       0.14285714 </v>
   <v>       0.07142857       0.07142857       0.14285714 </v>
   <v>       0.14285714       0.07142857       0.14285714 </v>
   <v>       0.21428571       0.07142857       0.14285714 </v>
   <v>       0.28571429       0.07142857       0.14285714 </v>
   <v>       0.35714286       0.07142857       0.14285714 </v>
   <v>       0.42857143       0.07142857       0.14285714 </v>
   <v>       0.14285714       0.14285714       0.14285714 </v>
   <v>       0.21428571       0.14285714       0.14285714 </v>
   <v>       0.28571429       0.14285714       0.14285714 </v>
   <v>       0.35714286       0.14285714       0.14285714 </v>
   <v>       0.42857143       0.14285714       0.14285714 </v>
   <v>       0.21428571       0.21428571       0.14285714 </v>
   <v>       0.28571429       0.21428571       0.14285714 </v>
   <v>       0.35714286       0.21428571       0.14285714 </v>
   <v>       0.28571429       0.28571429       0.14285714 </v>
   <v>       0.35714286       0.28571429       0.14285714 </v>
   <v>       0.00000000       0.00000000       0.21428571 </v>
   <v>       0.07142857       0.00000000       0.21428571 </v>
   <v>       0.14285714       0.00000000       0.21428571 </v>
   <v>       0.21428571       0.00000000       0.21428571 </v>
   <v>       0.28571429       0.00000000       0.21428571 </v>
   <v>       0.35714286       0.00000000       0.21428571 </v>
   <v>       0.42857143       0.00000000       0.21428571 </v>
   <v>       0.50000000       0.00000000       0.21428571 </v>
   <v>       0.07142857       0.07142857       0.21428571 </v>
   <v>       0.14285714       0.07142857       0.21428571 </v>
   <v>       0.21428571       0.07142857       0.21428571 </v>
   <v>       0.28571429       0.07142857       0.21428571 </v>
   <v>       0.35714286       0.07142857       0.21428571 </v>
   <v>       0.42857143       0.07142857       0.21428571 </v>
   <v>       0.14285714       0.14285714       0.21428571 </v>
   <v>       0.21428571       0.14285714       0.21428571 </v>
   <v>       0.28571429       0.14285714       0.21428571 </v>
   <v>       0.35714286       0.14285714       0.21428571 </v>
   <v>       0.42857143       0.14285714       0.21428571 </v>
   <v>       0.21428571       0.21428571       0.21428571 </v>
   <v>       0.28571429       0.21428571       0.21428571 </v>
   <v>       0.35714286       0.21428571       0.21428571 </v>
   <v>       0.28571429       0.28571429       0.21428571 </v>
   <v>       0.35714286       0.28571429       0.21428571 </v>
   <v>       0.00000000       0.00000000       0.28571429 </v>
   <v>       0.07142857       0.00000000       0.28571429 </v>
   <v>       0.14285714       0.00000000       0.28571429 </v>
   <v>       0.21428571       0.00000000       0.28571429 </v>
   <v>       0.28571429       0.00000000       0.28571429 </v>
   <v>       0.35714286       0.00000000       0.28571429 </v>
   <v>       0.42857143       0.00000000       0.28571429 </v>
   <v>       0.50000000       0.00000000       0.28571429 </v>
   <v>       0.07142857       0.07142857       0.28571429 </v>
   <v>       0.14285714       0.07142857       0.28571429 </v>
   <v>       0.21428571       0.07142857       0.28571429 </v>
   <v>       0.28571429       0.07142857       0.28571429 </v>
   <v>       0.35714286       0.07142857       0.28571429 </v>
   <v>       0.42857143       0.07142857       0.28571429 </v>
   <v>       0.14285714       0.14285714       0.28571429 </v>
   <v>       0.21428571       0.14285714       0.28571429 </v>
   <v>       0.28571429       0.14285714       0.28571429 </v>
   <v>       0.35714286       0.14285714       0.28571429 </v>
   <v>       0.42857143       0.14285714       0.28571429 </v>
   <v>       0.21428571       0.21428571       0.28571429 </v>
   <v>       0.28571429       0.21428571       0.28571429 </v>
   <v>       0.35714286       0.21428571       0.28571429 </v>
   <v>       0.28571429       0.28571429       0.28571429 </v>
   <v>       0.35714286       0.28571429       0.28571429 </v>
   <v>       0.00000000       0.00000000       0.35714286 </v>
   <v>       0.07142857       0.00000000       0.35714286 </v>
   <v>       0.14285714       0.00000000       0.35714286 </v>
   <v>       0.21428571       0.00000000       0.35714286 </v>
   <v>       0.28571429       0.00000000       0.35714286 </v>
   <v>       0.35714286       0.00000000       0.35714286 </v>
   <v>       0.42857143       0.00000000       0.35714286 </v>
   <v>       0.50000000       0.00000000       0.35714286 </v>
   <v>       0.07142857       0.07142857       0.35714286 </v>
   <v>       0.14285714       0.07142857       0.35714286 </v>
   <v>       0.21428571       0.07142857       0.35714286 </v>
   <v>       0.28571429       0.07142857       0.35714286 </v>
   <v>       0.35714286       0.07142857       0.35714286 </v>
   <v>       0.42857143       0.07142857       0.35714286 </v>
   <v>       0.14285714       0.14285714       0.35714286 </v>
   <v>       0.21428571       0.14285714       0.35714286 </v>
   <v>       0.28571429       0.14285714       0.35714286 </v>
   <v>       0.35714286       0.14285714       0.35714286 </v>
   <v>       0.42857143       0.14285714       0.35714286 </v>
   <v>       0.21428571       0.21428571       0.35714286 </v>
   <v>       0.28571429       0.21428571       0.35714286 </v>
   <v>       0.35714286       0.21428571       0.35714286 </v>
   <v>       0.28571429       0.28571429       0.35714286 </v>
   <v>       0.35714286       0.28571429       0.35714286 </v>
   <v>       0.00000000       0.00000000       0.42857143 </v>
   <v>       0.07142857       0.00000000       0.42857143 </v>
   <v>       0.14285714       0.00000000       0.42857143 </v>
   <v>       0.21428571       0.00000000       0.42857143 </v>
   <v>       0.28571429       0.00000000       0.42857143 </v>
   <v>       0.35714286       0.00000000       0.42857143 </v>
   <v>       0.42857143       0.00000000       0.42857143 </v>
   <v>       0.50000000       0.00000000       0.42857143 </v>
   <v>       0.07142857       0.07142857       0.42857143 </v>
   <v>       0.14285714       0.07142857       0.42857143 </v>
   <v>       0.21428571       0.07142857       0.42857143 </v>
   <v>       0.28571429       0.07142857       0.42857143 </v>
   <v>       0.35714286       0.07142857       0.42857143 </v>
   <v>       0.42857143       0.07142857       0.42857143 </v>
   <v>       0.14285714       0.14285714       0.42857143 </v>
   <v>       0.21428571       0.14285714       0.42857143 </v>
   <v>       0.28571429       0.14285714       0.42857143 </v>
   <v>       0.35714286       0.14285714       0.42857143 </v>
   <v>       0.42857143       0.14285714       0.42857143 </v>
   <v>       0.21428571       0.21428571       0.42857143 </v>
   <v>       0.28571429       0.21428571       0.42857143 </v>
   <v>       0.35714286       0.21428571       0.42857143 </v>
   <v>       0.28571429       0.28571429       0.42857143 </v>
   <v>       0.35714286       0.28571429       0.42857143 </v>
   <v>       0.00000000       0.00000000       0.50000000 </v>
   <v>       0.07142857       0.00000000       0.50000000 </v>
   <v>       0.14285714       0.00000000       0.50000000 </v>
   <v>       0.21428571       0.00000000       0.50000000 </v>
   <v>       0.28571429       0.00000000       0.50000000 </v>
   <v>       0.35714286       0.00000000       0.50000000 </v>
   <v>       0.42857143       0.00000000       0.50000000 </v>
   <v>       0.50000000       0.00000000       0.50000000 </v>
   <v>       0.07142857       0.07142857       0.50000000 </v>
   <v>       0.14285714       0.07142857       0.50000000 </v>
   <v>       0.21428571       0.07142857       0.50000000 </v>
   <v>       0.28571429       0.07142857       0.50000000 </v>
   <v>       0.35714286       0.07142857       0.50000000 </v>
   <v>       0.42857143       0.07142857       0.50000000 </v>
   <v>       0.14285714       0.14285714       0.50000000 </v>
   <v>       0.21428571       0.14285714       0.50000000 </v>
   <v>       0.28571429       0.14285714       0.50000000 </v>
   <v>       0.35714286       0.14285714       0.50000000 </v>
   <v>       0.42857143       0.14285714       0.50000000 </v>
   <v>       0.21428571       0.21428571       0.50000000 </v>
   <v>       0.28571429       0.21428571       0.50000000 </v>
   <v>       0.35714286       0.21428571       0.50000000 </v>
   <v>       0.28571429       0.28571429       0.50000000 </v>
   <v>       0.35714286       0.28571429       0.50000000 </v>
  </varray>
  <varray name="weights" >
   <v>       0.00036443 </v>
   <v>       0.00218659 </v>
   <v>       0.00218659 </v>
   <v>       0.00218659 </v>
   <v>       0.00218659 </v>
   <v>       0.00218659 </v>
   <v>       0.00218659 </v>
   <v>       0.00109329 </v>
   <v>       0.00218659 </v>
   <v>       0.00437318 </v>
   <v>       0.00437318 </v>
   <v>       0.00437318 </v>
   <v>       0.00437318 </v>
   <v>       0.00437318 </v>
   <v>       0.00218659 </v>
   <v>       0.00437318 </v>
   <v>       0.00437318 </v>
   <v>       0.00437318 </v>
   <v>       0.00218659 </v>
   <v>       0.00218659 </v>
   <v>       0.00437318 </v>
   <v>       0.00437318 </v>
   <v>       0.00218659 </v>
   <v>       0.00218659 </v>
   <v>       0.00072886 </v>
   <v>       0.00437318 </v>
   <v>       0.00437318 </v>
   <v>       0.00437318 </v>
   <v>       0.00437318 </v>
   <v>       0.00437318 </v>
   <v>       0.00437318 </v>
   <v>       0.00218659 </v>
   <v>       0.00437318 </v>
   <v>       0.00874636 </v>
   <v>       0.00874636 </v>
   <v>       0.00874636 </v>
   <v>       0.00874636 </v>
   <v>       0.00874636 </v>
   <v>       0.00437318 </v>
   <v>       0.00874636 </v>
   <v>       0.00874636 </v>
   <v>       0.00874636 </v>
   <v>       0.00437318 </v>
   <v>       0.00437318 </v>
   <v>       0.00874636 </v>
   <v>       0.00874636 </v>
   <v>       0.00437318 </v>
   <v>       0.00437318 </v>
   <v>       0.00072886 </v>
   <v>       0.00437318 </v>
   <v>       0.00437318 </v>
   <v>       0.00437318 </v>
   <v>       0.00437318 </v>
   <v>       0.00437318 </v>
   <v>       0.00437318 </v>
   <v>       0.00218659 </v>
   <v>       0.00437318 </v>
   <v>       0.00874636 </v>
   <v>       0.00874636 </v>
   <v>       0.00874636 </v>
   <v>       0.00874636 </v>
   <v>       0.00874636 </v>
   <v>       0.00437318 </v>
   <v>       0.00874636 </v>
   <v>       0.00874636 </v>
   <v>       0.00874636 </v>
   <v>       0.00437318 </v>
   <v>       0.00437318 </v>
   <v>       0.00874636 </v>
   <v>       0.00874636 </v>
   <v>       0.00437318 </v>
   <v>       0.00437318 </v>
   <v>       0.00072886 </v>
   <v>       0.00437318 </v>
   <v>       0.00437318 </v>
   <v>       0.00437318 </v>
   <v>       0.00437318 </v>
   <v>       0.00437318 </v>
   <v>       0.00437318 </v>
   <v>       0.00218659 </v>
   <v>       0.00437318 </v>
   <v>       0.00874636 </v>
   <v>       0.00874636 </v>
   <v>       0.00874636 </v>
   <v>       0.00874636 </v>
   <v>       0.00874636 </v>
   <v>       0.00437318 </v>
   <v>       0.00874636 </v>
   <v>       0.00874636 </v>
   <v>       0.00874636 </v>
   <v>       0.00437318 </v>
   <v>       0.00437318 </v>
   <v>       0.00874636 </v>
   <v>       0.00874636 </v>
   <v>       0.00437318 </v>
   <v>       0.00437318 </v>
   <v>       0.00072886 </v>
   <v>       0.00437318 </v>
   <v>       0.00437318 </v>
   <v>       0.00437318 </v>
   <v>       0.00437318 </v>
   <v>       0.00437318 </v>
   <v>       0.00437318 </v>
   <v>       0.00218659 </v>
   <v>       0.00437318 </v>
   <v>       0.00874636 </v>
   <v>       0.00874636 </v>
   <v>       0.00874636 </v>
   <v>       0.00874636 </v>
   <v>       0.00874636 </v>
   <v>       0.00437318 </v>
   <v>       0.00874636 </v>
   <v>       0.00874636 </v>
   <v>       0.00874636 </v>
   <v>       0.00437318 </v>
   <v>       0.00437318 </v>
   <v>       0.00874636 </v>
   <v>       0.00874636 </v>
   <v>       0.00437318 </v>
   <v>       0.00437318 </v>
   <v>       0.00072886 </v>
   <v>       0.00437318 </v>
   <v>       0.00437318 </v>
   <v>       0.00437318 </v>
   <v>       0.00437318 </v>
   <v>       0.00437318 </v>
   <v>       0.00437318 </v>
   <v>       0.00218659 </v>
   <v>       0.00437318 </v>
   <v>       0.00874636 </v>
   <v>       0.00874636 </v>
   <v>       0.00874636 </v>
   <v>       0.00874636 </v>
   <v>       0.00874636 </v>
   <v>       0.00437318 </v>
   <v>       0.00874636 </v>
   <v>       0.00874636 </v>
   <v>       0.00874636 </v>
   <v>       0.00437318 </v>
   <v>       0.00437318 </v>
   <v>       0.00874636 </v>
   <v>       0.00874636 </v>
   <v>       0.00437318 </v>
   <v>       0.00437318 </v>
   <v>       0.00072886 </v>
   <v>       0.00437318 </v>
   <v>       0.00437318 </v>
   <v>       0.00437318 </v>
   <v>       0.00437318 </v>
   <v>       0.00437318 </v>
   <v>       0.00437318 </v>
   <v>       0.00218659 </v>
   <v>       0.00437318 </v>
   <v>       0.00874636 </v>
   <v>       0.00874636 </v>
   <v>       0.00874636 </v>
   <v>       0.00874636 </v>
   <v>       0.00874636 </v>
   <v>       0.00437318 </v>
   <v>       0.00874636 </v>
   <v>       0.00874636 </v>
   <v>       0.00874636 </v>
   <v>       0.00437318 </v>
   <v>       0.00437318 </v>
   <v>       0.00874636 </v>
   <v>       0.00874636 </v>
   <v>       0.00437318 </v>
   <v>       0.00437318 </v>
   <v>       0.00036443 </v>
   <v>       0.00218659 </v>
   <v>       0.00218659 </v>
   <v>       0.00218659 </v>
   <v>       0.00218659 </v>
   <v>       0.00218659 </v>
   <v>       0.00218659 </v>
   <v>       0.00109329 </v>
   <v>       0.00218659 </v>
   <v>       0.00437318 </v>
   <v>       0.00437318 </v>
   <v>       0.00437318 </v>
   <v>       0.00437318 </v>
   <v>       0.00437318 </v>
   <v>       0.00218659 </v>
   <v>       0.00437318 </v>
   <v>       0.00437318 </v>
   <v>       0.00437318 </v>
   <v>       0.00218659 </v>
   <v>       0.00218659 </v>
   <v>       0.00437318 </v>
   <v>       0.00437318 </v>
   <v>       0.00218659 </v>
   <v>       0.00218659 </v>
  </varray>
 </kpoints>
 <parameters>
  <separator name="general" >
   <i type="string" name="SYSTEM">unknown system</i>
   <i type="logical" name="LCOMPAT"> F  </i>
  </separator>
  <separator name="electronic" >
   <i type="string" name="PREC">accura</i>
   <i name="ENMAX">    350.00000000</i>
   <i name="ENAUG">    644.87300000</i>
   <i name="EDIFF">      0.00010000</i>
   <i type="int" name="IALGO">    38</i>
   <i type="int" name="IWAVPR">    10</i>
   <i type="int" name="NBANDS">    14</i>
   <i name="NELECT">     16.00000000</i>
   <i type="int" name="TURBO">     0</i>
   <i type="int" name="IRESTART">     0</i>
   <i type="int" name="NREBOOT">     0</i>
   <i type="int" name="NMIN">     0</i>
   <i name="EREF">      0.00000000</i>
   <separator name="electronic smearing" >
    <i type="int" name="ISMEAR">     1</i>
    <i name="SIGMA">      0.05000000</i>
    <i name="KSPACING">      0.50000000</i>
    <i type="logical" name="KGAMMA"> T  </i>
   </separator>
   <separator name="electronic projectors" >
    <i type="logical" name="LREAL"> F  </i>
    <v name="ROPT">      0.00000000</v>
    <i type="int" name="LMAXPAW">  -100</i>
    <i type="int" name="LMAXMIX">     2</i>
    <i type="logical" name="NLSPLINE"> F  </i>
   </separator>
   <separator name="electronic startup" >
    <i type="int" name="ISTART">     0</i>
    <i type="int" name="ICHARG">     2</i>
    <i type="int" name="INIWAV">     1</i>
   </separator>
   <separator name="electronic spin" >
    <i type="int" name="ISPIN">     2</i>
    <i type="logical" name="LNONCOLLINEAR"> F  </i>
    <v name="MAGMOM">      1.00000000      1.00000000      1.00000000      1.00000000</v>
    <i name="NUPDOWN">     -1.00000000</i>
    <i type="logical" name="LSORBIT"> F  </i>
    <v name="SAXIS">      0.00000000      0.00000000      1.00000000</v>
    <i type="logical" name="LSPIRAL"> F  </i>
    <v name="QSPIRAL">      0.00000000      0.00000000      0.00000000</v>
    <i type="logical" name="LZEROZ"> F  </i>
   </separator>
   <separator name="electronic exchange-correlation" >
    <i type="logical" name="LASPH"> F  </i>
    <i type="logical" name="LMETAGGA"> F  </i>
   </separator>
   <separator name="electronic convergence" >
    <i type="int" name="NELM">    60</i>
    <i type="int" name="NELMDL">    -5</i>
    <i type="int" name="NELMIN">     2</i>
    <i name="ENINI">    350.00000000</i>
    <separator name="electronic convergence detail" >
     <i type="logical" name="LDIAG"> T  </i>
     <i type="logical" name="LSUBROT"> T  </i>
     <i name="WEIMIN">      0.00000000</i>
     <i name="EBREAK">      0.00000179</i>
     <i name="DEPER">      0.30000000</i>
     <i type="int" name="NRMM">     4</i>
     <i name="TIME">      0.40000000</i>
    </separator>
   </separator>
   <separator name="electronic mixer" >
    <i name="AMIX">      0.40000000</i>
    <i name="BMIX">      1.00000000</i>
    <i name="AMIN">      0.10000000</i>
    <i name="AMIX_MAG">      1.60000000</i>
    <i name="BMIX_MAG">      1.00000000</i>
    <separator name="electronic mixer details" >
     <i type="int" name="IMIX">     4</i>
     <i type="int" name="MAXMIX">   -45</i>
     <i name="WC">    100.00000000</i>
     <i type="int" name="INIMIX">     1</i>
     <i type="int" name="MIXPRE">     1</i>
     <i type="int" name="MREMOVE">     5</i>
    </separator>
   </separator>
   <separator name="electronic dipolcorrection" >
    <i type="logical" name="LDIPOL"> F  </i>
    <i type="logical" name="LMONO"> F  </i>
    <i type="int" name="IDIPOL">     0</i>
    <i name="EPSILON">      1.00000000</i>
    <v name="DIPOL">   -100.00000000   -100.00000000   -100.00000000</v>
    <i name="EFIELD">      0.00000000</i>
   </separator>
  </separator>
  <separator name="grids" >
   <i type="int" name="NGX">    16</i>
   <i type="int" name="NGY">    16</i>
   <i type="int" name="NGZ">    42</i>
   <i type="int" name="NGXF">    32</i>
   <i type="int" name="NGYF">    32</i>
   <i type="int" name="NGZF">    84</i>
   <i type="logical" name="ADDGRID"> F  </i>
  </separator>
  <separator name="ionic" >
   <i type="int" name="NSW">     0</i>
   <i type="int" name="IBRION">    -1</i>
   <i type="int" name="ISIF">     2</i>
   <i name="PSTRESS">      0.00000000</i>
   <i name="EDIFFG">      0.00100000</i>
   <i type="int" name="NFREE">     0</i>
   <i name="POTIM">      0.50000000</i>
   <i name="SMASS">     -3.00000000</i>
   <i name="SCALEE">      1.00000000</i>
  </separator>
  <separator name="ionic md" >
   <i name="TEBEG">      0.00010000</i>
   <i name="TEEND">      0.00010000</i>
   <i type="int" name="NBLOCK">     1</i>
   <i type="int" name="KBLOCK">     1</i>
   <i type="int" name="NPACO">   256</i>
   <i name="APACO">     16.00000000</i>
  </separator>
  <separator name="symmetry" >
   <i type="int" name="ISYM">     2</i>
   <i name="SYMPREC">      0.00001000</i>
  </separator>
  <separator name="dos" >
   <i type="logical" name="LORBIT"> F  </i>
   <v name="RWIGS">     -1.00000000</v>
   <i type="int" name="NEDOS">   301</i>
   <i name="EMIN">     10.00000000</i>
   <i name="EMAX">    -10.00000000</i>
   <i name="EFERMI">      0.00000000</i>
  </separator>
  <separator name="writing" >
   <i type="int" name="NWRITE">     2</i>
   <i type="logical" name="LWAVE"> T  </i>
   <i type="logical" name="LCHARG"> T  </i>
   <i type="logical" name="LPARD"> F  </i>
   <i type="logical" name="LVTOT"> F  </i>
   <i type="logical" name="LVHAR"> F  </i>
   <i type="logical" name="LELF"> F  </i>
   <i type="logical" name="LOPTICS"> F  </i>
   <v name="STM">      0.00000000      0.00000000      0.00000000      0.00000000      0.00000000      0.00000000      0.00000000</v>
  </separator>
  <separator name="performance" >
   <i type="int" name="NPAR">     1</i>
   <i type="int" name="NSIM">     4</i>
   <i type="int" name="NBLK">    -1</i>
   <i type="logical" name="LPLANE"> T  </i>
   <i type="logical" name="LSCALAPACK"> F  </i>
   <i type="logical" name="LSCAAWARE"> F  </i>
   <i type="logical" name="LSCALU"> F  </i>
   <i type="logical" name="LASYNC"> F  </i>
   <i type="logical" name="LORBITALREAL"> F  </i>
  </separator>
  <separator name="miscellaneous" >
   <i type="int" name="IDIOT">     3</i>
   <i type="logical" name="LMUSIC"> F  </i>
   <v name="POMASS">     12.01100000</v>
   <v name="DARWINR">      0.00000000</v>
   <v name="DARWINV">      1.00000000</v>
   <i type="logical" name="LCORR"> T  </i>
  </separator>
  <i type="logical" name="GGA_COMPAT"> T  </i>
  <i type="logical" name="LBERRY"> F  </i>
  <i type="int" name="ICORELEVEL">     0</i>
  <i type="logical" name="LDAU"> F  </i>
  <i type="int" name="I_CONSTRAINED_M">     0</i>
  <separator name="electronic exchange-correlation" >
   <i type="string" name="GGA">--</i>
   <i type="int" name="VOSKOWN">     0</i>
   <i type="logical" name="LHFCALC"> F  </i>
   <i type="string" name="PRECFOCK"></i>
   <i type="logical" name="LHFONE"> F  </i>
   <i type="logical" name="LRHFCALC"> F  </i>
   <i type="logical" name="LTHOMAS"> F  </i>
   <i type="logical" name="LMODELHF"> F  </i>
   <i name="ENCUT4O">     -1.00000000</i>
   <i type="int" name="EXXOEP">     0</i>
   <i type="int" name="FOURORBIT">     0</i>
   <i name="AEXX">      0.00000000</i>
   <i name="HFALPHA">      0.00000000</i>
   <i name="ALDAX">      1.00000000</i>
   <i name="AGGAX">      1.00000000</i>
   <i name="ALDAC">      1.00000000</i>
   <i name="AGGAC">      1.00000000</i>
   <i type="int" name="NKREDX">     1</i>
   <i type="int" name="NKREDY">     1</i>
   <i type="int" name="NKREDZ">     1</i>
   <i type="logical" name="SHIFTRED"> F  </i>
   <i type="logical" name="ODDONLY"> F  </i>
   <i type="logical" name="EVENONLY"> F  </i>
   <i type="int" name="LMAXFOCK">     0</i>
   <i type="int" name="NMAXFOCKAE">     0</i>
   <i type="logical" name="LFOCKAEDFT"> F  </i>
   <i name="HFSCREEN">      0.00000000</i>
   <i name="HFSCREENC">      0.00000000</i>
  </separator>
  <separator name="vdW DFT" >
   <i type="logical" name="LUSE_VDW"> F  </i>
   <i name="Zab_VDW">     -0.84910000</i>
   <i name="PARAM1">      0.12340000</i>
   <i name="PARAM2">      1.00000000</i>
   <i name="PARAM3">      0.00000000</i>
  </separator>
  <separator name="model GW" >
   <i type="int" name="MODEL_GW">     0</i>
   <i name="MODEL_EPS0">      5.27839982</i>
   <i name="MODEL_ALPHA">      1.00000000</i>
  </separator>
  <separator name="linear response parameters" >
   <i type="logical" name="LEPSILON"> F  </i>
   <i type="logical" name="LRPA"> F  </i>
   <i type="logical" name="LNABLA"> F  </i>
   <i type="logical" name="LVEL"> F  </i>
   <i type="int" name="KINTER">     0</i>
   <i name="CSHIFT">      0.10000000</i>
   <i name="OMEGAMAX">     -1.00000000</i>
  </separator>
  <separator name="orbital magnetization" >
   <i type="logical" name="NUCIND"> F  </i>
   <v name="MAGPOS">      0.00000000      0.00000000      0.00000000</v>
   <i type="logical" name="LNICSALL"> T  </i>
   <i type="logical" name="ORBITALMAG"> F  </i>
   <i type="logical" name="LMAGBLOCH"> F  </i>
   <i type="logical" name="LCHIMAG"> F  </i>
   <i type="logical" name="LGAUGE"> T  </i>
   <i type="int" name="MAGATOM">     0</i>
   <v name="MAGDIPOL">      0.00000000      0.00000000      0.00000000</v>
   <v name="AVECCONST">      0.00000000      0.00000000      0.00000000</v>
  </separator>
  <separator name="response functions" >
   <i type="logical" name="LADDER"> F  </i>
   <i type="logical" name="LHARTREE"> T  </i>
   <i type="int" name="IBSE">     0</i>
   <i type="logical" name="LTCTE"> F  </i>
   <i type="logical" name="LTETE"> F  </i>
   <i type="logical" name="LFXCEPS"> F  </i>
   <i type="logical" name="L2ORDER"> F  </i>
   <i type="logical" name="LUSEW"> F  </i>
   <i name="ENCUTGW">     -2.00000000</i>
   <i name="ENCUTGWSOFT">     -2.00000000</i>
   <i name="ENCUTLF">     -1.00000000</i>
   <i type="int" name="LMAXMP2">    -1</i>
   <i name="SCISSOR">      0.00000000</i>
   <i type="int" name="NOMEGA">     0</i>
   <i type="int" name="NOMEGAR">     0</i>
   <i type="int" name="NBANDSGW">    -1</i>
   <i type="int" name="NBANDSO">    -1</i>
   <i type="int" name="NBANDSV">    -1</i>
   <i name="OPTEMAX">      0.00000000</i>
   <i type="int" name="NELM">     1</i>
   <i type="int" name="DIM">     3</i>
   <i type="int" name="ANTIRES">     0</i>
   <i name="OMEGAMAX">    -30.00000000</i>
   <i name="OMEGATL">   -200.00000000</i>
   <i type="int" name="OMEGAGRID">     0</i>
   <i name="CSHIFT">     -0.10000000</i>
   <i type="logical" name="SELFENERGY"> F  </i>
   <i type="logical" name="LSPECTRAL"> F  </i>
   <i type="logical" name="ODDONLYGW"> F  </i>
   <i type="logical" name="EVENONLYGW"> F  </i>
   <i type="int" name="NKREDLFX">     1</i>
   <i type="int" name="NKREDLFY">     1</i>
   <i type="int" name="NKREDLFZ">     1</i>
   <i type="int" name="MAXMEM">  1800</i>
   <i type="int" name="TELESCOPE">     0</i>
  </separator>
 </parameters>
 <atominfo>
  <atoms>       4 </atoms>
  <types>       1 </types>
  <array name="atoms" >
   <dimension dim="1">ion</dimension>
   <field type="string">element</field>
   <field type="int">atomtype</field>
   <set>
    <rc><c>C </c><c>   1</c></rc>
    <rc><c>C </c><c>   1</c></rc>
    <rc><c>C </c><c>   1</c></rc>
    <rc><c>C </c><c>   1</c></rc>
   </set>
  </array>
  <array name="atomtypes" >
   <dimension dim="1">type</dimension>
   <field type="int">atomspertype</field>
   <field type="string">element</field>
   <field>mass</field>
   <field>valence</field>
   <field type="string">pseudopotential</field>
   <set>
    <rc><c>   4</c><c>C </c><c>     12.01100000</c><c>      4.00000000</c><c> PAW_PBE C 08Apr2002                    </c></rc>
   </set>
  </array>
 </atominfo>
 <structure name="initialpos" >
  <crystal>
   <varray name="basis" >
    <v>       2.46120000       0.00000000       0.00000000 </v>
    <v>      -1.23060000       2.13146172       0.00000000 </v>
    <v>       0.00000000       0.00000000       6.70790000 </v>
   </varray>
   <i name="volume">     35.18933212 </i>
   <varray name="rec_basis" >
    <v>       0.40630587       0.23458080       0.00000000 </v>
    <v>       0.00000000       0.46916160       0.00000000 </v>
    <v>       0.00000000       0.00000000       0.14907795 </v>
   </varray>
  </crystal>
  <varray name="positions" >
   <v>       0.00000000       0.00000000       0.00000000 </v>
   <v>       0.33333333       0.66666667       0.00000000 </v>
   <v>       0.33333333       0.66666667       0.50000000 </v>
   <v>       0.66666667       0.33333333       0.50000000 </v>
  </varray>
 </structure>
 <calculation>
  <scstep>
   <time name="dav">   21.33   21.33</time>
   <time name="total">   21.71   21.71</time>
   <energy>
    <i name="alphaZ">     37.04766603 </i>
    <i name="ewald">   -460.60042082 </i>
    <i name="hartreedc">   -148.78490797 </i>
    <i name="XCdc">     56.10990993 </i>
    <i name="pawpsdc">    150.95130483 </i>
    <i name="pawaedc">   -155.51722924 </i>
    <i name="eentropy">      0.00002597 </i>
    <i name="bandstr">    -45.69461727 </i>
    <i name="atom">    588.28246388 </i>
    <i name="e_fr_energy">     21.79419533 </i>
    <i name="e_wo_entrp">     21.79416936 </i>
    <i name="e_0_energy">     21.79418668 </i>
   </energy>
  </scstep>
  <scstep>
   <time name="dav">   25.86   25.90</time>
   <time name="total">   25.90   25.97</time>
   <energy>
    <i name="e_fr_energy">    -35.36083233 </i>
    <i name="e_wo_entrp">    -35.36090078 </i>
    <i name="e_0_energy">    -35.36085514 </i>
   </energy>
  </scstep>
  <scstep>
   <time name="dav">   25.07   25.08</time>
   <time name="total">   25.10   25.13</time>
   <energy>
    <i name="e_fr_energy">    -37.58253984 </i>
    <i name="e_wo_entrp">    -37.58256452 </i>
    <i name="e_0_energy">    -37.58254806 </i>
   </energy>
  </scstep>
  <scstep>
   <time name="dav">   23.44   23.44</time>
   <time name="total">   23.47   23.49</time>
   <energy>
    <i name="e_fr_energy">    -37.60335591 </i>
    <i name="e_wo_entrp">    -37.60338223 </i>
    <i name="e_0_energy">    -37.60336469 </i>
   </energy>
  </scstep>
  <scstep>
   <time name="dav">   25.31   25.32</time>
   <time name="total">   27.01   27.03</time>
   <energy>
    <i name="e_fr_energy">    -37.60376612 </i>
    <i name="e_wo_entrp">    -37.60379248 </i>
    <i name="e_0_energy">    -37.60377491 </i>
   </energy>
  </scstep>
  <scstep>
   <time name="dav">   21.96   21.96</time>
   <time name="total">   23.97   23.99</time>
   <energy>
    <i name="e_fr_energy">    -36.93447050 </i>
    <i name="e_wo_entrp">    -36.93449877 </i>
    <i name="e_0_energy">    -36.93447992 </i>
   </energy>
  </scstep>
  <scstep>
   <time name="dav">   22.25   22.25</time>
   <time name="total">   24.25   24.27</time>
   <energy>
    <i name="e_fr_energy">    -36.95362156 </i>
    <i name="e_wo_entrp">    -36.95368217 </i>
    <i name="e_0_energy">    -36.95364176 </i>
   </energy>
  </scstep>
  <scstep>
   <time name="dav">   23.46   23.47</time>
   <time name="total">   25.47   25.49</time>
   <energy>
    <i name="e_fr_energy">    -36.90260014 </i>
    <i name="e_wo_entrp">    -36.90266427 </i>
    <i name="e_0_energy">    -36.90262151 </i>
   </energy>
  </scstep>
  <scstep>
   <time name="dav">   22.41   22.42</time>
   <time name="total">   24.41   24.43</time>
   <energy>
    <i name="e_fr_energy">    -36.91460555 </i>
    <i name="e_wo_entrp">    -36.91466712 </i>
    <i name="e_0_energy">    -36.91462607 </i>
   </energy>
  </scstep>
  <scstep>
   <time name="dav">   23.62   23.62</time>
   <time name="total">   25.62   25.64</time>
   <energy>
    <i name="e_fr_energy">    -36.91553398 </i>
    <i name="e_wo_entrp">    -36.91559825 </i>
    <i name="e_0_energy">    -36.91555540 </i>
   </energy>
  </scstep>
  <scstep>
   <time name="dav">   22.38   22.39</time>
   <time name="total">   24.38   24.40</time>
   <energy>
    <i name="e_fr_energy">    -36.91578444 </i>
    <i name="e_wo_entrp">    -36.91584820 </i>
    <i name="e_0_energy">    -36.91580569 </i>
   </energy>
  </scstep>
  <scstep>
   <time name="dav">   19.20   19.21</time>
   <time name="total">   19.58   19.60</time>
   <energy>
    <i name="alphaZ">     37.04766603 </i>
    <i name="ewald">   -460.60042082 </i>
    <i name="hartreedc">   -183.48741180 </i>
    <i name="XCdc">     57.69131778 </i>
    <i name="pawpsdc">    281.13134714 </i>
    <i name="pawaedc">   -286.21512313 </i>
    <i name="eentropy">      0.00006363 </i>
    <i name="bandstr">    -70.76572932 </i>
    <i name="atom">    588.28246388 </i>
    <i name="e_fr_energy">    -36.91582662 </i>
    <i name="e_wo_entrp">    -36.91589025 </i>
    <i name="e_0_energy">    -36.91584783 </i>
   </energy>
  </scstep>
  <parameters_embedded>
   <separator name="dft+d2" >
    <i type="logical" name="LVDW"> F  </i>
   </separator>
  </parameters_embedded>
  <structure>
   <crystal>
    <varray name="basis" >
     <v>       2.46120000       0.00000000       0.00000000 </v>
     <v>      -1.23060000       2.13146172       0.00000000 </v>
     <v>       0.00000000       0.00000000       6.70790000 </v>
    </varray>
    <i name="volume">     35.18933212 </i>
    <varray name="rec_basis" >
     <v>       0.40630587       0.23458080       0.00000000 </v>
     <v>       0.00000000       0.46916160       0.00000000 </v>
     <v>       0.00000000       0.00000000       0.14907795 </v>
    </varray>
   </crystal>
   <varray name="positions" >
    <v>       0.00000000       0.00000000       0.00000000 </v>
    <v>       0.33333333       0.66666667       0.00000000 </v>
    <v>       0.33333333       0.66666667       0.50000000 </v>
    <v>       0.66666667       0.33333333       0.50000000 </v>
   </varray>
  </structure>
  <varray name="forces" >
   <v>       0.00000000       0.00000000       0.00000000 </v>
   <v>       0.00000000       0.00000000       0.00000000 </v>
   <v>       0.00000000       0.00000000       0.00000000 </v>
   <v>       0.00000000       0.00000000       0.00000000 </v>
  </varray>
  <varray name="stress" >
   <v>     -26.38927032       0.00000000       0.00000000 </v>
   <v>       0.00000000     -26.38927032       0.00000000 </v>
   <v>       0.00000000       0.00000000     -43.33979819 </v>
  </varray>
  <energy>
   <i name="e_fr_energy">    -36.91582662 </i>
   <i name="e_wo_entrp">    -36.91584783 </i>
   <i name="e_0_energy">      0.00006363 </i>
  </energy>
  <time name="totalsc">  298.09  298.70</time>
  <eigenvalues>
   <array>
    <dimension dim="1">band</dimension>
    <dimension dim="2">kpoint</dimension>
    <dimension dim="3">spin</dimension>
    <field>eigene</field>
    <field>occ</field>
    <set>
     <set comment="spin 1">
      <set comment="kpoint 1">
       <r>  -14.9852    1.0000 </r>
       <r>  -14.6861    1.0000 </r>
       <r>   -3.8217    1.0000 </r>
       <r>   -1.8647    1.0000 </r>
       <r>    1.7255    1.0000 </r>
       <r>    1.7255    1.0000 </r>
       <r>    1.7302    1.0000 </r>
       <r>    1.7302    1.0000 </r>
       <r>    8.9870    0.0000 </r>
       <r>   13.1450    0.0000 </r>
       <r>   13.1450    0.0000 </r>
       <r>   13.2081    0.0000 </r>
       <r>   13.2081    0.0000 </r>
       <r>   15.3253    0.0000 </r>
      </set>
      <set comment="kpoint 2">
       <r>  -14.8633    1.0000 </r>
       <r>  -14.5662    1.0000 </r>
       <r>   -3.6734    1.0000 </r>
       <r>   -1.7281    1.0000 </r>
       <r>    1.2189    1.0000 </r>
       <r>    1.2453    1.0000 </r>
       <r>    1.4490    1.0000 </r>
       <r>    1.4781    1.0000 </r>
       <r>    9.1341    0.0000 </r>
       <r>   13.1793    0.0000 </r>
       <r>   13.2473    0.0000 </r>
       <r>   13.6624    0.0000 </r>
       <r>   13.7058    0.0000 </r>
       <r>   15.4370    0.0000 </r>
      </set>
      <set comment="kpoint 3">
       <r>  -14.4978    1.0000 </r>
       <r>  -14.2071    1.0000 </r>
       <r>   -3.2296    1.0000 </r>
       <r>   -1.3150    1.0000 </r>
       <r>   -0.0704    1.0000 </r>
       <r>   -0.0180    1.0000 </r>
       <r>    0.8101    1.0000 </r>
       <r>    0.8511    1.0000 </r>
       <r>    9.5786    0.0000 </r>
       <r>   13.1436    0.0000 </r>
       <r>   13.2766    0.0000 </r>
       <r>   14.5437    0.0000 </r>
       <r>   15.0819    0.0000 </r>
       <r>   15.1126    0.0000 </r>
      </set>
      <set comment="kpoint 4">
       <r>  -13.8918    1.0000 </r>
       <r>  -13.6120    1.0000 </r>
       <r>   -2.4986    1.0000 </r>
       <r>   -1.7977    1.0000 </r>
       <r>   -1.7166    1.0000 </r>
       <r>   -0.6383    1.0000 </r>
       <r>    0.0424    1.0000 </r>
       <r>    0.0917    1.0000 </r>
       <r>   10.3190    0.0000 </r>
       <r>   12.7647    0.0000 </r>
       <r>   12.8953    0.0000 </r>
       <r>   13.1488    0.0000 </r>
       <r>   13.3054    0.0000 </r>
       <r>   16.3250    0.0000 </r>
      </set>
      <set comment="kpoint 5">
       <r>  -13.0514    1.0000 </r>
       <r>  -12.7871    1.0000 </r>
       <r>   -3.6999    1.0000 </r>
       <r>   -3.5814    1.0000 </r>
       <r>   -1.5037    1.0000 </r>
       <r>   -0.6731    1.0000 </r>
       <r>   -0.6195    1.0000 </r>
       <r>    0.2729    1.0000 </r>
       <r>   10.6943    0.0000 </r>
       <r>   11.3393    0.0000 </r>
       <r>   11.4639    0.0000 </r>
       <r>   12.5621    0.0000 </r>
       <r>   12.8948    0.0000 </r>
       <r>   17.0009    0.0000 </r>
      </set>
      <set comment="kpoint 6">
       <r>  -11.9879    1.0000 </r>
       <r>  -11.7420    1.0000 </r>
       <r>   -5.6001    1.0000 </r>
       <r>   -5.4574    1.0000 </r>
       <r>   -1.2345    1.0000 </r>
       <r>   -1.1776    1.0000 </r>
       <r>   -0.2749    1.0000 </r>
       <r>    1.3543    1.0000 </r>
       <r>    8.5936    0.0000 </r>
       <r>    9.5627    0.0000 </r>
       <r>   12.2110    0.0000 </r>
       <r>   12.4731    0.0000 </r>
       <r>   12.8765    0.0000 </r>
       <r>   17.7880    0.0000 </r>
      </set>
      <set comment="kpoint 7">
       <r>  -10.7303    1.0000 </r>
       <r>  -10.5112    1.0000 </r>
       <r>   -7.3841    1.0000 </r>
       <r>   -7.2175    1.0000 </r>
       <r>   -1.5909    1.0000 </r>
       <r>   -1.5366    1.0000 </r>
       <r>    1.0664    1.0000 </r>
       <r>    2.3451    1.0000 </r>
       <r>    6.8758    0.0000 </r>
       <r>    7.8441    0.0000 </r>
       <r>   12.0395    0.0000 </r>
       <r>   12.4186    0.0000 </r>
       <r>   14.3064    0.0000 </r>
       <r>   17.9534    0.0000 </r>
      </set>
      <set comment="kpoint 8">
       <r>   -9.6289    1.0000 </r>
       <r>   -9.5188    1.0000 </r>
       <r>   -8.5669    1.0000 </r>
       <r>   -8.4842    1.0000 </r>
       <r>   -1.7105    1.0000 </r>
       <r>   -1.6533    1.0000 </r>
       <r>    1.9449    1.0000 </r>
       <r>    2.6351    1.0000 </r>
       <r>    6.2515    0.0000 </r>
       <r>    6.9159    0.0000 </r>
       <r>   11.9714    0.0000 </r>
       <r>   12.3700    0.0000 </r>
       <r>   16.0286    0.0000 </r>
       <r>   16.1524    0.0000 </r>
      </set>
      <set comment="kpoint 9">
       <r>  -14.6194    1.0000 </r>
       <r>  -14.3266    1.0000 </r>
       <r>   -3.3777    1.0000 </r>
       <r>   -1.4515    1.0000 </r>
       <r>    0.4027    1.0000 </r>
       <r>    0.4283    1.0000 </r>
       <r>    0.9429    1.0000 </r>
       <r>    0.9624    1.0000 </r>
       <r>    9.4310    0.0000 </r>
       <r>   13.3665    0.0000 </r>
       <r>   13.4614    0.0000 </r>
       <r>   14.4005    0.0000 </r>
       <r>   14.4670    0.0000 </r>
       <r>   14.9455    0.0000 </r>
      </set>
      <set comment="kpoint 10">
       <r>  -14.1338    1.0000 </r>
       <r>  -13.8497    1.0000 </r>
       <r>   -2.7922    1.0000 </r>
       <r>   -1.0003    1.0000 </r>
       <r>   -0.9440    1.0000 </r>
       <r>   -0.9068    1.0000 </r>
       <r>    0.1279    1.0000 </r>
       <r>    0.1620    1.0000 </r>
       <r>   10.0258    0.0000 </r>
       <r>   13.4625    0.0000 </r>
       <r>   13.4983    0.0000 </r>
       <r>   13.6337    0.0000 </r>
       <r>   13.9110    0.0000 </r>
       <r>   15.6821    0.0000 </r>
      </set>
      <set comment="kpoint 11">
       <r>  -13.4105    1.0000 </r>
       <r>  -13.1398    1.0000 </r>
       <r>   -2.7500    1.0000 </r>
       <r>   -2.6561    1.0000 </r>
       <r>   -1.9257    1.0000 </r>
       <r>   -0.6861    1.0000 </r>
       <r>   -0.6346    1.0000 </r>
       <r>   -0.1095    1.0000 </r>
       <r>   10.9135    0.0000 </r>
       <r>   11.6274    0.0000 </r>
       <r>   12.2251    0.0000 </r>
       <r>   13.2406    0.0000 </r>
       <r>   13.5298    0.0000 </r>
       <r>   16.6664    0.0000 </r>
      </set>
      <set comment="kpoint 12">
       <r>  -12.4584    1.0000 </r>
       <r>  -12.2046    1.0000 </r>
       <r>   -4.6210    1.0000 </r>
       <r>   -4.4958    1.0000 </r>
       <r>   -1.3586    1.0000 </r>
       <r>   -1.3024    1.0000 </r>
       <r>   -0.8090    1.0000 </r>
       <r>    0.8981    1.0000 </r>
       <r>    9.5599    0.0000 </r>
       <r>   10.3768    0.0000 </r>
       <r>   12.0692    0.0000 </r>
       <r>   12.9345    0.0000 </r>
       <r>   13.3032    0.0000 </r>
       <r>   17.3008    0.0000 </r>
      </set>
      <set comment="kpoint 13">
       <r>  -11.2942    1.0000 </r>
       <r>  -11.0619    1.0000 </r>
       <r>   -6.4532    1.0000 </r>
       <r>   -6.2985    1.0000 </r>
       <r>   -1.8310    1.0000 </r>
       <r>   -1.7710    1.0000 </r>
       <r>    0.5016    1.0000 </r>
       <r>    1.9896    1.0000 </r>
       <r>    7.6325    0.0000 </r>
       <r>    8.5860    0.0000 </r>
       <r>   12.6547    0.0000 </r>
       <r>   13.0033    0.0000 </r>
       <r>   13.6333    0.0000 </r>
       <r>   17.9711    0.0000 </r>
      </set>
      <set comment="kpoint 14">
       <r>   -9.9882    1.0000 </r>
       <r>   -9.7980    1.0000 </r>
       <r>   -8.0878    1.0000 </r>
       <r>   -7.9300    1.0000 </r>
       <r>   -2.0745    1.0000 </r>
       <r>   -2.0140    1.0000 </r>
       <r>    1.7675    1.0000 </r>
       <r>    2.7096    1.0000 </r>
       <r>    6.3808    0.0000 </r>
       <r>    7.1315    0.0000 </r>
       <r>   12.5222    0.0000 </r>
       <r>   12.9278    0.0000 </r>
       <r>   15.2628    0.0000 </r>
       <r>   17.0742    0.0000 </r>
      </set>
      <set comment="kpoint 15">
       <r>  -13.5307    1.0000 </r>
       <r>  -13.2580    1.0000 </r>
       <r>   -2.1742    1.0000 </r>
       <r>   -2.1236    1.0000 </r>
       <r>   -2.0688    1.0000 </r>
       <r>   -0.9557    1.0000 </r>
       <r>   -0.9189    1.0000 </r>
       <r>   -0.2378    1.0000 </r>
       <r>   10.7716    0.0000 </r>
       <r>   12.0309    0.0000 </r>
       <r>   12.4798    0.0000 </r>
       <r>   14.2516    0.0000 </r>
       <r>   14.4557    0.0000 </r>
       <r>   15.9956    0.0000 </r>
      </set>
      <set comment="kpoint 16">
       <r>  -12.6956    1.0000 </r>
       <r>  -12.4373    1.0000 </r>
       <r>   -3.6954    1.0000 </r>
       <r>   -3.6095    1.0000 </r>
       <r>   -1.9306    1.0000 </r>
       <r>   -1.8739    1.0000 </r>
       <r>   -1.0764    1.0000 </r>
       <r>    0.6663    1.0000 </r>
       <r>   10.2673    0.0000 </r>
       <r>   10.8430    0.0000 </r>
       <r>   11.8049    0.0000 </r>
       <r>   14.4200    0.0000 </r>
       <r>   14.7652    0.0000 </r>
       <r>   16.9944    0.0000 </r>
      </set>
      <set comment="kpoint 17">
       <r>  -11.6400    1.0000 </r>
       <r>  -11.4018    1.0000 </r>
       <r>   -5.4184    1.0000 </r>
       <r>   -5.2903    1.0000 </r>
       <r>   -2.6049    1.0000 </r>
       <r>   -2.5296    1.0000 </r>
       <r>    0.1417    1.0000 </r>
       <r>    1.7342    1.0000 </r>
       <r>    8.3978    0.0000 </r>
       <r>    9.1443    0.0000 </r>
       <r>   13.1036    0.0000 </r>
       <r>   14.1871    0.0000 </r>
       <r>   14.6270    0.0000 </r>
       <r>   17.2607    0.0000 </r>
      </set>
      <set comment="kpoint 18">
       <r>  -10.3964    1.0000 </r>
       <r>  -10.1839    1.0000 </r>
       <r>   -7.1170    1.0000 </r>
       <r>   -6.9618    1.0000 </r>
       <r>   -3.0001    1.0000 </r>
       <r>   -2.9163    1.0000 </r>
       <r>    1.4873    1.0000 </r>
       <r>    2.7560    1.0000 </r>
       <r>    6.7783    0.0000 </r>
       <r>    7.5635    0.0000 </r>
       <r>   13.9653    0.0000 </r>
       <r>   14.3912    0.0000 </r>
       <r>   14.7488    0.0000 </r>
       <r>   17.5161    0.0000 </r>
      </set>
      <set comment="kpoint 19">
       <r>   -9.3166    1.0000 </r>
       <r>   -9.2086    1.0000 </r>
       <r>   -8.2662    1.0000 </r>
       <r>   -8.1872    1.0000 </r>
       <r>   -3.1314    1.0000 </r>
       <r>   -3.0425    1.0000 </r>
       <r>    2.3899    1.0000 </r>
       <r>    3.0683    1.0000 </r>
       <r>    6.2136    0.0000 </r>
       <r>    6.6123    0.0000 </r>
       <r>   13.8999    0.0000 </r>
       <r>   14.3811    0.0000 </r>
       <r>   16.2995    0.0000 </r>
       <r>   16.4562    0.0000 </r>
      </set>
      <set comment="kpoint 20">
       <r>  -11.7563    1.0000 </r>
       <r>  -11.5159    1.0000 </r>
       <r>   -4.7222    1.0000 </r>
       <r>   -4.6556    1.0000 </r>
       <r>   -3.2041    1.0000 </r>
       <r>   -3.1526    1.0000 </r>
       <r>    0.0243    1.0000 </r>
       <r>    1.6466    1.0000 </r>
       <r>    8.7725    0.0000 </r>
       <r>    9.3487    0.0000 </r>
       <r>   12.9718    0.0000 </r>
       <r>   15.8365    0.0000 </r>
       <r>   16.1503    0.0000 </r>
       <r>   16.9984    0.0000 </r>
      </set>
      <set comment="kpoint 21">
       <r>  -10.6147    1.0000 </r>
       <r>  -10.3960    1.0000 </r>
       <r>   -6.0940    1.0000 </r>
       <r>   -5.9792    1.0000 </r>
       <r>   -4.0379    1.0000 </r>
       <r>   -3.9541    1.0000 </r>
       <r>    1.3136    1.0000 </r>
       <r>    2.7385    1.0000 </r>
       <r>    7.1941    0.0000 </r>
       <r>    7.8380    0.0000 </r>
       <r>   14.3718    0.0000 </r>
       <r>   15.8697    0.0000 </r>
       <r>   16.5615    0.0000 </r>
       <r>   16.7749    0.0000 </r>
      </set>
      <set comment="kpoint 22">
       <r>   -9.3473    1.0000 </r>
       <r>   -9.1680    1.0000 </r>
       <r>   -7.5532    1.0000 </r>
       <r>   -7.4148    1.0000 </r>
       <r>   -4.3951    1.0000 </r>
       <r>   -4.2917    1.0000 </r>
       <r>    2.6129    1.0000 </r>
       <r>    3.5583    1.0000 </r>
       <r>    6.0436    0.0000 </r>
       <r>    6.5110    0.0000 </r>
       <r>   15.6800    0.0000 </r>
       <r>   15.9391    0.0000 </r>
       <r>   16.4722    0.0000 </r>
       <r>   16.6447    0.0000 </r>
      </set>
      <set comment="kpoint 23">
       <r>   -9.4240    1.0000 </r>
       <r>   -9.2316    1.0000 </r>
       <r>   -6.8325    1.0000 </r>
       <r>   -6.7472    1.0000 </r>
       <r>   -5.1818    1.0000 </r>
       <r>   -5.1240    1.0000 </r>
       <r>    2.6339    1.0000 </r>
       <r>    3.8099    1.0000 </r>
       <r>    5.9272    0.0000 </r>
       <r>    6.5799    0.0000 </r>
       <r>   15.7746    0.0000 </r>
       <r>   16.2116    0.0000 </r>
       <r>   16.4160    0.0000 </r>
       <r>   17.2256    0.0000 </r>
      </set>
      <set comment="kpoint 24">
       <r>   -8.3815    1.0000 </r>
       <r>   -8.2808    1.0000 </r>
       <r>   -7.6468    1.0000 </r>
       <r>   -7.6454    1.0000 </r>
       <r>   -5.5890    1.0000 </r>
       <r>   -5.5111    1.0000 </r>
       <r>    3.6772    1.0000 </r>
       <r>    4.3123    0.9500 </r>
       <r>    5.2505    0.0000 </r>
       <r>    5.6861    0.0000 </r>
       <r>   15.9955    0.0000 </r>
       <r>   16.0085    0.0000 </r>
       <r>   16.8670    0.0000 </r>
       <r>   17.1447    0.0000 </r>
      </set>
      <set comment="kpoint 25">
       <r>  -14.9818    1.0000 </r>
       <r>  -14.6902    1.0000 </r>
       <r>   -3.8012    1.0000 </r>
       <r>   -1.8972    1.0000 </r>
       <r>    1.7143    1.0000 </r>
       <r>    1.7144    1.0000 </r>
       <r>    1.7259    1.0000 </r>
       <r>    1.7259    1.0000 </r>
       <r>    9.0500    0.0000 </r>
       <r>   13.1368    0.0000 </r>
       <r>   13.1368    0.0000 </r>
       <r>   13.1837    0.0000 </r>
       <r>   13.1838    0.0000 </r>
       <r>   15.1932    0.0000 </r>
      </set>
      <set comment="kpoint 26">
       <r>  -14.8598    1.0000 </r>
       <r>  -14.5702    1.0000 </r>
       <r>   -3.6529    1.0000 </r>
       <r>   -1.7586    1.0000 </r>
       <r>    1.2191    1.0000 </r>
       <r>    1.2446    1.0000 </r>
       <r>    1.4531    1.0000 </r>
       <r>    1.4779    1.0000 </r>
       <r>    9.1973    0.0000 </r>
       <r>   13.1799    0.0000 </r>
       <r>   13.2466    0.0000 </r>
       <r>   13.6642    0.0000 </r>
       <r>   13.7055    0.0000 </r>
       <r>   15.4181    0.0000 </r>
      </set>
      <set comment="kpoint 27">
       <r>  -14.4944    1.0000 </r>
       <r>  -14.2110    1.0000 </r>
       <r>   -3.2090    1.0000 </r>
       <r>   -1.3447    1.0000 </r>
       <r>   -0.0696    1.0000 </r>
       <r>   -0.0186    1.0000 </r>
       <r>    0.8176    1.0000 </r>
       <r>    0.8507    1.0000 </r>
       <r>    9.6407    0.0000 </r>
       <r>   13.1448    0.0000 </r>
       <r>   13.2748    0.0000 </r>
       <r>   14.5509    0.0000 </r>
       <r>   14.9053    0.0000 </r>
       <r>   15.0894    0.0000 </r>
      </set>
      <set comment="kpoint 28">
       <r>  -13.8885    1.0000 </r>
       <r>  -13.6158    1.0000 </r>
       <r>   -2.4822    1.0000 </r>
       <r>   -1.7990    1.0000 </r>
       <r>   -1.7184    1.0000 </r>
       <r>   -0.6677    1.0000 </r>
       <r>    0.0426    1.0000 </r>
       <r>    0.0907    1.0000 </r>
       <r>   10.3784    0.0000 </r>
       <r>   12.7659    0.0000 </r>
       <r>   12.8996    0.0000 </r>
       <r>   13.1324    0.0000 </r>
       <r>   13.2946    0.0000 </r>
       <r>   16.1997    0.0000 </r>
      </set>
      <set comment="kpoint 29">
       <r>  -13.0483    1.0000 </r>
       <r>  -12.7906    1.0000 </r>
       <r>   -3.6985    1.0000 </r>
       <r>   -3.5851    1.0000 </r>
       <r>   -1.4852    1.0000 </r>
       <r>   -0.6726    1.0000 </r>
       <r>   -0.6201    1.0000 </r>
       <r>    0.2449    1.0000 </r>
       <r>   10.6884    0.0000 </r>
       <r>   11.3988    0.0000 </r>
       <r>   11.4471    0.0000 </r>
       <r>   12.5652    0.0000 </r>
       <r>   12.8939    0.0000 </r>
       <r>   16.8984    0.0000 </r>
      </set>
      <set comment="kpoint 30">
       <r>  -11.9854    1.0000 </r>
       <r>  -11.7455    1.0000 </r>
       <r>   -5.5983    1.0000 </r>
       <r>   -5.4580    1.0000 </r>
       <r>   -1.2346    1.0000 </r>
       <r>   -1.1815    1.0000 </r>
       <r>   -0.2572    1.0000 </r>
       <r>    1.3244    1.0000 </r>
       <r>    8.6021    0.0000 </r>
       <r>    9.5490    0.0000 </r>
       <r>   12.2210    0.0000 </r>
       <r>   12.4810    0.0000 </r>
       <r>   12.9151    0.0000 </r>
       <r>   17.6998    0.0000 </r>
      </set>
      <set comment="kpoint 31">
       <r>  -10.7278    1.0000 </r>
       <r>  -10.5145    1.0000 </r>
       <r>   -7.3802    1.0000 </r>
       <r>   -7.2197    1.0000 </r>
       <r>   -1.5898    1.0000 </r>
       <r>   -1.5363    1.0000 </r>
       <r>    1.0820    1.0000 </r>
       <r>    2.3289    1.0000 </r>
       <r>    6.8807    0.0000 </r>
       <r>    7.8238    0.0000 </r>
       <r>   12.0449    0.0000 </r>
       <r>   12.4140    0.0000 </r>
       <r>   14.3572    0.0000 </r>
       <r>   17.9676    0.0000 </r>
      </set>
      <set comment="kpoint 32">
       <r>   -9.6272    1.0000 </r>
       <r>   -9.5199    1.0000 </r>
       <r>   -8.5664    1.0000 </r>
       <r>   -8.4857    1.0000 </r>
       <r>   -1.7098    1.0000 </r>
       <r>   -1.6539    1.0000 </r>
       <r>    1.9561    1.0000 </r>
       <r>    2.6305    1.0000 </r>
       <r>    6.2495    0.0000 </r>
       <r>    6.8983    0.0000 </r>
       <r>   11.9762    0.0000 </r>
       <r>   12.3649    0.0000 </r>
       <r>   16.0776    0.0000 </r>
       <r>   16.1876    0.0000 </r>
      </set>
      <set comment="kpoint 33">
       <r>  -14.6160    1.0000 </r>
       <r>  -14.3305    1.0000 </r>
       <r>   -3.3565    1.0000 </r>
       <r>   -1.4814    1.0000 </r>
       <r>    0.4032    1.0000 </r>
       <r>    0.4280    1.0000 </r>
       <r>    0.9453    1.0000 </r>
       <r>    0.9628    1.0000 </r>
       <r>    9.4935    0.0000 </r>
       <r>   13.3767    0.0000 </r>
       <r>   13.4605    0.0000 </r>
       <r>   14.4057    0.0000 </r>
       <r>   14.4664    0.0000 </r>
       <r>   14.9511    0.0000 </r>
      </set>
      <set comment="kpoint 34">
       <r>  -14.1304    1.0000 </r>
       <r>  -13.8534    1.0000 </r>
       <r>   -2.7711    1.0000 </r>
       <r>   -0.9984    1.0000 </r>
       <r>   -0.9443    1.0000 </r>
       <r>   -0.9358    1.0000 </r>
       <r>    0.1279    1.0000 </r>
       <r>    0.1628    1.0000 </r>
       <r>   10.0867    0.0000 </r>
       <r>   13.4473    0.0000 </r>
       <r>   13.5181    0.0000 </r>
       <r>   13.6319    0.0000 </r>
       <r>   13.9109    0.0000 </r>
       <r>   15.6805    0.0000 </r>
      </set>
      <set comment="kpoint 35">
       <r>  -13.4074    1.0000 </r>
       <r>  -13.1433    1.0000 </r>
       <r>   -2.7494    1.0000 </r>
       <r>   -2.6585    1.0000 </r>
       <r>   -1.9079    1.0000 </r>
       <r>   -0.6853    1.0000 </r>
       <r>   -0.6361    1.0000 </r>
       <r>   -0.1380    1.0000 </r>
       <r>   10.9685    0.0000 </r>
       <r>   11.6331    0.0000 </r>
       <r>   12.2059    0.0000 </r>
       <r>   13.2435    0.0000 </r>
       <r>   13.5284    0.0000 </r>
       <r>   16.5355    0.0000 </r>
      </set>
      <set comment="kpoint 36">
       <r>  -12.4554    1.0000 </r>
       <r>  -12.2079    1.0000 </r>
       <r>   -4.6193    1.0000 </r>
       <r>   -4.4966    1.0000 </r>
       <r>   -1.3577    1.0000 </r>
       <r>   -1.3020    1.0000 </r>
       <r>   -0.7899    1.0000 </r>
       <r>    0.8704    1.0000 </r>
       <r>    9.5717    0.0000 </r>
       <r>   10.3728    0.0000 </r>
       <r>   12.1235    0.0000 </r>
       <r>   12.9389    0.0000 </r>
       <r>   13.3019    0.0000 </r>
       <r>   17.2134    0.0000 </r>
      </set>
      <set comment="kpoint 37">
       <r>  -11.2914    1.0000 </r>
       <r>  -11.0649    1.0000 </r>
       <r>   -6.4504    1.0000 </r>
       <r>   -6.3005    1.0000 </r>
       <r>   -1.8301    1.0000 </r>
       <r>   -1.7715    1.0000 </r>
       <r>    0.5192    1.0000 </r>
       <r>    1.9690    1.0000 </r>
       <r>    7.6404    0.0000 </r>
       <r>    8.5762    0.0000 </r>
       <r>   12.6602    0.0000 </r>
       <r>   13.0016    0.0000 </r>
       <r>   13.6824    0.0000 </r>
       <r>   17.8913    0.0000 </r>
      </set>
      <set comment="kpoint 38">
       <r>   -9.9856    1.0000 </r>
       <r>   -9.8001    1.0000 </r>
       <r>   -8.0856    1.0000 </r>
       <r>   -7.9318    1.0000 </r>
       <r>   -2.0728    1.0000 </r>
       <r>   -2.0129    1.0000 </r>
       <r>    1.7808    1.0000 </r>
       <r>    2.7007    1.0000 </r>
       <r>    6.3826    0.0000 </r>
       <r>    7.1205    0.0000 </r>
       <r>   12.5280    0.0000 </r>
       <r>   12.9237    0.0000 </r>
       <r>   15.3072    0.0000 </r>
       <r>   17.0994    0.0000 </r>
      </set>
      <set comment="kpoint 39">
       <r>  -13.5275    1.0000 </r>
       <r>  -13.2616    1.0000 </r>
       <r>   -2.1735    1.0000 </r>
       <r>   -2.1243    1.0000 </r>
       <r>   -2.0487    1.0000 </r>
       <r>   -0.9540    1.0000 </r>
       <r>   -0.9189    1.0000 </r>
       <r>   -0.2658    1.0000 </r>
       <r>   10.8302    0.0000 </r>
       <r>   12.0379    0.0000 </r>
       <r>   12.4801    0.0000 </r>
       <r>   14.2547    0.0000 </r>
       <r>   14.4570    0.0000 </r>
       <r>   15.9702    0.0000 </r>
      </set>
      <set comment="kpoint 40">
       <r>  -12.6926    1.0000 </r>
       <r>  -12.4408    1.0000 </r>
       <r>   -3.6943    1.0000 </r>
       <r>   -3.6100    1.0000 </r>
       <r>   -1.9298    1.0000 </r>
       <r>   -1.8738    1.0000 </r>
       <r>   -1.0599    1.0000 </r>
       <r>    0.6370    1.0000 </r>
       <r>   10.2737    0.0000 </r>
       <r>   10.8278    0.0000 </r>
       <r>   11.8604    0.0000 </r>
       <r>   14.4234    0.0000 </r>
       <r>   14.7625    0.0000 </r>
       <r>   16.8472    0.0000 </r>
      </set>
      <set comment="kpoint 41">
       <r>  -11.6374    1.0000 </r>
       <r>  -11.4049    1.0000 </r>
       <r>   -5.4174    1.0000 </r>
       <r>   -5.2903    1.0000 </r>
       <r>   -2.6036    1.0000 </r>
       <r>   -2.5300    1.0000 </r>
       <r>    0.1612    1.0000 </r>
       <r>    1.7137    1.0000 </r>
       <r>    8.4072    0.0000 </r>
       <r>    9.1386    0.0000 </r>
       <r>   13.1519    0.0000 </r>
       <r>   14.1907    0.0000 </r>
       <r>   14.6242    0.0000 </r>
       <r>   17.1942    0.0000 </r>
      </set>
      <set comment="kpoint 42">
       <r>  -10.3939    1.0000 </r>
       <r>  -10.1867    1.0000 </r>
       <r>   -7.1154    1.0000 </r>
       <r>   -6.9638    1.0000 </r>
       <r>   -2.9994    1.0000 </r>
       <r>   -2.9179    1.0000 </r>
       <r>    1.5027    1.0000 </r>
       <r>    2.7399    1.0000 </r>
       <r>    6.7798    0.0000 </r>
       <r>    7.5497    0.0000 </r>
       <r>   13.9702    0.0000 </r>
       <r>   14.3878    0.0000 </r>
       <r>   14.7833    0.0000 </r>
       <r>   17.4127    0.0000 </r>
      </set>
      <set comment="kpoint 43">
       <r>   -9.3150    1.0000 </r>
       <r>   -9.2097    1.0000 </r>
       <r>   -8.2661    1.0000 </r>
       <r>   -8.1897    1.0000 </r>
       <r>   -3.1308    1.0000 </r>
       <r>   -3.0461    1.0000 </r>
       <r>    2.4008    1.0000 </r>
       <r>    3.0640    1.0000 </r>
       <r>    6.2053    0.0000 </r>
       <r>    6.6033    0.0000 </r>
       <r>   13.9023    0.0000 </r>
       <r>   14.3735    0.0000 </r>
       <r>   16.3324    0.0000 </r>
       <r>   16.4344    0.0000 </r>
      </set>
      <set comment="kpoint 44">
       <r>  -11.7534    1.0000 </r>
       <r>  -11.5191    1.0000 </r>
       <r>   -4.7216    1.0000 </r>
       <r>   -4.6564    1.0000 </r>
       <r>   -3.2047    1.0000 </r>
       <r>   -3.1537    1.0000 </r>
       <r>    0.0370    1.0000 </r>
       <r>    1.6217    1.0000 </r>
       <r>    8.7756    0.0000 </r>
       <r>    9.3274    0.0000 </r>
       <r>   13.0196    0.0000 </r>
       <r>   15.8288    0.0000 </r>
       <r>   16.1518    0.0000 </r>
       <r>   16.9333    0.0000 </r>
      </set>
      <set comment="kpoint 45">
       <r>  -10.6121    1.0000 </r>
       <r>  -10.3991    1.0000 </r>
       <r>   -6.0928    1.0000 </r>
       <r>   -5.9810    1.0000 </r>
       <r>   -4.0369    1.0000 </r>
       <r>   -3.9544    1.0000 </r>
       <r>    1.3330    1.0000 </r>
       <r>    2.7219    1.0000 </r>
       <r>    7.2068    0.0000 </r>
       <r>    7.8396    0.0000 </r>
       <r>   14.4036    0.0000 </r>
       <r>   15.8644    0.0000 </r>
       <r>   16.5548    0.0000 </r>
       <r>   16.7303    0.0000 </r>
      </set>
      <set comment="kpoint 46">
       <r>   -9.3450    1.0000 </r>
       <r>   -9.1703    1.0000 </r>
       <r>   -7.5518    1.0000 </r>
       <r>   -7.4166    1.0000 </r>
       <r>   -4.3937    1.0000 </r>
       <r>   -4.2927    1.0000 </r>
       <r>    2.6258    1.0000 </r>
       <r>    3.5498    1.0000 </r>
       <r>    6.0487    0.0000 </r>
       <r>    6.5051    0.0000 </r>
       <r>   15.6823    0.0000 </r>
       <r>   15.8854    0.0000 </r>
       <r>   16.4480    0.0000 </r>
       <r>   16.5838    0.0000 </r>
      </set>
      <set comment="kpoint 47">
       <r>   -9.4216    1.0000 </r>
       <r>   -9.2341    1.0000 </r>
       <r>   -6.8317    1.0000 </r>
       <r>   -6.7485    1.0000 </r>
       <r>   -5.1816    1.0000 </r>
       <r>   -5.1253    1.0000 </r>
       <r>    2.6532    1.0000 </r>
       <r>    3.8015    1.0000 </r>
       <r>    5.9396    0.0000 </r>
       <r>    6.5777    0.0000 </r>
       <r>   15.7001    0.0000 </r>
       <r>   16.1367    0.0000 </r>
       <r>   16.4980    0.0000 </r>
       <r>   17.2819    0.0000 </r>
      </set>
      <set comment="kpoint 48">
       <r>   -8.3799    1.0000 </r>
       <r>   -8.2819    1.0000 </r>
       <r>   -7.6483    1.0000 </r>
       <r>   -7.6461    1.0000 </r>
       <r>   -5.5884    1.0000 </r>
       <r>   -5.5133    1.0000 </r>
       <r>    3.6859    1.0000 </r>
       <r>    4.3072    0.9834 </r>
       <r>    5.2574    0.0000 </r>
       <r>    5.6744    0.0000 </r>
       <r>   15.8838    0.0000 </r>
       <r>   15.9204    0.0000 </r>
       <r>   16.9037    0.0000 </r>
       <r>   17.2663    0.0000 </r>
      </set>
      <set comment="kpoint 49">
       <r>  -14.9714    1.0000 </r>
       <r>  -14.7019    1.0000 </r>
       <r>   -3.7396    1.0000 </r>
       <r>   -1.9863    1.0000 </r>
       <r>    1.7139    1.0000 </r>
       <r>    1.7139    1.0000 </r>
       <r>    1.7250    1.0000 </r>
       <r>    1.7250    1.0000 </r>
       <r>    9.2375    0.0000 </r>
       <r>   13.1384    0.0000 </r>
       <r>   13.1384    0.0000 </r>
       <r>   13.1809    0.0000 </r>
       <r>   13.1809    0.0000 </r>
       <r>   14.8268    0.0000 </r>
      </set>
      <set comment="kpoint 50">
       <r>  -14.8495    1.0000 </r>
       <r>  -14.5819    1.0000 </r>
       <r>   -3.5918    1.0000 </r>
       <r>   -1.8473    1.0000 </r>
       <r>    1.2177    1.0000 </r>
       <r>    1.2436    1.0000 </r>
       <r>    1.4522    1.0000 </r>
       <r>    1.4737    1.0000 </r>
       <r>    9.3839    0.0000 </r>
       <r>   13.1808    0.0000 </r>
       <r>   13.2441    0.0000 </r>
       <r>   13.6616    0.0000 </r>
       <r>   13.7022    0.0000 </r>
       <r>   14.9454    0.0000 </r>
      </set>
      <set comment="kpoint 51">
       <r>  -14.4843    1.0000 </r>
       <r>  -14.2225    1.0000 </r>
       <r>   -3.1518    1.0000 </r>
       <r>   -1.4319    1.0000 </r>
       <r>   -0.0684    1.0000 </r>
       <r>   -0.0212    1.0000 </r>
       <r>    0.8159    1.0000 </r>
       <r>    0.8495    1.0000 </r>
       <r>    9.8238    0.0000 </r>
       <r>   13.1415    0.0000 </r>
       <r>   13.2689    0.0000 </r>
       <r>   14.5587    0.0000 </r>
       <r>   15.0903    0.0000 </r>
       <r>   15.1221    0.0000 </r>
      </set>
      <set comment="kpoint 52">
       <r>  -13.8788    1.0000 </r>
       <r>  -13.6267    1.0000 </r>
       <r>   -2.4231    1.0000 </r>
       <r>   -1.7959    1.0000 </r>
       <r>   -1.7181    1.0000 </r>
       <r>   -0.7511    1.0000 </r>
       <r>    0.0521    1.0000 </r>
       <r>    0.0895    1.0000 </r>
       <r>   10.5537    0.0000 </r>
       <r>   12.7793    0.0000 </r>
       <r>   12.9196    0.0000 </r>
       <r>   13.1060    0.0000 </r>
       <r>   13.2946    0.0000 </r>
       <r>   15.8808    0.0000 </r>
      </set>
      <set comment="kpoint 53">
       <r>  -13.0390    1.0000 </r>
       <r>  -12.8009    1.0000 </r>
       <r>   -3.6942    1.0000 </r>
       <r>   -3.5893    1.0000 </r>
       <r>   -1.4256    1.0000 </r>
       <r>   -0.6640    1.0000 </r>
       <r>   -0.6217    1.0000 </r>
       <r>    0.1706    1.0000 </r>
       <r>   10.7035    0.0000 </r>
       <r>   11.4070    0.0000 </r>
       <r>   11.5851    0.0000 </r>
       <r>   12.5768    0.0000 </r>
       <r>   12.8949    0.0000 </r>
       <r>   16.6210    0.0000 </r>
      </set>
      <set comment="kpoint 54">
       <r>  -11.9768    1.0000 </r>
       <r>  -11.7551    1.0000 </r>
       <r>   -5.5932    1.0000 </r>
       <r>   -5.4639    1.0000 </r>
       <r>   -1.2264    1.0000 </r>
       <r>   -1.1840    1.0000 </r>
       <r>   -0.2043    1.0000 </r>
       <r>    1.2538    1.0000 </r>
       <r>    8.6300    0.0000 </r>
       <r>    9.5047    0.0000 </r>
       <r>   12.2413    0.0000 </r>
       <r>   12.4979    0.0000 </r>
       <r>   13.0447    0.0000 </r>
       <r>   17.4592    0.0000 </r>
      </set>
      <set comment="kpoint 55">
       <r>  -10.7199    1.0000 </r>
       <r>  -10.5222    1.0000 </r>
       <r>   -7.3739    1.0000 </r>
       <r>   -7.2259    1.0000 </r>
       <r>   -1.5879    1.0000 </r>
       <r>   -1.5355    1.0000 </r>
       <r>    1.1278    1.0000 </r>
       <r>    2.2811    1.0000 </r>
       <r>    6.8941    0.0000 </r>
       <r>    7.7789    0.0000 </r>
       <r>   12.0591    0.0000 </r>
       <r>   12.4003    0.0000 </r>
       <r>   14.5080    0.0000 </r>
       <r>   17.9687    0.0000 </r>
      </set>
      <set comment="kpoint 56">
       <r>   -9.6223    1.0000 </r>
       <r>   -9.5232    1.0000 </r>
       <r>   -8.5645    1.0000 </r>
       <r>   -8.4900    1.0000 </r>
       <r>   -1.7084    1.0000 </r>
       <r>   -1.6558    1.0000 </r>
       <r>    1.9899    1.0000 </r>
       <r>    2.6206    1.0000 </r>
       <r>    6.2395    0.0000 </r>
       <r>    6.8569    0.0000 </r>
       <r>   11.9897    0.0000 </r>
       <r>   12.3510    0.0000 </r>
       <r>   16.2236    0.0000 </r>
       <r>   16.2924    0.0000 </r>
      </set>
      <set comment="kpoint 57">
       <r>  -14.6058    1.0000 </r>
       <r>  -14.3421    1.0000 </r>
       <r>   -3.2966    1.0000 </r>
       <r>   -1.5694    1.0000 </r>
       <r>    0.4046    1.0000 </r>
       <r>    0.4268    1.0000 </r>
       <r>    0.9495    1.0000 </r>
       <r>    0.9630    1.0000 </r>
       <r>    9.6777    0.0000 </r>
       <r>   13.3758    0.0000 </r>
       <r>   13.4579    0.0000 </r>
       <r>   14.4106    0.0000 </r>
       <r>   14.4503    0.0000 </r>
       <r>   14.9571    0.0000 </r>
      </set>
      <set comment="kpoint 58">
       <r>  -14.1205    1.0000 </r>
       <r>  -13.8646    1.0000 </r>
       <r>   -2.7133    1.0000 </r>
       <r>   -1.0222    1.0000 </r>
       <r>   -0.9952    1.0000 </r>
       <r>   -0.9443    1.0000 </r>
       <r>    0.1290    1.0000 </r>
       <r>    0.1620    1.0000 </r>
       <r>   10.2663    0.0000 </r>
       <r>   13.4293    0.0000 </r>
       <r>   13.5502    0.0000 </r>
       <r>   13.6187    0.0000 </r>
       <r>   13.9013    0.0000 </r>
       <r>   15.6376    0.0000 </r>
      </set>
      <set comment="kpoint 59">
       <r>  -13.3978    1.0000 </r>
       <r>  -13.1539    1.0000 </r>
       <r>   -2.7459    1.0000 </r>
       <r>   -2.6619    1.0000 </r>
       <r>   -1.8494    1.0000 </r>
       <r>   -0.6834    1.0000 </r>
       <r>   -0.6376    1.0000 </r>
       <r>   -0.2171    1.0000 </r>
       <r>   11.1292    0.0000 </r>
       <r>   11.6624    0.0000 </r>
       <r>   12.1763    0.0000 </r>
       <r>   13.2527    0.0000 </r>
       <r>   13.5269    0.0000 </r>
       <r>   16.2409    0.0000 </r>
      </set>
      <set comment="kpoint 60">
       <r>  -12.4464    1.0000 </r>
       <r>  -12.2178    1.0000 </r>
       <r>   -4.6150    1.0000 </r>
       <r>   -4.5025    1.0000 </r>
       <r>   -1.3595    1.0000 </r>
       <r>   -1.3050    1.0000 </r>
       <r>   -0.7345    1.0000 </r>
       <r>    0.7971    1.0000 </r>
       <r>    9.5889    0.0000 </r>
       <r>   10.3328    0.0000 </r>
       <r>   12.2831    0.0000 </r>
       <r>   12.9507    0.0000 </r>
       <r>   13.3020    0.0000 </r>
       <r>   16.9634    0.0000 </r>
      </set>
      <set comment="kpoint 61">
       <r>  -11.2831    1.0000 </r>
       <r>  -11.0736    1.0000 </r>
       <r>   -6.4449    1.0000 </r>
       <r>   -6.3075    1.0000 </r>
       <r>   -1.8307    1.0000 </r>
       <r>   -1.7750    1.0000 </r>
       <r>    0.5680    1.0000 </r>
       <r>    1.9043    1.0000 </r>
       <r>    7.6577    0.0000 </r>
       <r>    8.5242    0.0000 </r>
       <r>   12.6726    0.0000 </r>
       <r>   12.9926    0.0000 </r>
       <r>   13.8285    0.0000 </r>
       <r>   17.6790    0.0000 </r>
      </set>
      <set comment="kpoint 62">
       <r>   -9.9786    1.0000 </r>
       <r>   -9.8074    1.0000 </r>
       <r>   -8.0793    1.0000 </r>
       <r>   -7.9380    1.0000 </r>
       <r>   -2.0741    1.0000 </r>
       <r>   -2.0152    1.0000 </r>
       <r>    1.8195    1.0000 </r>
       <r>    2.6774    1.0000 </r>
       <r>    6.3835    0.0000 </r>
       <r>    7.0781    0.0000 </r>
       <r>   12.5406    0.0000 </r>
       <r>   12.9087    0.0000 </r>
       <r>   15.4378    0.0000 </r>
       <r>   17.1672    0.0000 </r>
      </set>
      <set comment="kpoint 63">
       <r>  -13.5180    1.0000 </r>
       <r>  -13.2723    1.0000 </r>
       <r>   -2.1721    1.0000 </r>
       <r>   -2.1270    1.0000 </r>
       <r>   -1.9928    1.0000 </r>
       <r>   -0.9530    1.0000 </r>
       <r>   -0.9204    1.0000 </r>
       <r>   -0.3469    1.0000 </r>
       <r>   11.0034    0.0000 </r>
       <r>   12.0456    0.0000 </r>
       <r>   12.4493    0.0000 </r>
       <r>   14.2585    0.0000 </r>
       <r>   14.4652    0.0000 </r>
       <r>   15.9684    0.0000 </r>
      </set>
      <set comment="kpoint 64">
       <r>  -12.6834    1.0000 </r>
       <r>  -12.4508    1.0000 </r>
       <r>   -3.6910    1.0000 </r>
       <r>   -3.6123    1.0000 </r>
       <r>   -1.9281    1.0000 </r>
       <r>   -1.8754    1.0000 </r>
       <r>   -1.0043    1.0000 </r>
       <r>    0.5604    1.0000 </r>
       <r>   10.2947    0.0000 </r>
       <r>   10.8064    0.0000 </r>
       <r>   12.0244    0.0000 </r>
       <r>   14.4302    0.0000 </r>
       <r>   14.7568    0.0000 </r>
       <r>   16.5728    0.0000 </r>
      </set>
      <set comment="kpoint 65">
       <r>  -11.6289    1.0000 </r>
       <r>  -11.4142    1.0000 </r>
       <r>   -5.4128    1.0000 </r>
       <r>   -5.2968    1.0000 </r>
       <r>   -2.6017    1.0000 </r>
       <r>   -2.5333    1.0000 </r>
       <r>    0.2127    1.0000 </r>
       <r>    1.6444    1.0000 </r>
       <r>    8.4290    0.0000 </r>
       <r>    9.1073    0.0000 </r>
       <r>   13.2934    0.0000 </r>
       <r>   14.2021    0.0000 </r>
       <r>   14.6152    0.0000 </r>
       <r>   17.0088    0.0000 </r>
      </set>
      <set comment="kpoint 66">
       <r>  -10.3864    1.0000 </r>
       <r>  -10.1949    1.0000 </r>
       <r>   -7.1099    1.0000 </r>
       <r>   -6.9698    1.0000 </r>
       <r>   -2.9962    1.0000 </r>
       <r>   -2.9199    1.0000 </r>
       <r>    1.5472    1.0000 </r>
       <r>    2.6929    1.0000 </r>
       <r>    6.7974    0.0000 </r>
       <r>    7.5124    0.0000 </r>
       <r>   13.9866    0.0000 </r>
       <r>   14.3749    0.0000 </r>
       <r>   14.8892    0.0000 </r>
       <r>   17.2260    0.0000 </r>
      </set>
      <set comment="kpoint 67">
       <r>   -9.3103    1.0000 </r>
       <r>   -9.2129    1.0000 </r>
       <r>   -8.2642    1.0000 </r>
       <r>   -8.1936    1.0000 </r>
       <r>   -3.1274    1.0000 </r>
       <r>   -3.0493    1.0000 </r>
       <r>    2.4346    1.0000 </r>
       <r>    3.0552    1.0000 </r>
       <r>    6.1970    0.0000 </r>
       <r>    6.5710    0.0000 </r>
       <r>   13.9181    0.0000 </r>
       <r>   14.3545    0.0000 </r>
       <r>   16.3890    0.0000 </r>
       <r>   16.4223    0.0000 </r>
      </set>
      <set comment="kpoint 68">
       <r>  -11.7448    1.0000 </r>
       <r>  -11.5286    1.0000 </r>
       <r>   -4.7203    1.0000 </r>
       <r>   -4.6581    1.0000 </r>
       <r>   -3.2029    1.0000 </r>
       <r>   -3.1551    1.0000 </r>
       <r>    0.0892    1.0000 </r>
       <r>    1.5518    1.0000 </r>
       <r>    8.7987    0.0000 </r>
       <r>    9.3056    0.0000 </r>
       <r>   13.1600    0.0000 </r>
       <r>   15.8130    0.0000 </r>
       <r>   16.1615    0.0000 </r>
       <r>   16.7595    0.0000 </r>
      </set>
      <set comment="kpoint 69">
       <r>  -10.6043    1.0000 </r>
       <r>  -10.4075    1.0000 </r>
       <r>   -6.0886    1.0000 </r>
       <r>   -5.9860    1.0000 </r>
       <r>   -4.0347    1.0000 </r>
       <r>   -3.9582    1.0000 </r>
       <r>    1.3777    1.0000 </r>
       <r>    2.6662    1.0000 </r>
       <r>    7.2249    0.0000 </r>
       <r>    7.8102    0.0000 </r>
       <r>   14.4928    0.0000 </r>
       <r>   15.8438    0.0000 </r>
       <r>   16.5324    0.0000 </r>
       <r>   16.6183    0.0000 </r>
      </set>
      <set comment="kpoint 70">
       <r>   -9.3385    1.0000 </r>
       <r>   -9.1770    1.0000 </r>
       <r>   -7.5470    1.0000 </r>
       <r>   -7.4221    1.0000 </r>
       <r>   -4.3899    1.0000 </r>
       <r>   -4.2985    1.0000 </r>
       <r>    2.6654    1.0000 </r>
       <r>    3.5266    1.0000 </r>
       <r>    6.0526    0.0000 </r>
       <r>    6.4820    0.0000 </r>
       <r>   15.6797    0.0000 </r>
       <r>   15.7635    0.0000 </r>
       <r>   16.3643    0.0000 </r>
       <r>   16.5170    0.0000 </r>
      </set>
      <set comment="kpoint 71">
       <r>   -9.4149    1.0000 </r>
       <r>   -9.2415    1.0000 </r>
       <r>   -6.8285    1.0000 </r>
       <r>   -6.7515    1.0000 </r>
       <r>   -5.1808    1.0000 </r>
       <r>   -5.1284    1.0000 </r>
       <r>    2.6932    1.0000 </r>
       <r>    3.7596    1.0000 </r>
       <r>    5.9563    0.0000 </r>
       <r>    6.5439    0.0000 </r>
       <r>   15.5453    0.0000 </r>
       <r>   15.9533    0.0000 </r>
       <r>   16.6802    0.0000 </r>
       <r>   17.4847    0.0000 </r>
      </set>
      <set comment="kpoint 72">
       <r>   -8.3756    1.0000 </r>
       <r>   -8.2847    1.0000 </r>
       <r>   -7.6492    1.0000 </r>
       <r>   -7.6468    1.0000 </r>
       <r>   -5.5859    1.0000 </r>
       <r>   -5.5167    1.0000 </r>
       <r>    3.7254    1.0000 </r>
       <r>    4.3077    0.9807 </r>
       <r>    5.2614    0.0000 </r>
       <r>    5.6382    0.0000 </r>
       <r>   15.6575    0.0000 </r>
       <r>   15.7267    0.0000 </r>
       <r>   17.0165    0.0000 </r>
       <r>   17.4932    0.0000 </r>
      </set>
      <set comment="kpoint 73">
       <r>  -14.9546    1.0000 </r>
       <r>  -14.7208    1.0000 </r>
       <r>   -3.6390    1.0000 </r>
       <r>   -2.1256    1.0000 </r>
       <r>    1.7140    1.0000 </r>
       <r>    1.7140    1.0000 </r>
       <r>    1.7238    1.0000 </r>
       <r>    1.7238    1.0000 </r>
       <r>    9.5405    0.0000 </r>
       <r>   13.1413    0.0000 </r>
       <r>   13.1413    0.0000 </r>
       <r>   13.1769    0.0000 </r>
       <r>   13.1769    0.0000 </r>
       <r>   14.2955    0.0000 </r>
      </set>
      <set comment="kpoint 74">
       <r>  -14.8326    1.0000 </r>
       <r>  -14.6005    1.0000 </r>
       <r>   -3.4913    1.0000 </r>
       <r>   -1.9850    1.0000 </r>
       <r>    1.2202    1.0000 </r>
       <r>    1.2434    1.0000 </r>
       <r>    1.4574    1.0000 </r>
       <r>    1.4740    1.0000 </r>
       <r>    9.6854    0.0000 </r>
       <r>   13.1835    0.0000 </r>
       <r>   13.2437    0.0000 </r>
       <r>   13.6665    0.0000 </r>
       <r>   13.7094    0.0000 </r>
       <r>   14.4240    0.0000 </r>
      </set>
      <set comment="kpoint 75">
       <r>  -14.4679    1.0000 </r>
       <r>  -14.2408    1.0000 </r>
       <r>   -3.0541    1.0000 </r>
       <r>   -1.5685    1.0000 </r>
       <r>   -0.0659    1.0000 </r>
       <r>   -0.0243    1.0000 </r>
       <r>    0.8159    1.0000 </r>
       <r>    0.8448    1.0000 </r>
       <r>   10.1195    0.0000 </r>
       <r>   13.1421    0.0000 </r>
       <r>   13.2604    0.0000 </r>
       <r>   14.5594    0.0000 </r>
       <r>   14.7362    0.0000 </r>
       <r>   14.9345    0.0000 </r>
      </set>
      <set comment="kpoint 76">
       <r>  -13.8629    1.0000 </r>
       <r>  -13.6443    1.0000 </r>
       <r>   -2.3277    1.0000 </r>
       <r>   -1.7909    1.0000 </r>
       <r>   -1.7231    1.0000 </r>
       <r>   -0.8798    1.0000 </r>
       <r>    0.0535    1.0000 </r>
       <r>    0.0871    1.0000 </r>
       <r>   10.8371    0.0000 </r>
       <r>   12.7860    0.0000 </r>
       <r>   12.9488    0.0000 </r>
       <r>   13.0652    0.0000 </r>
       <r>   13.2857    0.0000 </r>
       <r>   15.4064    0.0000 </r>
      </set>
      <set comment="kpoint 77">
       <r>  -13.0239    1.0000 </r>
       <r>  -12.8177    1.0000 </r>
       <r>   -3.6874    1.0000 </r>
       <r>   -3.5992    1.0000 </r>
       <r>   -1.3350    1.0000 </r>
       <r>   -0.6641    1.0000 </r>
       <r>   -0.6251    1.0000 </r>
       <r>    0.0486    1.0000 </r>
       <r>   10.7247    0.0000 </r>
       <r>   11.3485    0.0000 </r>
       <r>   11.8591    0.0000 </r>
       <r>   12.5934    0.0000 </r>
       <r>   12.8984    0.0000 </r>
       <r>   16.1846    0.0000 </r>
      </set>
[...]
       </set>
       <set comment="band 10">
        <r>  0.0001  0.0002  0.0000  0.0007  0.0000  0.0000  0.0000  0.0000  0.0000 </r>
        <r>  0.0001  0.0001  0.0000  0.0003  0.0000  0.0000  0.0000  0.0000  0.0000 </r>
        <r>  0.0000  0.0000  0.2708  0.0000  0.0000  0.0000  0.0000  0.0000  0.0000 </r>
        <r>  0.0000  0.0000  0.2732  0.0000  0.0000  0.0000  0.0000  0.0000  0.0000 </r>
       </set>
       <set comment="band 11">
        <r>  0.0020  0.0053  0.0000  0.0132  0.0000  0.0000  0.0000  0.0000  0.0000 </r>
        <r>  0.0113  0.0403  0.0000  0.0396  0.0000  0.0000  0.0000  0.0000  0.0000 </r>
        <r>  0.0000  0.0000  0.0391  0.0000  0.0000  0.0000  0.0000  0.0000  0.0000 </r>
        <r>  0.0000  0.0000  0.0331  0.0000  0.0000  0.0000  0.0000  0.0000  0.0000 </r>
       </set>
       <set comment="band 12">
        <r>  0.0000  0.0000  0.0331  0.0000  0.0000  0.0000  0.0000  0.0000  0.0000 </r>
        <r>  0.0000  0.0000  0.0391  0.0000  0.0000  0.0000  0.0000  0.0000  0.0000 </r>
        <r>  0.0113  0.0403  0.0000  0.0396  0.0000  0.0000  0.0000  0.0000  0.0000 </r>
        <r>  0.0020  0.0053  0.0000  0.0132  0.0000  0.0000  0.0000  0.0000  0.0000 </r>
       </set>
       <set comment="band 13">
        <r>  0.0934  0.0892  0.0000  0.0739  0.0000  0.0000  0.0000  0.0000  0.0000 </r>
        <r>  0.0844  0.0449  0.0000  0.0523  0.0000  0.0000  0.0000  0.0000  0.0000 </r>
        <r>  0.0000  0.0000  0.0090  0.0000  0.0000  0.0000  0.0000  0.0000  0.0000 </r>
        <r>  0.0000  0.0000  0.0129  0.0000  0.0000  0.0000  0.0000  0.0000  0.0000 </r>
       </set>
       <set comment="band 14">
        <r>  0.0000  0.0000  0.0129  0.0000  0.0000  0.0000  0.0000  0.0000  0.0000 </r>
        <r>  0.0000  0.0000  0.0090  0.0000  0.0000  0.0000  0.0000  0.0000  0.0000 </r>
        <r>  0.0844  0.0449  0.0000  0.0523  0.0000  0.0000  0.0000  0.0000  0.0000 </r>
        <r>  0.0934  0.0892  0.0000  0.0739  0.0000  0.0000  0.0000  0.0000  0.0000 </r>
       </set>
      </set>
      <set comment="kpoint 190">
       <set comment="band 1">
        <r>  0.2587  0.0608  0.0000  0.0384  0.0000  0.0000  0.0000  0.0000  0.0000 </r>
        <r>  0.2603  0.0606  0.0000  0.0380  0.0000  0.0000  0.0000  0.0000  0.0000 </r>
        <r>  0.0000  0.0000  0.0000  0.0000  0.0000  0.0000  0.0000  0.0000  0.0000 </r>
        <r>  0.0000  0.0000  0.0000  0.0000  0.0000  0.0000  0.0000  0.0000  0.0000 </r>
       </set>
       <set comment="band 2">
        <r>  0.0000  0.0000  0.0000  0.0000  0.0000  0.0000  0.0000  0.0000  0.0000 </r>
        <r>  0.0000  0.0000  0.0000  0.0000  0.0000  0.0000  0.0000  0.0000  0.0000 </r>
        <r>  0.2603  0.0606  0.0000  0.0380  0.0000  0.0000  0.0000  0.0000  0.0000 </r>
        <r>  0.2587  0.0608  0.0000  0.0384  0.0000  0.0000  0.0000  0.0000  0.0000 </r>
       </set>
       <set comment="band 3">
        <r>  0.1803  0.0245  0.0000  0.1523  0.0000  0.0000  0.0000  0.0000  0.0000 </r>
        <r>  0.1790  0.0248  0.0000  0.1530  0.0000  0.0000  0.0000  0.0000  0.0000 </r>
        <r>  0.0000  0.0000  0.0000  0.0000  0.0000  0.0000  0.0000  0.0000  0.0000 </r>
        <r>  0.0000  0.0000  0.0000  0.0000  0.0000  0.0000  0.0000  0.0000  0.0000 </r>
       </set>
       <set comment="band 4">
        <r>  0.0000  0.0000  0.0000  0.0000  0.0000  0.0000  0.0000  0.0000  0.0000 </r>
        <r>  0.0000  0.0000  0.0000  0.0000  0.0000  0.0000  0.0000  0.0000  0.0000 </r>
        <r>  0.1790  0.0248  0.0000  0.1530  0.0000  0.0000  0.0000  0.0000  0.0000 </r>
        <r>  0.1803  0.0245  0.0000  0.1523  0.0000  0.0000  0.0000  0.0000  0.0000 </r>
       </set>
       <set comment="band 5">
        <r>  0.0462  0.2164  0.0000  0.0934  0.0000  0.0000  0.0000  0.0000  0.0000 </r>
        <r>  0.0460  0.2167  0.0000  0.0935  0.0000  0.0000  0.0000  0.0000  0.0000 </r>
        <r>  0.0000  0.0000  0.0000  0.0000  0.0000  0.0000  0.0000  0.0000  0.0000 </r>
        <r>  0.0000  0.0000  0.0000  0.0000  0.0000  0.0000  0.0000  0.0000  0.0000 </r>
       </set>
       <set comment="band 6">
        <r>  0.0000  0.0000  0.0000  0.0000  0.0000  0.0000  0.0000  0.0000  0.0000 </r>
        <r>  0.0000  0.0000  0.0000  0.0000  0.0000  0.0000  0.0000  0.0000  0.0000 </r>
        <r>  0.0460  0.2167  0.0000  0.0935  0.0000  0.0000  0.0000  0.0000  0.0000 </r>
        <r>  0.0462  0.2164  0.0000  0.0934  0.0000  0.0000  0.0000  0.0000  0.0000 </r>
       </set>
       <set comment="band 7">
        <r>  0.0000  0.0000  0.2528  0.0000  0.0000  0.0000  0.0000  0.0000  0.0000 </r>
        <r>  0.0000  0.0000  0.2561  0.0000  0.0000  0.0000  0.0000  0.0000  0.0000 </r>
        <r>  0.0006  0.0002  0.0000  0.0001  0.0000  0.0000  0.0000  0.0000  0.0000 </r>
        <r>  0.0001  0.0004  0.0000  0.0005  0.0000  0.0000  0.0000  0.0000  0.0000 </r>
       </set>
       <set comment="band 8">
        <r>  0.0001  0.0004  0.0000  0.0005  0.0000  0.0000  0.0000  0.0000  0.0000 </r>
        <r>  0.0006  0.0002  0.0000  0.0001  0.0000  0.0000  0.0000  0.0000  0.0000 </r>
        <r>  0.0000  0.0000  0.2561  0.0000  0.0000  0.0000  0.0000  0.0000  0.0000 </r>
        <r>  0.0000  0.0000  0.2528  0.0000  0.0000  0.0000  0.0000  0.0000  0.0000 </r>
       </set>
       <set comment="band 9">
        <r>  0.0000  0.0000  0.2586  0.0000  0.0000  0.0000  0.0000  0.0000  0.0000 </r>
        <r>  0.0000  0.0000  0.2549  0.0000  0.0000  0.0000  0.0000  0.0000  0.0000 </r>
        <r>  0.0002  0.0001  0.0000  0.0005  0.0000  0.0000  0.0000  0.0000  0.0000 </r>
        <r>  0.0003  0.0003  0.0000  0.0004  0.0000  0.0000  0.0000  0.0000  0.0000 </r>
       </set>
       <set comment="band 10">
        <r>  0.0003  0.0003  0.0000  0.0004  0.0000  0.0000  0.0000  0.0000  0.0000 </r>
        <r>  0.0002  0.0001  0.0000  0.0005  0.0000  0.0000  0.0000  0.0000  0.0000 </r>
        <r>  0.0000  0.0000  0.2549  0.0000  0.0000  0.0000  0.0000  0.0000  0.0000 </r>
        <r>  0.0000  0.0000  0.2586  0.0000  0.0000  0.0000  0.0000  0.0000  0.0000 </r>
       </set>
       <set comment="band 11">
        <r>  0.0121  0.0102  0.0000  0.0111  0.0000  0.0000  0.0000  0.0000  0.0000 </r>
        <r>  0.0247  0.0524  0.0000  0.0495  0.0000  0.0000  0.0000  0.0000  0.0000 </r>
        <r>  0.0000  0.0000  0.0176  0.0000  0.0000  0.0000  0.0000  0.0000  0.0000 </r>
        <r>  0.0000  0.0000  0.0171  0.0000  0.0000  0.0000  0.0000  0.0000  0.0000 </r>
       </set>
       <set comment="band 12">
        <r>  0.0000  0.0000  0.0171  0.0000  0.0000  0.0000  0.0000  0.0000  0.0000 </r>
        <r>  0.0000  0.0000  0.0176  0.0000  0.0000  0.0000  0.0000  0.0000  0.0000 </r>
        <r>  0.0247  0.0524  0.0000  0.0495  0.0000  0.0000  0.0000  0.0000  0.0000 </r>
        <r>  0.0121  0.0102  0.0000  0.0111  0.0000  0.0000  0.0000  0.0000  0.0000 </r>
       </set>
       <set comment="band 13">
        <r>  0.0920  0.0943  0.0000  0.0627  0.0000  0.0000  0.0000  0.0000  0.0000 </r>
        <r>  0.0765  0.0389  0.0000  0.0245  0.0000  0.0000  0.0000  0.0000  0.0000 </r>
        <r>  0.0000  0.0000  0.0167  0.0000  0.0000  0.0000  0.0000  0.0000  0.0000 </r>
        <r>  0.0000  0.0000  0.0136  0.0000  0.0000  0.0000  0.0000  0.0000  0.0000 </r>
       </set>
       <set comment="band 14">
        <r>  0.0000  0.0000  0.0136  0.0000  0.0000  0.0000  0.0000  0.0000  0.0000 </r>
        <r>  0.0000  0.0000  0.0167  0.0000  0.0000  0.0000  0.0000  0.0000  0.0000 </r>
        <r>  0.0765  0.0389  0.0000  0.0245  0.0000  0.0000  0.0000  0.0000  0.0000 </r>
        <r>  0.0920  0.0943  0.0000  0.0627  0.0000  0.0000  0.0000  0.0000  0.0000 </r>
       </set>
      </set>
      <set comment="kpoint 191">
       <set comment="band 1">
        <r>  0.2501  0.0758  0.0000  0.0294  0.0000  0.0000  0.0000  0.0000  0.0000 </r>
        <r>  0.2515  0.0755  0.0000  0.0293  0.0000  0.0000  0.0000  0.0000  0.0000 </r>
        <r>  0.0000  0.0000  0.0000  0.0000  0.0000  0.0000  0.0000  0.0000  0.0000 </r>
        <r>  0.0000  0.0000  0.0000  0.0000  0.0000  0.0000  0.0000  0.0000  0.0000 </r>
       </set>
       <set comment="band 2">
        <r>  0.0000  0.0000  0.0000  0.0000  0.0000  0.0000  0.0000  0.0000  0.0000 </r>
        <r>  0.0000  0.0000  0.0000  0.0000  0.0000  0.0000  0.0000  0.0000  0.0000 </r>
        <r>  0.2515  0.0755  0.0000  0.0293  0.0000  0.0000  0.0000  0.0000  0.0000 </r>
        <r>  0.2501  0.0758  0.0000  0.0294  0.0000  0.0000  0.0000  0.0000  0.0000 </r>
       </set>
       <set comment="band 3">
        <r>  0.2192  0.0883  0.0000  0.0687  0.0000  0.0000  0.0000  0.0000  0.0000 </r>
        <r>  0.2182  0.0890  0.0000  0.0689  0.0000  0.0000  0.0000  0.0000  0.0000 </r>
        <r>  0.0000  0.0000  0.0000  0.0000  0.0000  0.0000  0.0000  0.0000  0.0000 </r>
        <r>  0.0000  0.0000  0.0000  0.0000  0.0000  0.0000  0.0000  0.0000  0.0000 </r>
       </set>
       <set comment="band 4">
        <r>  0.0000  0.0000  0.0000  0.0000  0.0000  0.0000  0.0000  0.0000  0.0000 </r>
        <r>  0.0000  0.0000  0.0000  0.0000  0.0000  0.0000  0.0000  0.0000  0.0000 </r>
        <r>  0.2182  0.0890  0.0000  0.0689  0.0000  0.0000  0.0000  0.0000  0.0000 </r>
        <r>  0.2192  0.0883  0.0000  0.0687  0.0000  0.0000  0.0000  0.0000  0.0000 </r>
       </set>
       <set comment="band 5">
        <r>  0.0216  0.1209  0.0000  0.1939  0.0000  0.0000  0.0000  0.0000  0.0000 </r>
        <r>  0.0214  0.1209  0.0000  0.1943  0.0000  0.0000  0.0000  0.0000  0.0000 </r>
        <r>  0.0000  0.0000  0.0000  0.0000  0.0000  0.0000  0.0000  0.0000  0.0000 </r>
        <r>  0.0000  0.0000  0.0000  0.0000  0.0000  0.0000  0.0000  0.0000  0.0000 </r>
       </set>
       <set comment="band 6">
        <r>  0.0000  0.0000  0.0000  0.0000  0.0000  0.0000  0.0000  0.0000  0.0000 </r>
        <r>  0.0000  0.0000  0.0000  0.0000  0.0000  0.0000  0.0000  0.0000  0.0000 </r>
        <r>  0.0214  0.1209  0.0000  0.1943  0.0000  0.0000  0.0000  0.0000  0.0000 </r>
        <r>  0.0216  0.1209  0.0000  0.1939  0.0000  0.0000  0.0000  0.0000  0.0000 </r>
       </set>
       <set comment="band 7">
        <r>  0.0000  0.0000  0.2501  0.0000  0.0000  0.0000  0.0000  0.0000  0.0000 </r>
        <r>  0.0000  0.0000  0.2536  0.0000  0.0000  0.0000  0.0000  0.0000  0.0000 </r>
        <r>  0.0006  0.0002  0.0000  0.0001  0.0000  0.0000  0.0000  0.0000  0.0000 </r>
        <r>  0.0002  0.0006  0.0000  0.0002  0.0000  0.0000  0.0000  0.0000  0.0000 </r>
       </set>
       <set comment="band 8">
        <r>  0.0002  0.0006  0.0000  0.0002  0.0000  0.0000  0.0000  0.0000  0.0000 </r>
        <r>  0.0006  0.0002  0.0000  0.0001  0.0000  0.0000  0.0000  0.0000  0.0000 </r>
        <r>  0.0000  0.0000  0.2536  0.0000  0.0000  0.0000  0.0000  0.0000  0.0000 </r>
        <r>  0.0000  0.0000  0.2501  0.0000  0.0000  0.0000  0.0000  0.0000  0.0000 </r>
       </set>
       <set comment="band 9">
        <r>  0.0000  0.0000  0.2703  0.0000  0.0000  0.0000  0.0000  0.0000  0.0000 </r>
        <r>  0.0000  0.0000  0.2664  0.0000  0.0000  0.0000  0.0000  0.0000  0.0000 </r>
        <r>  0.0002  0.0002  0.0000  0.0002  0.0000  0.0000  0.0000  0.0000  0.0000 </r>
        <r>  0.0000  0.0002  0.0000  0.0007  0.0000  0.0000  0.0000  0.0000  0.0000 </r>
       </set>
       <set comment="band 10">
        <r>  0.0000  0.0002  0.0000  0.0007  0.0000  0.0000  0.0000  0.0000  0.0000 </r>
        <r>  0.0002  0.0002  0.0000  0.0002  0.0000  0.0000  0.0000  0.0000  0.0000 </r>
        <r>  0.0000  0.0000  0.2664  0.0000  0.0000  0.0000  0.0000  0.0000  0.0000 </r>
        <r>  0.0000  0.0000  0.2703  0.0000  0.0000  0.0000  0.0000  0.0000  0.0000 </r>
       </set>
       <set comment="band 11">
        <r>  0.0000  0.0000  0.0134  0.0000  0.0000  0.0000  0.0000  0.0000  0.0000 </r>
        <r>  0.0000  0.0000  0.0145  0.0000  0.0000  0.0000  0.0000  0.0000  0.0000 </r>
        <r>  0.0018  0.0278  0.0000  0.0248  0.0000  0.0000  0.0000  0.0000  0.0000 </r>
        <r>  0.0000  0.0003  0.0000  0.0002  0.0000  0.0000  0.0000  0.0000  0.0000 </r>
       </set>
       <set comment="band 12">
        <r>  0.0000  0.0003  0.0000  0.0002  0.0000  0.0000  0.0000  0.0000  0.0000 </r>
        <r>  0.0018  0.0278  0.0000  0.0248  0.0000  0.0000  0.0000  0.0000  0.0000 </r>
        <r>  0.0000  0.0000  0.0145  0.0000  0.0000  0.0000  0.0000  0.0000  0.0000 </r>
        <r>  0.0000  0.0000  0.0134  0.0000  0.0000  0.0000  0.0000  0.0000  0.0000 </r>
       </set>
       <set comment="band 13">
        <r>  0.0208  0.1349  0.0000  0.1595  0.0000  0.0000  0.0000  0.0000  0.0000 </r>
        <r>  0.0666  0.0101  0.0040  0.0076  0.0000  0.0000  0.0000  0.0000  0.0000 </r>
        <r>  0.0157  0.0023  0.0169  0.0017  0.0000  0.0000  0.0000  0.0000  0.0000 </r>
        <r>  0.0048  0.0318  0.0001  0.0378  0.0000  0.0000  0.0000  0.0000  0.0000 </r>
       </set>
       <set comment="band 14">
        <r>  0.0051  0.0318  0.0001  0.0372  0.0000  0.0000  0.0000  0.0000  0.0000 </r>
        <r>  0.0156  0.0025  0.0168  0.0019  0.0000  0.0000  0.0000  0.0000  0.0000 </r>
        <r>  0.0669  0.0095  0.0040  0.0071  0.0000  0.0000  0.0000  0.0000  0.0000 </r>
        <r>  0.0200  0.1348  0.0000  0.1608  0.0000  0.0000  0.0000  0.0000  0.0000 </r>
       </set>
      </set>
      <set comment="kpoint 192">
       <set comment="band 1">
        <r>  0.2590  0.0500  0.0000  0.0585  0.0000  0.0000  0.0000  0.0000  0.0000 </r>
        <r>  0.2640  0.0492  0.0000  0.0572  0.0000  0.0000  0.0000  0.0000  0.0000 </r>
        <r>  0.0000  0.0000  0.0000  0.0000  0.0000  0.0000  0.0000  0.0000  0.0000 </r>
        <r>  0.0000  0.0000  0.0000  0.0000  0.0000  0.0000  0.0000  0.0000  0.0000 </r>
       </set>
       <set comment="band 2">
        <r>  0.0000  0.0000  0.0000  0.0000  0.0000  0.0000  0.0000  0.0000  0.0000 </r>
        <r>  0.0000  0.0000  0.0000  0.0000  0.0000  0.0000  0.0000  0.0000  0.0000 </r>
        <r>  0.2640  0.0492  0.0000  0.0572  0.0000  0.0000  0.0000  0.0000  0.0000 </r>
        <r>  0.2590  0.0500  0.0000  0.0585  0.0000  0.0000  0.0000  0.0000  0.0000 </r>
       </set>
       <set comment="band 3">
        <r>  0.2148  0.0442  0.0000  0.1065  0.0000  0.0000  0.0000  0.0000  0.0000 </r>
        <r>  0.2101  0.0451  0.0000  0.1082  0.0000  0.0000  0.0000  0.0000  0.0000 </r>
        <r>  0.0000  0.0000  0.0000  0.0000  0.0000  0.0000  0.0000  0.0000  0.0000 </r>
        <r>  0.0000  0.0000  0.0000  0.0000  0.0000  0.0000  0.0000  0.0000  0.0000 </r>
       </set>
       <set comment="band 4">
        <r>  0.0000  0.0000  0.0000  0.0000  0.0000  0.0000  0.0000  0.0000  0.0000 </r>
        <r>  0.0000  0.0000  0.0000  0.0000  0.0000  0.0000  0.0000  0.0000  0.0000 </r>
        <r>  0.2101  0.0451  0.0000  0.1082  0.0000  0.0000  0.0000  0.0000  0.0000 </r>
        <r>  0.2148  0.0442  0.0000  0.1065  0.0000  0.0000  0.0000  0.0000  0.0000 </r>
       </set>
       <set comment="band 5">
        <r>  0.0222  0.1938  0.0000  0.1168  0.0000  0.0000  0.0000  0.0000  0.0000 </r>
        <r>  0.0221  0.1941  0.0000  0.1168  0.0000  0.0000  0.0000  0.0000  0.0000 </r>
        <r>  0.0000  0.0000  0.0000  0.0000  0.0000  0.0000  0.0000  0.0000  0.0000 </r>
        <r>  0.0000  0.0000  0.0001  0.0000  0.0000  0.0000  0.0000  0.0000  0.0000 </r>
       </set>
       <set comment="band 6">
        <r>  0.0000  0.0000  0.0001  0.0000  0.0000  0.0000  0.0000  0.0000  0.0000 </r>
        <r>  0.0000  0.0000  0.0000  0.0000  0.0000  0.0000  0.0000  0.0000  0.0000 </r>
        <r>  0.0221  0.1941  0.0000  0.1168  0.0000  0.0000  0.0000  0.0000  0.0000 </r>
        <r>  0.0222  0.1938  0.0000  0.1168  0.0000  0.0000  0.0000  0.0000  0.0000 </r>
       </set>
       <set comment="band 7">
        <r>  0.0000  0.0000  0.2558  0.0000  0.0000  0.0000  0.0000  0.0000  0.0000 </r>
        <r>  0.0000  0.0000  0.2646  0.0000  0.0000  0.0000  0.0000  0.0000  0.0000 </r>
        <r>  0.0004  0.0002  0.0000  0.0002  0.0000  0.0000  0.0000  0.0000  0.0000 </r>
        <r>  0.0000  0.0002  0.0000  0.0007  0.0000  0.0000  0.0000  0.0000  0.0000 </r>
       </set>
       <set comment="band 8">
        <r>  0.0000  0.0002  0.0000  0.0007  0.0000  0.0000  0.0000  0.0000  0.0000 </r>
        <r>  0.0004  0.0002  0.0000  0.0002  0.0000  0.0000  0.0000  0.0000  0.0000 </r>
        <r>  0.0000  0.0000  0.2646  0.0000  0.0000  0.0000  0.0000  0.0000  0.0000 </r>
        <r>  0.0000  0.0000  0.2558  0.0000  0.0000  0.0000  0.0000  0.0000  0.0000 </r>
       </set>
       <set comment="band 9">
        <r>  0.0000  0.0000  0.2668  0.0000  0.0000  0.0000  0.0000  0.0000  0.0000 </r>
        <r>  0.0000  0.0000  0.2576  0.0000  0.0000  0.0000  0.0000  0.0000  0.0000 </r>
        <r>  0.0003  0.0002  0.0000  0.0003  0.0000  0.0000  0.0000  0.0000  0.0000 </r>
        <r>  0.0000  0.0006  0.0000  0.0002  0.0000  0.0000  0.0000  0.0000  0.0000 </r>
       </set>
       <set comment="band 10">
        <r>  0.0000  0.0006  0.0000  0.0002  0.0000  0.0000  0.0000  0.0000  0.0000 </r>
        <r>  0.0003  0.0002  0.0000  0.0003  0.0000  0.0000  0.0000  0.0000  0.0000 </r>
        <r>  0.0000  0.0000  0.2576  0.0000  0.0000  0.0000  0.0000  0.0000  0.0000 </r>
        <r>  0.0000  0.0000  0.2668  0.0000  0.0000  0.0000  0.0000  0.0000  0.0000 </r>
       </set>
       <set comment="band 11">
        <r>  0.0000  0.0000  0.0038  0.0000  0.0000  0.0000  0.0000  0.0000  0.0000 </r>
        <r>  0.0000  0.0000  0.0039  0.0000  0.0000  0.0000  0.0000  0.0000  0.0000 </r>
        <r>  0.0007  0.0228  0.0000  0.0238  0.0000  0.0000  0.0000  0.0000  0.0000 </r>
        <r>  0.0000  0.0001  0.0000  0.0000  0.0000  0.0000  0.0000  0.0000  0.0000 </r>
       </set>
       <set comment="band 12">
        <r>  0.0000  0.0001  0.0000  0.0000  0.0000  0.0000  0.0000  0.0000  0.0000 </r>
        <r>  0.0007  0.0228  0.0000  0.0238  0.0000  0.0000  0.0000  0.0000  0.0000 </r>
        <r>  0.0000  0.0000  0.0039  0.0000  0.0000  0.0000  0.0000  0.0000  0.0000 </r>
        <r>  0.0000  0.0000  0.0038  0.0000  0.0000  0.0000  0.0000  0.0000  0.0000 </r>
       </set>
       <set comment="band 13">
        <r>  0.0404  0.1721  0.0000  0.1240  0.0000  0.0000  0.0000  0.0000  0.0000 </r>
        <r>  0.0662  0.0489  0.0004  0.0248  0.0000  0.0000  0.0000  0.0000  0.0000 </r>
        <r>  0.0016  0.0012  0.0174  0.0006  0.0000  0.0000  0.0000  0.0000  0.0000 </r>
        <r>  0.0010  0.0041  0.0020  0.0029  0.0000  0.0000  0.0000  0.0000  0.0000 </r>
       </set>
       <set comment="band 14">
        <r>  0.0010  0.0041  0.0020  0.0029  0.0000  0.0000  0.0000  0.0000  0.0000 </r>
        <r>  0.0016  0.0012  0.0174  0.0006  0.0000  0.0000  0.0000  0.0000  0.0000 </r>
        <r>  0.0662  0.0489  0.0004  0.0248  0.0000  0.0000  0.0000  0.0000  0.0000 </r>
        <r>  0.0404  0.1721  0.0000  0.1239  0.0000  0.0000  0.0000  0.0000  0.0000 </r>
       </set>
      </set>
     </set>
    </set>
   </array>
  </projected>
 </calculation>
 <structure name="finalpos" >
  <crystal>
   <varray name="basis" >
    <v>       2.46120000       0.00000000       0.00000000 </v>
    <v>      -1.23060000       2.13146172       0.00000000 </v>
    <v>       0.00000000       0.00000000       6.70790000 </v>
   </varray>
   <i name="volume">     35.18933212 </i>
   <varray name="rec_basis" >
    <v>       0.40630587       0.23458080       0.00000000 </v>
    <v>       0.00000000       0.46916160       0.00000000 </v>
    <v>       0.00000000       0.00000000       0.14907795 </v>
   </varray>
  </crystal>
  <varray name="positions" >
   <v>       0.00000000       0.00000000       0.00000000 </v>
   <v>       0.33333333       0.66666667       0.00000000 </v>
   <v>       0.33333333       0.66666667       0.50000000 </v>
   <v>       0.66666667       0.33333333       0.50000000 </v>
  </varray>
 </structure>
</modeling>
