   2   2   1   0
  0.1135270E+02  0.3178445E-09  0.3178445E-09  0.3178445E-09  0.5000000E-15
  1.000000000000000E-004
  CAR 
 unknown system                          
     23.41624090     -7.55791556  301      8.19258784      1.00000000
     -7.558  0.0000E+00  0.0000E+00  0.0000E+00  0.0000E+00
     -7.455  0.0000E+00  0.0000E+00  0.0000E+00  0.0000E+00
     -7.351  0.0000E+00  0.0000E+00  0.0000E+00  0.0000E+00
     -7.248  0.0000E+00  0.0000E+00  0.0000E+00  0.0000E+00
     -7.145  0.0000E+00  0.0000E+00  0.0000E+00  0.0000E+00
     -7.042  0.0000E+00  0.0000E+00  0.0000E+00  0.0000E+00
     -6.938  0.0000E+00  0.0000E+00  0.0000E+00  0.0000E+00
     -6.835  0.0000E+00  0.0000E+00  0.0000E+00  0.0000E+00
     -6.732  0.0000E+00  0.0000E+00  0.0000E+00  0.0000E+00
     -6.629 -0.1595E-40 -0.1462E-40 -0.1647E-41 -0.1509E-41
     -6.525 -0.2611E-25 -0.2440E-25 -0.2696E-26 -0.2519E-26
     -6.422 -0.7560E-14 -0.7199E-14 -0.7805E-15 -0.7433E-15
     -6.319 -0.3633E-06 -0.3528E-06 -0.3751E-07 -0.3643E-07
     -6.216 -0.1300E-02 -0.1296E-02 -0.1343E-03 -0.1339E-03
     -6.112  0.3824E-01  0.3819E-01  0.3814E-02  0.3809E-02
     -6.009  0.6992E-03  0.7559E-03  0.3886E-02  0.3887E-02
     -5.906  0.2671E-01  0.2631E-01  0.6644E-02  0.6604E-02
     -5.803  0.8894E-01  0.8936E-01  0.1583E-01  0.1583E-01
     -5.699 -0.5764E-02 -0.5770E-02  0.1523E-01  0.1523E-01
     -5.596  0.1135E+00  0.1133E+00  0.2695E-01  0.2693E-01
     -5.493  0.9852E-03  0.1218E-02  0.2705E-01  0.2705E-01
     -5.390  0.1135E+00  0.1129E+00  0.3877E-01  0.3871E-01
     -5.286  0.4096E-01  0.4151E-01  0.4300E-01  0.4300E-01
     -5.183  0.4308E-01  0.4218E-01  0.4744E-01  0.4735E-01
     -5.080  0.1882E+00  0.1891E+00  0.6688E-01  0.6688E-01
     -4.977 -0.8575E-02 -0.8641E-02  0.6599E-01  0.6599E-01
     -4.873  0.1199E+00  0.1195E+00  0.7837E-01  0.7833E-01
     -4.770  0.1112E+00  0.1116E+00  0.8985E-01  0.8985E-01
     -4.667  0.1053E+00  0.1051E+00  0.1007E+00  0.1007E+00
     -4.564  0.2079E+00  0.2072E+00  0.1222E+00  0.1221E+00
     -4.460  0.9376E-01  0.9396E-01  0.1319E+00  0.1318E+00
     -4.357  0.1054E+00  0.1049E+00  0.1427E+00  0.1426E+00
     -4.254  0.1715E+00  0.1728E+00  0.1605E+00  0.1605E+00
     -4.151  0.7784E-01  0.7616E-01  0.1685E+00  0.1683E+00
     -4.048  0.6791E+00  0.6791E+00  0.2386E+00  0.2384E+00
     -3.944  0.8630E-01  0.8680E-01  0.2475E+00  0.2474E+00
     -3.841  0.8776E+00  0.8753E+00  0.3381E+00  0.3378E+00
     -3.738  0.1425E+00  0.1454E+00  0.3528E+00  0.3528E+00
     -3.635  0.5150E+00  0.5122E+00  0.4060E+00  0.4057E+00
     -3.531  0.4444E+00  0.4460E+00  0.4519E+00  0.4517E+00
     -3.428  0.7774E+00  0.7758E+00  0.5322E+00  0.5318E+00
     -3.325  0.5968E+00  0.5969E+00  0.5938E+00  0.5934E+00
     -3.222  0.5674E+00  0.5660E+00  0.6524E+00  0.6519E+00
     -3.118  0.6513E+00  0.6539E+00  0.7196E+00  0.7194E+00
     -3.015  0.5855E+00  0.5839E+00  0.7801E+00  0.7797E+00
     -2.912  0.8435E+00  0.8432E+00  0.8672E+00  0.8667E+00
     -2.809  0.3230E+00  0.3251E+00  0.9005E+00  0.9003E+00
     -2.705  0.2062E+00  0.2073E+00  0.9218E+00  0.9217E+00
     -2.602  0.1861E+00  0.1829E+00  0.9410E+00  0.9406E+00
     -2.499  0.3223E+00  0.3264E+00  0.9743E+00  0.9743E+00
     -2.396  0.7099E-01  0.6988E-01  0.9816E+00  0.9815E+00
     -2.292  0.6252E-01  0.6385E-01  0.9881E+00  0.9881E+00
     -2.189  0.1018E+00  0.1008E+00  0.9986E+00  0.9985E+00
     -2.086  0.1376E-01  0.1460E-01  0.1000E+01  0.1000E+01
     -1.983 -0.9023E-04 -0.9612E-04  0.1000E+01  0.1000E+01
     -1.879 -0.5924E-10 -0.6700E-10  0.1000E+01  0.1000E+01
     -1.776  0.0000E+00  0.0000E+00  0.1000E+01  0.1000E+01
     -1.673  0.0000E+00  0.0000E+00  0.1000E+01  0.1000E+01
     -1.570  0.0000E+00  0.0000E+00  0.1000E+01  0.1000E+01
     -1.466  0.0000E+00  0.0000E+00  0.1000E+01  0.1000E+01
     -1.363  0.0000E+00  0.0000E+00  0.1000E+01  0.1000E+01
     -1.260  0.0000E+00  0.0000E+00  0.1000E+01  0.1000E+01
     -1.157  0.0000E+00  0.0000E+00  0.1000E+01  0.1000E+01
     -1.053  0.0000E+00  0.0000E+00  0.1000E+01  0.1000E+01
     -0.950  0.0000E+00  0.0000E+00  0.1000E+01  0.1000E+01
     -0.847  0.0000E+00  0.0000E+00  0.1000E+01  0.1000E+01
     -0.744  0.0000E+00  0.0000E+00  0.1000E+01  0.1000E+01
     -0.640  0.0000E+00  0.0000E+00  0.1000E+01  0.1000E+01
     -0.537  0.0000E+00  0.0000E+00  0.1000E+01  0.1000E+01
     -0.434 -0.2520E-30 -0.2771E-30  0.1000E+01  0.1000E+01
     -0.331 -0.2181E-17 -0.2341E-17  0.1000E+01  0.1000E+01
     -0.227 -0.3141E-08 -0.3290E-08  0.1000E+01  0.1000E+01
     -0.124 -0.6047E-03 -0.6171E-03  0.9999E+00  0.9999E+00
     -0.021  0.5210E-01  0.5266E-01  0.1005E+01  0.1005E+01
      0.082  0.6288E-01  0.6232E-01  0.1012E+01  0.1012E+01
      0.186 -0.4182E-02 -0.4196E-02  0.1011E+01  0.1011E+01
      0.289  0.1280E+00  0.1285E+00  0.1025E+01  0.1025E+01
      0.392  0.1889E-01  0.1840E-01  0.1027E+01  0.1027E+01
      0.495  0.2311E+00  0.2314E+00  0.1050E+01  0.1050E+01
      0.599  0.8281E-01  0.8353E-01  0.1059E+01  0.1059E+01
      0.702  0.1485E+00  0.1475E+00  0.1074E+01  0.1074E+01
      0.805  0.1040E+00  0.1047E+00  0.1085E+01  0.1085E+01
      0.908  0.1187E+00  0.1180E+00  0.1097E+01  0.1097E+01
      1.012  0.2591E+00  0.2601E+00  0.1124E+01  0.1124E+01
      1.115  0.4073E+00  0.4072E+00  0.1166E+01  0.1166E+01
      1.218  0.3697E+00  0.3688E+00  0.1204E+01  0.1204E+01
      1.321 -0.2120E-01 -0.2115E-01  0.1202E+01  0.1202E+01
      1.425  0.3791E+00  0.3793E+00  0.1241E+01  0.1241E+01
      1.528  0.6625E+00  0.6632E+00  0.1310E+01  0.1310E+01
      1.631  0.4559E+00  0.4551E+00  0.1357E+01  0.1357E+01
      1.734  0.2562E+00  0.2562E+00  0.1383E+01  0.1383E+01
      1.838  0.2506E+00  0.2508E+00  0.1409E+01  0.1409E+01
      1.941  0.3687E+00  0.3690E+00  0.1447E+01  0.1447E+01
      2.044  0.4774E+00  0.4772E+00  0.1496E+01  0.1496E+01
      2.147  0.4752E+00  0.4760E+00  0.1545E+01  0.1546E+01
      2.251  0.4953E+00  0.4942E+00  0.1597E+01  0.1597E+01
      2.354  0.5251E+00  0.5251E+00  0.1651E+01  0.1651E+01
      2.457  0.1574E+00  0.1574E+00  0.1667E+01  0.1667E+01
      2.560  0.4395E+00  0.4409E+00  0.1712E+01  0.1713E+01
      2.664  0.2295E+00  0.2281E+00  0.1736E+01  0.1736E+01
      2.767  0.2668E+00  0.2670E+00  0.1764E+01  0.1764E+01
      2.870  0.3706E+00  0.3707E+00  0.1802E+01  0.1802E+01
      2.973  0.2532E+00  0.2530E+00  0.1828E+01  0.1828E+01
      3.077  0.2093E+00  0.2098E+00  0.1850E+01  0.1850E+01
      3.180  0.5446E+00  0.5444E+00  0.1906E+01  0.1906E+01
      3.283  0.9498E+00  0.9494E+00  0.2004E+01  0.2004E+01
      3.386  0.1245E+01  0.1246E+01  0.2132E+01  0.2133E+01
      3.490  0.3061E+01  0.3062E+01  0.2448E+01  0.2449E+01
      3.593  0.1660E+01  0.1659E+01  0.2620E+01  0.2620E+01
      3.696  0.1720E+01  0.1722E+01  0.2797E+01  0.2798E+01
      3.799  0.1665E+01  0.1665E+01  0.2969E+01  0.2970E+01
      3.903  0.1096E+01  0.1093E+01  0.3082E+01  0.3083E+01
      4.006  0.9141E+00  0.9150E+00  0.3177E+01  0.3177E+01
      4.109  0.1030E+01  0.1029E+01  0.3283E+01  0.3283E+01
      4.212  0.7828E+00  0.7839E+00  0.3364E+01  0.3364E+01
      4.316  0.8362E+00  0.8351E+00  0.3450E+01  0.3450E+01
      4.419  0.6031E+00  0.6023E+00  0.3513E+01  0.3513E+01
      4.522  0.3848E+00  0.3875E+00  0.3552E+01  0.3553E+01
      4.625  0.1687E+00  0.1664E+00  0.3570E+01  0.3570E+01
      4.728  0.2844E+00  0.2858E+00  0.3599E+01  0.3599E+01
      4.832  0.1499E+00  0.1485E+00  0.3615E+01  0.3615E+01
      4.935  0.4185E+00  0.4187E+00  0.3658E+01  0.3658E+01
      5.038  0.5813E+00  0.5806E+00  0.3718E+01  0.3718E+01
      5.141  0.4584E+00  0.4593E+00  0.3765E+01  0.3765E+01
      5.245  0.3537E+00  0.3530E+00  0.3802E+01  0.3802E+01
      5.348  0.3958E+00  0.3952E+00  0.3843E+01  0.3842E+01
      5.451  0.2158E+00  0.2165E+00  0.3865E+01  0.3865E+01
      5.554  0.1849E+00  0.1863E+00  0.3884E+01  0.3884E+01
      5.658  0.1040E+00  0.1027E+00  0.3895E+01  0.3895E+01
      5.761  0.3363E-01  0.3357E-01  0.3898E+01  0.3898E+01
      5.864  0.1936E+00  0.1937E+00  0.3918E+01  0.3918E+01
      5.967  0.1570E+00  0.1565E+00  0.3934E+01  0.3934E+01
      6.071  0.1776E+00  0.1784E+00  0.3953E+01  0.3953E+01
      6.174  0.3016E-01  0.2919E-01  0.3956E+01  0.3956E+01
      6.277  0.2391E+00  0.2403E+00  0.3980E+01  0.3981E+01
      6.380  0.3481E+00  0.3478E+00  0.4016E+01  0.4016E+01
      6.484  0.1212E+00  0.1207E+00  0.4029E+01  0.4029E+01
      6.587  0.1183E+00  0.1180E+00  0.4041E+01  0.4041E+01
      6.690  0.1275E+00  0.1292E+00  0.4054E+01  0.4054E+01
      6.793  0.9893E-01  0.9808E-01  0.4065E+01  0.4065E+01
      6.897  0.5727E-01  0.5691E-01  0.4070E+01  0.4070E+01
      7.000  0.9634E-02  0.1014E-01  0.4071E+01  0.4071E+01
      7.103  0.6711E+00  0.6720E+00  0.4141E+01  0.4141E+01
      7.206  0.5539E+00  0.5550E+00  0.4198E+01  0.4198E+01
      7.310  0.3573E+00  0.3549E+00  0.4235E+01  0.4235E+01
      7.413  0.8291E-01  0.8377E-01  0.4243E+01  0.4243E+01
      7.516  0.3229E+00  0.3247E+00  0.4277E+01  0.4277E+01
      7.619  0.1430E+00  0.1413E+00  0.4291E+01  0.4292E+01
      7.723  0.9262E-01  0.9156E-01  0.4301E+01  0.4301E+01
      7.826 -0.2431E-02 -0.2364E-02  0.4301E+01  0.4301E+01
      7.929  0.1023E-01  0.1115E-01  0.4302E+01  0.4302E+01
      8.032  0.2570E+00  0.2582E+00  0.4328E+01  0.4329E+01
      8.136  0.1149E+01  0.1154E+01  0.4447E+01  0.4448E+01
      8.239  0.6769E+00  0.6718E+00  0.4517E+01  0.4517E+01
      8.342  0.3329E+00  0.3326E+00  0.4551E+01  0.4551E+01
      8.445  0.1777E+00  0.1764E+00  0.4570E+01  0.4570E+01
      8.549  0.1569E+00  0.1593E+00  0.4586E+01  0.4586E+01
      8.652  0.2722E+00  0.2717E+00  0.4614E+01  0.4614E+01
      8.755  0.1528E+00  0.1510E+00  0.4630E+01  0.4630E+01
      8.858  0.1209E+00  0.1204E+00  0.4642E+01  0.4642E+01
      8.962  0.2146E+00  0.2184E+00  0.4664E+01  0.4665E+01
      9.065  0.3377E+00  0.3354E+00  0.4699E+01  0.4699E+01
      9.168  0.3843E+00  0.3892E+00  0.4739E+01  0.4740E+01
      9.271  0.1343E+01  0.1344E+01  0.4878E+01  0.4878E+01
      9.375  0.4886E+00  0.4835E+00  0.4928E+01  0.4928E+01
      9.478  0.3892E+00  0.3883E+00  0.4968E+01  0.4968E+01
      9.581  0.7647E-01  0.7758E-01  0.4976E+01  0.4976E+01
      9.684  0.2387E+00  0.2405E+00  0.5001E+01  0.5001E+01
      9.788  0.8542E+00  0.8548E+00  0.5089E+01  0.5089E+01
      9.891  0.2917E+00  0.2889E+00  0.5119E+01  0.5119E+01
      9.994  0.8092E+00  0.8115E+00  0.5203E+01  0.5203E+01
     10.097  0.6155E+00  0.6150E+00  0.5266E+01  0.5266E+01
     10.201  0.1541E+00  0.1514E+00  0.5282E+01  0.5282E+01
     10.304  0.4880E+00  0.4942E+00  0.5332E+01  0.5333E+01
     10.407  0.8348E+00  0.8419E+00  0.5419E+01  0.5420E+01
     10.510  0.9121E+00  0.8980E+00  0.5513E+01  0.5513E+01
     10.614  0.5514E+00  0.5553E+00  0.5570E+01  0.5570E+01
     10.717  0.4273E+00  0.4273E+00  0.5614E+01  0.5614E+01
     10.820  0.1495E+01  0.1505E+01  0.5768E+01  0.5770E+01
     10.923  0.1043E+01  0.1037E+01  0.5876E+01  0.5877E+01
     11.027  0.4773E+00  0.4727E+00  0.5925E+01  0.5925E+01
     11.130  0.5459E+00  0.5447E+00  0.5981E+01  0.5982E+01
     11.233  0.6307E+00  0.6396E+00  0.6047E+01  0.6048E+01
     11.336  0.1105E+01  0.1107E+01  0.6161E+01  0.6162E+01
     11.440  0.1347E+01  0.1342E+01  0.6300E+01  0.6301E+01
     11.543  0.6650E+00  0.6658E+00  0.6368E+01  0.6369E+01
     11.646  0.1155E+01  0.1154E+01  0.6488E+01  0.6489E+01
     11.749  0.9818E+00  0.9817E+00  0.6589E+01  0.6590E+01
     11.853  0.7002E+00  0.7016E+00  0.6661E+01  0.6662E+01
     11.956  0.1174E+01  0.1171E+01  0.6782E+01  0.6783E+01
     12.059  0.8073E+00  0.8029E+00  0.6866E+01  0.6866E+01
     12.162  0.1094E+01  0.1114E+01  0.6979E+01  0.6981E+01
     12.266  0.1620E+01  0.1614E+01  0.7146E+01  0.7148E+01
     12.369  0.1086E+01  0.1071E+01  0.7258E+01  0.7258E+01
     12.472  0.3541E+00  0.3534E+00  0.7295E+01  0.7295E+01
     12.575  0.1355E+00  0.1335E+00  0.7309E+01  0.7309E+01
     12.679  0.1810E+00  0.1816E+00  0.7327E+01  0.7327E+01
     12.782  0.3805E+00  0.3800E+00  0.7367E+01  0.7367E+01
     12.885  0.6074E+00  0.6081E+00  0.7429E+01  0.7429E+01
     12.988  0.6943E-01  0.6868E-01  0.7437E+01  0.7437E+01
     13.092  0.3521E+00  0.3521E+00  0.7473E+01  0.7473E+01
     13.195  0.2052E+00  0.2053E+00  0.7494E+01  0.7494E+01
     13.298  0.4062E+00  0.4073E+00  0.7536E+01  0.7536E+01
     13.401  0.2997E+00  0.2986E+00  0.7567E+01  0.7567E+01
     13.505  0.3219E+00  0.3218E+00  0.7600E+01  0.7600E+01
     13.608  0.2409E+00  0.2408E+00  0.7625E+01  0.7625E+01
     13.711  0.2313E+00  0.2314E+00  0.7649E+01  0.7649E+01
     13.814  0.1529E+00  0.1528E+00  0.7665E+01  0.7665E+01
     13.917  0.2967E+00  0.2969E+00  0.7695E+01  0.7695E+01
     14.021  0.2925E+00  0.2916E+00  0.7726E+01  0.7725E+01
     14.124  0.7315E+00  0.7330E+00  0.7801E+01  0.7801E+01
     14.227  0.4117E+00  0.4109E+00  0.7844E+01  0.7844E+01
     14.330  0.2626E+00  0.2627E+00  0.7871E+01  0.7871E+01
     14.434  0.5320E-01  0.5313E-01  0.7876E+01  0.7876E+01
     14.537  0.4441E+00  0.4432E+00  0.7922E+01  0.7922E+01
     14.640  0.3522E+00  0.3528E+00  0.7958E+01  0.7958E+01
     14.743  0.3205E+00  0.3209E+00  0.7991E+01  0.7991E+01
     14.847  0.6227E+00  0.6224E+00  0.8056E+01  0.8056E+01
     14.950  0.4264E+00  0.4304E+00  0.8100E+01  0.8100E+01
     15.053  0.1108E+01  0.1104E+01  0.8214E+01  0.8214E+01
     15.156  0.2346E+00  0.2344E+00  0.8238E+01  0.8238E+01
     15.260  0.4735E+00  0.4739E+00  0.8287E+01  0.8287E+01
     15.363  0.5721E+00  0.5738E+00  0.8346E+01  0.8347E+01
     15.466  0.6408E+00  0.6371E+00  0.8413E+01  0.8412E+01
     15.569  0.7538E+00  0.7557E+00  0.8490E+01  0.8490E+01
     15.673  0.6557E+00  0.6545E+00  0.8558E+01  0.8558E+01
     15.776  0.2859E+00  0.2874E+00  0.8588E+01  0.8588E+01
     15.879  0.6565E+00  0.6566E+00  0.8655E+01  0.8655E+01
     15.982  0.6662E+00  0.6659E+00  0.8724E+01  0.8724E+01
     16.086  0.2287E+00  0.2286E+00  0.8748E+01  0.8748E+01
     16.189  0.4914E+00  0.4921E+00  0.8799E+01  0.8799E+01
     16.292  0.3004E+00  0.3009E+00  0.8830E+01  0.8830E+01
     16.395  0.4299E+00  0.4273E+00  0.8874E+01  0.8874E+01
     16.499  0.5659E+00  0.5650E+00  0.8932E+01  0.8932E+01
     16.602  0.3957E+00  0.3985E+00  0.8973E+01  0.8973E+01
     16.705  0.6491E-01  0.6640E-01  0.8980E+01  0.8980E+01
     16.808  0.5947E+00  0.5938E+00  0.9041E+01  0.9041E+01
     16.912  0.4164E+00  0.4148E+00  0.9084E+01  0.9084E+01
     17.015  0.6836E+00  0.6847E+00  0.9155E+01  0.9155E+01
     17.118  0.5167E-01  0.5149E-01  0.9160E+01  0.9160E+01
     17.221 -0.6245E-02 -0.6265E-02  0.9160E+01  0.9160E+01
     17.325  0.2017E+00  0.2020E+00  0.9180E+01  0.9180E+01
     17.428  0.2291E+00  0.2272E+00  0.9204E+01  0.9204E+01
     17.531  0.6140E+00  0.6129E+00  0.9267E+01  0.9267E+01
     17.634  0.6145E+00  0.6168E+00  0.9331E+01  0.9331E+01
     17.738  0.2679E+00  0.2698E+00  0.9359E+01  0.9359E+01
     17.841  0.2820E+00  0.2806E+00  0.9388E+01  0.9388E+01
     17.944  0.2901E+00  0.2867E+00  0.9418E+01  0.9417E+01
     18.047  0.6153E+00  0.6179E+00  0.9481E+01  0.9481E+01
     18.151  0.5504E+00  0.5497E+00  0.9538E+01  0.9538E+01
     18.254  0.5031E+00  0.5057E+00  0.9590E+01  0.9590E+01
     18.357  0.4634E+00  0.4622E+00  0.9638E+01  0.9638E+01
     18.460  0.1324E+00  0.1321E+00  0.9651E+01  0.9651E+01
     18.564  0.5405E+00  0.5407E+00  0.9707E+01  0.9707E+01
     18.667  0.6224E+00  0.6238E+00  0.9772E+01  0.9772E+01
     18.770  0.5273E+00  0.5292E+00  0.9826E+01  0.9826E+01
     18.873  0.4715E+00  0.4692E+00  0.9875E+01  0.9875E+01
     18.977  0.2360E+00  0.2352E+00  0.9899E+01  0.9899E+01
     19.080 -0.9541E-02 -0.9588E-02  0.9898E+01  0.9898E+01
     19.183  0.2388E+00  0.2388E+00  0.9923E+01  0.9923E+01
     19.286 -0.1090E-01 -0.9997E-02  0.9922E+01  0.9922E+01
     19.390  0.2122E+00  0.2116E+00  0.9943E+01  0.9943E+01
     19.493  0.1428E+00  0.1426E+00  0.9958E+01  0.9958E+01
     19.596  0.3670E+00  0.3688E+00  0.9996E+01  0.9996E+01
     19.699  0.3024E+00  0.3007E+00  0.1003E+02  0.1003E+02
     19.803  0.1148E+00  0.1154E+00  0.1004E+02  0.1004E+02
     19.906  0.7581E+00  0.7621E+00  0.1012E+02  0.1012E+02
     20.009  0.2237E+00  0.2186E+00  0.1014E+02  0.1014E+02
     20.112  0.3945E+00  0.3963E+00  0.1018E+02  0.1018E+02
     20.216  0.8455E+00  0.8505E+00  0.1027E+02  0.1027E+02
     20.319  0.2503E+00  0.2438E+00  0.1029E+02  0.1029E+02
     20.422  0.9930E+00  0.9921E+00  0.1040E+02  0.1040E+02
     20.525  0.1272E+01  0.1275E+01  0.1053E+02  0.1053E+02
     20.629  0.7366E+01  0.7427E+01  0.1129E+02  0.1130E+02
     20.732  0.2309E+01  0.2289E+01  0.1153E+02  0.1153E+02
     20.835  0.9051E+00  0.9024E+00  0.1162E+02  0.1162E+02
     20.938  0.9107E+00  0.9137E+00  0.1171E+02  0.1172E+02
     21.042  0.3540E+00  0.3247E+00  0.1175E+02  0.1175E+02
     21.145  0.2140E+00  0.1997E+00  0.1177E+02  0.1177E+02
     21.248  0.2938E+00  0.3218E+00  0.1180E+02  0.1181E+02
     21.351  0.3476E+00  0.3204E+00  0.1184E+02  0.1184E+02
     21.455  0.4762E+00  0.4804E+00  0.1189E+02  0.1189E+02
     21.558  0.2966E+00  0.2946E+00  0.1192E+02  0.1192E+02
     21.661  0.3515E+00  0.3531E+00  0.1196E+02  0.1196E+02
     21.764  0.8802E-01  0.8364E-01  0.1196E+02  0.1196E+02
     21.868  0.1349E+00  0.1415E+00  0.1198E+02  0.1198E+02
     21.971  0.9685E-01  0.9191E-01  0.1199E+02  0.1199E+02
     22.074  0.1137E+00  0.1122E+00  0.1200E+02  0.1200E+02
     22.177 -0.3900E-02 -0.3775E-02  0.1200E+02  0.1200E+02
     22.281 -0.1090E-05 -0.8338E-06  0.1200E+02  0.1200E+02
     22.384 -0.2268E-13 -0.1452E-13  0.1200E+02  0.1200E+02
     22.487  0.0000E+00  0.0000E+00  0.1200E+02  0.1200E+02
     22.590  0.0000E+00  0.0000E+00  0.1200E+02  0.1200E+02
     22.694  0.0000E+00  0.0000E+00  0.1200E+02  0.1200E+02
     22.797  0.0000E+00  0.0000E+00  0.1200E+02  0.1200E+02
     22.900  0.0000E+00  0.0000E+00  0.1200E+02  0.1200E+02
     23.003  0.0000E+00  0.0000E+00  0.1200E+02  0.1200E+02
     23.106  0.0000E+00  0.0000E+00  0.1200E+02  0.1200E+02
     23.210  0.0000E+00  0.0000E+00  0.1200E+02  0.1200E+02
     23.313  0.0000E+00  0.0000E+00  0.1200E+02  0.1200E+02
     23.416  0.0000E+00  0.0000E+00  0.1200E+02  0.1200E+02
     23.41624090     -7.55791556  301      8.19258784      1.00000000
     -7.558  0.0000E+00  0.0000E+00  0.0000E+00  0.0000E+00  0.0000E+00  0.0000E+00  0.0000E+00  0.0000E+00  0.0000E+00  0.0000E+00  0.0000E+00  0.0000E+00  0.0000E+00  0.0000E+00  0.0000E+00  0.0000E+00  0.0000E+00  0.0000E+00
     -7.455  0.0000E+00  0.0000E+00  0.0000E+00  0.0000E+00  0.0000E+00  0.0000E+00  0.0000E+00  0.0000E+00  0.0000E+00  0.0000E+00  0.0000E+00  0.0000E+00  0.0000E+00  0.0000E+00  0.0000E+00  0.0000E+00  0.0000E+00  0.0000E+00
     -7.351  0.0000E+00  0.0000E+00  0.0000E+00  0.0000E+00  0.0000E+00  0.0000E+00  0.0000E+00  0.0000E+00  0.0000E+00  0.0000E+00  0.0000E+00  0.0000E+00  0.0000E+00  0.0000E+00  0.0000E+00  0.0000E+00  0.0000E+00  0.0000E+00
     -7.248  0.0000E+00  0.0000E+00  0.0000E+00  0.0000E+00  0.0000E+00  0.0000E+00  0.0000E+00  0.0000E+00  0.0000E+00  0.0000E+00  0.0000E+00  0.0000E+00  0.0000E+00  0.0000E+00  0.0000E+00  0.0000E+00  0.0000E+00  0.0000E+00
     -7.145  0.0000E+00  0.0000E+00  0.0000E+00  0.0000E+00  0.0000E+00  0.0000E+00  0.0000E+00  0.0000E+00  0.0000E+00  0.0000E+00  0.0000E+00  0.0000E+00  0.0000E+00  0.0000E+00  0.0000E+00  0.0000E+00  0.0000E+00  0.0000E+00
     -7.042  0.0000E+00  0.0000E+00  0.0000E+00  0.0000E+00  0.0000E+00  0.0000E+00  0.0000E+00  0.0000E+00  0.0000E+00  0.0000E+00  0.0000E+00  0.0000E+00  0.0000E+00  0.0000E+00  0.0000E+00  0.0000E+00  0.0000E+00  0.0000E+00
     -6.938  0.0000E+00  0.0000E+00  0.0000E+00  0.0000E+00  0.0000E+00  0.0000E+00  0.0000E+00  0.0000E+00  0.0000E+00  0.0000E+00  0.0000E+00  0.0000E+00  0.0000E+00  0.0000E+00  0.0000E+00  0.0000E+00  0.0000E+00  0.0000E+00
     -6.835  0.0000E+00  0.0000E+00  0.0000E+00  0.0000E+00  0.0000E+00  0.0000E+00  0.0000E+00  0.0000E+00  0.0000E+00  0.0000E+00  0.0000E+00  0.0000E+00  0.0000E+00  0.0000E+00  0.0000E+00  0.0000E+00  0.0000E+00  0.0000E+00
     -6.732  0.0000E+00  0.0000E+00  0.0000E+00  0.0000E+00  0.0000E+00  0.0000E+00  0.0000E+00  0.0000E+00  0.0000E+00  0.0000E+00  0.0000E+00  0.0000E+00  0.0000E+00  0.0000E+00  0.0000E+00  0.0000E+00  0.0000E+00  0.0000E+00
     -6.629 -0.5013E-41 -0.4595E-41 -0.3617E-44 -0.3316E-44 -0.3617E-44 -0.3316E-44 -0.3617E-44 -0.3316E-44  0.0000E+00  0.0000E+00  0.0000E+00  0.0000E+00  0.0000E+00  0.0000E+00  0.0000E+00  0.0000E+00  0.0000E+00  0.0000E+00
     -6.525 -0.8208E-26 -0.7667E-26 -0.5922E-29 -0.5534E-29 -0.5922E-29 -0.5534E-29 -0.5922E-29 -0.5534E-29  0.0000E+00  0.0000E+00  0.0000E+00  0.0000E+00  0.0000E+00  0.0000E+00  0.0000E+00  0.0000E+00  0.0000E+00  0.0000E+00
     -6.422 -0.2376E-14 -0.2263E-14 -0.1714E-17 -0.1633E-17 -0.1714E-17 -0.1633E-17 -0.1714E-17 -0.1633E-17  0.0000E+00  0.0000E+00  0.0000E+00  0.0000E+00  0.0000E+00  0.0000E+00  0.0000E+00  0.0000E+00  0.0000E+00  0.0000E+00
     -6.319 -0.1142E-06 -0.1109E-06 -0.8239E-10 -0.8002E-10 -0.8239E-10 -0.8002E-10 -0.8239E-10 -0.8002E-10  0.0000E+00  0.0000E+00  0.0000E+00  0.0000E+00  0.0000E+00  0.0000E+00  0.0000E+00  0.0000E+00  0.0000E+00  0.0000E+00
     -6.216 -0.4086E-03 -0.4073E-03 -0.2948E-06 -0.2940E-06 -0.2948E-06 -0.2940E-06 -0.2948E-06 -0.2940E-06  0.0000E+00  0.0000E+00  0.0000E+00  0.0000E+00  0.0000E+00  0.0000E+00  0.0000E+00  0.0000E+00  0.0000E+00  0.0000E+00
     -6.112  0.1202E-01  0.1200E-01  0.8672E-05  0.8661E-05  0.8672E-05  0.8661E-05  0.8672E-05  0.8661E-05  0.0000E+00  0.0000E+00  0.0000E+00  0.0000E+00  0.0000E+00  0.0000E+00  0.0000E+00  0.0000E+00  0.0000E+00  0.0000E+00
     -6.009  0.2190E-03  0.2368E-03  0.1559E-06  0.1688E-06  0.1559E-06  0.1688E-06 -0.1606E-06 -0.1412E-06  0.0000E+00  0.0000E+00  0.0000E+00  0.0000E+00  0.0000E+00  0.0000E+00  0.0000E+00  0.0000E+00  0.0000E+00  0.0000E+00
     -5.906  0.8497E-02  0.8370E-02  0.6410E-05  0.6316E-05  0.6410E-05  0.6316E-05  0.4798E-04  0.4728E-04  0.0000E+00  0.0000E+00  0.0000E+00  0.0000E+00  0.0000E+00  0.0000E+00  0.0000E+00  0.0000E+00  0.0000E+00  0.0000E+00
     -5.803  0.2830E-01  0.2842E-01  0.2134E-04  0.2145E-04  0.2134E-04  0.2145E-04  0.1597E-03  0.1605E-03  0.0000E+00  0.0000E+00  0.0000E+00  0.0000E+00  0.0000E+00  0.0000E+00  0.0000E+00  0.0000E+00  0.0000E+00  0.0000E+00
     -5.699 -0.1847E-02 -0.1849E-02 -0.7711E-05 -0.7685E-05 -0.7711E-05 -0.7685E-05 -0.4486E-05 -0.4524E-05  0.0000E+00  0.0000E+00  0.0000E+00  0.0000E+00  0.0000E+00  0.0000E+00  0.0000E+00  0.0000E+00  0.0000E+00  0.0000E+00
     -5.596  0.3649E-01  0.3642E-01  0.2159E-03  0.2155E-03  0.2159E-03  0.2155E-03  0.2892E-04  0.2887E-04  0.0000E+00  0.0000E+00  0.0000E+00  0.0000E+00  0.0000E+00  0.0000E+00  0.0000E+00  0.0000E+00  0.0000E+00  0.0000E+00
     -5.493  0.2986E-03  0.3737E-03  0.6393E-05  0.6789E-05 -0.3063E-05 -0.2567E-05  0.2943E-07  0.9340E-07  0.0000E+00  0.0000E+00  0.0000E+00  0.0000E+00  0.0000E+00  0.0000E+00  0.0000E+00  0.0000E+00  0.0000E+00  0.0000E+00
     -5.390  0.3719E-01  0.3700E-01  0.5169E-04  0.5126E-04  0.3974E-03  0.3957E-03  0.5175E-04  0.5131E-04  0.0000E+00  0.0000E+00  0.0000E+00  0.0000E+00  0.0000E+00  0.0000E+00  0.0000E+00  0.0000E+00  0.0000E+00  0.0000E+00
     -5.286  0.1335E-01  0.1353E-01  0.5596E-04  0.5644E-04  0.1088E-03  0.1105E-03  0.5540E-04  0.5589E-04  0.0000E+00  0.0000E+00  0.0000E+00  0.0000E+00  0.0000E+00  0.0000E+00  0.0000E+00  0.0000E+00  0.0000E+00  0.0000E+00
     -5.183  0.1427E-01  0.1397E-01  0.9009E-04  0.8825E-04  0.1095E-04  0.1068E-04  0.1695E-03  0.1660E-03  0.0000E+00  0.0000E+00  0.0000E+00  0.0000E+00  0.0000E+00  0.0000E+00  0.0000E+00  0.0000E+00  0.0000E+00  0.0000E+00
     -5.080  0.6231E-01  0.6262E-01  0.3927E-03  0.3947E-03  0.5293E-04  0.5320E-04  0.7350E-03  0.7388E-03  0.0000E+00  0.0000E+00  0.0000E+00  0.0000E+00  0.0000E+00  0.0000E+00  0.0000E+00  0.0000E+00  0.0000E+00  0.0000E+00
     -4.977 -0.2849E-02 -0.2871E-02 -0.1844E-04 -0.1858E-04 -0.1032E-04 -0.1035E-04 -0.3442E-04 -0.3469E-04  0.0000E+00  0.0000E+00  0.0000E+00  0.0000E+00  0.0000E+00  0.0000E+00  0.0000E+00  0.0000E+00  0.0000E+00  0.0000E+00
     -4.873  0.4000E-01  0.3987E-01  0.2643E-03  0.2640E-03  0.2706E-03  0.2696E-03  0.4918E-03  0.4913E-03  0.0000E+00  0.0000E+00  0.0000E+00  0.0000E+00  0.0000E+00  0.0000E+00  0.0000E+00  0.0000E+00  0.0000E+00  0.0000E+00
     -4.770  0.3867E-01  0.3879E-01  0.1476E-04  0.1521E-04  0.4339E-03  0.4353E-03  0.2913E-04  0.2981E-04  0.0000E+00  0.0000E+00  0.0000E+00  0.0000E+00  0.0000E+00  0.0000E+00  0.0000E+00  0.0000E+00  0.0000E+00  0.0000E+00
     -4.667  0.3571E-01  0.3565E-01  0.4772E-03  0.4764E-03  0.4517E-03  0.4510E-03  0.3313E-04  0.3308E-04  0.0000E+00  0.0000E+00  0.0000E+00  0.0000E+00  0.0000E+00  0.0000E+00  0.0000E+00  0.0000E+00  0.0000E+00  0.0000E+00
     -4.564  0.7282E-01  0.7257E-01  0.4675E-03  0.4666E-03  0.8572E-03  0.8547E-03  0.6129E-04  0.6115E-04  0.0000E+00  0.0000E+00  0.0000E+00  0.0000E+00  0.0000E+00  0.0000E+00  0.0000E+00  0.0000E+00  0.0000E+00  0.0000E+00
     -4.460  0.3223E-01  0.3230E-01  0.3690E-03  0.3679E-03  0.4179E-03  0.4184E-03  0.1762E-03  0.1748E-03  0.0000E+00  0.0000E+00  0.0000E+00  0.0000E+00  0.0000E+00  0.0000E+00  0.0000E+00  0.0000E+00  0.0000E+00  0.0000E+00
     -4.357  0.3694E-01  0.3673E-01  0.3256E-03  0.3269E-03  0.4348E-03  0.4339E-03  0.2274E-03  0.2273E-03  0.0000E+00  0.0000E+00  0.0000E+00  0.0000E+00  0.0000E+00  0.0000E+00  0.0000E+00  0.0000E+00  0.0000E+00  0.0000E+00
     -4.254  0.6264E-01  0.6309E-01  0.1929E-03  0.1949E-03  0.4988E-03  0.5030E-03  0.1941E-03  0.1961E-03  0.0000E+00  0.0000E+00  0.0000E+00  0.0000E+00  0.0000E+00  0.0000E+00  0.0000E+00  0.0000E+00  0.0000E+00  0.0000E+00
     -4.151  0.2753E-01  0.2691E-01  0.4130E-03  0.4061E-03  0.8141E-05  0.7266E-05  0.4201E-03  0.4134E-03  0.0000E+00  0.0000E+00  0.0000E+00  0.0000E+00  0.0000E+00  0.0000E+00  0.0000E+00  0.0000E+00  0.0000E+00  0.0000E+00
     -4.048  0.2610E+00  0.2609E+00  0.1197E-02  0.1203E-02  0.5571E-03  0.5565E-03  0.7496E-03  0.7553E-03  0.0000E+00  0.0000E+00  0.0000E+00  0.0000E+00  0.0000E+00  0.0000E+00  0.0000E+00  0.0000E+00  0.0000E+00  0.0000E+00
     -3.944  0.3258E-01  0.3279E-01  0.2214E-03  0.2189E-03  0.1927E-03  0.1923E-03  0.2330E-03  0.2305E-03  0.0000E+00  0.0000E+00  0.0000E+00  0.0000E+00  0.0000E+00  0.0000E+00  0.0000E+00  0.0000E+00  0.0000E+00  0.0000E+00
     -3.841  0.3443E+00  0.3433E+00  0.2023E-02  0.2022E-02  0.8502E-03  0.8509E-03  0.1332E-02  0.1334E-02  0.0000E+00  0.0000E+00  0.0000E+00  0.0000E+00  0.0000E+00  0.0000E+00  0.0000E+00  0.0000E+00  0.0000E+00  0.0000E+00
     -3.738  0.5789E-01  0.5905E-01  0.1722E-03  0.1771E-03  0.1689E-04  0.1834E-04  0.4507E-04  0.4592E-04  0.0000E+00  0.0000E+00  0.0000E+00  0.0000E+00  0.0000E+00  0.0000E+00  0.0000E+00  0.0000E+00  0.0000E+00  0.0000E+00
     -3.635  0.2063E+00  0.2051E+00  0.1378E-02  0.1371E-02  0.5384E-03  0.5346E-03  0.4277E-03  0.4254E-03  0.0000E+00  0.0000E+00  0.0000E+00  0.0000E+00  0.0000E+00  0.0000E+00  0.0000E+00  0.0000E+00  0.0000E+00  0.0000E+00
     -3.531  0.1825E+00  0.1832E+00  0.9037E-03  0.9085E-03  0.4040E-03  0.4073E-03  0.1785E-03  0.1806E-03  0.0000E+00  0.0000E+00  0.0000E+00  0.0000E+00  0.0000E+00  0.0000E+00  0.0000E+00  0.0000E+00  0.0000E+00  0.0000E+00
     -3.428  0.3137E+00  0.3131E+00  0.2511E-02  0.2506E-02  0.1084E-02  0.1081E-02  0.1231E-02  0.1226E-02  0.0000E+00  0.0000E+00  0.0000E+00  0.0000E+00  0.0000E+00  0.0000E+00  0.0000E+00  0.0000E+00  0.0000E+00  0.0000E+00
     -3.325  0.2492E+00  0.2492E+00  0.1117E-02  0.1123E-02  0.6295E-03  0.6333E-03  0.7404E-03  0.7439E-03  0.0000E+00  0.0000E+00  0.0000E+00  0.0000E+00  0.0000E+00  0.0000E+00  0.0000E+00  0.0000E+00  0.0000E+00  0.0000E+00
     -3.222  0.2407E+00  0.2401E+00  0.1091E-02  0.1088E-02  0.4837E-04  0.4730E-04  0.6790E-03  0.6784E-03  0.0000E+00  0.0000E+00  0.0000E+00  0.0000E+00  0.0000E+00  0.0000E+00  0.0000E+00  0.0000E+00  0.0000E+00  0.0000E+00
     -3.118  0.2802E+00  0.2813E+00  0.7948E-03  0.7996E-03  0.3277E-03  0.3287E-03  0.2705E-03  0.2740E-03  0.0000E+00  0.0000E+00  0.0000E+00  0.0000E+00  0.0000E+00  0.0000E+00  0.0000E+00  0.0000E+00  0.0000E+00  0.0000E+00
     -3.015  0.2523E+00  0.2516E+00  0.9649E-03  0.9592E-03  0.4690E-03  0.4639E-03  0.7442E-03  0.7374E-03  0.0000E+00  0.0000E+00  0.0000E+00  0.0000E+00  0.0000E+00  0.0000E+00  0.0000E+00  0.0000E+00  0.0000E+00  0.0000E+00
     -2.912  0.3607E+00  0.3604E+00  0.1693E-02  0.1696E-02  0.1410E-02  0.1413E-02  0.1322E-02  0.1326E-02  0.0000E+00  0.0000E+00  0.0000E+00  0.0000E+00  0.0000E+00  0.0000E+00  0.0000E+00  0.0000E+00  0.0000E+00  0.0000E+00
     -2.809  0.1428E+00  0.1437E+00  0.3252E-03  0.3309E-03  0.2276E-03  0.2290E-03  0.2660E-03  0.2683E-03  0.0000E+00  0.0000E+00  0.0000E+00  0.0000E+00  0.0000E+00  0.0000E+00  0.0000E+00  0.0000E+00  0.0000E+00  0.0000E+00
     -2.705  0.9262E-01  0.9309E-01  0.1747E-04  0.1740E-04  0.1221E-03  0.1239E-03  0.2200E-03  0.2195E-03  0.0000E+00  0.0000E+00  0.0000E+00  0.0000E+00  0.0000E+00  0.0000E+00  0.0000E+00  0.0000E+00  0.0000E+00  0.0000E+00
     -2.602  0.8248E-01  0.8103E-01  0.3110E-03  0.3033E-03  0.3879E-03  0.3784E-03  0.2602E-03  0.2565E-03  0.0000E+00  0.0000E+00  0.0000E+00  0.0000E+00  0.0000E+00  0.0000E+00  0.0000E+00  0.0000E+00  0.0000E+00  0.0000E+00
     -2.499  0.1430E+00  0.1448E+00  0.6002E-03  0.6074E-03  0.7063E-03  0.7154E-03  0.4771E-03  0.4818E-03  0.0000E+00  0.0000E+00  0.0000E+00  0.0000E+00  0.0000E+00  0.0000E+00  0.0000E+00  0.0000E+00  0.0000E+00  0.0000E+00
     -2.396  0.3185E-01  0.3132E-01  0.1137E-03  0.1149E-03  0.1122E-03  0.1134E-03  0.2055E-03  0.2045E-03  0.0000E+00  0.0000E+00  0.0000E+00  0.0000E+00  0.0000E+00  0.0000E+00  0.0000E+00  0.0000E+00  0.0000E+00  0.0000E+00