    2    2    1    2
  0.1135270E+02  0.3178445E-09  0.3178445E-09  0.3178445E-09  0.5000000E-15
  1.000000000000000E-004
  CAR 
 unknown system                          
    9   60   12
 
  0.6250000E-01  0.6250000E-01  0.6250000E-01  0.3906250E-02
   1       -6.149999     -6.149771
   2        6.473673      6.473206
   3        6.809998      6.809629
   4        6.809998      6.809629
   5        7.539429      7.539143
   6        7.539429      7.539143
   7        8.256483      8.256543
   8        9.789446      9.789445
   9        9.789446      9.789445
  10       14.858254     14.858080
  11       18.657181     18.654947
  12       20.596957     20.596628
 
  0.1875000E+00  0.6250000E-01  0.6250000E-01  0.1171875E-01
   1       -5.632159     -5.631895
   2        4.938321      4.938242
   3        5.401924      5.402012
   4        5.564052      5.563754
   5        7.516717      7.515798
   6        8.411222      8.410547
   7        9.049457      9.049223
   8       10.866171     10.866188
   9       12.381325     12.381543
  10       15.859890     15.859770
  11       19.917728     19.915548
  12       20.597451     20.597124
 
  0.3125000E+00  0.6250000E-01  0.6250000E-01  0.1171875E-01
   1       -4.465791     -4.465444
   2        2.767304      2.767218
   3        3.997873      3.997895
   4        4.293071      4.292979
   5        8.632280      8.631309
   6        9.196617      9.195903
   7        9.951141      9.950304
   8       13.523543     13.523745
   9       15.218471     15.218875
  10       16.842430     16.842119
  11       20.589029     20.588740
  12       21.263007     21.261510
 
  0.4375000E+00  0.6250000E-01  0.6250000E-01  0.1171875E-01
   1       -2.971594     -2.971099
   2        0.825613      0.825479
   3        3.225018      3.225016
   4        3.384957      3.384934
   5       10.089171     10.088075
   6       10.286147     10.285183
   7       11.196788     11.195736
   8       15.232732     15.232039
   9       16.230335     16.230676
  10       17.514467     17.515097
  11       20.586045     20.585783
  12       21.574377     21.574547
 
 -0.4375000E+00  0.6250000E-01  0.6250000E-01  0.1171875E-01
   1       -2.214935     -2.214255
   2       -0.018131     -0.018418
   3        3.068465      3.068460
   4        3.118741      3.118734
   5       10.588468     10.587345
   6       10.975523     10.974323
   7       11.793931     11.792891
   8       14.109270     14.108436
   9       17.548889     17.549487
  10       17.895934     17.896594
  11       20.569210     20.566957
  12       20.668754     20.665462
 
 -0.3125000E+00  0.6250000E-01  0.6250000E-01  0.1171875E-01
   1       -3.486478     -3.486046
   2        1.433229      1.433123
   3        3.412178      3.412160
   4        3.673136      3.673132
   5        9.234727      9.233798
   6       10.339948     10.338890
   7       10.691119     10.690172
   8       15.451189     15.451551
   9       15.805690     15.805236
  10       17.005188     17.005493
  11       20.583266     20.583017
  12       21.458919     21.458380
 
 -0.1875000E+00  0.6250000E-01  0.6250000E-01  0.1171875E-01
   1       -4.916887     -4.916572
   2        3.413044      3.412973
   3        4.444861      4.444767
   4        4.827799      4.827791
   5        7.954971      7.954149
   6        9.037794      9.036945
   7        9.586854      9.586206
   8       12.757920     12.758090
   9       14.025585     14.025859
  10       16.817644     16.817501
  11       20.593148     20.592837
  12       21.061693     21.059775
 
 -0.6250000E-01  0.6250000E-01  0.6250000E-01  0.1171875E-01
   1       -5.889228     -5.888981
   2        5.453768      5.453825
   3        6.036596      6.036256
   4        6.264332      6.264133
   5        7.076981      7.076178
   6        8.346671      8.346205
   7        8.885552      8.885376
   8       10.017987     10.017975
   9       11.401157     11.401270
  10       15.460693     15.460571
  11       19.332109     19.329902
  12       20.597434     20.597105
 
  0.1875000E+00  0.1875000E+00  0.6250000E-01  0.1171875E-01
   1       -5.414374     -5.414089
   2        3.981995      3.982057
   3        5.539215      5.538784
   4        5.916933      5.916847
   5        6.703761      6.703090
   6        9.098700      9.098180
   7        9.861581      9.861202
   8       10.522873     10.522754
   9       12.673639     12.673730
  10       16.719638     16.719642
  11       20.530944     20.528781
  12       20.597349     20.597017
 
  0.3125000E+00  0.1875000E+00  0.6250000E-01  0.2343750E-01
   1       -4.590070     -4.589714
   2        2.695215      2.695209
   3        4.523999      4.523624
   4        4.975757      4.975766
   5        7.225258      7.224623
   6        9.957309      9.956595
   7       10.757257     10.756636
   8       11.843996     11.843823
   9       14.465020     14.465181
  10       18.086834     18.086878
  11       20.593638     20.593338
  12       21.862200     21.860507
 
  0.4375000E+00  0.1875000E+00  0.6250000E-01  0.2343750E-01
   1       -3.449124     -3.448653
   2        1.494056      1.493920
   3        3.511057      3.510953
   4        4.051781      4.051784
   5        8.302933      8.302189
   6       10.902933     10.901905
   7       11.558608     11.557556
   8       14.047675     14.047810
   9       15.801277     15.801116
  10       18.181113     18.181287
  11       20.505756     20.505855
  12       20.750215     20.749716
 
 -0.4375000E+00  0.1875000E+00  0.6250000E-01  0.2343750E-01
   1       -2.588023     -2.587410
   2        0.607728      0.607462
   3        3.256977      3.256959
   4        3.461990      3.462029
   5        9.773835      9.772894
   6       10.820910     10.819768
   7       11.711594     11.710499
   8       15.332991     15.332541
   9       16.495623     16.495977
  10       17.447169     17.447301
  11       20.508382     20.508567
  12       20.712945     20.712635
 
 -0.3125000E+00  0.1875000E+00  0.6250000E-01  0.2343750E-01
   1       -2.983111     -2.982575
   2        1.003778      1.003598
   3        3.342664      3.342665
   4        3.587315      3.587237
   5        9.418514      9.417590
   6       10.776951     10.775961
   7       11.470460     11.469419
   8       14.519723     14.519865
   9       16.149966     16.149471
  10       18.022426     18.022969
  11       20.576196     20.575995
  12       21.197388     21.197377
 
 -0.1875000E+00  0.1875000E+00  0.6250000E-01  0.2343750E-01
   1       -4.146126     -4.145735
   2        2.322496      2.322461
   3        3.922752      3.922746
   4        4.183433      4.183154
   5        8.216318      8.215454
   6       10.317256     10.316638
   7       10.843587     10.842824
   8       12.323538     12.323406
   9       15.926012     15.926263
  10       17.614092     17.614048
  11       20.589105     20.588827
  12       21.655673     21.654568
 
 -0.6250000E-01  0.1875000E+00  0.6250000E-01  0.2343750E-01
   1       -5.163329     -5.163028
   2        3.760161      3.760181
   3        4.877720      4.877522
   4        5.147110      5.146978
   5        7.471425      7.470610
   6        9.146607      9.145892
   7        9.774848      9.774435
   8       11.338560     11.338521
   9       13.654593     13.654833
  10       16.795961     16.795899
  11       20.596195     20.595874
  12       20.901344     20.899236
 
  0.3125000E+00  0.3125000E+00  0.6250000E-01  0.1171875E-01
   1       -4.332023     -4.331625
   2        2.316360      2.316350
   3        4.716865      4.716060
   4        5.806767      5.806905
   5        6.266254      6.266143
   6       10.179900     10.179508
   7       11.730735     11.729907
   8       11.926871     11.926188
   9       14.298336     14.298422
  10       19.418604     19.418864
  11       20.587097     20.586831
  12       21.441204     21.440547
 
  0.4375000E+00  0.3125000E+00  0.6250000E-01  0.2343750E-01
   1       -3.857545     -3.857100
   2        2.276355      2.276322
   3        3.992190      3.991581
   4        5.133078      5.133279
   5        7.027968      7.027774
   6       11.214657     11.214012
   7       12.118835     12.117738
   8       12.458176     12.457558
   9       15.483240     15.483429
  10       18.576977     18.576897
  11       19.878773     19.878507
  12       20.608300     20.607910
 
 -0.4375000E+00  0.3125000E+00  0.6250000E-01  0.2343750E-01
   1       -3.326646     -3.326148
   2        2.079166      2.078963
   3        3.468621      3.468501
   4        4.331593      4.331722
   5        8.081231      8.080696
   6       11.313924     11.312733
   7       12.021027     12.019824
   8       14.154589     14.154715
   9       15.476423     15.476551
  10       18.272061     18.271753
  11       19.798258     19.798092
  12       20.609373     20.608982
 
 -0.3125000E+00  0.3125000E+00  0.6250000E-01  0.2343750E-01
   1       -2.968724     -2.968168
   2        1.482497      1.482299
   3        3.419406      3.419243
   4        3.754738      3.754848
   5        9.703006      9.702120
   6       10.252861     10.251802
   7       11.855488     11.854630
   8       13.802469     13.802468
   9       16.499406     16.499752
  10       18.831608     18.831034
  11       20.549214     20.549140
  12       20.764396     20.763670
 
 -0.1875000E+00  0.3125000E+00  0.6250000E-01  0.2343750E-01
   1       -3.204583     -3.204067
   2        1.371819      1.371686
   3        3.514752      3.514747
   4        3.639221      3.639026
   5        9.186242      9.185297
   6       11.079291     11.078430
   7       11.425284     11.424436
   8       13.041393     13.041362
   9       16.737747     16.737519
  10       18.174260     18.174671
  11       20.577582     20.577359
  12       21.272229     21.263718
 
 -0.6250000E-01  0.3125000E+00  0.6250000E-01  0.2343750E-01
   1       -3.913080     -3.912677
   2        1.981687      1.981600
   3        3.659216      3.659173
   4        4.069937      4.069872
   5        8.537467      8.536614
   6       10.035054     10.034194
   7       10.799058     10.798104
   8       13.856254     13.856422
   9       15.941083     15.941186
  10       17.299011     17.298936
  11       20.583939     20.583683
  12       21.374927     21.374157
 
  0.4375000E+00  0.4375000E+00  0.6250000E-01  0.1171875E-01
   1       -4.054752     -4.054331
   2        3.046835      3.046931
   3        4.061729      4.060736
   4        6.189312      6.189703
   5        6.500033      6.500353
   6       10.944603     10.944306
   7       12.295008     12.293699
   8       12.310564     12.309312
   9       15.655715     15.656085
  10       16.452943     16.452516
  11       20.372707     20.372217
  12       20.605176     20.604802
 
 -0.4375000E+00  0.4375000E+00  0.6250000E-01  0.2343750E-01
   1       -3.907186     -3.906756
   2        3.494418      3.494381
   3        3.698447      3.697872
   4        5.331237      5.331537
   5        7.170211      7.170335
   6       11.886183     11.885141
   7       12.087794     12.087327
   8       12.263334     12.262003
   9       15.016119     15.016028
  10       16.939057     16.939192
  11       20.191191     20.190469
  12       20.603900     20.603534
 
 -0.3125000E+00  0.4375000E+00  0.6250000E-01  0.2343750E-01
   1       -3.418790     -3.418305
   2        2.545698      2.545440
   3        3.479731      3.479688
   4        4.422484      4.422629
   5        8.017623      8.017111
   6       11.236449     11.235258
   7       12.157683     12.156527
   8       14.101052     14.101059
   9       14.636677     14.636803
  10       18.642527     18.642586
  11       20.218859     20.218128
  12       20.607363     20.606980
 
 -0.1875000E+00  0.4375000E+00  0.6250000E-01  0.2343750E-01
   1       -2.803282     -2.802702
   2        1.088178      1.087936
   3        3.369088      3.369013
   4        3.640766      3.640849
   5        9.731132      9.730246
   6       10.441244     10.440176
   7       11.659844     11.658798
   8       15.028669     15.028770
   9       16.362998     16.363248
  10       17.763678     17.763114
  11       20.525824     20.525954
  12       20.755450     20.755225
 
 -0.6250000E-01  0.4375000E+00  0.6250000E-01  0.2343750E-01
   1       -2.594653     -2.594066
   2        0.455904      0.455682
   3        3.168441      3.168438
   4        3.345496      3.345491
   5        9.927851      9.926846
   6       10.900225     10.899067
   7       11.607316     11.606263
   8       14.935592     14.934879
   9       16.393276     16.393649
  10       17.944651     17.945276
  11       20.575501     20.575310
  12       20.982525     20.982557
 
 -0.4375000E+00 -0.4375000E+00  0.6250000E-01  0.1171875E-01
   1       -4.099559     -4.099147
   2        3.616081      3.616253
   3        3.909797      3.908785
   4        6.343985      6.344463
   5        6.609179      6.609602
   6       11.145911     11.145671
   7       12.204614     12.203179
   8       12.254237     12.252812
   9       15.097156     15.096832
  10       16.192572     16.192854
  11       20.200714     20.200030
  12       20.603742     20.603382
 
 -0.3125000E+00 -0.4375000E+00  0.6250000E-01  0.2343750E-01
   1       -3.851733     -3.851293
   2        2.884851      2.884864
   3        3.810563      3.809895
   4        5.281393      5.281671
   5        7.101528      7.101534
   6       11.626931     11.626215
   7       12.175852     12.174795
   8       12.371536     12.370624
   9       15.758680     15.758965
  10       16.984048     16.983762
  11       20.161198     20.160755
  12       20.605419     20.605045
 
 -0.1875000E+00 -0.4375000E+00  0.6250000E-01  0.2343750E-01
   1       -3.267980     -3.267475
   2        1.575853      1.575673
   3        3.468167      3.468033
   4        4.170906      4.170983
   5        8.158486      8.157860
   6       11.347781     11.346599
   7       11.904167     11.903037
   8       14.112100     14.112230
   9       15.848982     15.848931
  10       18.567199     18.567204
  11       19.526956     19.526911
  12       20.611850     20.611444
 
 -0.3125000E+00 -0.3125000E+00  0.6250000E-01  0.1171875E-01
   1       -4.078282     -4.077856
   2        2.444268      2.444283
   3        4.343009      4.342077
   4        5.973288      5.973552
   5        6.342859      6.342998
   6       10.604966     10.604622
   7       12.200790     12.199697
   8       12.288599     12.287610
   9       15.009151     15.009322
  10       18.476949     18.476862
  11       20.396601     20.396229
  12       20.611744     20.611321
 
 -0.1875000E+00 -0.3125000E+00  0.6250000E-01  0.2343750E-01
   1       -4.096082     -4.095667
   2        2.154112      2.154070
   3        4.232959      4.232456
   4        4.994854      4.994964
   5        7.053265      7.052842
   6       10.657767     10.657099
   7       11.629225     11.628373
   8       12.294976     12.294576
   9       14.986887     14.987008
  10       19.127050     19.127164
  11       20.550435     20.550349
  12       20.875706     20.875154
 
 -0.1875000E+00 -0.1875000E+00  0.6250000E-01  0.1171875E-01
   1       -4.834479     -4.834139
   2        2.862377      2.862393
   3        5.124025      5.123423
   4        5.771815      5.771837
   5        6.383155      6.382743
   6        9.691568      9.691108
   7       10.884559     10.883972
   8       11.251674     11.251299
   9       13.561391     13.561458
  10       18.269704     18.269830
  11       20.596248     20.595932
  12       22.008325     22.006249
 
  0.1875000E+00  0.1875000E+00  0.1875000E+00  0.3906250E-02
   1       -5.379160     -5.378880
   2        4.344049      4.343875
   3        5.105842      5.105852
   4        5.105842      5.105852
   5        8.145492      8.144640
   6        8.145492      8.144640
   7        8.982361      8.981887
   8       12.514814     12.515020
   9       12.514814     12.515020
  10       16.141530     16.141392
  11       20.373351     20.371247
  12       20.598662     20.598317
 
  0.3125000E+00  0.1875000E+00  0.1875000E+00  0.1171875E-01
   1       -4.705125     -4.704790
   2        3.184822      3.184818
   3        4.177909      4.177968
   4        4.522402      4.522055
   5        8.111588      8.110602
   6        9.598446      9.597916
   7       10.086882     10.086273
   8       11.861496     11.861429
   9       15.141337     15.141744
  10       16.978791     16.978608
  11       20.594307     20.593999
  12       21.407551     21.405646
 
  0.4375000E+00  0.1875000E+00  0.1875000E+00  0.1171875E-01
   1       -3.615069     -3.614618
   2        1.744676      1.744607
   3        3.540718      3.540773
   4        3.813210      3.812901
   5        8.961919      8.960855
   6       10.571596     10.571142
   7       11.263192     11.262247
   8       12.724777     12.724676
   9       16.863052     16.862657
  10       17.411429     17.412054
  11       20.586461     20.586198
  12       21.555389     21.554287
 
 -0.4375000E+00  0.1875000E+00  0.1875000E+00  0.1171875E-01
   1       -2.714583     -2.713989
   2        0.790275      0.790042
   3        3.396795      3.396847
   4        3.398310      3.398216
   5       10.292441     10.291270
   6       10.437447     10.436480
   7       11.232065     11.231218
   8       14.815045     14.815150
   9       16.719559     16.718873
  10       17.616167     17.616757
  11       20.578610     20.578403
  12       21.076996     21.076997
 
 -0.3125000E+00  0.1875000E+00  0.1875000E+00  0.1171875E-01
   1       -2.909961     -2.909409
   2        1.041538      1.041308
   3        3.310895      3.310865
   4        3.804868      3.804928
   5        8.792013      8.791215
   6       11.256493     11.255252
   7       11.849374     11.848262
   8       15.493224     15.493545
   9       15.511356     15.511045
  10       18.019500     18.019591
  11       19.900877     19.900982
  12       20.616729     20.616306
 
 -0.1875000E+00  0.1875000E+00  0.1875000E+00  0.1171875E-01
   1       -3.863903     -3.863471
   2        1.921409      1.921317
   3        3.843973      3.843710
   4        4.709096      4.709165
   5        7.390277      7.389693
   6       10.793494     10.792550
   7       11.536613     11.535636
   8       13.239340     13.239315
   9       15.296756     15.296825
  10       18.688903     18.688864
  11       20.445275     20.445367
  12       20.690797     20.690180
 
  0.3125000E+00  0.3125000E+00  0.1875000E+00  0.1171875E-01
   1       -4.350251     -4.349880
   2        2.451089      2.451038
   3        4.065564      4.065363
   4        4.690901      4.690918
   5        7.639993      7.639272
   6        9.969898      9.969012
   7       10.597136     10.596336
   8       13.041804     13.041894
   9       14.889689     14.889857
  10       17.825621     17.825543
  11       20.588751     20.588472
  12       21.466139     21.464997
 
  0.4375000E+00  0.3125000E+00  0.1875000E+00  0.2343750E-01
   1       -3.675997     -3.675542
   2        1.818127      1.818046
   3        3.800330      3.800070
   4        4.100658      4.100646
   5        8.118014      8.117345
   6       11.055992     11.055157
   7       11.555426     11.554543
   8       12.676837     12.676656
   9       15.969028     15.969084
  10       18.544309     18.544450
  11       20.536741     20.536755
  12       20.827382     20.827015
 
 -0.4375000E+00  0.3125000E+00  0.1875000E+00  0.2343750E-01
   1       -3.103886     -3.103349
   2        1.555888      1.555732
   3        3.483705      3.483464
   4        3.751558      3.751646
   5        9.213277      9.212533
   6       10.791827     10.790798
   7       11.877648     11.876696
   8       13.316184     13.316161
   9       16.507822     16.507961
  10       18.742847     18.742577
  11       20.444969     20.445283
  12       20.687339     20.686858
 
 -0.3125000E+00  0.3125000E+00  0.1875000E+00  0.2343750E-01
   1       -3.051806     -3.051267
   2        1.675174      1.674965
   3        3.407542      3.407439
   4        3.868495      3.868580
   5        9.255472      9.254747
   6       10.423648     10.422702
   7       11.982925     11.981687
   8       14.817732     14.817840
   9       15.244753     15.244915
  10       18.767937     18.767273
  11       20.374632     20.375003
  12       20.654379     20.653895
 
 -0.1875000E+00  0.3125000E+00  0.1875000E+00  0.2343750E-01
   1       -3.479838     -3.479353
   2        1.941052      1.940950
   3        3.667396      3.667025
   4        4.225393      4.225520
   5        8.071857      8.071386
   6       11.425313     11.424244
   7       11.978244     11.977230
   8       12.813268     12.813119
   9       16.067493     16.067613
  10       18.876120     18.876120
  11       19.656281     19.656198
  12       20.611884     20.611476
 
  0.4375000E+00  0.4375000E+00  0.1875000E+00  0.1171875E-01
   1       -3.639995     -3.639530
   2        2.017768      2.017657
   3        3.705096      3.704779
   4        4.847739      4.847877
   5        7.263822      7.263397
   6       11.393985     11.392923
   7       12.040269     12.039114
   8       13.250076     13.249991
   9       15.635488     15.635606
  10       18.672117     18.672073
  11       19.376216     19.375980
  12       20.607929     20.607541
 
 -0.4375000E+00  0.4375000E+00  0.1875000E+00  0.2343750E-01
   1       -3.518549     -3.518072
   2        2.551070      2.550990
   3        3.572892      3.572492
   4        4.330847      4.331018
   5        8.104035      8.103745
   6       11.369393     11.368282
   7       12.178172     12.176960
   8       12.875135     12.874994
   9       15.640222     15.640400
  10       18.280460     18.280328
  11       20.098697     20.098359
  12       20.609006     20.608614
 
 -0.3125000E+00  0.4375000E+00  0.1875000E+00  0.2343750E-01
   1       -3.345281     -3.344782
   2        2.850596      2.850500
   3        3.436952      3.436755
   4        3.740558      3.740550
   5        9.287920      9.287471
   6       10.418052     10.417323
   7       12.240544     12.239126
   8       13.300366     13.300118
   9       14.555399     14.555628
  10       20.096729     20.097033
  11       20.620032     20.619583
  12       20.881495     20.880714
 
 -0.1875000E+00  0.4375000E+00  0.1875000E+00  0.2343750E-01
   1       -3.224992     -3.224476
   2        2.176787      2.176650
   3        3.447095      3.446841
   4        3.876618      3.876728
   5        9.248579      9.248012
   6       10.416346     10.415454
   7       12.163983     12.162736
   8       13.482151     13.482072
   9       15.407292     15.407491
  10       19.585868     19.585360
  11       20.398343     20.398570
  12       20.649869     20.649387
 
 -0.4375000E+00 -0.4375000E+00  0.1875000E+00  0.1171875E-01
   1       -3.718467     -3.718019
   2        3.088273      3.087913
   3        3.573735      3.573697
   4        5.168146      5.168409
   5        7.137949      7.137669
   6       11.731079     11.729696
   7       12.207354     12.206154
   8       13.148172     13.148214
   9       14.844308     14.844258
  10       17.485028     17.485124
  11       20.124069     20.123324
  12       20.604470     20.604104
 
 -0.3125000E+00 -0.4375000E+00  0.1875000E+00  0.2343750E-01
   1       -3.598794     -3.598330
   2        3.208324      3.208126
   3        3.526579      3.526364
   4        4.249599      4.249721
   5        8.149128      8.148955
   6       11.348079     11.347041
   7       12.238680     12.237279
   8       12.850439     12.850281
   9       14.791177     14.791264
  10       18.458201     18.458344
  11       20.383295     20.382529
  12       20.607093     20.606707
 
 -0.3125000E+00 -0.3125000E+00  0.1875000E+00  0.1171875E-01
   1       -3.652153     -3.651694
   2        2.569902      2.569756
   3        3.615890      3.615601
   4        5.034042      5.034254
   5        7.204576      7.204276
   6       11.688372     11.687118
   7       12.131108     12.129878
   8       13.170194     13.170174
   9       15.654531     15.654725
  10       17.427888     17.427667
  11       19.871735     19.871350
  12       20.605784     20.605409
 
  0.3125000E+00  0.3125000E+00  0.3125000E+00  0.3906250E-02
   1       -4.026315     -4.025938
   2        2.135269      2.135176
   3        3.790877      3.790873
   4        3.790877      3.790874
   5        9.459671      9.458681
   6        9.459671      9.458681
   7        9.846712      9.845927
   8       15.343800     15.344190
   9       15.343800     15.344190
  10       16.512305     16.511781
  11       20.584413     20.584151
  12       21.297302     21.296228
 
  0.4375000E+00  0.3125000E+00  0.3125000E+00  0.1171875E-01
   1       -3.387065     -3.386602
   2        1.381703      1.381592
   3        3.400641      3.400668
   4        3.691662      3.691524
   5        9.402125      9.401059
   6       10.057561     10.056844
   7       11.299885     11.298825
   8       14.264298     14.264454
   9       16.316115     16.315559
  10       17.452284     17.452913
  11       20.584817     20.584562
  12       21.567687     21.567205
 
 -0.4375000E+00  0.3125000E+00  0.3125000E+00  0.1171875E-01
   1       -2.918488     -2.917920
   2        1.167506      1.167325
   3        3.467380      3.467164
   4        3.522949      3.523030
   5        9.956130      9.954963
   6       10.547729     10.546731
   7       11.444710     11.444134
   8       13.436477     13.436483
   9       17.651837     17.651240
  10       17.653815     17.654409
  11       20.580325     20.580092
  12       20.933581     20.932574
 
 -0.3125000E+00  0.3125000E+00  0.3125000E+00  0.1171875E-01
   1       -3.143072     -3.142549
   2        1.884704      1.884485
   3        3.428876      3.428796
   4        4.099996      4.100139
   5        8.621646      8.620901
   6       10.942753     10.941468
   7       11.974521     11.973660
   8       14.222140     14.222144
   9       15.643827     15.644131
  10       18.906772     18.906489
  11       20.239534     20.239062
  12       20.609426     20.609017
 
  0.4375000E+00  0.4375000E+00  0.3125000E+00  0.1171875E-01
   1       -3.043228     -3.042718
   2        0.976363      0.976195
   3        3.280788      3.280753
   4        3.683521      3.683541
   5        8.962775      8.961901
   6       11.010031     11.008872
   7       11.581055     11.579990
   8       15.361097     15.360571
   9       15.481830     15.482163
  10       17.949645     17.950078
  11       20.535816     20.535828
  12       20.804084     20.803722
 
 -0.4375000E+00  0.4375000E+00  0.3125000E+00  0.2343750E-01
   1       -2.904469     -2.903908
   2        1.151698      1.151483
   3        3.371943      3.371869
   4        3.697097      3.697133
   5        9.309950      9.309141
   6       10.781481     10.780409
   7       11.730179     11.729080
   8       14.689098     14.689244
   9       16.187344     16.187240
  10       18.081826     18.081681
  11       20.446032     20.446333
  12       20.685226     20.684757
 
 -0.3125000E+00  0.4375000E+00  0.3125000E+00  0.2343750E-01
   1       -3.186003     -3.185483
   2        2.148210      2.148037
   3        3.424817      3.424676
   4        3.926803      3.926882
   5        9.214139      9.213444
   6       10.360647     10.359785
   7       12.146847     12.145637
   8       13.974657     13.974563
   9       15.021307     15.021556
  10       19.850608     19.850278
  11       20.496179     20.496124
  12       20.676963     20.676447
 
 -0.4375000E+00 -0.4375000E+00  0.3125000E+00  0.1171875E-01
   1       -3.022277     -3.021738
   2        1.487380      1.487150
   3        3.388704      3.388650
   4        3.975065      3.975172
   5        8.698179      8.697434
   6       11.130664     11.129389
   7       11.776089     11.775078
   8       15.257737     15.257819
   9       15.567659     15.567969
  10       18.013603     18.013012
  11       19.996681     19.996828
  12       20.616047     20.615627
 
  0.4375000E+00  0.4375000E+00  0.4375000E+00  0.3906250E-02
   1       -2.485415     -2.484838
   2        0.251356      0.251176
   3        3.115095      3.115081
   4        3.115095      3.115081
   5       10.721199     10.720042
   6       10.721199     10.720042
   7       11.337954     11.336981
   8       14.391535     14.390683
   9       17.554281     17.554900
  10       17.554281     17.554900
  11       21.028778     20.595667
  12       21.028780     21.028932
 
 -0.4375000E+00  0.4375000E+00  0.4375000E+00  0.1171875E-01
   1       -2.391247     -2.390595
   2        0.271653      0.271375
   3        3.218589      3.218569
   4        3.230673      3.230690
   5       10.418276     10.417217
   6       10.748282     10.747091
   7       11.523775     11.522802
   8       14.950249     14.949519
   9       16.920634     16.920940
  10       17.565420     17.566007
  11       20.572427     20.572275
  12       20.841585     20.841668
