       N       E                     dE             d eps       ncg     rms          rms(c)
DAV:   1     0.108855699336E+02    0.10886E+02   -0.39352E+03  2912   0.592E+02
DAV:   2    -0.181862799060E+02   -0.29072E+02   -0.27790E+02  3772   0.118E+02
DAV:   3    -0.191157915934E+02   -0.92951E+00   -0.92296E+00  3504   0.192E+01
DAV:   4    -0.191191564154E+02   -0.33648E-02   -0.33644E-02  3248   0.130E+00
DAV:   5    -0.191191683796E+02   -0.11964E-04   -0.11964E-04  3588   0.691E-02    0.188E+01
DAV:   6    -0.221132454108E+02   -0.29941E+01   -0.16803E+01  3212   0.199E+01    0.437E+00
DAV:   7    -0.223172054720E+02   -0.20396E+00   -0.65089E-01  3464   0.568E+00    0.155E+00
DAV:   8    -0.222559183256E+02    0.61287E-01   -0.88193E-02  3320   0.197E+00    0.864E-01
DAV:   9    -0.222494672491E+02    0.64511E-02   -0.26426E-02  3344   0.117E+00    0.241E-01
DAV:  10    -0.222473126741E+02    0.21546E-02   -0.12478E-03  3248   0.279E-01    0.573E-02
DAV:  11    -0.222471477135E+02    0.16496E-03   -0.15040E-04  2884   0.867E-02    0.336E-02
DAV:  12    -0.222471094665E+02    0.38247E-04   -0.36067E-05  1744   0.448E-02
   1 F= -.22247109E+02 E0= -.22247203E+02  d E =0.280074E-03  mag=    -0.0004
