 vasp.5.2.12 11Nov11 complex                                                    
  
 executed on             LinuxIFC date 2012.10.17  12:38:11
 running on    1 nodes
 distr:  one band on    1 nodes,    1 groups


--------------------------------------------------------------------------------------------------------


 INCAR:
 POTCAR:   PAW_PBE C 08Apr2002                    
 POTCAR:    PAW_PBE Ta 17Jan2003                  
 POTCAR:   PAW_PBE C 08Apr2002                    
   VRHFIN =C: s2p2                                                              
   LEXCH  = PE                                                                  
   EATOM  =   147.1560 eV,   10.8157 Ry                                         
                                                                                
   TITEL  = PAW_PBE C 08Apr2002                                                 
   LULTRA =        F    use ultrasoft PP ?                                      
   IUNSCR =        0    unscreen: 0-lin 1-nonlin 2-no                           
   RPACOR =     .000    partial core radius                                     
   POMASS =   12.011; ZVAL   =    4.000    mass and valenz                      
   RCORE  =    1.500    outmost cutoff radius                                   
   RWIGS  =    1.630; RWIGS  =     .863    wigner-seitz radius (au A)           
   ENMAX  =  400.000; ENMIN  =  300.000 eV                                      
   ICORE  =        2    local potential                                         
   LCOR   =        T    correct aug charges                                     
   LPAW   =        T    paw PP                                                  
   EAUG   =  644.873                                                            
   DEXC   =     .000                                                            
   RMAX   =    2.266    core radius for proj-oper                               
   RAUG   =    1.300    factor for augmentation sphere                          
   RDEP   =    1.501    radius for radial grids                                 
   RDEPT  =    1.300    core radius for aug-charge                              
   QCUT   =   -5.516; QGAM   =   11.032    optimization parameters              
                                                                                
   Description                                                                  
     l     E      TYP  RCUT    TYP  RCUT                                        
     0   .000     23  1.200                                                     
     0   .000     23  1.200                                                     
     1   .000     23  1.500                                                     
     1  2.500     23  1.500                                                     
     2   .000      7  1.500                                                     
  local pseudopotential read in
  atomic valenz-charges read in
  non local Contribution for L=           0  read in
    real space projection operators read in
  non local Contribution for L=           0  read in
    real space projection operators read in
  non local Contribution for L=           1  read in
    real space projection operators read in
  non local Contribution for L=           1  read in
    real space projection operators read in
    PAW grid and wavefunctions read in
 
   number of l-projection  operators is LMAX  =           4
   number of lm-projection operators is LMMAX =           8
 
 POTCAR:    PAW_PBE Ta 17Jan2003                  
   VRHFIN =Ta:  6s5d                                                            
   LEXCH  = PE                                                                  
   EATOM  =   130.6506 eV,    9.6025 Ry                                         
                                                                                
   TITEL  = PAW_PBE Ta 17Jan2003                                                
   LULTRA =        F    use ultrasoft PP ?                                      
   IUNSCR =        1    unscreen: 0-lin 1-nonlin 2-no                           
   RPACOR =    2.330    partial core radius                                     
   POMASS =  180.948; ZVAL   =    5.000    mass and valenz                      
   RCORE  =    2.900    outmost cutoff radius                                   
   RWIGS  =    2.840; RWIGS  =    1.503    wigner-seitz radius (au A)           
   ENMAX  =  223.667; ENMIN  =  167.750 eV                                      
   RCLOC  =    2.205    cutoff for local pot                                    
   LCOR   =        T    correct aug charges                                     
   LPAW   =        T    paw PP                                                  
   EAUG   =  332.075                                                            
   DEXC   =    -.049                                                            
   RMAX   =    3.083    core radius for proj-oper                               
   RAUG   =    1.300    factor for augmentation sphere                          
   RDEP   =    3.060    radius for radial grids                                 
   QCUT   =   -4.055; QGAM   =    8.109    optimization parameters              
                                                                                
   Description                                                                  
     l     E      TYP  RCUT    TYP  RCUT                                        
     2   .000     23  2.500                                                     
     2   .000     23  2.500                                                     
     0   .000     23  2.500                                                     
     0   .000     23  2.500                                                     
     1   .000     23  2.900                                                     
     1  2.000     23  2.900                                                     
     3   .000      7   .000                                                     
  local pseudopotential read in
  partial core-charges read in
  atomic valenz-charges read in
  non local Contribution for L=           2  read in
    real space projection operators read in
  non local Contribution for L=           2  read in
    real space projection operators read in
  non local Contribution for L=           0  read in
    real space projection operators read in
  non local Contribution for L=           0  read in
    real space projection operators read in
  non local Contribution for L=           1  read in
    real space projection operators read in
  non local Contribution for L=           1  read in
    real space projection operators read in
    PAW grid and wavefunctions read in
 
   number of l-projection  operators is LMAX  =           6
   number of lm-projection operators is LMMAX =          18
 
 PAW_PBE C 08Apr2002                    :
 energy of atom  1       EATOM= -147.1560
 kinetic energy error for atom=    0.0116 (will be added to EATOM!!)
  PAW_PBE Ta 17Jan2003                  :
 energy of atom  2       EATOM= -130.6506
 kinetic energy error for atom=    0.0016 (will be added to EATOM!!)
 
 
 POSCAR:  C Ta                                   
  positions in cartesian coordinates
  No initial velocities read in
 exchange correlation table for  LEXCH =        8
   RHO(1)=    0.500       N(1)  =     2000
   RHO(2)=  100.500       N(2)  =     4000
 


--------------------------------------------------------------------------------------------------------


 ion  position               nearest neighbor table
   1  0.500  0.500  0.500-   2 2.25   2 2.25   2 2.25   2 2.25   2 2.25   2 2.25
   2  0.000  0.000  0.000-   1 2.25   1 2.25   1 2.25   1 2.25   1 2.25   1 2.25
 
  LATTYP: Found a face centered cubic cell.
 ALAT       =     4.4950000000
  
  Lattice vectors:
  
 A1 = (   0.0000000000,   2.2475000000,   2.2475000000)
 A2 = (   2.2475000000,   0.0000000000,   2.2475000000)
 A3 = (   2.2475000000,   2.2475000000,   0.0000000000)
 Subroutine PRICEL returns:
 Original cell was already a primitive cell.
 

Analysis of symmetry for initial positions (statically):

 Routine SETGRP: Setting up the symmetry group for a 
 face centered cubic supercell.


 Subroutine GETGRP returns: Found 48 space group operations
 (whereof 48 operations were pure point group operations)
 out of a pool of 48 trial point group operations.


The static configuration has the point symmetry O_h .

Analysis of symmetry for dynamics (positions and initial velocities):

 Subroutine DYNSYM returns: Found 48 space group operations
 (whereof 48 operations were pure point group operations)
 out of a pool of 48 trial space group operations
 (whereof 48 operations were pure point group operations)
 and found also     1 'primitive' translations


The dynamic configuration has the point symmetry O_h .

Analysis of magnetic symmetry:

 Subroutine MAGSYM returns: Found 48 space group operations
 (whereof 48 operations were pure point group operations)
 out of a pool of 48 trial space group operations
 (whereof 48 operations were pure point group operations)
 and found also     1 'primitive' translations


The magnetic configuration has the point symmetry O_h .
 
 
 KPOINTS: KPOINTS created by Atomic Simulation Env

Automatic generation of k-mesh.
 
 Subroutine IBZKPT returns following result:
 ===========================================
 
 Found     60 irreducible k-points:
 
 Following reciprocal coordinates:
            Coordinates               Weight
  0.062500  0.062500  0.062500     96.000000
  0.187500  0.062500  0.062500    288.000000
  0.312500  0.062500  0.062500    288.000000
  0.437500  0.062500  0.062500    288.000000
 -0.437500  0.062500  0.062500    288.000000
 -0.312500  0.062500  0.062500    288.000000
 -0.187500  0.062500  0.062500    288.000000
 -0.062500  0.062500  0.062500    288.000000
  0.187500  0.187500  0.062500    288.000000
  0.312500  0.187500  0.062500    576.000000
  0.437500  0.187500  0.062500    576.000000
 -0.437500  0.187500  0.062500    576.000000
 -0.312500  0.187500  0.062500    576.000000
 -0.187500  0.187500  0.062500    576.000000
 -0.062500  0.187500  0.062500    576.000000
  0.312500  0.312500  0.062500    288.000000
  0.437500  0.312500  0.062500    576.000000
 -0.437500  0.312500  0.062500    576.000000
 -0.312500  0.312500  0.062500    576.000000
 -0.187500  0.312500  0.062500    576.000000
 -0.062500  0.312500  0.062500    576.000000
  0.437500  0.437500  0.062500    288.000000
 -0.437500  0.437500  0.062500    576.000000
 -0.312500  0.437500  0.062500    576.000000
 -0.187500  0.437500  0.062500    576.000000
 -0.062500  0.437500  0.062500    576.000000
 -0.437500 -0.437500  0.062500    288.000000
 -0.312500 -0.437500  0.062500    576.000000
 -0.187500 -0.437500  0.062500    576.000000
 -0.312500 -0.312500  0.062500    288.000000
 -0.187500 -0.312500  0.062500    576.000000
 -0.187500 -0.187500  0.062500    288.000000
  0.187500  0.187500  0.187500     96.000000
  0.312500  0.187500  0.187500    288.000000
  0.437500  0.187500  0.187500    288.000000
 -0.437500  0.187500  0.187500    288.000000
 -0.312500  0.187500  0.187500    288.000000
 -0.187500  0.187500  0.187500    288.000000
  0.312500  0.312500  0.187500    288.000000
  0.437500  0.312500  0.187500    576.000000
 -0.437500  0.312500  0.187500    576.000000
 -0.312500  0.312500  0.187500    576.000000
 -0.187500  0.312500  0.187500    576.000000
  0.437500  0.437500  0.187500    288.000000
 -0.437500  0.437500  0.187500    576.000000
 -0.312500  0.437500  0.187500    576.000000
 -0.187500  0.437500  0.187500    576.000000
 -0.437500 -0.437500  0.187500    288.000000
 -0.312500 -0.437500  0.187500    576.000000
 -0.312500 -0.312500  0.187500    288.000000
  0.312500  0.312500  0.312500     96.000000
  0.437500  0.312500  0.312500    288.000000
 -0.437500  0.312500  0.312500    288.000000
 -0.312500  0.312500  0.312500    288.000000
  0.437500  0.437500  0.312500    288.000000
 -0.437500  0.437500  0.312500    576.000000
 -0.312500  0.437500  0.312500    576.000000
 -0.437500 -0.437500  0.312500    288.000000
  0.437500  0.437500  0.437500     96.000000
 -0.437500  0.437500  0.437500    288.000000
 
 Following cartesian coordinates:
            Coordinates               Weight
  0.013904  0.013904  0.013904     96.000000
 -0.013904  0.041713  0.041713    288.000000
 -0.041713  0.069522  0.069522    288.000000
 -0.069522  0.097330  0.097330    288.000000
  0.125139 -0.097330 -0.097330    288.000000
  0.097330 -0.069522 -0.069522    288.000000
  0.069522 -0.041713 -0.041713    288.000000
  0.041713 -0.013904 -0.013904    288.000000
  0.013904  0.013904  0.069522    288.000000
 -0.013904  0.041713  0.097330    576.000000
 -0.041713  0.069522  0.125139    576.000000
  0.152948 -0.125139 -0.069522    576.000000
  0.125139 -0.097330 -0.041713    576.000000
  0.097330 -0.069522 -0.013904    576.000000
  0.069522 -0.041713  0.013904    576.000000
  0.013904  0.013904  0.125139    288.000000
 -0.013904  0.041713  0.152948    576.000000
  0.180756 -0.152948 -0.041713    576.000000
  0.152948 -0.125139 -0.013904    576.000000
  0.125139 -0.097330  0.013904    576.000000
  0.097330 -0.069522  0.041713    576.000000
  0.013904  0.013904  0.180756    288.000000
  0.208565 -0.180756 -0.013904    576.000000
  0.180756 -0.152948  0.013904    576.000000
  0.152948 -0.125139  0.041713    576.000000
  0.125139 -0.097330  0.069522    576.000000
  0.013904  0.013904 -0.208565    288.000000
 -0.013904  0.041713 -0.180756    576.000000
 -0.041713  0.069522 -0.152948    576.000000
  0.013904  0.013904 -0.152948    288.000000
 -0.013904  0.041713 -0.125139    576.000000
  0.013904  0.013904 -0.097330    288.000000
  0.041713  0.041713  0.041713     96.000000
  0.013904  0.069522  0.069522    288.000000
 -0.013904  0.097330  0.097330    288.000000
  0.180756 -0.097330 -0.097330    288.000000
  0.152948 -0.069522 -0.069522    288.000000
  0.125139 -0.041713 -0.041713    288.000000
  0.041713  0.041713  0.097330    288.000000
  0.013904  0.069522  0.125139    576.000000
  0.208565 -0.125139 -0.069522    576.000000
  0.180756 -0.097330 -0.041713    576.000000
  0.152948 -0.069522 -0.013904    576.000000
  0.041713  0.041713  0.152948    288.000000
  0.236374 -0.152948 -0.041713    576.000000
  0.208565 -0.125139 -0.013904    576.000000
  0.180756 -0.097330  0.013904    576.000000
  0.041713  0.041713 -0.236374    288.000000
  0.013904  0.069522 -0.208565    576.000000
  0.041713  0.041713 -0.180756    288.000000
  0.069522  0.069522  0.069522     96.000000
  0.041713  0.097330  0.097330    288.000000
  0.236374 -0.097330 -0.097330    288.000000
  0.208565 -0.069522 -0.069522    288.000000
  0.069522  0.069522  0.125139    288.000000
  0.264182 -0.125139 -0.069522    576.000000
  0.236374 -0.097330 -0.041713    576.000000
  0.069522  0.069522 -0.264182    288.000000
  0.097330  0.097330  0.097330     96.000000
  0.291991 -0.097330 -0.097330    288.000000
 


--------------------------------------------------------------------------------------------------------




 Dimension of arrays:
   k-points           NKPTS =     60   k-points in BZ     NKDIM =     60   number of bands    NBANDS=     12
   number of dos      NEDOS =    301   number of ions     NIONS =      2
   non local maximal  LDIM  =      6   non local SUM 2l+1 LMDIM =     18
   total plane-waves  NPLWV =  13824
   max r-space proj   IRMAX =      1   max aug-charges    IRDMAX=  41639
   dimension x,y,z NGX =    24 NGY =   24 NGZ =   24
   dimension x,y,z NGXF=    48 NGYF=   48 NGZF=   48
   support grid    NGXF=    48 NGYF=   48 NGZF=   48
   ions per type =               1   1
 NGX,Y,Z   is equivalent  to a cutoff of  12.55, 12.55, 12.55 a.u.
 NGXF,Y,Z  is equivalent  to a cutoff of  25.11, 25.11, 25.11 a.u.


 I would recommend the setting:
   dimension x,y,z NGX =    22 NGY =   22 NGZ =   22
 SYSTEM =  unknown system                          
 POSCAR =   C Ta                                   

 Startparameter for this run:
   NWRITE =      2    write-flag & timer
   PREC   = accura    normal or accurate (medium, high low for compatibility)
   ISTART =      0    job   : 0-new  1-cont  2-samecut
   ICHARG =      2    charge: 1-file 2-atom 10-const
   ISPIN  =      2    spin polarized calculation?
   LNONCOLLINEAR =      F non collinear calculations
   LSORBIT =      F    spin-orbit coupling
   INIWAV =      1    electr: 0-lowe 1-rand  2-diag
   LASPH  =      F    aspherical Exc in radial PAW
   METAGGA=      F    non-selfconsistent MetaGGA calc.

 Electronic Relaxation 1
   ENCUT  =  450.0 eV  33.07 Ry    5.75 a.u.   5.50  5.50  5.50*2*pi/ulx,y,z
   ENINI  =  450.0     initial cutoff
   ENAUG  =  644.9 eV  augmentation charge cutoff
   NELM   =     60;   NELMIN=  2; NELMDL= -5     # of ELM steps 
   EDIFF  = 0.1E-03   stopping-criterion for ELM
   LREAL  =      F    real-space projection
   NLSPLINE    = F    spline interpolate recip. space projectors
   LCOMPAT=      F    compatible to vasp.4.4
   GGA_COMPAT  = T    GGA compatible to vasp.4.4-vasp.4.6
   LMAXPAW     = -100 max onsite density
   LMAXMIX     =    2 max onsite mixed and CHGCAR
   VOSKOWN=      0    Vosko Wilk Nusair interpolation
   ROPT   =    0.00000   0.00000
 Ionic relaxation
   EDIFFG = 0.1E-02   stopping-criterion for IOM
   NSW    =      0    number of steps for IOM
   NBLOCK =      1;   KBLOCK =      1    inner block; outer block 
   IBRION =     -1    ionic relax: 0-MD 1-quasi-New 2-CG
   NFREE  =      0    steps in history (QN), initial steepest desc. (CG)
   ISIF   =      2    stress and relaxation
   IWAVPR =     10    prediction:  0-non 1-charg 2-wave 3-comb
   ISYM   =      2    0-nonsym 1-usesym 2-fastsym
   LCORR  =      T    Harris-Foulkes like correction to forces

   POTIM  = 0.5000    time-step for ionic-motion
   TEIN   =    0.0    initial temperature
   TEBEG  =    0.0;   TEEND  =   0.0 temperature during run
   SMASS  =  -3.00    Nose mass-parameter (am)
   estimated Nose-frequenzy (Omega)   =  0.10E-29 period in steps =****** mass=  -0.231E-27a.u.
   SCALEE = 1.0000    scale energy and forces
   NPACO  =    256;   APACO  = 16.0  distance and # of slots for P.C.
   PSTRESS=    0.0 pullay stress

  Mass of Ions in am
   POMASS =  12.01180.95
  Ionic Valenz
   ZVAL   =   4.00  5.00
  Atomic Wigner-Seitz radii
   RWIGS  =  -1.00 -1.00
  virtual crystal weights 
   VCA    =   1.00  1.00
   NELECT =       9.0000    total number of electrons
   NUPDOWN=      -1.0000    fix difference up-down

 DOS related values:
   EMIN   =  10.00;   EMAX   =-10.00  energy-range for DOS
   EFERMI =   0.00
   ISMEAR =     1;   SIGMA  =   0.05  broadening in eV -4-tet -1-fermi 0-gaus

 Electronic relaxation 2 (details)
   IALGO  =     38    algorithm
   LDIAG  =      T    sub-space diagonalisation (order eigenvalues)
   LSUBROT=      T    optimize rotation matrix (better conditioning)
   TURBO    =      0    0=normal 1=particle mesh
   IRESTART =      0    0=no restart 2=restart with 2 vectors
   NREBOOT  =      0    no. of reboots
   NMIN     =      0    reboot dimension
   EREF     =   0.00    reference energy to select bands
   IMIX   =      4    mixing-type and parameters
     AMIX     =   0.40;   BMIX     =  1.00
     AMIX_MAG =   1.60;   BMIX_MAG =  1.00
     AMIN     =   0.10
     WC   =   100.;   INIMIX=   1;  MIXPRE=   1

 Intra band minimization:
   WEIMIN = 0.0000     energy-eigenvalue tresh-hold
   EBREAK =  0.21E-05  absolut break condition
   DEPER  =   0.30     relativ break condition  

   TIME   =   0.40     timestep for ELM

  volume/ion in A,a.u.               =      11.35        76.61
  Fermi-wavevector in a.u.,A,eV,Ry     =   1.202576  2.272540 19.676606  1.446190
  Thomas-Fermi vector in A             =   2.338354
 
 Write flags
   LWAVE  =      T    write WAVECAR
   LCHARG =      T    write CHGCAR
   LVTOT  =      F    write LOCPOT, total local potential
   LVHAR  =      F    write LOCPOT, Hartree potential only
   LELF   =      F    write electronic localiz. function (ELF)
   LORBIT =     11    0 simple, 1 ext, 2 COOP (PROOUT)


 Dipole corrections
   LMONO  =      F    monopole corrections only (constant potential shift)
   LDIPOL =      F    correct potential (dipole corrections)
   IDIPOL =      0    1-x, 2-y, 3-z, 4-all directions 
   EPSILON=  1.0000000 bulk dielectric constant

 Exchange correlation treatment:
   GGA     =    --    GGA type
   LEXCH   =     8    internal setting for exchange type
   VOSKOWN=      0    Vosko Wilk Nusair interpolation
   LHFCALC =     F    Hartree Fock is set to
   LHFONE  =     F    Hartree Fock one center treatment
   AEXX    =    0.0000 exact exchange contribution

 Linear response parameters
   LEPSILON=     F    determine dielectric tensor
   LRPA    =     F    only Hartree local field effects (RPA)
   LNABLA  =     F    use nabla operator in PAW spheres
   LVEL    =     F    velocity operator in full k-point grid
   LINTERFAST=   F  fast interpolation
   KINTER  =     0    interpolate to denser k-point grid
   CSHIFT  =0.1000    complex shift for real part using Kramers Kronig
   OMEGAMAX=  -1.0    maximum frequency
   RTIME   =    0.100 relaxation time in fs

 Orbital magnetization related:
   ORBITALMAG=     F  switch on orbital magnetization
   LCHIMAG   =     F  perturbation theory with respect to B field
   DQ        =  0.001000  dq finite difference perturbation B field



--------------------------------------------------------------------------------------------------------


 Static calculation
 charge density and potential will be updated during run
 spin polarized calculation
 Variant of blocked Davidson
 Davidson routine will perform the subspace rotation
 perform sub-space diagonalisation
    after iterative eigenvector-optimisation
 modified Broyden-mixing scheme, WC =      100.0
 initial mixing is a Kerker type mixing with AMIX =  0.4000 and BMIX =      1.0000
 Hartree-type preconditioning will be used
 using additional bands            7
 reciprocal scheme for non local part
 use partial core corrections
 calculate Harris-corrections to forces 
   (improved forces if not selfconsistent)
 use gradient corrections 
 use of overlap-Matrix (Vanderbilt PP)
 Methfessel and Paxton  Order N= 1 SIGMA  =   0.05


--------------------------------------------------------------------------------------------------------


  energy-cutoff  :      450.00
  volume of cell :       22.71
      direct lattice vectors                 reciprocal lattice vectors
     0.000000000  2.247500000  2.247500000    -0.222469410  0.222469410  0.222469410
     2.247500000  0.000000000  2.247500000     0.222469410 -0.222469410  0.222469410
     2.247500000  2.247500000  0.000000000     0.222469410  0.222469410 -0.222469410

  length of vectors
     3.178444981  3.178444981  3.178444981     0.385328322  0.385328322  0.385328322


 
 k-points in units of 2pi/SCALE and weight: KPOINTS created by Atomic Simulation Env
   0.01390434  0.01390434  0.01390434       0.004
  -0.01390434  0.04171301  0.04171301       0.012
  -0.04171301  0.06952169  0.06952169       0.012
  -0.06952169  0.09733037  0.09733037       0.012
   0.12513904 -0.09733037 -0.09733037       0.012
   0.09733037 -0.06952169 -0.06952169       0.012
   0.06952169 -0.04171301 -0.04171301       0.012
   0.04171301 -0.01390434 -0.01390434       0.012
   0.01390434  0.01390434  0.06952169       0.012
  -0.01390434  0.04171301  0.09733037       0.023
  -0.04171301  0.06952169  0.12513904       0.023
   0.15294772 -0.12513904 -0.06952169       0.023
   0.12513904 -0.09733037 -0.04171301       0.023
   0.09733037 -0.06952169 -0.01390434       0.023
   0.06952169 -0.04171301  0.01390434       0.023
   0.01390434  0.01390434  0.12513904       0.012
  -0.01390434  0.04171301  0.15294772       0.023
   0.18075640 -0.15294772 -0.04171301       0.023
   0.15294772 -0.12513904 -0.01390434       0.023
   0.12513904 -0.09733037  0.01390434       0.023
   0.09733037 -0.06952169  0.04171301       0.023
   0.01390434  0.01390434  0.18075640       0.012
   0.20856507 -0.18075640 -0.01390434       0.023
   0.18075640 -0.15294772  0.01390434       0.023
   0.15294772 -0.12513904  0.04171301       0.023
   0.12513904 -0.09733037  0.06952169       0.023
   0.01390434  0.01390434 -0.20856507       0.012
  -0.01390434  0.04171301 -0.18075640       0.023
  -0.04171301  0.06952169 -0.15294772       0.023
   0.01390434  0.01390434 -0.15294772       0.012
  -0.01390434  0.04171301 -0.12513904       0.023
   0.01390434  0.01390434 -0.09733037       0.012
   0.04171301  0.04171301  0.04171301       0.004
   0.01390434  0.06952169  0.06952169       0.012
  -0.01390434  0.09733037  0.09733037       0.012
   0.18075640 -0.09733037 -0.09733037       0.012
   0.15294772 -0.06952169 -0.06952169       0.012
   0.12513904 -0.04171301 -0.04171301       0.012
   0.04171301  0.04171301  0.09733037       0.012
   0.01390434  0.06952169  0.12513904       0.023
   0.20856507 -0.12513904 -0.06952169       0.023
   0.18075640 -0.09733037 -0.04171301       0.023
   0.15294772 -0.06952169 -0.01390434       0.023
   0.04171301  0.04171301  0.15294772       0.012
   0.23637375 -0.15294772 -0.04171301       0.023
   0.20856507 -0.12513904 -0.01390434       0.023
   0.18075640 -0.09733037  0.01390434       0.023
   0.04171301  0.04171301 -0.23637375       0.012
   0.01390434  0.06952169 -0.20856507       0.023
   0.04171301  0.04171301 -0.18075640       0.012
   0.06952169  0.06952169  0.06952169       0.004
   0.04171301  0.09733037  0.09733037       0.012
   0.23637375 -0.09733037 -0.09733037       0.012
   0.20856507 -0.06952169 -0.06952169       0.012
   0.06952169  0.06952169  0.12513904       0.012
   0.26418242 -0.12513904 -0.06952169       0.023
   0.23637375 -0.09733037 -0.04171301       0.023
   0.06952169  0.06952169 -0.26418242       0.012
   0.09733037  0.09733037  0.09733037       0.004
   0.29199110 -0.09733037 -0.09733037       0.012
 
 k-points in reciprocal lattice and weights: KPOINTS created by Atomic Simulation Env
   0.06250000  0.06250000  0.06250000       0.004
   0.18750000  0.06250000  0.06250000       0.012
   0.31250000  0.06250000  0.06250000       0.012
   0.43750000  0.06250000  0.06250000       0.012
  -0.43750000  0.06250000  0.06250000       0.012
  -0.31250000  0.06250000  0.06250000       0.012
  -0.18750000  0.06250000  0.06250000       0.012
  -0.06250000  0.06250000  0.06250000       0.012
   0.18750000  0.18750000  0.06250000       0.012
   0.31250000  0.18750000  0.06250000       0.023
   0.43750000  0.18750000  0.06250000       0.023
  -0.43750000  0.18750000  0.06250000       0.023
  -0.31250000  0.18750000  0.06250000       0.023
  -0.18750000  0.18750000  0.06250000       0.023
  -0.06250000  0.18750000  0.06250000       0.023
   0.31250000  0.31250000  0.06250000       0.012
   0.43750000  0.31250000  0.06250000       0.023
  -0.43750000  0.31250000  0.06250000       0.023
  -0.31250000  0.31250000  0.06250000       0.023
  -0.18750000  0.31250000  0.06250000       0.023
  -0.06250000  0.31250000  0.06250000       0.023
   0.43750000  0.43750000  0.06250000       0.012
  -0.43750000  0.43750000  0.06250000       0.023
  -0.31250000  0.43750000  0.06250000       0.023
  -0.18750000  0.43750000  0.06250000       0.023
  -0.06250000  0.43750000  0.06250000       0.023
  -0.43750000 -0.43750000  0.06250000       0.012
  -0.31250000 -0.43750000  0.06250000       0.023
  -0.18750000 -0.43750000  0.06250000       0.023
  -0.31250000 -0.31250000  0.06250000       0.012
  -0.18750000 -0.31250000  0.06250000       0.023
  -0.18750000 -0.18750000  0.06250000       0.012
   0.18750000  0.18750000  0.18750000       0.004
   0.31250000  0.18750000  0.18750000       0.012
   0.43750000  0.18750000  0.18750000       0.012
  -0.43750000  0.18750000  0.18750000       0.012
  -0.31250000  0.18750000  0.18750000       0.012
  -0.18750000  0.18750000  0.18750000       0.012
   0.31250000  0.31250000  0.18750000       0.012
   0.43750000  0.31250000  0.18750000       0.023
  -0.43750000  0.31250000  0.18750000       0.023
  -0.31250000  0.31250000  0.18750000       0.023
  -0.18750000  0.31250000  0.18750000       0.023
   0.43750000  0.43750000  0.18750000       0.012
  -0.43750000  0.43750000  0.18750000       0.023
  -0.31250000  0.43750000  0.18750000       0.023
  -0.18750000  0.43750000  0.18750000       0.023
  -0.43750000 -0.43750000  0.18750000       0.012
  -0.31250000 -0.43750000  0.18750000       0.023
  -0.31250000 -0.31250000  0.18750000       0.012
   0.31250000  0.31250000  0.31250000       0.004
   0.43750000  0.31250000  0.31250000       0.012
  -0.43750000  0.31250000  0.31250000       0.012
  -0.31250000  0.31250000  0.31250000       0.012
   0.43750000  0.43750000  0.31250000       0.012
  -0.43750000  0.43750000  0.31250000       0.023
  -0.31250000  0.43750000  0.31250000       0.023
  -0.43750000 -0.43750000  0.31250000       0.012
   0.43750000  0.43750000  0.43750000       0.004
  -0.43750000  0.43750000  0.43750000       0.012
 
 position of ions in fractional coordinates (direct lattice) 
   0.50000000  0.50000000  0.50000000
   0.00000000  0.00000000  0.00000000
 
 position of ions in cartesian coordinates  (Angst):
   2.24750000  2.24750000  2.24750000
   0.00000000  0.00000000  0.00000000
 


--------------------------------------------------------------------------------------------------------


 k-point  1 :  0.06250.06250.0625  plane waves:     528
 k-point  2 :  0.18750.06250.0625  plane waves:     503
 k-point  3 :  0.31250.06250.0625  plane waves:     497
 k-point  4 :  0.43750.06250.0625  plane waves:     493
 k-point  5 :  -.43750.06250.0625  plane waves:     485
 k-point  6 :  -.31250.06250.0625  plane waves:     496
 k-point  7 :  -.18750.06250.0625  plane waves:     496
 k-point  8 :  -.06250.06250.0625  plane waves:     510
 k-point  9 :  0.18750.18750.0625  plane waves:     505
 k-point 10 :  0.31250.18750.0625  plane waves:     495
 k-point 11 :  0.43750.18750.0625  plane waves:     493
 k-point 12 :  -.43750.18750.0625  plane waves:     489
 k-point 13 :  -.31250.18750.0625  plane waves:     493
 k-point 14 :  -.18750.18750.0625  plane waves:     496
 k-point 15 :  -.06250.18750.0625  plane waves:     499
 k-point 16 :  0.31250.31250.0625  plane waves:     496
 k-point 17 :  0.43750.31250.0625  plane waves:     487
 k-point 18 :  -.43750.31250.0625  plane waves:     491
 k-point 19 :  -.31250.31250.0625  plane waves:     492
 k-point 20 :  -.18750.31250.0625  plane waves:     495
 k-point 21 :  -.06250.31250.0625  plane waves:     498
 k-point 22 :  0.43750.43750.0625  plane waves:     486
 k-point 23 :  -.43750.43750.0625  plane waves:     486
 k-point 24 :  -.31250.43750.0625  plane waves:     489
 k-point 25 :  -.18750.43750.0625  plane waves:     489
 k-point 26 :  -.06250.43750.0625  plane waves:     491
 k-point 27 :  -.4375-.43750.0625  plane waves:     476
 k-point 28 :  -.3125-.43750.0625  plane waves:     483
 k-point 29 :  -.1875-.43750.0625  plane waves:     490
 k-point 30 :  -.3125-.31250.0625  plane waves:     487
 k-point 31 :  -.1875-.31250.0625  plane waves:     493
 k-point 32 :  -.1875-.18750.0625  plane waves:     491
 k-point 33 :  0.18750.18750.1875  plane waves:     501
 k-point 34 :  0.31250.18750.1875  plane waves:     493
 k-point 35 :  0.43750.18750.1875  plane waves:     497
 k-point 36 :  -.43750.18750.1875  plane waves:     494
 k-point 37 :  -.31250.18750.1875  plane waves:     488
 k-point 38 :  -.18750.18750.1875  plane waves:     497
 k-point 39 :  0.31250.31250.1875  plane waves:     493
 k-point 40 :  0.43750.31250.1875  plane waves:     495
 k-point 41 :  -.43750.31250.1875  plane waves:     494
 k-point 42 :  -.31250.31250.1875  plane waves:     488
 k-point 43 :  -.18750.31250.1875  plane waves:     491
 k-point 44 :  0.43750.43750.1875  plane waves:     492
 k-point 45 :  -.43750.43750.1875  plane waves:     490
 k-point 46 :  -.31250.43750.1875  plane waves:     490
 k-point 47 :  -.18750.43750.1875  plane waves:     493
 k-point 48 :  -.4375-.43750.1875  plane waves:     485
 k-point 49 :  -.3125-.43750.1875  plane waves:     488
 k-point 50 :  -.3125-.31250.1875  plane waves:     484
 k-point 51 :  0.31250.31250.3125  plane waves:     492
 k-point 52 :  0.43750.31250.3125  plane waves:     498
 k-point 53 :  -.43750.31250.3125  plane waves:     493
 k-point 54 :  -.31250.31250.3125  plane waves:     493
 k-point 55 :  0.43750.43750.3125  plane waves:     491
 k-point 56 :  -.43750.43750.3125  plane waves:     488
 k-point 57 :  -.31250.43750.3125  plane waves:     492
 k-point 58 :  -.4375-.43750.3125  plane waves:     490
 k-point 59 :  0.43750.43750.4375  plane waves:     489
 k-point 60 :  -.43750.43750.4375  plane waves:     491

 maximum and minimum number of plane-waves per node :       528      476

 maximum number of plane-waves:       528
 maximum index in each direction: 
   IXMAX=    5   IYMAX=    5   IZMAX=    5
   IXMIN=   -5   IYMIN=   -5   IZMIN=   -5

 NGX is ok and might be reduce to  22
 NGY is ok and might be reduce to  22
 NGZ is ok and might be reduce to  22

 serial   3D FFT for wavefunctions
 parallel 3D FFT for charge:
    minimum data exchange during FFTs selected (reduces bandwidth)


 total amount of memory used by VASP on root node    66148. kBytes
========================================================================

   base      :      30000. kBytes
   nonl-proj :       9140. kBytes
   fftplans  :       3916. kBytes
   grid      :      10266. kBytes
   one-center:         62. kBytes
   wavefun   :      12764. kBytes
 
 Broyden mixing: mesh for mixing (old mesh)
   NGX = 11   NGY = 11   NGZ = 11
  (NGX  = 48   NGY  = 48   NGZ  = 48)
  gives a total of   1331 points

 initial charge density was supplied:
 charge density of overlapping atoms calculated
 number of electron       9.0000000 magnetization       8.0000000
 keeping initial charge density in first step


--------------------------------------------------------------------------------------------------------


 Maximum index for augmentation-charges        40263 (set IRDMAX)


--------------------------------------------------------------------------------------------------------


 First call to EWALD:  gamma=   0.626
 Maximum number of real-space cells 3x 3x 3
 Maximum number of reciprocal cells 3x 3x 3

    FEWALD:  cpu time    0.00: real time    0.00


----------------------------------------- Iteration    1(   1)  ---------------------------------------


    POTLOK:  cpu time    0.38: real time    0.38
    SETDIJ:  cpu time    0.07: real time    0.07
     EDDAV:  cpu time    6.71: real time    6.71
       DOS:  cpu time    0.01: real time    0.01
    --------------------------------------------
      LOOP:  cpu time    7.17: real time    7.17

 eigenvalue-minimisations  :  2912
 total energy-change (2. order) : 0.1088557E+02  (-0.3935202E+03)
 number of electron       9.0000000 magnetization       8.0000000
 augmentation part        9.0000000 magnetization       8.0000000

 Free energy of the ion-electron system (eV)
  ---------------------------------------------------
  alpha Z        PSCENC =        52.03680152
  Ewald energy   TEWEN  =      -370.91651301
  -1/2 Hartree   DENC   =       -15.96286574
  -exchange  EXHF       =         0.00000000
  -V(xc)+E(xc)   XCENC  =       -48.29936441
  PAW double counting   =       180.96821906     -107.89329025
  entropy T*S    EENTRO =        -0.00028657
  eigenvalues    EBANDS =        43.15944809
  atomic energy  EATOM  =       277.79342126
  ---------------------------------------------------
  free energy    TOTEN  =        10.88556993 eV

  energy without entropy =       10.88585651  energy(sigma->0) =       10.88566546


--------------------------------------------------------------------------------------------------------




----------------------------------------- Iteration    1(   2)  ---------------------------------------


     EDDAV:  cpu time    9.08: real time    9.08
       DOS:  cpu time    0.01: real time    0.01
    --------------------------------------------
      LOOP:  cpu time    9.09: real time    9.10

 eigenvalue-minimisations  :  3772
 total energy-change (2. order) :-0.2907185E+02  (-0.2779047E+02)
 number of electron       9.0000000 magnetization       8.0000000
 augmentation part        9.0000000 magnetization       8.0000000

 Free energy of the ion-electron system (eV)
  ---------------------------------------------------
  alpha Z        PSCENC =        52.03680152
  Ewald energy   TEWEN  =      -370.91651301
  -1/2 Hartree   DENC   =       -15.96286574
  -exchange  EXHF       =         0.00000000
  -V(xc)+E(xc)   XCENC  =       -48.29936441
  PAW double counting   =       180.96821906     -107.89329025
  entropy T*S    EENTRO =        -0.00002456
  eigenvalues    EBANDS =        14.08733624
  atomic energy  EATOM  =       277.79342126
  ---------------------------------------------------
  free energy    TOTEN  =       -18.18627991 eV

  energy without entropy =      -18.18625534  energy(sigma->0) =      -18.18627172


--------------------------------------------------------------------------------------------------------




----------------------------------------- Iteration    1(   3)  ---------------------------------------


     EDDAV:  cpu time    8.54: real time    8.54
       DOS:  cpu time    0.01: real time    0.01
    --------------------------------------------
      LOOP:  cpu time    8.55: real time    8.56

 eigenvalue-minimisations  :  3504
 total energy-change (2. order) :-0.9295117E+00  (-0.9229588E+00)
 number of electron       9.0000000 magnetization       8.0000000
 augmentation part        9.0000000 magnetization       8.0000000

 Free energy of the ion-electron system (eV)
  ---------------------------------------------------
  alpha Z        PSCENC =        52.03680152
  Ewald energy   TEWEN  =      -370.91651301
  -1/2 Hartree   DENC   =       -15.96286574
  -exchange  EXHF       =         0.00000000
  -V(xc)+E(xc)   XCENC  =       -48.29936441
  PAW double counting   =       180.96821906     -107.89329025
  entropy T*S    EENTRO =         0.00003618
  eigenvalues    EBANDS =        13.15776380
  atomic energy  EATOM  =       277.79342126
  ---------------------------------------------------
  free energy    TOTEN  =       -19.11579159 eV

  energy without entropy =      -19.11582778  energy(sigma->0) =      -19.11580365


--------------------------------------------------------------------------------------------------------




----------------------------------------- Iteration    1(   4)  ---------------------------------------


     EDDAV:  cpu time    7.79: real time    7.79
       DOS:  cpu time    0.01: real time    0.01
    --------------------------------------------
      LOOP:  cpu time    7.80: real time    7.81

 eigenvalue-minimisations  :  3248
 total energy-change (2. order) :-0.3364822E-02  (-0.3364435E-02)
 number of electron       9.0000000 magnetization       8.0000000
 augmentation part        9.0000000 magnetization       8.0000000

 Free energy of the ion-electron system (eV)
  ---------------------------------------------------
  alpha Z        PSCENC =        52.03680152
  Ewald energy   TEWEN  =      -370.91651301
  -1/2 Hartree   DENC   =       -15.96286574
  -exchange  EXHF       =         0.00000000
  -V(xc)+E(xc)   XCENC  =       -48.29936441
  PAW double counting   =       180.96821906     -107.89329025
  entropy T*S    EENTRO =         0.00003636
  eigenvalues    EBANDS =        13.15439880
  atomic energy  EATOM  =       277.79342126
  ---------------------------------------------------
  free energy    TOTEN  =       -19.11915642 eV

  energy without entropy =      -19.11919278  energy(sigma->0) =      -19.11916854


--------------------------------------------------------------------------------------------------------




----------------------------------------- Iteration    1(   5)  ---------------------------------------


     EDDAV:  cpu time    8.91: real time    8.91
       DOS:  cpu time    0.01: real time    0.01
    CHARGE:  cpu time    0.51: real time    0.51
    MIXING:  cpu time    0.01: real time    0.01
    --------------------------------------------
      LOOP:  cpu time    9.43: real time    9.45

 eigenvalue-minimisations  :  3588
 total energy-change (2. order) :-0.1196422E-04  (-0.1196427E-04)
 number of electron       8.9999999 magnetization      -1.6969780
 augmentation part        0.3842532 magnetization      -2.5228735

 Broyden mixing:
  rms(total) = 0.18782E+01    rms(broyden)= 0.18781E+01
  rms(prec ) = 0.43445E+01
  weight for this iteration     100.00

 Free energy of the ion-electron system (eV)
  ---------------------------------------------------
  alpha Z        PSCENC =        52.03680152
  Ewald energy   TEWEN  =      -370.91651301
  -1/2 Hartree   DENC   =       -15.96286574
  -exchange  EXHF       =         0.00000000
  -V(xc)+E(xc)   XCENC  =       -48.29936441
  PAW double counting   =       180.96821906     -107.89329025
  entropy T*S    EENTRO =         0.00003637
  eigenvalues    EBANDS =        13.15438683
  atomic energy  EATOM  =       277.79342126
  ---------------------------------------------------
  free energy    TOTEN  =       -19.11916838 eV

  energy without entropy =      -19.11920475  energy(sigma->0) =      -19.11918050


--------------------------------------------------------------------------------------------------------




----------------------------------------- Iteration    1(   6)  ---------------------------------------


    POTLOK:  cpu time    0.44: real time    0.44
    SETDIJ:  cpu time    0.10: real time    0.11
     EDDAV:  cpu time    8.23: real time    8.23
       DOS:  cpu time    0.01: real time    0.01
    CHARGE:  cpu time    0.52: real time    0.53
    MIXING:  cpu time    0.01: real time    0.01
    --------------------------------------------
      LOOP:  cpu time    9.32: real time    9.34

 eigenvalue-minimisations  :  3212
 total energy-change (2. order) :-0.2994077E+01  (-0.1680264E+01)
 number of electron       9.0000000 magnetization       0.1052071
 augmentation part        0.4579113 magnetization       0.3387813

 Broyden mixing:
  rms(total) = 0.43729E+00    rms(broyden)= 0.43716E+00
  rms(prec ) = 0.78284E+00
  weight for this iteration     100.00

 eigenvalues of (default mixing * dielectric matrix)
  average eigenvalue GAMMA=   0.8193
  0.8193

 Free energy of the ion-electron system (eV)
  ---------------------------------------------------
  alpha Z        PSCENC =        52.03680152
  Ewald energy   TEWEN  =      -370.91651301
  -1/2 Hartree   DENC   =       -24.44494111
  -exchange  EXHF       =         0.00000000
  -V(xc)+E(xc)   XCENC  =       -51.22108410
  PAW double counting   =       211.39272631     -138.80385001
  entropy T*S    EENTRO =        -0.00011028
  eigenvalues    EBANDS =        22.05030399
  atomic energy  EATOM  =       277.79342126
  ---------------------------------------------------
  free energy    TOTEN  =       -22.11324541 eV

  energy without entropy =      -22.11313513  energy(sigma->0) =      -22.11320865


--------------------------------------------------------------------------------------------------------




----------------------------------------- Iteration    1(   7)  ---------------------------------------


    POTLOK:  cpu time    0.43: real time    0.43
    SETDIJ:  cpu time    0.10: real time    0.11
     EDDAV:  cpu time    8.66: real time    8.67
       DOS:  cpu time    0.01: real time    0.01
    CHARGE:  cpu time    0.51: real time    0.51
    MIXING:  cpu time    0.01: real time    0.01
    --------------------------------------------
      LOOP:  cpu time    9.74: real time    9.75

 eigenvalue-minimisations  :  3464
 total energy-change (2. order) :-0.2039601E+00  (-0.6508901E-01)
 number of electron       9.0000000 magnetization      -0.1147556
 augmentation part        0.4502655 magnetization      -0.1067646

 Broyden mixing:
  rms(total) = 0.15457E+00    rms(broyden)= 0.15455E+00
  rms(prec ) = 0.44833E+00
  weight for this iteration     100.00

 eigenvalues of (default mixing * dielectric matrix)
  average eigenvalue GAMMA=   0.8228
  0.8228  0.8228

 Free energy of the ion-electron system (eV)
  ---------------------------------------------------
  alpha Z        PSCENC =        52.03680152
  Ewald energy   TEWEN  =      -370.91651301
  -1/2 Hartree   DENC   =       -23.17114209
  -exchange  EXHF       =         0.00000000
  -V(xc)+E(xc)   XCENC  =       -51.42910459
  PAW double counting   =       227.39326956     -155.00620078
  entropy T*S    EENTRO =         0.00029851
  eigenvalues    EBANDS =        20.98196416
  atomic energy  EATOM  =       277.79342126
  ---------------------------------------------------
  free energy    TOTEN  =       -22.31720547 eV

  energy without entropy =      -22.31750399  energy(sigma->0) =      -22.31730498


--------------------------------------------------------------------------------------------------------




----------------------------------------- Iteration    1(   8)  ---------------------------------------


    POTLOK:  cpu time    0.44: real time    0.44
    SETDIJ:  cpu time    0.10: real time    0.10
     EDDAV:  cpu time    8.42: real time    8.43
       DOS:  cpu time    0.01: real time    0.01
    CHARGE:  cpu time    0.51: real time    0.51
    MIXING:  cpu time    0.01: real time    0.01
    --------------------------------------------
      LOOP:  cpu time    9.50: real time    9.51

 eigenvalue-minimisations  :  3320
 total energy-change (2. order) : 0.6128715E-01  (-0.8819283E-02)
 number of electron       9.0000000 magnetization       0.0376365
 augmentation part        0.4582645 magnetization       0.0246865

 Broyden mixing:
  rms(total) = 0.86364E-01    rms(broyden)= 0.86364E-01
  rms(prec ) = 0.15033E+00
  weight for this iteration     100.00

 eigenvalues of (default mixing * dielectric matrix)
  average eigenvalue GAMMA=   1.2445
  2.1615  0.8495  0.7225

 Free energy of the ion-electron system (eV)
  ---------------------------------------------------
  alpha Z        PSCENC =        52.03680152
  Ewald energy   TEWEN  =      -370.91651301
  -1/2 Hartree   DENC   =       -22.63855262
  -exchange  EXHF       =         0.00000000
  -V(xc)+E(xc)   XCENC  =       -51.30009453
  PAW double counting   =       248.23547532     -176.07810604
  entropy T*S    EENTRO =         0.00028475
  eigenvalues    EBANDS =        20.61136502
  atomic energy  EATOM  =       277.79342126
  ---------------------------------------------------
  free energy    TOTEN  =       -22.25591833 eV

  energy without entropy =      -22.25620307  energy(sigma->0) =      -22.25601324


--------------------------------------------------------------------------------------------------------




----------------------------------------- Iteration    1(   9)  ---------------------------------------


    POTLOK:  cpu time    0.43: real time    0.43
    SETDIJ:  cpu time    0.11: real time    0.11
     EDDAV:  cpu time    7.87: real time    7.88
       DOS:  cpu time    0.01: real time    0.01
    CHARGE:  cpu time    0.50: real time    0.50
    MIXING:  cpu time    0.01: real time    0.01
    --------------------------------------------
      LOOP:  cpu time    8.93: real time    8.96

 eigenvalue-minimisations  :  3344
 total energy-change (2. order) : 0.6451077E-02  (-0.2642631E-02)
 number of electron       9.0000000 magnetization       0.0011112
 augmentation part        0.4634734 magnetization       0.0025217

 Broyden mixing:
  rms(total) = 0.24141E-01    rms(broyden)= 0.24139E-01
  rms(prec ) = 0.37888E-01
  weight for this iteration     100.00

 eigenvalues of (default mixing * dielectric matrix)
  average eigenvalue GAMMA=   1.1973
  2.3672  0.8790  0.8790  0.6642

 Free energy of the ion-electron system (eV)
  ---------------------------------------------------
  alpha Z        PSCENC =        52.03680152
  Ewald energy   TEWEN  =      -370.91651301
  -1/2 Hartree   DENC   =       -22.52844628
  -exchange  EXHF       =         0.00000000
  -V(xc)+E(xc)   XCENC  =       -51.23512533
  PAW double counting   =       260.32108088     -188.28827235
  entropy T*S    EENTRO =         0.00026217
  eigenvalues    EBANDS =        20.56732389
  atomic energy  EATOM  =       277.79342126
  ---------------------------------------------------
  free energy    TOTEN  =       -22.24946725 eV

  energy without entropy =      -22.24972941  energy(sigma->0) =      -22.24955464


--------------------------------------------------------------------------------------------------------




----------------------------------------- Iteration    1(  10)  ---------------------------------------


    POTLOK:  cpu time    0.43: real time    0.43
    SETDIJ:  cpu time    0.10: real time    0.10
     EDDAV:  cpu time    7.28: real time    7.29
       DOS:  cpu time    0.01: real time    0.01
    CHARGE:  cpu time    0.46: real time    0.46
    MIXING:  cpu time    0.01: real time    0.01
    --------------------------------------------
      LOOP:  cpu time    8.30: real time    8.32

 eigenvalue-minimisations  :  3248
 total energy-change (2. order) : 0.2154575E-02  (-0.1247774E-03)
 number of electron       9.0000000 magnetization      -0.0014671
 augmentation part        0.4628323 magnetization      -0.0029724

 Broyden mixing:
  rms(total) = 0.57299E-02    rms(broyden)= 0.57298E-02
  rms(prec ) = 0.11387E-01
  weight for this iteration     100.00

 eigenvalues of (default mixing * dielectric matrix)
  average eigenvalue GAMMA=   1.1135
  2.3109  0.9349  0.9349  0.7500  0.6368

 Free energy of the ion-electron system (eV)
  ---------------------------------------------------
  alpha Z        PSCENC =        52.03680152
  Ewald energy   TEWEN  =      -370.91651301
  -1/2 Hartree   DENC   =       -22.57392400
  -exchange  EXHF       =         0.00000000
  -V(xc)+E(xc)   XCENC  =       -51.24725946
  PAW double counting   =       259.62412787     -187.58435042
  entropy T*S    EENTRO =         0.00028533
  eigenvalues    EBANDS =        20.62009824
  atomic energy  EATOM  =       277.79342126
  ---------------------------------------------------
  free energy    TOTEN  =       -22.24731267 eV

  energy without entropy =      -22.24759800  energy(sigma->0) =      -22.24740778


--------------------------------------------------------------------------------------------------------




----------------------------------------- Iteration    1(  11)  ---------------------------------------


    POTLOK:  cpu time    0.43: real time    0.43
    SETDIJ:  cpu time    0.10: real time    0.10
     EDDAV:  cpu time    6.66: real time    6.66
       DOS:  cpu time    0.01: real time    0.01
    CHARGE:  cpu time    0.46: real time    0.47
    MIXING:  cpu time    0.01: real time    0.01
    --------------------------------------------
      LOOP:  cpu time    7.67: real time    7.69

 eigenvalue-minimisations  :  2884
 total energy-change (2. order) : 0.1649606E-03  (-0.1504036E-04)
 number of electron       9.0000000 magnetization      -0.0013598
 augmentation part        0.4627416 magnetization      -0.0008571

 Broyden mixing:
  rms(total) = 0.33597E-02    rms(broyden)= 0.33597E-02
  rms(prec ) = 0.65854E-02
  weight for this iteration     100.00

 eigenvalues of (default mixing * dielectric matrix)
  average eigenvalue GAMMA=   1.2293
  2.2343  1.9563  0.9204  0.9204  0.7208  0.6232

 Free energy of the ion-electron system (eV)
  ---------------------------------------------------
  alpha Z        PSCENC =        52.03680152
  Ewald energy   TEWEN  =      -370.91651301
  -1/2 Hartree   DENC   =       -22.59333321
  -exchange  EXHF       =         0.00000000
  -V(xc)+E(xc)   XCENC  =       -51.24857585
  PAW double counting   =       260.66513313     -188.63526981
  entropy T*S    EENTRO =         0.00028592
  eigenvalues    EBANDS =        20.65090234
  atomic energy  EATOM  =       277.79342126
  ---------------------------------------------------
  free energy    TOTEN  =       -22.24714771 eV

  energy without entropy =      -22.24743363  energy(sigma->0) =      -22.24724302


--------------------------------------------------------------------------------------------------------




----------------------------------------- Iteration    1(  12)  ---------------------------------------


    POTLOK:  cpu time    0.43: real time    0.43
    SETDIJ:  cpu time    0.10: real time    0.10
     EDDAV:  cpu time    5.16: real time    5.17
       DOS:  cpu time    0.01: real time    0.01
    --------------------------------------------
      LOOP:  cpu time    5.70: real time    5.72

 eigenvalue-minimisations  :  1744
 total energy-change (2. order) : 0.3824707E-04  (-0.3606669E-05)
 number of electron       9.0000000 magnetization      -0.0013598
 augmentation part        0.4627416 magnetization      -0.0008571

 Free energy of the ion-electron system (eV)
  ---------------------------------------------------
  alpha Z        PSCENC =        52.03680152
  Ewald energy   TEWEN  =      -370.91651301
  -1/2 Hartree   DENC   =       -22.60180092
  -exchange  EXHF       =         0.00000000
  -V(xc)+E(xc)   XCENC  =       -51.24707028
  PAW double counting   =       261.89479224     -189.87631646
  entropy T*S    EENTRO =         0.00028007
  eigenvalues    EBANDS =        20.66929611
  atomic energy  EATOM  =       277.79342126
  ---------------------------------------------------
  free energy    TOTEN  =       -22.24710947 eV

  energy without entropy =      -22.24738954  energy(sigma->0) =      -22.24720282


--------------------------------------------------------------------------------------------------------




 average (electrostatic) potential at core
  the test charge radii are     0.6991  1.2538
  (the norm of the test charge is              1.0000)
       1 -46.7103       2 -34.2506
 
 
 
 E-fermi :   8.1926     XC(G=0): -12.8923     alpha+bet :-15.2052


 spin component 1

 k-point   1 :       0.0625    0.0625    0.0625
  band No.  band energies     occupation 
      1      -6.1500      1.00000
      2       6.4737      1.00000
      3       6.8100      1.00000
      4       6.8100      1.00000
      5       7.5394      1.00000
      6       7.5394      1.00000
      7       8.2565     -0.03505
      8       9.7894      0.00000
      9       9.7894      0.00000
     10      14.8583      0.00000
     11      18.6572      0.00000
     12      20.5970      0.00000

 k-point   2 :       0.1875    0.0625    0.0625
  band No.  band energies     occupation 
      1      -5.6322      1.00000
      2       4.9383      1.00000
      3       5.4019      1.00000
      4       5.5641      1.00000
      5       7.5167      1.00000
      6       8.4112      0.00000
      7       9.0495      0.00000
      8      10.8662      0.00000
      9      12.3813      0.00000
     10      15.8599      0.00000
     11      19.9177      0.00000
     12      20.5975      0.00000

 k-point   3 :       0.3125    0.0625    0.0625
  band No.  band energies     occupation 
      1      -4.4658      1.00000
      2       2.7673      1.00000
      3       3.9979      1.00000
      4       4.2931      1.00000
      5       8.6323      0.00000
      6       9.1966      0.00000
      7       9.9511      0.00000
      8      13.5235      0.00000
      9      15.2185      0.00000
     10      16.8424      0.00000
     11      20.5890      0.00000
     12      21.2630      0.00000

 k-point   4 :       0.4375    0.0625    0.0625
  band No.  band energies     occupation 
      1      -2.9716      1.00000
      2       0.8256      1.00000
      3       3.2250      1.00000
      4       3.3850      1.00000
      5      10.0892      0.00000
      6      10.2861      0.00000
      7      11.1968      0.00000
      8      15.2327      0.00000
      9      16.2303      0.00000
     10      17.5145      0.00000
     11      20.5860      0.00000
     12      21.5744      0.00000

 k-point   5 :      -0.4375    0.0625    0.0625
  band No.  band energies     occupation 
      1      -2.2149      1.00000
      2      -0.0181      1.00000
      3       3.0685      1.00000
      4       3.1187      1.00000
      5      10.5885      0.00000
      6      10.9755      0.00000
      7      11.7939      0.00000
      8      14.1093      0.00000
      9      17.5489      0.00000
     10      17.8959      0.00000
     11      20.5692      0.00000
     12      20.6688      0.00000

 k-point   6 :      -0.3125    0.0625    0.0625
  band No.  band energies     occupation 
      1      -3.4865      1.00000
      2       1.4332      1.00000
      3       3.4122      1.00000
      4       3.6731      1.00000
      5       9.2347      0.00000
      6      10.3399      0.00000
      7      10.6911      0.00000
      8      15.4512      0.00000
      9      15.8057      0.00000
     10      17.0052      0.00000
     11      20.5833      0.00000
     12      21.4589      0.00000

 k-point   7 :      -0.1875    0.0625    0.0625
  band No.  band energies     occupation 
      1      -4.9169      1.00000
      2       3.4130      1.00000
      3       4.4449      1.00000
      4       4.8278      1.00000
      5       7.9550      1.00000
      6       9.0378      0.00000
      7       9.5869      0.00000
      8      12.7579      0.00000
      9      14.0256      0.00000
     10      16.8176      0.00000
     11      20.5931      0.00000
     12      21.0617      0.00000

 k-point   8 :      -0.0625    0.0625    0.0625
  band No.  band energies     occupation 
      1      -5.8892      1.00000
      2       5.4538      1.00000
      3       6.0366      1.00000
      4       6.2643      1.00000
      5       7.0770      1.00000
      6       8.3467     -0.00006
      7       8.8856      0.00000
      8      10.0180      0.00000
      9      11.4012      0.00000
     10      15.4607      0.00000
     11      19.3321      0.00000
     12      20.5974      0.00000

 k-point   9 :       0.1875    0.1875    0.0625
  band No.  band energies     occupation 
      1      -5.4144      1.00000
      2       3.9820      1.00000
      3       5.5392      1.00000
      4       5.9169      1.00000
      5       6.7038      1.00000
      6       9.0987      0.00000
      7       9.8616      0.00000
      8      10.5229      0.00000
      9      12.6736      0.00000
     10      16.7196      0.00000
     11      20.5309      0.00000
     12      20.5973      0.00000

 k-point  10 :       0.3125    0.1875    0.0625
  band No.  band energies     occupation 
      1      -4.5901      1.00000
      2       2.6952      1.00000
      3       4.5240      1.00000
      4       4.9758      1.00000
      5       7.2253      1.00000
      6       9.9573      0.00000
      7      10.7573      0.00000
      8      11.8440      0.00000
      9      14.4650      0.00000
     10      18.0868      0.00000
     11      20.5936      0.00000
     12      21.8622      0.00000

 k-point  11 :       0.4375    0.1875    0.0625
  band No.  band energies     occupation 
      1      -3.4491      1.00000
      2       1.4941      1.00000
      3       3.5111      1.00000
      4       4.0518      1.00000
      5       8.3029     -0.00387
      6      10.9029      0.00000
      7      11.5586      0.00000
      8      14.0477      0.00000
      9      15.8013      0.00000
     10      18.1811      0.00000
     11      20.5058      0.00000
     12      20.7502      0.00000

 k-point  12 :      -0.4375    0.1875    0.0625
  band No.  band energies     occupation 
      1      -2.5880      1.00000
      2       0.6077      1.00000
      3       3.2570      1.00000
      4       3.4620      1.00000
      5       9.7738      0.00000
      6      10.8209      0.00000
      7      11.7116      0.00000
      8      15.3330      0.00000
      9      16.4956      0.00000
     10      17.4472      0.00000
     11      20.5084      0.00000
     12      20.7129      0.00000

 k-point  13 :      -0.3125    0.1875    0.0625
  band No.  band energies     occupation 
      1      -2.9831      1.00000
      2       1.0038      1.00000
      3       3.3427      1.00000
      4       3.5873      1.00000
      5       9.4185      0.00000
      6      10.7770      0.00000
      7      11.4705      0.00000
      8      14.5197      0.00000
      9      16.1500      0.00000
     10      18.0224      0.00000
     11      20.5762      0.00000
     12      21.1974      0.00000

 k-point  14 :      -0.1875    0.1875    0.0625
  band No.  band energies     occupation 
      1      -4.1461      1.00000
      2       2.3225      1.00000
      3       3.9228      1.00000
      4       4.1834      1.00000
      5       8.2163      0.14416
      6      10.3173      0.00000
      7      10.8436      0.00000
      8      12.3235      0.00000
      9      15.9260      0.00000
     10      17.6141      0.00000
     11      20.5891      0.00000
     12      21.6557      0.00000

 k-point  15 :      -0.0625    0.1875    0.0625
  band No.  band energies     occupation 
      1      -5.1633      1.00000
      2       3.7602      1.00000
      3       4.8777      1.00000
      4       5.1471      1.00000
      5       7.4714      1.00000
      6       9.1466      0.00000
      7       9.7748      0.00000
      8      11.3386      0.00000
      9      13.6546      0.00000
     10      16.7960      0.00000
     11      20.5962      0.00000
     12      20.9013      0.00000

 k-point  16 :       0.3125    0.3125    0.0625
  band No.  band energies     occupation 
      1      -4.3320      1.00000
      2       2.3164      1.00000
      3       4.7169      1.00000
      4       5.8068      1.00000
      5       6.2663      1.00000
      6      10.1799      0.00000
      7      11.7307      0.00000
      8      11.9269      0.00000
      9      14.2983      0.00000
     10      19.4186      0.00000
     11      20.5871      0.00000
     12      21.4412      0.00000

 k-point  17 :       0.4375    0.3125    0.0625
  band No.  band energies     occupation 
      1      -3.8575      1.00000
      2       2.2764      1.00000
      3       3.9922      1.00000
      4       5.1331      1.00000
      5       7.0280      1.00000
      6      11.2147      0.00000
      7      12.1188      0.00000
      8      12.4582      0.00000
      9      15.4832      0.00000
     10      18.5770      0.00000
     11      19.8788      0.00000
     12      20.6083      0.00000

 k-point  18 :      -0.4375    0.3125    0.0625
  band No.  band energies     occupation 
      1      -3.3266      1.00000
      2       2.0792      1.00000
      3       3.4686      1.00000
      4       4.3316      1.00000
      5       8.0812      1.00359
      6      11.3139      0.00000
      7      12.0210      0.00000
      8      14.1546      0.00000
      9      15.4764      0.00000
     10      18.2721      0.00000
     11      19.7983      0.00000
     12      20.6094      0.00000

 k-point  19 :      -0.3125    0.3125    0.0625
  band No.  band energies     occupation 
      1      -2.9687      1.00000
      2       1.4825      1.00000
      3       3.4194      1.00000
      4       3.7547      1.00000
      5       9.7030      0.00000
      6      10.2529      0.00000
      7      11.8555      0.00000
      8      13.8025      0.00000
      9      16.4994      0.00000
     10      18.8316      0.00000
     11      20.5492      0.00000
     12      20.7644      0.00000

 k-point  20 :      -0.1875    0.3125    0.0625
  band No.  band energies     occupation 
      1      -3.2046      1.00000
      2       1.3718      1.00000
      3       3.5148      1.00000
      4       3.6392      1.00000
      5       9.1862      0.00000
      6      11.0793      0.00000
      7      11.4253      0.00000
      8      13.0414      0.00000
      9      16.7377      0.00000
     10      18.1743      0.00000
     11      20.5776      0.00000
     12      21.2722      0.00000

 k-point  21 :      -0.0625    0.3125    0.0625
  band No.  band energies     occupation 
      1      -3.9131      1.00000
      2       1.9817      1.00000
      3       3.6592      1.00000
      4       4.0699      1.00000
      5       8.5375      0.00000
      6      10.0351      0.00000
      7      10.7991      0.00000
      8      13.8563      0.00000
      9      15.9411      0.00000
     10      17.2990      0.00000
     11      20.5839      0.00000
     12      21.3749      0.00000

 k-point  22 :       0.4375    0.4375    0.0625
  band No.  band energies     occupation 
      1      -4.0548      1.00000
      2       3.0468      1.00000
      3       4.0617      1.00000
      4       6.1893      1.00000
      5       6.5000      1.00000
      6      10.9446      0.00000
      7      12.2950      0.00000
      8      12.3106      0.00000
      9      15.6557      0.00000
     10      16.4529      0.00000
     11      20.3727      0.00000
     12      20.6052      0.00000

 k-point  23 :      -0.4375    0.4375    0.0625
  band No.  band energies     occupation 
      1      -3.9072      1.00000
      2       3.4944      1.00000
      3       3.6984      1.00000
      4       5.3312      1.00000
      5       7.1702      1.00000
      6      11.8862      0.00000
      7      12.0878      0.00000
      8      12.2633      0.00000
      9      15.0161      0.00000
     10      16.9391      0.00000
     11      20.1912      0.00000
     12      20.6039      0.00000

 k-point  24 :      -0.3125    0.4375    0.0625
  band No.  band energies     occupation 
      1      -3.4188      1.00000
      2       2.5457      1.00000
      3       3.4797      1.00000
      4       4.4225      1.00000
      5       8.0176      1.00000
      6      11.2364      0.00000
      7      12.1577      0.00000
      8      14.1011      0.00000
      9      14.6367      0.00000
     10      18.6425      0.00000
     11      20.2189      0.00000
     12      20.6074      0.00000

 k-point  25 :      -0.1875    0.4375    0.0625
  band No.  band energies     occupation 
      1      -2.8033      1.00000
      2       1.0882      1.00000
      3       3.3691      1.00000
      4       3.6408      1.00000
      5       9.7311      0.00000
      6      10.4412      0.00000
      7      11.6598      0.00000
      8      15.0287      0.00000
      9      16.3630      0.00000
     10      17.7637      0.00000
     11      20.5258      0.00000
     12      20.7555      0.00000

 k-point  26 :      -0.0625    0.4375    0.0625
  band No.  band energies     occupation 
      1      -2.5947      1.00000
      2       0.4559      1.00000
      3       3.1684      1.00000
      4       3.3455      1.00000
      5       9.9279      0.00000
      6      10.9002      0.00000
      7      11.6073      0.00000
      8      14.9356      0.00000
      9      16.3933      0.00000
     10      17.9447      0.00000
     11      20.5755      0.00000
     12      20.9825      0.00000

 k-point  27 :      -0.4375   -0.4375    0.0625
  band No.  band energies     occupation 
      1      -4.0996      1.00000
      2       3.6161      1.00000
      3       3.9098      1.00000
      4       6.3440      1.00000
      5       6.6092      1.00000
      6      11.1459      0.00000
      7      12.2046      0.00000
      8      12.2542      0.00000
      9      15.0972      0.00000
     10      16.1926      0.00000
     11      20.2007      0.00000
     12      20.6037      0.00000

 k-point  28 :      -0.3125   -0.4375    0.0625
  band No.  band energies     occupation 
      1      -3.8517      1.00000
      2       2.8849      1.00000
      3       3.8106      1.00000
      4       5.2814      1.00000
      5       7.1015      1.00000
      6      11.6269      0.00000
      7      12.1759      0.00000
      8      12.3715      0.00000
      9      15.7587      0.00000
     10      16.9840      0.00000
     11      20.1612      0.00000
     12      20.6054      0.00000

 k-point  29 :      -0.1875   -0.4375    0.0625
  band No.  band energies     occupation 
      1      -3.2680      1.00000
      2       1.5759      1.00000
      3       3.4682      1.00000
      4       4.1709      1.00000
      5       8.1585      0.95345
      6      11.3478      0.00000
      7      11.9042      0.00000
      8      14.1121      0.00000
      9      15.8490      0.00000
     10      18.5672      0.00000
     11      19.5270      0.00000
     12      20.6119      0.00000

 k-point  30 :      -0.3125   -0.3125    0.0625
  band No.  band energies     occupation 
      1      -4.0783      1.00000
      2       2.4443      1.00000
      3       4.3430      1.00000
      4       5.9733      1.00000
      5       6.3429      1.00000
      6      10.6050      0.00000
      7      12.2008      0.00000
      8      12.2886      0.00000
      9      15.0092      0.00000
     10      18.4769      0.00000
     11      20.3966      0.00000
     12      20.6117      0.00000

 k-point  31 :      -0.1875   -0.3125    0.0625
  band No.  band energies     occupation 
      1      -4.0961      1.00000
      2       2.1541      1.00000
      3       4.2330      1.00000
      4       4.9949      1.00000
      5       7.0533      1.00000
      6      10.6578      0.00000
      7      11.6292      0.00000
      8      12.2950      0.00000
      9      14.9869      0.00000
     10      19.1270      0.00000
     11      20.5504      0.00000
     12      20.8757      0.00000

 k-point  32 :      -0.1875   -0.1875    0.0625
  band No.  band energies     occupation 
      1      -4.8345      1.00000
      2       2.8624      1.00000
      3       5.1240      1.00000
      4       5.7718      1.00000
      5       6.3832      1.00000
      6       9.6916      0.00000
      7      10.8846      0.00000
      8      11.2517      0.00000
      9      13.5614      0.00000
     10      18.2697      0.00000
     11      20.5962      0.00000
     12      22.0083      0.00000

 k-point  33 :       0.1875    0.1875    0.1875
  band No.  band energies     occupation 
      1      -5.3792      1.00000
      2       4.3440      1.00000
      3       5.1058      1.00000
      4       5.1058      1.00000
      5       8.1455      1.01800
      6       8.1455      1.01800
      7       8.9824      0.00000
      8      12.5148      0.00000
      9      12.5148      0.00000
     10      16.1415      0.00000
     11      20.3734      0.00000
     12      20.5987      0.00000

 k-point  34 :       0.3125    0.1875    0.1875
  band No.  band energies     occupation 
      1      -4.7051      1.00000
      2       3.1848      1.00000
      3       4.1779      1.00000
      4       4.5224      1.00000
      5       8.1116      1.02214
      6       9.5984      0.00000
      7      10.0869      0.00000
      8      11.8615      0.00000
      9      15.1413      0.00000
     10      16.9788      0.00000
     11      20.5943      0.00000
     12      21.4076      0.00000

 k-point  35 :       0.4375    0.1875    0.1875
  band No.  band energies     occupation 
      1      -3.6151      1.00000
      2       1.7447      1.00000
      3       3.5407      1.00000
      4       3.8132      1.00000
      5       8.9619      0.00000
      6      10.5716      0.00000
      7      11.2632      0.00000
      8      12.7248      0.00000
      9      16.8631      0.00000
     10      17.4114      0.00000
     11      20.5865      0.00000
     12      21.5554      0.00000

 k-point  36 :      -0.4375    0.1875    0.1875
  band No.  band energies     occupation 
      1      -2.7146      1.00000
      2       0.7903      1.00000
      3       3.3968      1.00000
      4       3.3983      1.00000
      5      10.2924      0.00000
      6      10.4374      0.00000
      7      11.2321      0.00000
      8      14.8150      0.00000
      9      16.7196      0.00000
     10      17.6162      0.00000
     11      20.5786      0.00000
     12      21.0770      0.00000

 k-point  37 :      -0.3125    0.1875    0.1875
  band No.  band energies     occupation 
      1      -2.9100      1.00000
      2       1.0415      1.00000
      3       3.3109      1.00000
      4       3.8049      1.00000
      5       8.7920      0.00000
      6      11.2565      0.00000
      7      11.8494      0.00000
      8      15.4932      0.00000
      9      15.5114      0.00000
     10      18.0195      0.00000
     11      19.9009      0.00000
     12      20.6167      0.00000

 k-point  38 :      -0.1875    0.1875    0.1875
  band No.  band energies     occupation 
      1      -3.8639      1.00000
      2       1.9214      1.00000
      3       3.8440      1.00000
      4       4.7091      1.00000
      5       7.3903      1.00000
      6      10.7935      0.00000
      7      11.5366      0.00000
      8      13.2393      0.00000
      9      15.2968      0.00000
     10      18.6889      0.00000
     11      20.4453      0.00000
     12      20.6908      0.00000

 k-point  39 :       0.3125    0.3125    0.1875
  band No.  band energies     occupation 
      1      -4.3503      1.00000
      2       2.4511      1.00000
      3       4.0656      1.00000
      4       4.6909      1.00000
      5       7.6400      1.00000
      6       9.9699      0.00000
      7      10.5971      0.00000
      8      13.0418      0.00000
      9      14.8897      0.00000
     10      17.8256      0.00000
     11      20.5888      0.00000
     12      21.4661      0.00000

 k-point  40 :       0.4375    0.3125    0.1875
  band No.  band energies     occupation 
      1      -3.6760      1.00000
      2       1.8181      1.00000
      3       3.8003      1.00000
      4       4.1007      1.00000
      5       8.1180      1.02803
      6      11.0560      0.00000
      7      11.5554      0.00000
      8      12.6768      0.00000
      9      15.9690      0.00000
     10      18.5443      0.00000
     11      20.5367      0.00000
     12      20.8274      0.00000

 k-point  41 :      -0.4375    0.3125    0.1875
  band No.  band energies     occupation 
      1      -3.1039      1.00000
      2       1.5559      1.00000
      3       3.4837      1.00000
      4       3.7516      1.00000
      5       9.2133      0.00000
      6      10.7918      0.00000
      7      11.8776      0.00000
      8      13.3162      0.00000
      9      16.5078      0.00000
     10      18.7428      0.00000
     11      20.4450      0.00000
     12      20.6873      0.00000

 k-point  42 :      -0.3125    0.3125    0.1875
  band No.  band energies     occupation 
      1      -3.0518      1.00000
      2       1.6752      1.00000
      3       3.4075      1.00000
      4       3.8685      1.00000
      5       9.2555      0.00000
      6      10.4236      0.00000
      7      11.9829      0.00000
      8      14.8177      0.00000
      9      15.2448      0.00000
     10      18.7679      0.00000
     11      20.3746      0.00000
     12      20.6544      0.00000

 k-point  43 :      -0.1875    0.3125    0.1875
  band No.  band energies     occupation 
      1      -3.4798      1.00000
      2       1.9411      1.00000
      3       3.6674      1.00000
      4       4.2254      1.00000
      5       8.0719      1.00168
      6      11.4253      0.00000
      7      11.9782      0.00000
      8      12.8133      0.00000
      9      16.0675      0.00000
     10      18.8761      0.00000
     11      19.6563      0.00000
     12      20.6119      0.00000

 k-point  44 :       0.4375    0.4375    0.1875
  band No.  band energies     occupation 
      1      -3.6400      1.00000
      2       2.0178      1.00000
      3       3.7051      1.00000
      4       4.8477      1.00000
      5       7.2638      1.00000
      6      11.3940      0.00000
      7      12.0403      0.00000
      8      13.2501      0.00000
      9      15.6355      0.00000
     10      18.6721      0.00000
     11      19.3762      0.00000
     12      20.6079      0.00000

 k-point  45 :      -0.4375    0.4375    0.1875
  band No.  band energies     occupation 
      1      -3.5185      1.00000
      2       2.5511      1.00000
      3       3.5729      1.00000
      4       4.3308      1.00000
      5       8.1040      1.01557
      6      11.3694      0.00000
      7      12.1782      0.00000
      8      12.8751      0.00000
      9      15.6402      0.00000
     10      18.2805      0.00000
     11      20.0987      0.00000
     12      20.6090      0.00000

 k-point  46 :      -0.3125    0.4375    0.1875
  band No.  band energies     occupation 
      1      -3.3453      1.00000
      2       2.8506      1.00000
      3       3.4370      1.00000
      4       3.7406      1.00000
      5       9.2879      0.00000
      6      10.4181      0.00000
      7      12.2405      0.00000
      8      13.3004      0.00000
      9      14.5554      0.00000
     10      20.0967      0.00000
     11      20.6200      0.00000
     12      20.8815      0.00000

 k-point  47 :      -0.1875    0.4375    0.1875
  band No.  band energies     occupation 
      1      -3.2250      1.00000
      2       2.1768      1.00000
      3       3.4471      1.00000
      4       3.8766      1.00000
      5       9.2486      0.00000
      6      10.4163      0.00000
      7      12.1640      0.00000
      8      13.4822      0.00000
      9      15.4073      0.00000
     10      19.5859      0.00000
     11      20.3983      0.00000
     12      20.6499      0.00000

 k-point  48 :      -0.4375   -0.4375    0.1875
  band No.  band energies     occupation 
      1      -3.7185      1.00000
      2       3.0883      1.00000
      3       3.5737      1.00000
      4       5.1681      1.00000
      5       7.1379      1.00000
      6      11.7311      0.00000
      7      12.2074      0.00000
      8      13.1482      0.00000
      9      14.8443      0.00000
     10      17.4850      0.00000
     11      20.1241      0.00000
     12      20.6045      0.00000

 k-point  49 :      -0.3125   -0.4375    0.1875
  band No.  band energies     occupation 
      1      -3.5988      1.00000
      2       3.2083      1.00000
      3       3.5266      1.00000
      4       4.2496      1.00000
      5       8.1491      1.00569
      6      11.3481      0.00000
      7      12.2387      0.00000
      8      12.8504      0.00000
      9      14.7912      0.00000
     10      18.4582      0.00000
     11      20.3833      0.00000
     12      20.6071      0.00000

 k-point  50 :      -0.3125   -0.3125    0.1875
  band No.  band energies     occupation 
      1      -3.6522      1.00000
      2       2.5699      1.00000
      3       3.6159      1.00000
      4       5.0340      1.00000
      5       7.2046      1.00000
      6      11.6884      0.00000
      7      12.1311      0.00000
      8      13.1702      0.00000
      9      15.6545      0.00000
     10      17.4279      0.00000
     11      19.8717      0.00000
     12      20.6058      0.00000

 k-point  51 :       0.3125    0.3125    0.3125
  band No.  band energies     occupation 
      1      -4.0263      1.00000
      2       2.1353      1.00000
      3       3.7909      1.00000
      4       3.7909      1.00000
      5       9.4597      0.00000
      6       9.4597      0.00000
      7       9.8467      0.00000
      8      15.3438      0.00000
      9      15.3438      0.00000
     10      16.5123      0.00000
     11      20.5844      0.00000
     12      21.2973      0.00000

 k-point  52 :       0.4375    0.3125    0.3125
  band No.  band energies     occupation 
      1      -3.3871      1.00000
      2       1.3817      1.00000
      3       3.4006      1.00000
      4       3.6917      1.00000
      5       9.4021      0.00000
[...]
      5       7.6393      1.00000
      6       9.9690      0.00000
      7      10.5963      0.00000
      8      13.0419      0.00000
      9      14.8899      0.00000
     10      17.8255      0.00000
     11      20.5885      0.00000
     12      21.4650      0.00000

 k-point  40 :       0.4375    0.3125    0.1875
  band No.  band energies     occupation 
      1      -3.6755      1.00000
      2       1.8180      1.00000
      3       3.8001      1.00000
      4       4.1006      1.00000
      5       8.1173      1.02743
      6      11.0552      0.00000
      7      11.5545      0.00000
      8      12.6767      0.00000
      9      15.9691      0.00000
     10      18.5445      0.00000
     11      20.5368      0.00000
     12      20.8270      0.00000

 k-point  41 :      -0.4375    0.3125    0.1875
  band No.  band energies     occupation 
      1      -3.1033      1.00000
      2       1.5557      1.00000
      3       3.4835      1.00000
      4       3.7516      1.00000
      5       9.2125      0.00000
      6      10.7908      0.00000
      7      11.8767      0.00000
      8      13.3162      0.00000
      9      16.5080      0.00000
     10      18.7426      0.00000
     11      20.4453      0.00000
     12      20.6869      0.00000

 k-point  42 :      -0.3125    0.3125    0.1875
  band No.  band energies     occupation 
      1      -3.0513      1.00000
      2       1.6750      1.00000
      3       3.4074      1.00000
      4       3.8686      1.00000
      5       9.2547      0.00000
      6      10.4227      0.00000
      7      11.9817      0.00000
      8      14.8178      0.00000
      9      15.2449      0.00000
     10      18.7673      0.00000
     11      20.3750      0.00000
     12      20.6539      0.00000

 k-point  43 :      -0.1875    0.3125    0.1875
  band No.  band energies     occupation 
      1      -3.4794      1.00000
      2       1.9409      1.00000
      3       3.6670      1.00000
      4       4.2255      1.00000
      5       8.0714      1.00162
      6      11.4242      0.00000
      7      11.9772      0.00000
      8      12.8131      0.00000
      9      16.0676      0.00000
     10      18.8761      0.00000
     11      19.6562      0.00000
     12      20.6115      0.00000

 k-point  44 :       0.4375    0.4375    0.1875
  band No.  band energies     occupation 
      1      -3.6395      1.00000
      2       2.0177      1.00000
      3       3.7048      1.00000
      4       4.8479      1.00000
      5       7.2634      1.00000
      6      11.3929      0.00000
      7      12.0391      0.00000
      8      13.2500      0.00000
      9      15.6356      0.00000
     10      18.6721      0.00000
     11      19.3760      0.00000
     12      20.6075      0.00000

 k-point  45 :      -0.4375    0.4375    0.1875
  band No.  band energies     occupation 
      1      -3.5181      1.00000
      2       2.5510      1.00000
      3       3.5725      1.00000
      4       4.3310      1.00000
      5       8.1037      1.01534
      6      11.3683      0.00000
      7      12.1770      0.00000
      8      12.8750      0.00000
      9      15.6404      0.00000
     10      18.2803      0.00000
     11      20.0984      0.00000
     12      20.6086      0.00000

 k-point  46 :      -0.3125    0.4375    0.1875
  band No.  band energies     occupation 
      1      -3.3448      1.00000
      2       2.8505      1.00000
      3       3.4368      1.00000
      4       3.7405      1.00000
      5       9.2875      0.00000
      6      10.4173      0.00000
      7      12.2391      0.00000
      8      13.3001      0.00000
      9      14.5556      0.00000
     10      20.0970      0.00000
     11      20.6196      0.00000
     12      20.8807      0.00000

 k-point  47 :      -0.1875    0.4375    0.1875
  band No.  band energies     occupation 
      1      -3.2245      1.00000
      2       2.1767      1.00000
      3       3.4468      1.00000
      4       3.8767      1.00000
      5       9.2480      0.00000
      6      10.4155      0.00000
      7      12.1627      0.00000
      8      13.4821      0.00000
      9      15.4075      0.00000
     10      19.5854      0.00000
     11      20.3986      0.00000
     12      20.6494      0.00000

 k-point  48 :      -0.4375   -0.4375    0.1875
  band No.  band energies     occupation 
      1      -3.7180      1.00000
      2       3.0879      1.00000
      3       3.5737      1.00000
      4       5.1684      1.00000
      5       7.1377      1.00000
      6      11.7297      0.00000
      7      12.2062      0.00000
      8      13.1482      0.00000
      9      14.8443      0.00000
     10      17.4851      0.00000
     11      20.1233      0.00000
     12      20.6041      0.00000

 k-point  49 :      -0.3125   -0.4375    0.1875
  band No.  band energies     occupation 
      1      -3.5983      1.00000
      2       3.2081      1.00000
      3       3.5264      1.00000
      4       4.2497      1.00000
      5       8.1490      1.00637
      6      11.3470      0.00000
      7      12.2373      0.00000
      8      12.8503      0.00000
      9      14.7913      0.00000
     10      18.4583      0.00000
     11      20.3825      0.00000
     12      20.6067      0.00000

 k-point  50 :      -0.3125   -0.3125    0.1875
  band No.  band energies     occupation 
      1      -3.6517      1.00000
      2       2.5698      1.00000
      3       3.6156      1.00000
      4       5.0343      1.00000
      5       7.2043      1.00000
      6      11.6871      0.00000
      7      12.1299      0.00000
      8      13.1702      0.00000
      9      15.6547      0.00000
     10      17.4277      0.00000
     11      19.8714      0.00000
     12      20.6054      0.00000

 k-point  51 :       0.3125    0.3125    0.3125
  band No.  band energies     occupation 
      1      -4.0259      1.00000
      2       2.1352      1.00000
      3       3.7909      1.00000
      4       3.7909      1.00000
      5       9.4587      0.00000
      6       9.4587      0.00000
      7       9.8459      0.00000
      8      15.3442      0.00000
      9      15.3442      0.00000
     10      16.5118      0.00000
     11      20.5842      0.00000
     12      21.2962      0.00000

 k-point  52 :       0.4375    0.3125    0.3125
  band No.  band energies     occupation 
      1      -3.3866      1.00000
      2       1.3816      1.00000
      3       3.4007      1.00000
      4       3.6915      1.00000
      5       9.4011      0.00000
      6      10.0568      0.00000
      7      11.2988      0.00000
      8      14.2645      0.00000
      9      16.3156      0.00000
     10      17.4529      0.00000
     11      20.5846      0.00000
     12      21.5672      0.00000

 k-point  53 :      -0.4375    0.3125    0.3125
  band No.  band energies     occupation 
      1      -2.9179      1.00000
      2       1.1673      1.00000
      3       3.4672      1.00000
      4       3.5230      1.00000
      5       9.9550      0.00000
      6      10.5467      0.00000
      7      11.4441      0.00000
      8      13.4365      0.00000
      9      17.6512      0.00000
     10      17.6544      0.00000
     11      20.5801      0.00000
     12      20.9326      0.00000

 k-point  54 :      -0.3125    0.3125    0.3125
  band No.  band energies     occupation 
      1      -3.1425      1.00000
      2       1.8845      1.00000
      3       3.4288      1.00000
      4       4.1001      1.00000
      5       8.6209      0.00000
      6      10.9415      0.00000
      7      11.9737      0.00000
      8      14.2221      0.00000
      9      15.6441      0.00000
     10      18.9065      0.00000
     11      20.2391      0.00000
     12      20.6090      0.00000

 k-point  55 :       0.4375    0.4375    0.3125
  band No.  band energies     occupation 
      1      -3.0427      1.00000
      2       0.9762      1.00000
      3       3.2808      1.00000
      4       3.6835      1.00000
      5       8.9619      0.00000
      6      11.0089      0.00000
      7      11.5800      0.00000
      8      15.3606      0.00000
      9      15.4822      0.00000
     10      17.9501      0.00000
     11      20.5358      0.00000
     12      20.8037      0.00000

 k-point  56 :      -0.4375    0.4375    0.3125
  band No.  band energies     occupation 
      1      -2.9039      1.00000
      2       1.1515      1.00000
      3       3.3719      1.00000
      4       3.6971      1.00000
      5       9.3091      0.00000
      6      10.7804      0.00000
      7      11.7291      0.00000
      8      14.6892      0.00000
      9      16.1872      0.00000
     10      18.0817      0.00000
     11      20.4463      0.00000
     12      20.6848      0.00000

 k-point  57 :      -0.3125    0.4375    0.3125
  band No.  band energies     occupation 
      1      -3.1855      1.00000
      2       2.1480      1.00000
      3       3.4247      1.00000
      4       3.9269      1.00000
      5       9.2134      0.00000
      6      10.3598      0.00000
      7      12.1456      0.00000
      8      13.9746      0.00000
      9      15.0216      0.00000
     10      19.8503      0.00000
     11      20.4961      0.00000
     12      20.6764      0.00000

 k-point  58 :      -0.4375   -0.4375    0.3125
  band No.  band energies     occupation 
      1      -3.0217      1.00000
      2       1.4871      1.00000
      3       3.3887      1.00000
      4       3.9752      1.00000
      5       8.6974      0.00000
      6      11.1294      0.00000
      7      11.7751      0.00000
      8      15.2578      0.00000
      9      15.5680      0.00000
     10      18.0130      0.00000
     11      19.9968      0.00000
     12      20.6156      0.00000

 k-point  59 :       0.4375    0.4375    0.4375
  band No.  band energies     occupation 
      1      -2.4848      1.00000
      2       0.2512      1.00000
      3       3.1151      1.00000
      4       3.1151      1.00000
      5      10.7200      0.00000
      6      10.7200      0.00000
      7      11.3370      0.00000
      8      14.3907      0.00000
      9      17.5549      0.00000
     10      17.5549      0.00000
     11      20.5957      0.00000
     12      21.0289      0.00000

 k-point  60 :      -0.4375    0.4375    0.4375
  band No.  band energies     occupation 
      1      -2.3906      1.00000
      2       0.2714      1.00000
      3       3.2186      1.00000
      4       3.2307      1.00000
      5      10.4172      0.00000
      6      10.7471      0.00000
      7      11.5228      0.00000
      8      14.9495      0.00000
      9      16.9209      0.00000
     10      17.5660      0.00000
     11      20.5723      0.00000
     12      20.8417      0.00000


--------------------------------------------------------------------------------------------------------


 soft charge-density along one line, spin component           1
         0         1         2         3         4         5         6         7         8         9
 total charge-density along one line
 
 soft charge-density along one line, spin component           2
         0         1         2         3         4         5         6         7         8         9
 total charge-density along one line
 
 pseudopotential strength for first ion, spin component:           1
  9.520  -0.003   0.000   0.000   0.000   0.000   0.000   0.000
 -0.003  -0.002   0.000   0.000   0.000   0.000   0.000   0.000
  0.000   0.000  -3.732   0.000   0.000  -0.007   0.000   0.000
  0.000   0.000   0.000  -3.732   0.000   0.000  -0.007   0.000
  0.000   0.000   0.000   0.000  -3.732   0.000   0.000  -0.007
  0.000   0.000  -0.007   0.000   0.000  -0.758   0.000   0.000
  0.000   0.000   0.000  -0.007   0.000   0.000  -0.758   0.000
  0.000   0.000   0.000   0.000  -0.007   0.000   0.000  -0.758
 pseudopotential strength for first ion, spin component:           2
  9.520  -0.003   0.000   0.000   0.000   0.000   0.000   0.000
 -0.003  -0.002   0.000   0.000   0.000   0.000   0.000   0.000
  0.000   0.000  -3.732   0.000   0.000  -0.007   0.000   0.000
  0.000   0.000   0.000  -3.732   0.000   0.000  -0.007   0.000
  0.000   0.000   0.000   0.000  -3.732   0.000   0.000  -0.007
  0.000   0.000  -0.007   0.000   0.000  -0.758   0.000   0.000
  0.000   0.000   0.000  -0.007   0.000   0.000  -0.758   0.000
  0.000   0.000   0.000   0.000  -0.007   0.000   0.000  -0.758
 total augmentation occupancy for first ion, spin component:           1
  1.518  -0.805   0.000   0.000   0.000   0.000   0.000   0.000
 -0.805   0.489   0.000   0.000   0.000   0.000   0.000   0.000
  0.000   0.000   1.020   0.000   0.000   0.128   0.000   0.000
  0.000   0.000   0.000   1.020   0.000   0.000   0.128   0.000
  0.000   0.000   0.000   0.000   1.020   0.000   0.000   0.128
  0.000   0.000   0.128   0.000   0.000   0.017   0.000   0.000
  0.000   0.000   0.000   0.128   0.000   0.000   0.017   0.000
  0.000   0.000   0.000   0.000   0.128   0.000   0.000   0.017
 total augmentation occupancy for first ion, spin component:           2
  0.000   0.000   0.000   0.000   0.000   0.000   0.000   0.000
  0.000   0.000   0.000   0.000   0.000   0.000   0.000   0.000
  0.000   0.000   0.000   0.000   0.000   0.000   0.000   0.000
  0.000   0.000   0.000   0.000   0.000   0.000   0.000   0.000
  0.000   0.000   0.000   0.000   0.000   0.000   0.000   0.000
  0.000   0.000   0.000   0.000   0.000   0.000   0.000   0.000
  0.000   0.000   0.000   0.000   0.000   0.000   0.000   0.000
  0.000   0.000   0.000   0.000   0.000   0.000   0.000   0.000


------------------------ aborting loop because EDIFF is reached ----------------------------------------


 


 total charge     
 
# of ion     s       p       d       tot
----------------------------------------
  1        0.864   1.565   0.000   2.430
  2        0.580   0.961   3.478   5.020
------------------------------------------------
tot        1.445   2.526   3.478   7.449
 


 magnetization (x)
 
# of ion     s       p       d       tot
----------------------------------------
  1        0.000   0.000   0.000   0.000
  2        0.000   0.000   0.000  -0.001
------------------------------------------------
tot        0.000   0.000   0.000   0.000
 
    CHARGE:  cpu time    0.48: real time    0.48
    FORLOC:  cpu time    0.01: real time    0.01
    FORNL :  cpu time    0.77: real time    0.77
    STRESS:  cpu time    1.37: real time    1.37
    FORCOR:  cpu time    0.37: real time    0.37
    FORHAR:  cpu time    0.05: real time    0.05
    MIXING:  cpu time    0.01: real time    0.01

  FORCE on cell =-STRESS in cart. coord.  units (eV):
  Direction    XX          YY          ZZ          XY          YZ          ZX
  --------------------------------------------------------------------------------------
  Alpha Z    52.03680    52.03680    52.03680
  Ewald    -123.63888  -123.63888  -123.63888     0.00000     0.00000     0.00000
  Hartree     7.53215     7.53215     7.53215     0.00000     0.00000     0.00000
  E(xc)     -37.55216   -37.55216   -37.55216     0.00000     0.00000     0.00000
  Local     -13.23762   -13.23762   -13.23762     0.00000     0.00000     0.00000
  n-local    -6.14833    -9.20286    -2.58146     0.74593    -0.79207    -0.01381
  augment     2.60469     2.60469     2.60469     0.00000     0.00000     0.00000
  Kinetic   120.59319   123.57504   108.61160     3.59056    -4.11368     0.00628
  Fock        0.00000     0.00000     0.00000     0.00000     0.00000     0.00000
  -------------------------------------------------------------------------------------
  Total      -0.63928    -0.63928    -0.63928     0.00000     0.00000     0.00000
  in kB     -45.10978   -45.10978   -45.10978     0.00000     0.00000     0.00000
  external pressure =      -45.11 kB  Pullay stress =        0.00 kB


 VOLUME and BASIS-vectors are now :
 -----------------------------------------------------------------------------
  energy-cutoff  :      450.00
  volume of cell :       22.71
      direct lattice vectors                 reciprocal lattice vectors
     0.000000000  2.247500000  2.247500000    -0.222469410  0.222469410  0.222469410
     2.247500000  0.000000000  2.247500000     0.222469410 -0.222469410  0.222469410
     2.247500000  2.247500000  0.000000000     0.222469410  0.222469410 -0.222469410

  length of vectors
     3.178444981  3.178444981  3.178444981     0.385328322  0.385328322  0.385328322


 FORCES acting on ions
    electron-ion (+dipol)            ewald-force                    non-local-force                 convergence-correction
 -----------------------------------------------------------------------------------------------
   -.310E-13 -.208E-12 0.884E-13   0.407E-15 0.687E-15 0.159E-14   0.155E-24 -.155E-24 0.155E-24   -.287E-14 -.373E-14 -.534E-14
   -.277E-14 -.293E-14 -.125E-14   -.546E-15 -.464E-15 -.134E-14   0.129E-24 0.129E-24 0.000E+00   0.323E-15 0.965E-15 0.125E-15
 -----------------------------------------------------------------------------------------------
   -.338E-13 -.211E-12 0.871E-13   -.139E-15 0.223E-15 0.252E-15   0.284E-24 -.258E-25 0.155E-24   -.254E-14 -.277E-14 -.522E-14
 
 
 POSITION                                       TOTAL-FORCE (eV/Angst)
 -----------------------------------------------------------------------------------
      2.24750      2.24750      2.24750         0.000000      0.000000      0.000000
      0.00000      0.00000      0.00000         0.000000      0.000000      0.000000
 -----------------------------------------------------------------------------------
    total drift:                                0.000000      0.000000      0.000000


--------------------------------------------------------------------------------------------------------



  FREE ENERGIE OF THE ION-ELECTRON SYSTEM (eV)
  ---------------------------------------------------
  free  energy   TOTEN  =       -22.247109 eV

  energy  without entropy=      -22.247390  energy(sigma->0) =      -22.247203
 


--------------------------------------------------------------------------------------------------------


    POTLOK:  cpu time    0.51: real time    0.51


--------------------------------------------------------------------------------------------------------


 writing wavefunctions
     LOOP+:  cpu time  105.35: real time  105.73
    4ORBIT:  cpu time    0.00: real time    0.00
 


 total charge     
 
# of ion     s       p       d       tot
----------------------------------------
  1        0.864   1.565   0.000   2.430
  2        0.580   0.961   3.478   5.020
------------------------------------------------
tot        1.445   2.526   3.478   7.449
 


 magnetization (x)
 
# of ion     s       p       d       tot
----------------------------------------
  1        0.000   0.000   0.000   0.000
  2        0.000   0.000   0.000  -0.001
------------------------------------------------
tot        0.000   0.000   0.000   0.000
 

 total amount of memory used by VASP on root node    66148. kBytes
========================================================================

   base      :      30000. kBytes
   nonl-proj :       9140. kBytes
   fftplans  :       3916. kBytes
   grid      :      10266. kBytes
   one-center:         62. kBytes
   wavefun   :      12764. kBytes
 
  
  
 General timing and accounting informations for this job:
 ========================================================
  
                  Total CPU time used (sec):      106.698
                            User time (sec):      106.492
                          System time (sec):        0.206
                         Elapsed time (sec):      107.150
  
                   Maximum memory used (kb):           0.
                   Average memory used (kb):           0.
  
                          Minor page faults:        23802
                          Major page faults:            0
                 Voluntary context switches:          729
