PROCAR lm decomposed
# of k-points:   60         # of bands:  12         # of ions:   2

 k-point    1 :    0.06250000 0.06250000 0.06250000     weight = 0.00390625

band   1 # energy   -6.14999936 # occ.  1.00000000
 
ion      s     py     pz     px    dxy    dyz    dz2    dxz    dx2    tot
  1  0.314  0.000  0.000  0.000  0.000  0.000  0.000  0.000  0.000  0.315
  2  0.423  0.002  0.002  0.002  0.000  0.000  0.000  0.000  0.000  0.429
tot  0.737  0.002  0.002  0.002  0.000  0.000  0.000  0.000  0.000  0.744
 
band   2 # energy    6.47367337 # occ.  1.00000000
 
ion      s     py     pz     px    dxy    dyz    dz2    dxz    dx2    tot
  1  0.005  0.049  0.049  0.049  0.000  0.000  0.000  0.000  0.000  0.152
  2  0.004  0.012  0.012  0.012  0.216  0.216  0.000  0.216  0.000  0.687
tot  0.009  0.061  0.061  0.061  0.216  0.216  0.000  0.216  0.000  0.839
 
band   3 # energy    6.80999763 # occ.  1.00000000
 
ion      s     py     pz     px    dxy    dyz    dz2    dxz    dx2    tot
  1  0.000  0.113  0.042  0.019  0.000  0.000  0.000  0.000  0.000  0.174
  2  0.000  0.018  0.007  0.003  0.128  0.058  0.039  0.342  0.068  0.663
tot  0.000  0.131  0.049  0.022  0.128  0.058  0.039  0.342  0.068  0.837
 
band   4 # energy    6.80999763 # occ.  1.00000000
 
ion      s     py     pz     px    dxy    dyz    dz2    dxz    dx2    tot
  1  0.000  0.003  0.074  0.097  0.000  0.000  0.000  0.000  0.000  0.174
  2  0.000  0.000  0.012  0.015  0.224  0.294  0.068  0.010  0.039  0.663
tot  0.000  0.004  0.086  0.112  0.224  0.294  0.068  0.010  0.039  0.837
 
band   5 # energy    7.53942890 # occ.  1.00000000
 
ion      s     py     pz     px    dxy    dyz    dz2    dxz    dx2    tot
  1  0.000  0.127  0.046  0.022  0.000  0.000  0.000  0.000  0.000  0.195
  2  0.000  0.012  0.004  0.002  0.092  0.045  0.077  0.256  0.143  0.632
tot  0.000  0.139  0.050  0.024  0.092  0.045  0.077  0.256  0.143  0.827
 
band   6 # energy    7.53942890 # occ.  1.00000000
 
ion      s     py     pz     px    dxy    dyz    dz2    dxz    dx2    tot
  1  0.000  0.003  0.084  0.108  0.000  0.000  0.000  0.000  0.000  0.195
  2  0.000  0.000  0.008  0.010  0.170  0.217  0.143  0.006  0.077  0.632
tot  0.000  0.003  0.092  0.118  0.170  0.217  0.143  0.006  0.077  0.827
 
band   7 # energy    8.25648290 # occ. -0.03505313
 
ion      s     py     pz     px    dxy    dyz    dz2    dxz    dx2    tot
  1  0.014  0.120  0.120  0.120  0.000  0.000  0.000  0.000  0.000  0.374
  2  0.012  0.014  0.014  0.014  0.090  0.090  0.000  0.090  0.000  0.325
tot  0.026  0.134  0.134  0.134  0.090  0.090  0.000  0.090  0.000  0.699
 
band   8 # energy    9.78944632 # occ.  0.00000000
 
ion      s     py     pz     px    dxy    dyz    dz2    dxz    dx2    tot
  1  0.000  0.108  0.039  0.019  0.000  0.000  0.000  0.000  0.000  0.166
  2  0.000  0.023  0.008  0.004  0.001  0.001  0.230  0.004  0.419  0.690
tot  0.000  0.131  0.047  0.023  0.001  0.001  0.230  0.004  0.419  0.856
 
band   9 # energy    9.78944632 # occ.  0.00000000
 
ion      s     py     pz     px    dxy    dyz    dz2    dxz    dx2    tot
  1  0.000  0.003  0.072  0.092  0.000  0.000  0.000  0.000  0.000  0.166
  2  0.000  0.001  0.015  0.020  0.002  0.003  0.419  0.000  0.230  0.690
tot  0.000  0.003  0.087  0.111  0.002  0.003  0.419  0.000  0.230  0.856
 
band  10 # energy   14.85825442 # occ.  0.00000000
 
ion      s     py     pz     px    dxy    dyz    dz2    dxz    dx2    tot
  1  0.393  0.010  0.010  0.010  0.000  0.000  0.000  0.000  0.000  0.424
  2  0.272  0.003  0.003  0.003  0.000  0.000  0.000  0.000  0.000  0.282
tot  0.665  0.013  0.013  0.013  0.000  0.000  0.000  0.000  0.000  0.706
 
band  11 # energy   18.65718095 # occ.  0.00000000
 
ion      s     py     pz     px    dxy    dyz    dz2    dxz    dx2    tot
  1  0.000  0.000  0.000  0.000  0.000  0.000  0.000  0.000  0.000  0.000
  2  0.000  0.000  0.000  0.000  0.005  0.005  0.000  0.005  0.000  0.015
tot  0.000  0.000  0.000  0.000  0.005  0.005  0.000  0.005  0.000  0.015
 
band  12 # energy   20.59695735 # occ.  0.00000000
 
ion      s     py     pz     px    dxy    dyz    dz2    dxz    dx2    tot
  1  0.000  0.000  0.000  0.000  0.000  0.000  0.000  0.000  0.000  0.000
  2 43.969  0.000  0.000  0.000  0.000  0.000  0.000  0.000  0.000 43.969
tot 43.969  0.000  0.000  0.000  0.000  0.000  0.000  0.000  0.000 43.969
 

 k-point    2 :    0.18750000 0.06250000 0.06250000     weight = 0.01171875

band   1 # energy   -5.63215914 # occ.  1.00000000
 
ion      s     py     pz     px    dxy    dyz    dz2    dxz    dx2    tot
  1  0.322  0.002  0.002  0.000  0.000  0.000  0.000  0.000  0.000  0.326
  2  0.385  0.019  0.019  0.002  0.000  0.001  0.000  0.000  0.001  0.426
tot  0.707  0.020  0.020  0.002  0.000  0.001  0.000  0.000  0.001  0.752
 
band   2 # energy    4.93832091 # occ.  1.00000000
 
ion      s     py     pz     px    dxy    dyz    dz2    dxz    dx2    tot
  1  0.037  0.110  0.110  0.011  0.000  0.000  0.000  0.000  0.000  0.267
  2  0.036  0.020  0.020  0.008  0.053  0.220  0.028  0.053  0.084  0.522
tot  0.072  0.130  0.130  0.019  0.053  0.220  0.028  0.053  0.084  0.789
 
band   3 # energy    5.40192448 # occ.  1.00000000
 
ion      s     py     pz     px    dxy    dyz    dz2    dxz    dx2    tot
  1  0.000  0.146  0.146  0.000  0.000  0.000  0.000  0.000  0.000  0.292
  2  0.000  0.007  0.007  0.000  0.015  0.000  0.364  0.015  0.121  0.528
tot  0.000  0.153  0.153  0.000  0.015  0.000  0.364  0.015  0.121  0.821
 
band   4 # energy    5.56405211 # occ.  1.00000000
 
ion      s     py     pz     px    dxy    dyz    dz2    dxz    dx2    tot
  1  0.000  0.014  0.014  0.166  0.000  0.000  0.000  0.000  0.000  0.194
  2  0.001  0.001  0.001  0.054  0.226  0.027  0.024  0.226  0.073  0.633
tot  0.001  0.015  0.015  0.220  0.226  0.027  0.024  0.226  0.073  0.827
 
band   5 # energy    7.51671674 # occ.  1.00000000
 
ion      s     py     pz     px    dxy    dyz    dz2    dxz    dx2    tot
  1  0.000  0.003  0.003  0.000  0.000  0.000  0.000  0.000  0.000  0.007
  2  0.000  0.000  0.000  0.000  0.445  0.000  0.017  0.445  0.006  0.913
tot  0.000  0.003  0.003  0.000  0.445  0.000  0.017  0.445  0.006  0.920
 
band   6 # energy    8.41122226 # occ. -0.00000001
 
ion      s     py     pz     px    dxy    dyz    dz2    dxz    dx2    tot
  1  0.000  0.011  0.011  0.041  0.000  0.000  0.000  0.000  0.000  0.062
  2  0.001  0.001  0.001  0.001  0.044  0.493  0.063  0.044  0.189  0.839
tot  0.002  0.012  0.012  0.042  0.044  0.493  0.063  0.044  0.189  0.901
 
band   7 # energy    9.04945703 # occ.  0.00000000
 
ion      s     py     pz     px    dxy    dyz    dz2    dxz    dx2    tot
  1  0.026  0.026  0.026  0.230  0.000  0.000  0.000  0.000  0.000  0.308
  2  0.026  0.000  0.000  0.020  0.114  0.137  0.000  0.114  0.001  0.415
tot  0.052  0.026  0.026  0.250  0.114  0.137  0.000  0.114  0.001  0.723
 
band   8 # energy   10.86617104 # occ.  0.00000000
 
ion      s     py     pz     px    dxy    dyz    dz2    dxz    dx2    tot
  1  0.029  0.045  0.045  0.084  0.000  0.000  0.000  0.000  0.000  0.204
  2  0.024  0.009  0.009  0.018  0.005  0.040  0.128  0.005  0.383  0.622
tot  0.053  0.055  0.055  0.103  0.005  0.040  0.128  0.005  0.383  0.826
 
band   9 # energy   12.38132494 # occ.  0.00000000
 
ion      s     py     pz     px    dxy    dyz    dz2    dxz    dx2    tot
  1  0.000  0.125  0.125  0.000  0.000  0.000  0.000  0.000  0.000  0.251
  2  0.000  0.033  0.033  0.000  0.001  0.000  0.366  0.001  0.122  0.556
tot  0.000  0.159  0.159  0.000  0.001  0.000  0.366  0.001  0.122  0.806
 
band  10 # energy   15.85989022 # occ.  0.00000000
 
ion      s     py     pz     px    dxy    dyz    dz2    dxz    dx2    tot
  1  0.293  0.074  0.074  0.006  0.000  0.000  0.000  0.000  0.000  0.446
  2  0.196  0.027  0.027  0.002  0.000  0.005  0.002  0.000  0.005  0.263
tot  0.489  0.100  0.100  0.008  0.000  0.005  0.002  0.000  0.005  0.710
 
band  11 # energy   19.91772757 # occ.  0.00000000
 
ion      s     py     pz     px    dxy    dyz    dz2    dxz    dx2    tot
  1  0.000  0.000  0.000  0.000  0.000  0.000  0.000  0.000  0.000  0.001
  2  0.001  0.000  0.000  0.003  0.045  0.006  0.000  0.045  0.000  0.101
tot  0.002  0.000  0.000  0.003  0.045  0.006  0.000  0.045  0.000  0.101
 
band  12 # energy   20.59745102 # occ.  0.00000000
 
ion      s     py     pz     px    dxy    dyz    dz2    dxz    dx2    tot
  1  0.000  0.000  0.000  0.000  0.000  0.000  0.000  0.000  0.000  0.000
  2 43.933  0.000  0.000  0.000  0.000  0.000  0.000  0.000  0.000 43.933
tot 43.933  0.000  0.000  0.000  0.000  0.000  0.000  0.000  0.000 43.933
 

 k-point    3 :    0.31250000 0.06250000 0.06250000     weight = 0.01171875

band   1 # energy   -4.46579143 # occ.  1.00000000
 
ion      s     py     pz     px    dxy    dyz    dz2    dxz    dx2    tot
  1  0.341  0.005  0.005  0.002  0.000  0.000  0.000  0.000  0.000  0.353
  2  0.294  0.046  0.046  0.017  0.002  0.004  0.001  0.002  0.003  0.415
tot  0.635  0.050  0.050  0.019  0.002  0.004  0.001  0.002  0.003  0.767
 
band   2 # energy    2.76730382 # occ.  1.00000000
 
ion      s     py     pz     px    dxy    dyz    dz2    dxz    dx2    tot
  1  0.073  0.084  0.084  0.022  0.000  0.000  0.000  0.000  0.000  0.262
  2  0.094  0.019  0.019  0.025  0.082  0.149  0.016  0.082  0.048  0.535
tot  0.167  0.103  0.103  0.047  0.082  0.149  0.016  0.082  0.048  0.797
 
band   3 # energy    3.99787279 # occ.  1.00000000
 
ion      s     py     pz     px    dxy    dyz    dz2    dxz    dx2    tot
  1  0.000  0.135  0.135  0.000  0.000  0.000  0.000  0.000  0.000  0.270
  2  0.000  0.001  0.001  0.000  0.033  0.000  0.397  0.033  0.132  0.599
tot  0.000  0.136  0.136  0.000  0.033  0.000  0.397  0.033  0.132  0.869
 
band   4 # energy    4.29307081 # occ.  1.00000000
 
ion      s     py     pz     px    dxy    dyz    dz2    dxz    dx2    tot
  1  0.000  0.024  0.024  0.191  0.000  0.000  0.000  0.000  0.000  0.239
  2  0.000  0.000  0.000  0.050  0.108  0.035  0.078  0.108  0.234  0.613
tot  0.000  0.024  0.024  0.241  0.108  0.035  0.078  0.108  0.234  0.852
 
band   5 # energy    8.63227960 # occ.  0.00000000
 
ion      s     py     pz     px    dxy    dyz    dz2    dxz    dx2    tot
  1  0.000  0.007  0.007  0.000  0.000  0.000  0.000  0.000  0.000  0.014
  2  0.000  0.002  0.002  0.000  0.423  0.000  0.038  0.423  0.013  0.902
tot  0.000  0.009  0.009  0.000  0.423  0.000  0.038  0.423  0.013  0.916
 
band   6 # energy    9.19661719 # occ.  0.00000000
 
ion      s     py     pz     px    dxy    dyz    dz2    dxz    dx2    tot
  1  0.024  0.002  0.002  0.093  0.000  0.000  0.000  0.000  0.000  0.120
  2  0.027  0.001  0.001  0.000  0.208  0.116  0.039  0.208  0.117  0.716
tot  0.051  0.003  0.003  0.093  0.208  0.116  0.039  0.208  0.117  0.836
 
band   7 # energy    9.95114111 # occ.  0.00000000
 
ion      s     py     pz     px    dxy    dyz    dz2    dxz    dx2    tot
  1  0.031  0.030  0.030  0.029  0.000  0.000  0.000  0.000  0.000  0.120
  2  0.054  0.004  0.004  0.001  0.014  0.587  0.008  0.014  0.023  0.709
tot  0.085  0.034  0.034  0.030  0.014  0.587  0.008  0.014  0.023  0.829
 
band   8 # energy   13.52354289 # occ.  0.00000000
 
ion      s     py     pz     px    dxy    dyz    dz2    dxz    dx2    tot
  1  0.023  0.025  0.025  0.195  0.000  0.000  0.000  0.000  0.000  0.268
  2  0.017  0.006  0.006  0.057  0.011  0.021  0.106  0.011  0.319  0.555
tot  0.040  0.031  0.031  0.252  0.011  0.021  0.106  0.011  0.319  0.823
 
band   9 # energy   15.21847146 # occ.  0.00000000
 
ion      s     py     pz     px    dxy    dyz    dz2    dxz    dx2    tot
  1  0.000  0.149  0.149  0.000  0.000  0.000  0.000  0.000  0.000  0.298
  2  0.000  0.034  0.034  0.000  0.003  0.000  0.344  0.003  0.115  0.534
tot  0.000  0.183  0.183  0.000  0.003  0.000  0.344  0.003  0.115  0.832
 
band  10 # energy   16.84243036 # occ.  0.00000000
 
ion      s     py     pz     px    dxy    dyz    dz2    dxz    dx2    tot
  1  0.155  0.106  0.106  0.017  0.000  0.000  0.000  0.000  0.000  0.384
  2  0.054  0.085  0.085  0.025  0.014  0.025  0.003  0.014  0.008  0.313
tot  0.209  0.191  0.191  0.042  0.014  0.025  0.003  0.014  0.008  0.697
 
band  11 # energy   20.58902899 # occ.  0.00000000
 
ion      s     py     pz     px    dxy    dyz    dz2    dxz    dx2    tot
  1  0.000  0.000  0.000  0.000  0.000  0.000  0.000  0.000  0.000  0.001
  2 42.978  0.000  0.000  0.000  0.001  0.001  0.000  0.001  0.000 42.981
tot 42.978  0.001  0.001  0.000  0.001  0.001  0.000  0.001  0.000 42.982
 
band  12 # energy   21.26300657 # occ.  0.00000000
 
ion      s     py     pz     px    dxy    dyz    dz2    dxz    dx2    tot
  1  0.019  0.020  0.020  0.006  0.000  0.000  0.000  0.000  0.000  0.066
  2  1.030  0.013  0.013  0.024  0.097  0.048  0.001  0.097  0.002  1.325
tot  1.049  0.033  0.033  0.030  0.097  0.048  0.001  0.097  0.002  1.391
 

 k-point    4 :    0.43750000 0.06250000 0.06250000     weight = 0.01171875

band   1 # energy   -2.97159447 # occ.  1.00000000
 
ion      s     py     pz     px    dxy    dyz    dz2    dxz    dx2    tot
  1  0.390  0.005  0.005  0.006  0.000  0.000  0.000  0.000  0.000  0.406
  2  0.145  0.076  0.076  0.043  0.006  0.008  0.003  0.006  0.010  0.372
tot  0.535  0.081  0.081  0.049  0.006  0.008  0.003  0.006  0.010  0.778
 
band   2 # energy    0.82561311 # occ.  1.00000000
 
ion      s     py     pz     px    dxy    dyz    dz2    dxz    dx2    tot
  1  0.072  0.064  0.064  0.034  0.000  0.000  0.000  0.000  0.000  0.235
  2  0.203  0.012  0.012  0.033  0.088  0.116  0.006  0.088  0.018  0.575
tot  0.275  0.076  0.076  0.066  0.088  0.116  0.006  0.088  0.018  0.810
 
band   3 # energy    3.22501776 # occ.  1.00000000
 
ion      s     py     pz     px    dxy    dyz    dz2    dxz    dx2    tot
  1  0.000  0.131  0.131  0.000  0.000  0.000  0.000  0.000  0.000  0.262
  2  0.000  0.000  0.000  0.000  0.045  0.000  0.409  0.045  0.136  0.635
tot  0.000  0.131  0.131  0.000  0.045  0.000  0.409  0.045  0.136  0.897
 
band   4 # energy    3.38495657 # occ.  1.00000000
 
ion      s     py     pz     px    dxy    dyz    dz2    dxz    dx2    tot
  1  0.001  0.033  0.033  0.185  0.000  0.000  0.000  0.000  0.000  0.253
  2  0.000  0.001  0.001  0.033  0.049  0.055  0.111  0.049  0.332  0.632
tot  0.001  0.035  0.035  0.218  0.049  0.055  0.111  0.049  0.332  0.885
 
band   5 # energy   10.08917061 # occ.  0.00000000
 
ion      s     py     pz     px    dxy    dyz    dz2    dxz    dx2    tot
  1  0.000  0.011  0.011  0.000  0.000  0.000  0.000  0.000  0.000  0.022
  2  0.000  0.003  0.003  0.000  0.424  0.000  0.047  0.424  0.016  0.916
tot  0.000  0.014  0.014  0.000  0.424  0.000  0.047  0.424  0.016  0.938
 
band   6 # energy   10.28614703 # occ.  0.00000000
 
ion      s     py     pz     px    dxy    dyz    dz2    dxz    dx2    tot
  1  0.023  0.002  0.002  0.068  0.000  0.000  0.000  0.000  0.000  0.094
  2  0.039  0.001  0.001  0.007  0.251  0.110  0.024  0.251  0.073  0.758
tot  0.063  0.003  0.003  0.075  0.251  0.110  0.024  0.251  0.073  0.853
 
band   7 # energy   11.19678850 # occ.  0.00000000
 
ion      s     py     pz     px    dxy    dyz    dz2    dxz    dx2    tot
  1  0.014  0.038  0.038  0.012  0.000  0.000  0.000  0.000  0.000  0.101
  2  0.073  0.006  0.006  0.001  0.011  0.661  0.006  0.011  0.019  0.794
tot  0.087  0.043  0.043  0.013  0.011  0.661  0.006  0.011  0.019  0.895
 
band   8 # energy   15.23273242 # occ.  0.00000000
 
ion      s     py     pz     px    dxy    dyz    dz2    dxz    dx2    tot
  1  0.090  0.014  0.014  0.062  0.000  0.000  0.000  0.000  0.000  0.180
  2  0.000  0.085  0.085  0.101  0.060  0.005  0.009  0.060  0.027  0.431
tot  0.090  0.099  0.099  0.164  0.060  0.005  0.009  0.060  0.027  0.611
 
band   9 # energy   16.23033536 # occ.  0.00000000
 
ion      s     py     pz     px    dxy    dyz    dz2    dxz    dx2    tot
  1  0.000  0.050  0.050  0.169  0.000  0.000  0.000  0.000  0.000  0.270
  2  0.009  0.046  0.046  0.029  0.000  0.017  0.104  0.000  0.313  0.563
tot  0.009  0.096  0.096  0.198  0.000  0.017  0.104  0.000  0.313  0.833
 
band  10 # energy   17.51446663 # occ.  0.00000000
 
ion      s     py     pz     px    dxy    dyz    dz2    dxz    dx2    tot
  1  0.000  0.172  0.172  0.000  0.000  0.000  0.000  0.000  0.000  0.345
  2  0.000  0.011  0.011  0.000  0.003  0.000  0.394  0.003  0.131  0.553
tot  0.000  0.183  0.183  0.000  0.003  0.000  0.394  0.003  0.131  0.898
 
band  11 # energy   20.58604490 # occ.  0.00000000
 
ion      s     py     pz     px    dxy    dyz    dz2    dxz    dx2    tot
  1  0.000  0.002  0.002  0.001  0.000  0.000  0.000  0.000  0.000  0.004
  2 42.850  0.000  0.000  0.000  0.000  0.000  0.000  0.000  0.000 42.851
tot 42.850  0.002  0.002  0.001  0.000  0.000  0.000  0.000  0.000 42.855
 
band  12 # energy   21.57437663 # occ.  0.00000000
 
ion      s     py     pz     px    dxy    dyz    dz2    dxz    dx2    tot
  1  0.004  0.068  0.068  0.000  0.000  0.000  0.000  0.000  0.000  0.139
  2  0.601  0.050  0.050  0.161  0.002  0.013  0.019  0.002  0.056  0.954
tot  0.604  0.118  0.118  0.161  0.002  0.013  0.019  0.002  0.056  1.093
 

 k-point    5 :   -0.43750000 0.06250000 0.06250000     weight = 0.01171875

band   1 # energy   -2.21493540 # occ.  1.00000000
 
ion      s     py     pz     px    dxy    dyz    dz2    dxz    dx2    tot
  1  0.468  0.001  0.001  0.000  0.000  0.000  0.000  0.000  0.000  0.471
  2  0.012  0.085  0.085  0.091  0.001  0.001  0.007  0.001  0.021  0.304
tot  0.481  0.086  0.086  0.091  0.001  0.001  0.007  0.001  0.021  0.775
 
band   2 # energy   -0.01813053 # occ.  1.00000000
 
ion      s     py     pz     px    dxy    dyz    dz2    dxz    dx2    tot
  1  0.008  0.055  0.055  0.060  0.000  0.000  0.000  0.000  0.000  0.178
  2  0.321  0.007  0.007  0.001  0.101  0.104  0.000  0.101  0.001  0.643
tot  0.330  0.061  0.061  0.061  0.101  0.104  0.000  0.101  0.001  0.821
 
band   3 # energy    3.06846539 # occ.  1.00000000
 
ion      s     py     pz     px    dxy    dyz    dz2    dxz    dx2    tot
  1  0.002  0.043  0.043  0.168  0.000  0.000  0.000  0.000  0.000  0.257
  2  0.000  0.005  0.005  0.017  0.018  0.082  0.124  0.018  0.373  0.641
tot  0.002  0.048  0.048  0.185  0.018  0.082  0.124  0.018  0.373  0.897
 
band   4 # energy    3.11874112 # occ.  1.00000000
 
ion      s     py     pz     px    dxy    dyz    dz2    dxz    dx2    tot
  1  0.000  0.130  0.130  0.000  0.000  0.000  0.000  0.000  0.000  0.259
  2  0.000  0.003  0.003  0.000  0.055  0.000  0.395  0.055  0.132  0.641
tot  0.000  0.132  0.132  0.000  0.055  0.000  0.395  0.055  0.132  0.901
 
band   5 # energy   10.58846763 # occ.  0.00000000
 
ion      s     py     pz     px    dxy    dyz    dz2    dxz    dx2    tot
  1  0.009  0.014  0.014  0.011  0.000  0.000  0.000  0.000  0.000  0.049
  2  0.006  0.003  0.003  0.000  0.074  0.628  0.021  0.074  0.062  0.873
tot  0.014  0.018  0.018  0.012  0.074  0.628  0.021  0.074  0.062  0.922
 
band   6 # energy   10.97552289 # occ.  0.00000000
 
ion      s     py     pz     px    dxy    dyz    dz2    dxz    dx2    tot
  1  0.000  0.015  0.015  0.000  0.000  0.000  0.000  0.000  0.000  0.029
  2  0.000  0.000  0.000  0.000  0.431  0.000  0.062  0.431  0.021  0.945
tot  0.000  0.015  0.015  0.000  0.431  0.000  0.062  0.431  0.021  0.974
 
band   7 # energy   11.79393105 # occ.  0.00000000
 
ion      s     py     pz     px    dxy    dyz    dz2    dxz    dx2    tot
  1  0.001  0.044  0.044  0.062  0.000  0.000  0.000  0.000  0.000  0.152
  2  0.127  0.001  0.001  0.000  0.283  0.076  0.001  0.283  0.003  0.773
tot  0.128  0.045  0.045  0.063  0.283  0.076  0.001  0.283  0.003  0.925
 
band   8 # energy   14.10927017 # occ.  0.00000000
 
ion      s     py     pz     px    dxy    dyz    dz2    dxz    dx2    tot
  1  0.095  0.003  0.003  0.001  0.000  0.000  0.000  0.000  0.000  0.101
  2  0.001  0.096  0.096  0.114  0.001  0.063  0.001  0.001  0.003  0.376
tot  0.096  0.098  0.098  0.115  0.001  0.063  0.001  0.001  0.003  0.477
 
band   9 # energy   17.54888878 # occ.  0.00000000
 
ion      s     py     pz     px    dxy    dyz    dz2    dxz    dx2    tot
  1  0.000  0.156  0.156  0.000  0.000  0.000  0.000  0.000  0.000  0.311
  2  0.000  0.027  0.027  0.000  0.003  0.000  0.396  0.003  0.132  0.589
tot  0.000  0.183  0.183  0.000  0.003  0.000  0.396  0.003  0.132  0.900
 
band  10 # energy   17.89593399 # occ.  0.00000000
 
ion      s     py     pz     px    dxy    dyz    dz2    dxz    dx2    tot
  1  0.002  0.050  0.050  0.232  0.000  0.000  0.000  0.000  0.000  0.334
  2  0.000  0.005  0.005  0.004  0.001  0.000  0.140  0.001  0.421  0.577
tot  0.003  0.054  0.054  0.236  0.001  0.000  0.140  0.001  0.421  0.911
 
band  11 # energy   20.56921007 # occ.  0.00000000
 
ion      s     py     pz     px    dxy    dyz    dz2    dxz    dx2    tot
  1  0.000  0.013  0.009  0.001  0.000  0.000  0.000  0.000  0.000  0.023
  2 30.735  0.011  0.030  0.072  0.000  0.003  0.000  0.000  0.001 30.851
tot 30.735  0.024  0.038  0.073  0.000  0.003  0.000  0.000  0.001 30.874
 
band  12 # energy   20.66875381 # occ.  0.00000000
 
ion      s     py     pz     px    dxy    dyz    dz2    dxz    dx2    tot
  1  0.000  0.012  0.020  0.000  0.000  0.000  0.000  0.000  0.000  0.033
  2 11.851  0.087  0.035  0.217  0.000  0.011  0.002  0.000  0.001 12.204
tot 11.852  0.099  0.055  0.217  0.000  0.011  0.002  0.000  0.001 12.237
 

 k-point    6 :   -0.31250000 0.06250000 0.06250000     weight = 0.01171875

band   1 # energy   -3.48647833 # occ.  1.00000000
 
ion      s     py     pz     px    dxy    dyz    dz2    dxz    dx2    tot
  1  0.367  0.005  0.005  0.005  0.000  0.000  0.000  0.000  0.000  0.383
  2  0.202  0.043  0.043  0.075  0.006  0.005  0.003  0.006  0.009  0.393
tot  0.569  0.049  0.049  0.080  0.006  0.005  0.003  0.006  0.009  0.777
 
band   2 # energy    1.43322947 # occ.  1.00000000
 
ion      s     py     pz     px    dxy    dyz    dz2    dxz    dx2    tot
  1  0.080  0.039  0.039  0.090  0.000  0.000  0.000  0.000  0.000  0.249
  2  0.156  0.029  0.029  0.007  0.106  0.084  0.010  0.106  0.030  0.558
tot  0.237  0.068  0.068  0.097  0.106  0.084  0.010  0.106  0.030  0.806
 
band   3 # energy    3.41217790 # occ.  1.00000000
 
ion      s     py     pz     px    dxy    dyz    dz2    dxz    dx2    tot
  1  0.002  0.056  0.056  0.141  0.000  0.000  0.000  0.000  0.000  0.256
  2  0.000  0.010  0.010  0.006  0.001  0.123  0.119  0.001  0.358  0.627
tot  0.002  0.066  0.066  0.147  0.001  0.123  0.119  0.001  0.358  0.883
 
band   4 # energy    3.67313553 # occ.  1.00000000
 
ion      s     py     pz     px    dxy    dyz    dz2    dxz    dx2    tot
  1  0.000  0.130  0.130  0.000  0.000  0.000  0.000  0.000  0.000  0.260
  2  0.000  0.008  0.008  0.000  0.067  0.000  0.352  0.067  0.117  0.620
tot  0.000  0.138  0.138  0.000  0.067  0.000  0.352  0.067  0.117  0.880
 
band   5 # energy    9.23472723 # occ.  0.00000000
 
ion      s     py     pz     px    dxy    dyz    dz2    dxz    dx2    tot
  1  0.016  0.026  0.026  0.002  0.000  0.000  0.000  0.000  0.000  0.070
  2  0.023  0.002  0.002  0.001  0.026  0.645  0.017  0.026  0.051  0.792
tot  0.038  0.028  0.028  0.003  0.026  0.645  0.017  0.026  0.051  0.862
 
band   6 # energy   10.33994818 # occ.  0.00000000
 
ion      s     py     pz     px    dxy    dyz    dz2    dxz    dx2    tot
  1  0.000  0.012  0.012  0.000  0.000  0.000  0.000  0.000  0.000  0.025
  2  0.000  0.004  0.004  0.000  0.394  0.000  0.095  0.394  0.032  0.923
tot  0.000  0.016  0.016  0.000  0.394  0.000  0.095  0.394  0.032  0.947
 
band   7 # energy   10.69111939 # occ.  0.00000000
 
ion      s     py     pz     px    dxy    dyz    dz2    dxz    dx2    tot
  1  0.031  0.028  0.028  0.035  0.000  0.000  0.000  0.000  0.000  0.124
  2  0.081  0.002  0.002  0.010  0.302  0.000  0.001  0.302  0.003  0.703
tot  0.113  0.031  0.031  0.045  0.302  0.000  0.001  0.302  0.003  0.827
 
band   8 # energy   15.45118876 # occ.  0.00000000
 
ion      s     py     pz     px    dxy    dyz    dz2    dxz    dx2    tot
  1  0.000  0.144  0.144  0.000  0.000  0.000  0.000  0.000  0.000  0.288
  2  0.000  0.047  0.047  0.000  0.016  0.000  0.331  0.016  0.110  0.567
tot  0.000  0.191  0.191  0.000  0.016  0.000  0.331  0.016  0.110  0.855
 
band   9 # energy   15.80569004 # occ.  0.00000000
 
ion      s     py     pz     px    dxy    dyz    dz2    dxz    dx2    tot
  1  0.102  0.072  0.072  0.002  0.000  0.000  0.000  0.000  0.000  0.247
  2  0.004  0.087  0.087  0.056  0.023  0.053  0.025  0.023  0.074  0.431
tot  0.106  0.158  0.158  0.058  0.023  0.053  0.025  0.023  0.074  0.678
 
band  10 # energy   17.00518807 # occ.  0.00000000
 
ion      s     py     pz     px    dxy    dyz    dz2    dxz    dx2    tot
  1  0.002  0.024  0.024  0.252  0.000  0.000  0.000  0.000  0.000  0.302
  2  0.003  0.002  0.002  0.095  0.011  0.002  0.096  0.011  0.289  0.512
tot  0.006  0.026  0.026  0.347  0.011  0.002  0.096  0.011  0.289  0.814
 
band  11 # energy   20.58326606 # occ.  0.00000000
 
ion      s     py     pz     px    dxy    dyz    dz2    dxz    dx2    tot
  1  0.000  0.001  0.001  0.002  0.000  0.000  0.000  0.000  0.000  0.005
  2 42.462  0.000  0.000  0.001  0.000  0.000  0.000  0.000  0.000 42.464
tot 42.462  0.001  0.001  0.003  0.000  0.000  0.000  0.000  0.000 42.469
 
band  12 # energy   21.45891881 # occ.  0.00000000
 
ion      s     py     pz     px    dxy    dyz    dz2    dxz    dx2    tot
  1  0.030  0.055  0.055  0.123  0.000  0.000  0.000  0.000  0.000  0.265
  2  1.845  0.000  0.000  0.032  0.039  0.038  0.006  0.039  0.017  2.016
tot  1.875  0.056  0.056  0.155  0.039  0.038  0.006  0.039  0.017  2.280
 

 k-point    7 :   -0.18750000 0.06250000 0.06250000     weight = 0.01171875

band   1 # energy   -4.91688685 # occ.  1.00000000
 
ion      s     py     pz     px    dxy    dyz    dz2    dxz    dx2    tot
  1  0.333  0.002  0.002  0.004  0.000  0.000  0.000  0.000  0.000  0.342
  2  0.330  0.018  0.018  0.047  0.002  0.001  0.001  0.002  0.003  0.420
tot  0.663  0.020  0.020  0.051  0.002  0.001  0.001  0.002  0.003  0.763
 
band   2 # energy    3.41304440 # occ.  1.00000000
 
ion      s     py     pz     px    dxy    dyz    dz2    dxz    dx2    tot
  1  0.057  0.022  0.022  0.165  0.000  0.000  0.000  0.000  0.000  0.267
  2  0.068  0.018  0.018  0.011  0.108  0.055  0.037  0.108  0.112  0.535
tot  0.125  0.040  0.040  0.176  0.108  0.055  0.037  0.108  0.112  0.802
 
band   3 # energy    4.44486140 # occ.  1.00000000
 
ion      s     py     pz     px    dxy    dyz    dz2    dxz    dx2    tot
  1  0.003  0.077  0.077  0.086  0.000  0.000  0.000  0.000  0.000  0.242
  2  0.001  0.019  0.019  0.001  0.012  0.199  0.085  0.012  0.254  0.603
tot  0.004  0.096  0.096  0.087  0.012  0.199  0.085  0.012  0.254  0.845
 
band   4 # energy    4.82779949 # occ.  1.00000000
 
ion      s     py     pz     px    dxy    dyz    dz2    dxz    dx2    tot
  1  0.000  0.131  0.131  0.000  0.000  0.000  0.000  0.000  0.000  0.263
  2  0.000  0.018  0.018  0.000  0.095  0.000  0.265  0.095  0.088  0.578
tot  0.000  0.149  0.149  0.000  0.095  0.000  0.265  0.095  0.088  0.841
 
band   5 # energy    7.95497114 # occ.  1.00000000
 
ion      s     py     pz     px    dxy    dyz    dz2    dxz    dx2    tot
  1  0.008  0.025  0.025  0.002  0.000  0.000  0.000  0.000  0.000  0.059
  2  0.007  0.000  0.000  0.003  0.065  0.614  0.016  0.065  0.047  0.817
tot  0.015  0.025  0.025  0.005  0.065  0.614  0.016  0.065  0.047  0.877
 
band   6 # energy    9.03779448 # occ.  0.00000000
 
ion      s     py     pz     px    dxy    dyz    dz2    dxz    dx2    tot
  1  0.000  0.014  0.014  0.000  0.000  0.000  0.000  0.000  0.000  0.027
  2  0.000  0.003  0.003  0.000  0.342  0.000  0.153  0.342  0.051  0.895
tot  0.000  0.017  0.017  0.000  0.342  0.000  0.153  0.342  0.051  0.922
 
band   7 # energy    9.58685400 # occ.  0.00000000
 
ion      s     py     pz     px    dxy    dyz    dz2    dxz    dx2    tot
  1  0.047  0.058  0.058  0.025  0.000  0.000  0.000  0.000  0.000  0.189
  2  0.063  0.000  0.000  0.001  0.255  0.008  0.000  0.255  0.000  0.583
tot  0.110  0.059  0.059  0.026  0.255  0.008  0.000  0.255  0.000  0.773
 
band   8 # energy   12.75792003 # occ.  0.00000000
 
ion      s     py     pz     px    dxy    dyz    dz2    dxz    dx2    tot
  1  0.000  0.131  0.131  0.000  0.000  0.000  0.000  0.000  0.000  0.262
  2  0.000  0.034  0.034  0.000  0.025  0.000  0.327  0.025  0.109  0.555
tot  0.000  0.165  0.165  0.000  0.025  0.000  0.327  0.025  0.109  0.816
 
band   9 # energy   14.02558528 # occ.  0.00000000
 
ion      s     py     pz     px    dxy    dyz    dz2    dxz    dx2    tot
  1  0.041  0.066  0.066  0.107  0.000  0.000  0.000  0.000  0.000  0.280
  2  0.027  0.019  0.019  0.025  0.000  0.006  0.108  0.000  0.325  0.529
tot  0.068  0.085  0.085  0.132  0.000  0.006  0.108  0.000  0.325  0.809
 
band  10 # energy   16.81764369 # occ.  0.00000000
 
ion      s     py     pz     px    dxy    dyz    dz2    dxz    dx2    tot
  1  0.184  0.027  0.027  0.194  0.000  0.000  0.000  0.000  0.000  0.433
  2  0.098  0.023  0.023  0.084  0.010  0.004  0.008  0.010  0.024  0.285
tot  0.282  0.050  0.050  0.278  0.010  0.004  0.008  0.010  0.024  0.717
 
band  11 # energy   20.59314849 # occ.  0.00000000
 
ion      s     py     pz     px    dxy    dyz    dz2    dxz    dx2    tot
  1  0.000  0.000  0.000  0.000  0.000  0.000  0.000  0.000  0.000  0.000
  2 43.346  0.000  0.000  0.000  0.000  0.001  0.000  0.000  0.000 43.349
tot 43.346  0.000  0.000  0.000  0.000  0.001  0.000  0.000  0.000 43.349
 
band  12 # energy   21.06169342 # occ.  0.00000000
 
ion      s     py     pz     px    dxy    dyz    dz2    dxz    dx2    tot
  1  0.007  0.001  0.001  0.005  0.000  0.000  0.000  0.000  0.000  0.015