<?xml version="1.0" encoding="ISO-8859-1"?>
<modeling>
 <generator>
  <i name="program" type="string">vasp </i>
  <i name="version" type="string">5.2.12  </i>
  <i name="subversion" type="string">11Nov11 complex                                                      parallel </i>
  <i name="platform" type="string">LinuxIFC </i>
  <i name="date" type="string">2012 10 17 </i>
  <i name="time" type="string">12:38:11 </i>
 </generator>
 <incar>
  <i type="int" name="ISTART">     0</i>
  <i type="string" name="PREC">accurate</i>
  <i type="int" name="ISPIN">     2</i>
  <i name="ENCUT">    450.00000000</i>
  <i type="int" name="NBANDS">    12</i>
  <v name="MAGMOM">      2.00000000      6.00000000</v>
  <i type="logical" name="LREAL"> F  </i>
  <i type="int" name="ISMEAR">     1</i>
  <i name="SIGMA">      0.05000000</i>
  <i type="logical" name="LORBIT"> F  </i>
 </incar>
 <kpoints>
  <generation param="Monkhorst-Pack">
   <v type="int" name="divisions">       8        8        8 </v>
   <v name="usershift">      0.00000000       0.00000000       0.00000000 </v>
   <v name="genvec1">      0.12500000       0.00000000       0.00000000 </v>
   <v name="genvec2">      0.00000000       0.12500000       0.00000000 </v>
   <v name="genvec3">      0.00000000       0.00000000       0.12500000 </v>
   <v name="shift">      0.50000000       0.50000000       0.50000000 </v>
  </generation>
  <varray name="kpointlist" >
   <v>       0.06250000       0.06250000       0.06250000 </v>
   <v>       0.18750000       0.06250000       0.06250000 </v>
   <v>       0.31250000       0.06250000       0.06250000 </v>
   <v>       0.43750000       0.06250000       0.06250000 </v>
   <v>      -0.43750000       0.06250000       0.06250000 </v>
   <v>      -0.31250000       0.06250000       0.06250000 </v>
   <v>      -0.18750000       0.06250000       0.06250000 </v>
   <v>      -0.06250000       0.06250000       0.06250000 </v>
   <v>       0.18750000       0.18750000       0.06250000 </v>
   <v>       0.31250000       0.18750000       0.06250000 </v>
   <v>       0.43750000       0.18750000       0.06250000 </v>
   <v>      -0.43750000       0.18750000       0.06250000 </v>
   <v>      -0.31250000       0.18750000       0.06250000 </v>
   <v>      -0.18750000       0.18750000       0.06250000 </v>
   <v>      -0.06250000       0.18750000       0.06250000 </v>
   <v>       0.31250000       0.31250000       0.06250000 </v>
   <v>       0.43750000       0.31250000       0.06250000 </v>
   <v>      -0.43750000       0.31250000       0.06250000 </v>
   <v>      -0.31250000       0.31250000       0.06250000 </v>
   <v>      -0.18750000       0.31250000       0.06250000 </v>
   <v>      -0.06250000       0.31250000       0.06250000 </v>
   <v>       0.43750000       0.43750000       0.06250000 </v>
   <v>      -0.43750000       0.43750000       0.06250000 </v>
   <v>      -0.31250000       0.43750000       0.06250000 </v>
   <v>      -0.18750000       0.43750000       0.06250000 </v>
   <v>      -0.06250000       0.43750000       0.06250000 </v>
   <v>      -0.43750000      -0.43750000       0.06250000 </v>
   <v>      -0.31250000      -0.43750000       0.06250000 </v>
   <v>      -0.18750000      -0.43750000       0.06250000 </v>
   <v>      -0.31250000      -0.31250000       0.06250000 </v>
   <v>      -0.18750000      -0.31250000       0.06250000 </v>
   <v>      -0.18750000      -0.18750000       0.06250000 </v>
   <v>       0.18750000       0.18750000       0.18750000 </v>
   <v>       0.31250000       0.18750000       0.18750000 </v>
   <v>       0.43750000       0.18750000       0.18750000 </v>
   <v>      -0.43750000       0.18750000       0.18750000 </v>
   <v>      -0.31250000       0.18750000       0.18750000 </v>
   <v>      -0.18750000       0.18750000       0.18750000 </v>
   <v>       0.31250000       0.31250000       0.18750000 </v>
   <v>       0.43750000       0.31250000       0.18750000 </v>
   <v>      -0.43750000       0.31250000       0.18750000 </v>
   <v>      -0.31250000       0.31250000       0.18750000 </v>
   <v>      -0.18750000       0.31250000       0.18750000 </v>
   <v>       0.43750000       0.43750000       0.18750000 </v>
   <v>      -0.43750000       0.43750000       0.18750000 </v>
   <v>      -0.31250000       0.43750000       0.18750000 </v>
   <v>      -0.18750000       0.43750000       0.18750000 </v>
   <v>      -0.43750000      -0.43750000       0.18750000 </v>
   <v>      -0.31250000      -0.43750000       0.18750000 </v>
   <v>      -0.31250000      -0.31250000       0.18750000 </v>
   <v>       0.31250000       0.31250000       0.31250000 </v>
   <v>       0.43750000       0.31250000       0.31250000 </v>
   <v>      -0.43750000       0.31250000       0.31250000 </v>
   <v>      -0.31250000       0.31250000       0.31250000 </v>
   <v>       0.43750000       0.43750000       0.31250000 </v>
   <v>      -0.43750000       0.43750000       0.31250000 </v>
   <v>      -0.31250000       0.43750000       0.31250000 </v>
   <v>      -0.43750000      -0.43750000       0.31250000 </v>
   <v>       0.43750000       0.43750000       0.43750000 </v>
   <v>      -0.43750000       0.43750000       0.43750000 </v>
  </varray>
  <varray name="weights" >
   <v>       0.00390625 </v>
   <v>       0.01171875 </v>
   <v>       0.01171875 </v>
   <v>       0.01171875 </v>
   <v>       0.01171875 </v>
   <v>       0.01171875 </v>
   <v>       0.01171875 </v>
   <v>       0.01171875 </v>
   <v>       0.01171875 </v>
   <v>       0.02343750 </v>
   <v>       0.02343750 </v>
   <v>       0.02343750 </v>
   <v>       0.02343750 </v>
   <v>       0.02343750 </v>
   <v>       0.02343750 </v>
   <v>       0.01171875 </v>
   <v>       0.02343750 </v>
   <v>       0.02343750 </v>
   <v>       0.02343750 </v>
   <v>       0.02343750 </v>
   <v>       0.02343750 </v>
   <v>       0.01171875 </v>
   <v>       0.02343750 </v>
   <v>       0.02343750 </v>
   <v>       0.02343750 </v>
   <v>       0.02343750 </v>
   <v>       0.01171875 </v>
   <v>       0.02343750 </v>
   <v>       0.02343750 </v>
   <v>       0.01171875 </v>
   <v>       0.02343750 </v>
   <v>       0.01171875 </v>
   <v>       0.00390625 </v>
   <v>       0.01171875 </v>
   <v>       0.01171875 </v>
   <v>       0.01171875 </v>
   <v>       0.01171875 </v>
   <v>       0.01171875 </v>
   <v>       0.01171875 </v>
   <v>       0.02343750 </v>
   <v>       0.02343750 </v>
   <v>       0.02343750 </v>
   <v>       0.02343750 </v>
   <v>       0.01171875 </v>
   <v>       0.02343750 </v>
   <v>       0.02343750 </v>
   <v>       0.02343750 </v>
   <v>       0.01171875 </v>
   <v>       0.02343750 </v>
   <v>       0.01171875 </v>
   <v>       0.00390625 </v>
   <v>       0.01171875 </v>
   <v>       0.01171875 </v>
   <v>       0.01171875 </v>
   <v>       0.01171875 </v>
   <v>       0.02343750 </v>
   <v>       0.02343750 </v>
   <v>       0.01171875 </v>
   <v>       0.00390625 </v>
   <v>       0.01171875 </v>
  </varray>
 </kpoints>
 <parameters>
  <separator name="general" >
   <i type="string" name="SYSTEM">unknown system</i>
   <i type="logical" name="LCOMPAT"> F  </i>
  </separator>
  <separator name="electronic" >
   <i type="string" name="PREC">accura</i>
   <i name="ENMAX">    450.00000000</i>
   <i name="ENAUG">    644.87300000</i>
   <i name="EDIFF">      0.00010000</i>
   <i type="int" name="IALGO">    38</i>
   <i type="int" name="IWAVPR">    10</i>
   <i type="int" name="NBANDS">    12</i>
   <i name="NELECT">      9.00000000</i>
   <i type="int" name="TURBO">     0</i>
   <i type="int" name="IRESTART">     0</i>
   <i type="int" name="NREBOOT">     0</i>
   <i type="int" name="NMIN">     0</i>
   <i name="EREF">      0.00000000</i>
   <separator name="electronic smearing" >
    <i type="int" name="ISMEAR">     1</i>
    <i name="SIGMA">      0.05000000</i>
    <i name="KSPACING">      0.50000000</i>
    <i type="logical" name="KGAMMA"> T  </i>
   </separator>
   <separator name="electronic projectors" >
    <i type="logical" name="LREAL"> F  </i>
    <v name="ROPT">      0.00000000      0.00000000</v>
    <i type="int" name="LMAXPAW">  -100</i>
    <i type="int" name="LMAXMIX">     2</i>
    <i type="logical" name="NLSPLINE"> F  </i>
   </separator>
   <separator name="electronic startup" >
    <i type="int" name="ISTART">     0</i>
    <i type="int" name="ICHARG">     2</i>
    <i type="int" name="INIWAV">     1</i>
   </separator>
   <separator name="electronic spin" >
    <i type="int" name="ISPIN">     2</i>
    <i type="logical" name="LNONCOLLINEAR"> F  </i>
    <v name="MAGMOM">      2.00000000      6.00000000</v>
    <i name="NUPDOWN">     -1.00000000</i>
    <i type="logical" name="LSORBIT"> F  </i>
    <v name="SAXIS">      0.00000000      0.00000000      1.00000000</v>
    <i type="logical" name="LSPIRAL"> F  </i>
    <v name="QSPIRAL">      0.00000000      0.00000000      0.00000000</v>
    <i type="logical" name="LZEROZ"> F  </i>
   </separator>
   <separator name="electronic exchange-correlation" >
    <i type="logical" name="LASPH"> F  </i>
    <i type="logical" name="LMETAGGA"> F  </i>
   </separator>
   <separator name="electronic convergence" >
    <i type="int" name="NELM">    60</i>
    <i type="int" name="NELMDL">    -5</i>
    <i type="int" name="NELMIN">     2</i>
    <i name="ENINI">    450.00000000</i>
    <separator name="electronic convergence detail" >
     <i type="logical" name="LDIAG"> T  </i>
     <i type="logical" name="LSUBROT"> T  </i>
     <i name="WEIMIN">      0.00000000</i>
     <i name="EBREAK">      0.00000208</i>
     <i name="DEPER">      0.30000000</i>
     <i type="int" name="NRMM">     4</i>
     <i name="TIME">      0.40000000</i>
    </separator>
   </separator>
   <separator name="electronic mixer" >
    <i name="AMIX">      0.40000000</i>
    <i name="BMIX">      1.00000000</i>
    <i name="AMIN">      0.10000000</i>
    <i name="AMIX_MAG">      1.60000000</i>
    <i name="BMIX_MAG">      1.00000000</i>
    <separator name="electronic mixer details" >
     <i type="int" name="IMIX">     4</i>
     <i type="int" name="MAXMIX">   -45</i>
     <i name="WC">    100.00000000</i>
     <i type="int" name="INIMIX">     1</i>
     <i type="int" name="MIXPRE">     1</i>
     <i type="int" name="MREMOVE">     5</i>
    </separator>
   </separator>
   <separator name="electronic dipolcorrection" >
    <i type="logical" name="LDIPOL"> F  </i>
    <i type="logical" name="LMONO"> F  </i>
    <i type="int" name="IDIPOL">     0</i>
    <i name="EPSILON">      1.00000000</i>
    <v name="DIPOL">   -100.00000000   -100.00000000   -100.00000000</v>
    <i name="EFIELD">      0.00000000</i>
   </separator>
  </separator>
  <separator name="grids" >
   <i type="int" name="NGX">    24</i>
   <i type="int" name="NGY">    24</i>
   <i type="int" name="NGZ">    24</i>
   <i type="int" name="NGXF">    48</i>
   <i type="int" name="NGYF">    48</i>
   <i type="int" name="NGZF">    48</i>
   <i type="logical" name="ADDGRID"> F  </i>
  </separator>
  <separator name="ionic" >
   <i type="int" name="NSW">     0</i>
   <i type="int" name="IBRION">    -1</i>
   <i type="int" name="ISIF">     2</i>
   <i name="PSTRESS">      0.00000000</i>
   <i name="EDIFFG">      0.00100000</i>
   <i type="int" name="NFREE">     0</i>
   <i name="POTIM">      0.50000000</i>
   <i name="SMASS">     -3.00000000</i>
   <i name="SCALEE">      1.00000000</i>
  </separator>
  <separator name="ionic md" >
   <i name="TEBEG">      0.00010000</i>
   <i name="TEEND">      0.00010000</i>
   <i type="int" name="NBLOCK">     1</i>
   <i type="int" name="KBLOCK">     1</i>
   <i type="int" name="NPACO">   256</i>
   <i name="APACO">     16.00000000</i>
  </separator>
  <separator name="symmetry" >
   <i type="int" name="ISYM">     2</i>
   <i name="SYMPREC">      0.00001000</i>
  </separator>
  <separator name="dos" >
   <i type="logical" name="LORBIT"> F  </i>
   <v name="RWIGS">     -1.00000000     -1.00000000</v>
   <i type="int" name="NEDOS">   301</i>
   <i name="EMIN">     10.00000000</i>
   <i name="EMAX">    -10.00000000</i>
   <i name="EFERMI">      0.00000000</i>
  </separator>
  <separator name="writing" >
   <i type="int" name="NWRITE">     2</i>
   <i type="logical" name="LWAVE"> T  </i>
   <i type="logical" name="LCHARG"> T  </i>
   <i type="logical" name="LPARD"> F  </i>
   <i type="logical" name="LVTOT"> F  </i>
   <i type="logical" name="LVHAR"> F  </i>
   <i type="logical" name="LELF"> F  </i>
   <i type="logical" name="LOPTICS"> F  </i>
   <v name="STM">      0.00000000      0.00000000      0.00000000      0.00000000      0.00000000      0.00000000      0.00000000</v>
  </separator>
  <separator name="performance" >
   <i type="int" name="NPAR">     1</i>
   <i type="int" name="NSIM">     4</i>
   <i type="int" name="NBLK">    -1</i>
   <i type="logical" name="LPLANE"> T  </i>
   <i type="logical" name="LSCALAPACK"> F  </i>
   <i type="logical" name="LSCAAWARE"> F  </i>
   <i type="logical" name="LSCALU"> F  </i>
   <i type="logical" name="LASYNC"> F  </i>
   <i type="logical" name="LORBITALREAL"> F  </i>
  </separator>
  <separator name="miscellaneous" >
   <i type="int" name="IDIOT">     3</i>
   <i type="logical" name="LMUSIC"> F  </i>
   <v name="POMASS">     12.01100000    180.94800000</v>
   <v name="DARWINR">      0.00000000      0.00000000</v>
   <v name="DARWINV">      1.00000000      1.00000000</v>
   <i type="logical" name="LCORR"> T  </i>
  </separator>
  <i type="logical" name="GGA_COMPAT"> T  </i>
  <i type="logical" name="LBERRY"> F  </i>
  <i type="int" name="ICORELEVEL">     0</i>
  <i type="logical" name="LDAU"> F  </i>
  <i type="int" name="I_CONSTRAINED_M">     0</i>
  <separator name="electronic exchange-correlation" >
   <i type="string" name="GGA">--</i>
   <i type="int" name="VOSKOWN">     0</i>
   <i type="logical" name="LHFCALC"> F  </i>
   <i type="string" name="PRECFOCK"></i>
   <i type="logical" name="LHFONE"> F  </i>
   <i type="logical" name="LRHFCALC"> F  </i>
   <i type="logical" name="LTHOMAS"> F  </i>
   <i type="logical" name="LMODELHF"> F  </i>
   <i name="ENCUT4O">     -1.00000000</i>
   <i type="int" name="EXXOEP">     0</i>
   <i type="int" name="FOURORBIT">     0</i>
   <i name="AEXX">      0.00000000</i>
   <i name="HFALPHA">      0.00000000</i>
   <i name="ALDAX">      1.00000000</i>
   <i name="AGGAX">      1.00000000</i>
   <i name="ALDAC">      1.00000000</i>
   <i name="AGGAC">      1.00000000</i>
   <i type="int" name="NKREDX">     1</i>
   <i type="int" name="NKREDY">     1</i>
   <i type="int" name="NKREDZ">     1</i>
   <i type="logical" name="SHIFTRED"> F  </i>
   <i type="logical" name="ODDONLY"> F  </i>
   <i type="logical" name="EVENONLY"> F  </i>
   <i type="int" name="LMAXFOCK">     0</i>
   <i type="int" name="NMAXFOCKAE">     0</i>
   <i type="logical" name="LFOCKAEDFT"> F  </i>
   <i name="HFSCREEN">      0.00000000</i>
   <i name="HFSCREENC">      0.00000000</i>
  </separator>
  <separator name="vdW DFT" >
   <i type="logical" name="LUSE_VDW"> F  </i>
   <i name="Zab_VDW">     -0.84910000</i>
   <i name="PARAM1">      0.12340000</i>
   <i name="PARAM2">      1.00000000</i>
   <i name="PARAM3">      0.00000000</i>
  </separator>
  <separator name="model GW" >
   <i type="int" name="MODEL_GW">     0</i>
   <i name="MODEL_EPS0">      6.81161905</i>
   <i name="MODEL_ALPHA">      1.00000000</i>
  </separator>
  <separator name="linear response parameters" >
   <i type="logical" name="LEPSILON"> F  </i>
   <i type="logical" name="LRPA"> F  </i>
   <i type="logical" name="LNABLA"> F  </i>
   <i type="logical" name="LVEL"> F  </i>
   <i type="int" name="KINTER">     0</i>
   <i name="CSHIFT">      0.10000000</i>
   <i name="OMEGAMAX">     -1.00000000</i>
  </separator>
  <separator name="orbital magnetization" >
   <i type="logical" name="NUCIND"> F  </i>
   <v name="MAGPOS">      0.00000000      0.00000000      0.00000000</v>
   <i type="logical" name="LNICSALL"> T  </i>
   <i type="logical" name="ORBITALMAG"> F  </i>
   <i type="logical" name="LMAGBLOCH"> F  </i>
   <i type="logical" name="LCHIMAG"> F  </i>
   <i type="logical" name="LGAUGE"> T  </i>
   <i type="int" name="MAGATOM">     0</i>
   <v name="MAGDIPOL">      0.00000000      0.00000000      0.00000000</v>
   <v name="AVECCONST">      0.00000000      0.00000000      0.00000000</v>
  </separator>
  <separator name="response functions" >
   <i type="logical" name="LADDER"> F  </i>
   <i type="logical" name="LHARTREE"> T  </i>
   <i type="int" name="IBSE">     0</i>
   <i type="logical" name="LTCTE"> F  </i>
   <i type="logical" name="LTETE"> F  </i>
   <i type="logical" name="LFXCEPS"> F  </i>
   <i type="logical" name="L2ORDER"> F  </i>
   <i type="logical" name="LUSEW"> F  </i>
   <i name="ENCUTGW">     -2.00000000</i>
   <i name="ENCUTGWSOFT">     -2.00000000</i>
   <i name="ENCUTLF">     -1.00000000</i>
   <i type="int" name="LMAXMP2">    -1</i>
   <i name="SCISSOR">      0.00000000</i>
   <i type="int" name="NOMEGA">     0</i>
   <i type="int" name="NOMEGAR">     0</i>
   <i type="int" name="NBANDSGW">    -1</i>
   <i type="int" name="NBANDSO">    -1</i>
   <i type="int" name="NBANDSV">    -1</i>
   <i name="OPTEMAX">      0.00000000</i>
   <i type="int" name="NELM">     1</i>
   <i type="int" name="DIM">     3</i>
   <i type="int" name="ANTIRES">     0</i>
   <i name="OMEGAMAX">    -30.00000000</i>
   <i name="OMEGATL">   -200.00000000</i>
   <i type="int" name="OMEGAGRID">     0</i>
   <i name="CSHIFT">     -0.10000000</i>
   <i type="logical" name="SELFENERGY"> F  </i>
   <i type="logical" name="LSPECTRAL"> F  </i>
   <i type="logical" name="ODDONLYGW"> F  </i>
   <i type="logical" name="EVENONLYGW"> F  </i>
   <i type="int" name="NKREDLFX">     1</i>
   <i type="int" name="NKREDLFY">     1</i>
   <i type="int" name="NKREDLFZ">     1</i>
   <i type="int" name="MAXMEM">  1800</i>
   <i type="int" name="TELESCOPE">     0</i>
  </separator>
 </parameters>
 <atominfo>
  <atoms>       2 </atoms>
  <types>       2 </types>
  <array name="atoms" >
   <dimension dim="1">ion</dimension>
   <field type="string">element</field>
   <field type="int">atomtype</field>
   <set>
    <rc><c>C </c><c>   1</c></rc>
    <rc><c>Ta</c><c>   2</c></rc>
   </set>
  </array>
  <array name="atomtypes" >
   <dimension dim="1">type</dimension>
   <field type="int">atomspertype</field>
   <field type="string">element</field>
   <field>mass</field>
   <field>valence</field>
   <field type="string">pseudopotential</field>
   <set>
    <rc><c>   1</c><c>C </c><c>     12.01100000</c><c>      4.00000000</c><c> PAW_PBE C 08Apr2002                    </c></rc>
    <rc><c>   1</c><c>Ta</c><c>    180.94800000</c><c>      5.00000000</c><c>  PAW_PBE Ta 17Jan2003                  </c></rc>
   </set>
  </array>
 </atominfo>
 <structure name="initialpos" >
  <crystal>
   <varray name="basis" >
    <v>       0.00000000       2.24750000       2.24750000 </v>
    <v>       2.24750000       0.00000000       2.24750000 </v>
    <v>       2.24750000       2.24750000       0.00000000 </v>
   </varray>
   <i name="volume">     22.70539684 </i>
   <varray name="rec_basis" >
    <v>      -0.22246941       0.22246941       0.22246941 </v>
    <v>       0.22246941      -0.22246941       0.22246941 </v>
    <v>       0.22246941       0.22246941      -0.22246941 </v>
   </varray>
  </crystal>
  <varray name="positions" >
   <v>       0.50000000       0.50000000       0.50000000 </v>
   <v>       0.00000000       0.00000000       0.00000000 </v>
  </varray>
 </structure>
 <calculation>
  <scstep>
   <time name="dav">    6.71    6.71</time>
   <time name="total">    7.17    7.17</time>
   <energy>
    <i name="alphaZ">     52.03680152 </i>
    <i name="ewald">   -370.91651301 </i>
    <i name="hartreedc">    -15.96286574 </i>
    <i name="XCdc">    -48.29936441 </i>
    <i name="pawpsdc">    180.96821906 </i>
    <i name="pawaedc">   -107.89329025 </i>
    <i name="eentropy">     -0.00028657 </i>
    <i name="bandstr">     43.15944809 </i>
    <i name="atom">    277.79342126 </i>
    <i name="e_fr_energy">     10.88556993 </i>
    <i name="e_wo_entrp">     10.88585651 </i>
    <i name="e_0_energy">     10.88566546 </i>
   </energy>
  </scstep>
  <scstep>
   <time name="dav">    9.08    9.08</time>
   <time name="total">    9.09    9.10</time>
   <energy>
    <i name="e_fr_energy">    -18.18627991 </i>
    <i name="e_wo_entrp">    -18.18625534 </i>
    <i name="e_0_energy">    -18.18627172 </i>
   </energy>
  </scstep>
  <scstep>
   <time name="dav">    8.54    8.54</time>
   <time name="total">    8.55    8.56</time>
   <energy>
    <i name="e_fr_energy">    -19.11579159 </i>
    <i name="e_wo_entrp">    -19.11582778 </i>
    <i name="e_0_energy">    -19.11580365 </i>
   </energy>
  </scstep>
  <scstep>
   <time name="dav">    7.79    7.79</time>
   <time name="total">    7.80    7.81</time>
   <energy>
    <i name="e_fr_energy">    -19.11915642 </i>
    <i name="e_wo_entrp">    -19.11919278 </i>
    <i name="e_0_energy">    -19.11916854 </i>
   </energy>
  </scstep>
  <scstep>
   <time name="dav">    8.91    8.91</time>
   <time name="total">    9.43    9.45</time>
   <energy>
    <i name="e_fr_energy">    -19.11916838 </i>
    <i name="e_wo_entrp">    -19.11920475 </i>
    <i name="e_0_energy">    -19.11918050 </i>
   </energy>
  </scstep>
  <scstep>
   <time name="dav">    8.23    8.23</time>
   <time name="total">    9.32    9.34</time>
   <energy>
    <i name="e_fr_energy">    -22.11324541 </i>
    <i name="e_wo_entrp">    -22.11313513 </i>
    <i name="e_0_energy">    -22.11320865 </i>
   </energy>
  </scstep>
  <scstep>
   <time name="dav">    8.66    8.67</time>
   <time name="total">    9.74    9.75</time>
   <energy>
    <i name="e_fr_energy">    -22.31720547 </i>
    <i name="e_wo_entrp">    -22.31750399 </i>
    <i name="e_0_energy">    -22.31730498 </i>
   </energy>
  </scstep>
  <scstep>
   <time name="dav">    8.42    8.43</time>
   <time name="total">    9.50    9.51</time>
   <energy>
    <i name="e_fr_energy">    -22.25591833 </i>
    <i name="e_wo_entrp">    -22.25620307 </i>
    <i name="e_0_energy">    -22.25601324 </i>
   </energy>
  </scstep>
  <scstep>
   <time name="dav">    7.87    7.88</time>
   <time name="total">    8.93    8.96</time>
   <energy>
    <i name="e_fr_energy">    -22.24946725 </i>
    <i name="e_wo_entrp">    -22.24972941 </i>
    <i name="e_0_energy">    -22.24955464 </i>
   </energy>
  </scstep>
  <scstep>
   <time name="dav">    7.28    7.29</time>
   <time name="total">    8.30    8.32</time>
   <energy>
    <i name="e_fr_energy">    -22.24731267 </i>
    <i name="e_wo_entrp">    -22.24759800 </i>
    <i name="e_0_energy">    -22.24740778 </i>
   </energy>
  </scstep>
  <scstep>
   <time name="dav">    6.66    6.66</time>
   <time name="total">    7.67    7.69</time>
   <energy>
    <i name="e_fr_energy">    -22.24714771 </i>
    <i name="e_wo_entrp">    -22.24743363 </i>
    <i name="e_0_energy">    -22.24724302 </i>
   </energy>
  </scstep>
  <scstep>
   <time name="dav">    5.16    5.17</time>
   <time name="total">    5.70    5.72</time>
   <energy>
    <i name="alphaZ">     52.03680152 </i>
    <i name="ewald">   -370.91651301 </i>
    <i name="hartreedc">    -22.60180092 </i>
    <i name="XCdc">    -51.24707028 </i>
    <i name="pawpsdc">    261.89479224 </i>
    <i name="pawaedc">   -189.87631646 </i>
    <i name="eentropy">      0.00028007 </i>
    <i name="bandstr">     20.66929611 </i>
    <i name="atom">    277.79342126 </i>
    <i name="e_fr_energy">    -22.24710947 </i>
    <i name="e_wo_entrp">    -22.24738954 </i>
    <i name="e_0_energy">    -22.24720282 </i>
   </energy>
  </scstep>
  <parameters_embedded>
   <separator name="dft+d2" >
    <i type="logical" name="LVDW"> F  </i>
   </separator>
  </parameters_embedded>
  <structure>
   <crystal>
    <varray name="basis" >
     <v>       0.00000000       2.24750000       2.24750000 </v>
     <v>       2.24750000       0.00000000       2.24750000 </v>
     <v>       2.24750000       2.24750000       0.00000000 </v>
    </varray>
    <i name="volume">     22.70539684 </i>
    <varray name="rec_basis" >
     <v>      -0.22246941       0.22246941       0.22246941 </v>
     <v>       0.22246941      -0.22246941       0.22246941 </v>
     <v>       0.22246941       0.22246941      -0.22246941 </v>
    </varray>
   </crystal>
   <varray name="positions" >
    <v>       0.50000000       0.50000000       0.50000000 </v>
    <v>       0.00000000       0.00000000       0.00000000 </v>
   </varray>
  </structure>
  <varray name="forces" >
   <v>       0.00000000       0.00000000       0.00000000 </v>
   <v>       0.00000000       0.00000000       0.00000000 </v>
  </varray>
  <varray name="stress" >
   <v>     -45.10978158       0.00000000       0.00000000 </v>
   <v>       0.00000000     -45.10978158       0.00000000 </v>
   <v>       0.00000000       0.00000000     -45.10978158 </v>
  </varray>
  <energy>
   <i name="e_fr_energy">    -22.24710947 </i>
   <i name="e_wo_entrp">    -22.24720282 </i>
   <i name="e_0_energy">      0.00028007 </i>
  </energy>
  <time name="totalsc">  105.35  105.73</time>
  <eigenvalues>
   <array>
    <dimension dim="1">band</dimension>
    <dimension dim="2">kpoint</dimension>
    <dimension dim="3">spin</dimension>
    <field>eigene</field>
    <field>occ</field>
    <set>
     <set comment="spin 1">
      <set comment="kpoint 1">
       <r>   -6.1500    1.0000 </r>
       <r>    6.4737    1.0000 </r>
       <r>    6.8100    1.0000 </r>
       <r>    6.8100    1.0000 </r>
       <r>    7.5394    1.0000 </r>
       <r>    7.5394    1.0000 </r>
       <r>    8.2565   -0.0351 </r>
       <r>    9.7894    0.0000 </r>
       <r>    9.7894    0.0000 </r>
       <r>   14.8583    0.0000 </r>
       <r>   18.6572    0.0000 </r>
       <r>   20.5970    0.0000 </r>
      </set>
      <set comment="kpoint 2">
       <r>   -5.6322    1.0000 </r>
       <r>    4.9383    1.0000 </r>
       <r>    5.4019    1.0000 </r>
       <r>    5.5641    1.0000 </r>
       <r>    7.5167    1.0000 </r>
       <r>    8.4112    0.0000 </r>
       <r>    9.0495    0.0000 </r>
       <r>   10.8662    0.0000 </r>
       <r>   12.3813    0.0000 </r>
       <r>   15.8599    0.0000 </r>
       <r>   19.9177    0.0000 </r>
       <r>   20.5975    0.0000 </r>
      </set>
      <set comment="kpoint 3">
       <r>   -4.4658    1.0000 </r>
       <r>    2.7673    1.0000 </r>
       <r>    3.9979    1.0000 </r>
       <r>    4.2931    1.0000 </r>
       <r>    8.6323    0.0000 </r>
       <r>    9.1966    0.0000 </r>
       <r>    9.9511    0.0000 </r>
       <r>   13.5235    0.0000 </r>
       <r>   15.2185    0.0000 </r>
       <r>   16.8424    0.0000 </r>
       <r>   20.5890    0.0000 </r>
       <r>   21.2630    0.0000 </r>
      </set>
      <set comment="kpoint 4">
       <r>   -2.9716    1.0000 </r>
       <r>    0.8256    1.0000 </r>
       <r>    3.2250    1.0000 </r>
       <r>    3.3850    1.0000 </r>
       <r>   10.0892    0.0000 </r>
       <r>   10.2861    0.0000 </r>
       <r>   11.1968    0.0000 </r>
       <r>   15.2327    0.0000 </r>
       <r>   16.2303    0.0000 </r>
       <r>   17.5145    0.0000 </r>
       <r>   20.5860    0.0000 </r>
       <r>   21.5744    0.0000 </r>
      </set>
      <set comment="kpoint 5">
       <r>   -2.2149    1.0000 </r>
       <r>   -0.0181    1.0000 </r>
       <r>    3.0685    1.0000 </r>
       <r>    3.1187    1.0000 </r>
       <r>   10.5885    0.0000 </r>
       <r>   10.9755    0.0000 </r>
       <r>   11.7939    0.0000 </r>
       <r>   14.1093    0.0000 </r>
       <r>   17.5489    0.0000 </r>
       <r>   17.8959    0.0000 </r>
       <r>   20.5692    0.0000 </r>
       <r>   20.6688    0.0000 </r>
      </set>
      <set comment="kpoint 6">
       <r>   -3.4865    1.0000 </r>
       <r>    1.4332    1.0000 </r>
       <r>    3.4122    1.0000 </r>
       <r>    3.6731    1.0000 </r>
       <r>    9.2347    0.0000 </r>
       <r>   10.3399    0.0000 </r>
       <r>   10.6911    0.0000 </r>
       <r>   15.4512    0.0000 </r>
       <r>   15.8057    0.0000 </r>
       <r>   17.0052    0.0000 </r>
       <r>   20.5833    0.0000 </r>
       <r>   21.4589    0.0000 </r>
      </set>
      <set comment="kpoint 7">
       <r>   -4.9169    1.0000 </r>
       <r>    3.4130    1.0000 </r>
       <r>    4.4449    1.0000 </r>
       <r>    4.8278    1.0000 </r>
       <r>    7.9550    1.0000 </r>
       <r>    9.0378    0.0000 </r>
       <r>    9.5869    0.0000 </r>
       <r>   12.7579    0.0000 </r>
       <r>   14.0256    0.0000 </r>
       <r>   16.8176    0.0000 </r>
       <r>   20.5931    0.0000 </r>
       <r>   21.0617    0.0000 </r>
      </set>
      <set comment="kpoint 8">
       <r>   -5.8892    1.0000 </r>
       <r>    5.4538    1.0000 </r>
       <r>    6.0366    1.0000 </r>
       <r>    6.2643    1.0000 </r>
       <r>    7.0770    1.0000 </r>
       <r>    8.3467   -0.0001 </r>
       <r>    8.8856    0.0000 </r>
       <r>   10.0180    0.0000 </r>
       <r>   11.4012    0.0000 </r>
       <r>   15.4607    0.0000 </r>
       <r>   19.3321    0.0000 </r>
       <r>   20.5974    0.0000 </r>
      </set>
      <set comment="kpoint 9">
       <r>   -5.4144    1.0000 </r>
       <r>    3.9820    1.0000 </r>
       <r>    5.5392    1.0000 </r>
       <r>    5.9169    1.0000 </r>
       <r>    6.7038    1.0000 </r>
       <r>    9.0987    0.0000 </r>
       <r>    9.8616    0.0000 </r>
       <r>   10.5229    0.0000 </r>
       <r>   12.6736    0.0000 </r>
       <r>   16.7196    0.0000 </r>
       <r>   20.5309    0.0000 </r>
       <r>   20.5973    0.0000 </r>
      </set>
      <set comment="kpoint 10">
       <r>   -4.5901    1.0000 </r>
       <r>    2.6952    1.0000 </r>
       <r>    4.5240    1.0000 </r>
       <r>    4.9758    1.0000 </r>
       <r>    7.2253    1.0000 </r>
       <r>    9.9573    0.0000 </r>
       <r>   10.7573    0.0000 </r>
       <r>   11.8440    0.0000 </r>
       <r>   14.4650    0.0000 </r>
       <r>   18.0868    0.0000 </r>
       <r>   20.5936    0.0000 </r>
       <r>   21.8622    0.0000 </r>
      </set>
      <set comment="kpoint 11">
       <r>   -3.4491    1.0000 </r>
       <r>    1.4941    1.0000 </r>
       <r>    3.5111    1.0000 </r>
       <r>    4.0518    1.0000 </r>
       <r>    8.3029   -0.0039 </r>
       <r>   10.9029    0.0000 </r>
       <r>   11.5586    0.0000 </r>
       <r>   14.0477    0.0000 </r>
       <r>   15.8013    0.0000 </r>
       <r>   18.1811    0.0000 </r>
       <r>   20.5058    0.0000 </r>
       <r>   20.7502    0.0000 </r>
      </set>
      <set comment="kpoint 12">
       <r>   -2.5880    1.0000 </r>
       <r>    0.6077    1.0000 </r>
       <r>    3.2570    1.0000 </r>
       <r>    3.4620    1.0000 </r>
       <r>    9.7738    0.0000 </r>
       <r>   10.8209    0.0000 </r>
       <r>   11.7116    0.0000 </r>
       <r>   15.3330    0.0000 </r>
       <r>   16.4956    0.0000 </r>
       <r>   17.4472    0.0000 </r>
       <r>   20.5084    0.0000 </r>
       <r>   20.7129    0.0000 </r>
      </set>
      <set comment="kpoint 13">
       <r>   -2.9831    1.0000 </r>
       <r>    1.0038    1.0000 </r>
       <r>    3.3427    1.0000 </r>
       <r>    3.5873    1.0000 </r>
       <r>    9.4185    0.0000 </r>
       <r>   10.7770    0.0000 </r>
       <r>   11.4705    0.0000 </r>
       <r>   14.5197    0.0000 </r>
       <r>   16.1500    0.0000 </r>
       <r>   18.0224    0.0000 </r>
       <r>   20.5762    0.0000 </r>
       <r>   21.1974    0.0000 </r>
      </set>
      <set comment="kpoint 14">
       <r>   -4.1461    1.0000 </r>
       <r>    2.3225    1.0000 </r>
       <r>    3.9228    1.0000 </r>
       <r>    4.1834    1.0000 </r>
       <r>    8.2163    0.1442 </r>
       <r>   10.3173    0.0000 </r>
       <r>   10.8436    0.0000 </r>
       <r>   12.3235    0.0000 </r>
       <r>   15.9260    0.0000 </r>
       <r>   17.6141    0.0000 </r>
       <r>   20.5891    0.0000 </r>
       <r>   21.6557    0.0000 </r>
      </set>
      <set comment="kpoint 15">
       <r>   -5.1633    1.0000 </r>
       <r>    3.7602    1.0000 </r>
       <r>    4.8777    1.0000 </r>
       <r>    5.1471    1.0000 </r>
       <r>    7.4714    1.0000 </r>
       <r>    9.1466    0.0000 </r>
       <r>    9.7748    0.0000 </r>
       <r>   11.3386    0.0000 </r>
       <r>   13.6546    0.0000 </r>
       <r>   16.7960    0.0000 </r>
       <r>   20.5962    0.0000 </r>
       <r>   20.9013    0.0000 </r>
      </set>
      <set comment="kpoint 16">
       <r>   -4.3320    1.0000 </r>
       <r>    2.3164    1.0000 </r>
       <r>    4.7169    1.0000 </r>
       <r>    5.8068    1.0000 </r>
       <r>    6.2663    1.0000 </r>
       <r>   10.1799    0.0000 </r>
       <r>   11.7307    0.0000 </r>
       <r>   11.9269    0.0000 </r>
       <r>   14.2983    0.0000 </r>
       <r>   19.4186    0.0000 </r>
       <r>   20.5871    0.0000 </r>
       <r>   21.4412    0.0000 </r>
      </set>
      <set comment="kpoint 17">
       <r>   -3.8575    1.0000 </r>
       <r>    2.2764    1.0000 </r>
       <r>    3.9922    1.0000 </r>
       <r>    5.1331    1.0000 </r>
       <r>    7.0280    1.0000 </r>
       <r>   11.2147    0.0000 </r>
       <r>   12.1188    0.0000 </r>
       <r>   12.4582    0.0000 </r>
       <r>   15.4832    0.0000 </r>
       <r>   18.5770    0.0000 </r>
       <r>   19.8788    0.0000 </r>
       <r>   20.6083    0.0000 </r>
      </set>
      <set comment="kpoint 18">
       <r>   -3.3266    1.0000 </r>
       <r>    2.0792    1.0000 </r>
       <r>    3.4686    1.0000 </r>
       <r>    4.3316    1.0000 </r>
       <r>    8.0812    1.0036 </r>
       <r>   11.3139    0.0000 </r>
       <r>   12.0210    0.0000 </r>
       <r>   14.1546    0.0000 </r>
       <r>   15.4764    0.0000 </r>
       <r>   18.2721    0.0000 </r>
       <r>   19.7983    0.0000 </r>
       <r>   20.6094    0.0000 </r>
      </set>
      <set comment="kpoint 19">
       <r>   -2.9687    1.0000 </r>
       <r>    1.4825    1.0000 </r>
       <r>    3.4194    1.0000 </r>
       <r>    3.7547    1.0000 </r>
       <r>    9.7030    0.0000 </r>
       <r>   10.2529    0.0000 </r>
       <r>   11.8555    0.0000 </r>
       <r>   13.8025    0.0000 </r>
       <r>   16.4994    0.0000 </r>
       <r>   18.8316    0.0000 </r>
       <r>   20.5492    0.0000 </r>
       <r>   20.7644    0.0000 </r>
      </set>
      <set comment="kpoint 20">
       <r>   -3.2046    1.0000 </r>
       <r>    1.3718    1.0000 </r>
       <r>    3.5148    1.0000 </r>
       <r>    3.6392    1.0000 </r>
       <r>    9.1862    0.0000 </r>
       <r>   11.0793    0.0000 </r>
       <r>   11.4253    0.0000 </r>
       <r>   13.0414    0.0000 </r>
       <r>   16.7377    0.0000 </r>
       <r>   18.1743    0.0000 </r>
       <r>   20.5776    0.0000 </r>
       <r>   21.2722    0.0000 </r>
      </set>
      <set comment="kpoint 21">
       <r>   -3.9131    1.0000 </r>
       <r>    1.9817    1.0000 </r>
       <r>    3.6592    1.0000 </r>
       <r>    4.0699    1.0000 </r>
       <r>    8.5375    0.0000 </r>
       <r>   10.0351    0.0000 </r>
       <r>   10.7991    0.0000 </r>
       <r>   13.8563    0.0000 </r>
       <r>   15.9411    0.0000 </r>
       <r>   17.2990    0.0000 </r>
       <r>   20.5839    0.0000 </r>
       <r>   21.3749    0.0000 </r>
      </set>
      <set comment="kpoint 22">
       <r>   -4.0548    1.0000 </r>
       <r>    3.0468    1.0000 </r>
       <r>    4.0617    1.0000 </r>
       <r>    6.1893    1.0000 </r>
       <r>    6.5000    1.0000 </r>
       <r>   10.9446    0.0000 </r>
       <r>   12.2950    0.0000 </r>
       <r>   12.3106    0.0000 </r>
       <r>   15.6557    0.0000 </r>
       <r>   16.4529    0.0000 </r>
       <r>   20.3727    0.0000 </r>
       <r>   20.6052    0.0000 </r>
      </set>
      <set comment="kpoint 23">
       <r>   -3.9072    1.0000 </r>
       <r>    3.4944    1.0000 </r>
       <r>    3.6984    1.0000 </r>
       <r>    5.3312    1.0000 </r>
       <r>    7.1702    1.0000 </r>
       <r>   11.8862    0.0000 </r>
       <r>   12.0878    0.0000 </r>
       <r>   12.2633    0.0000 </r>
       <r>   15.0161    0.0000 </r>
       <r>   16.9391    0.0000 </r>
       <r>   20.1912    0.0000 </r>
       <r>   20.6039    0.0000 </r>
      </set>
      <set comment="kpoint 24">
       <r>   -3.4188    1.0000 </r>
       <r>    2.5457    1.0000 </r>
       <r>    3.4797    1.0000 </r>
       <r>    4.4225    1.0000 </r>
       <r>    8.0176    1.0000 </r>
       <r>   11.2364    0.0000 </r>
       <r>   12.1577    0.0000 </r>
       <r>   14.1011    0.0000 </r>
       <r>   14.6367    0.0000 </r>
       <r>   18.6425    0.0000 </r>
       <r>   20.2189    0.0000 </r>
       <r>   20.6074    0.0000 </r>
      </set>
      <set comment="kpoint 25">
       <r>   -2.8033    1.0000 </r>
       <r>    1.0882    1.0000 </r>
       <r>    3.3691    1.0000 </r>
       <r>    3.6408    1.0000 </r>
       <r>    9.7311    0.0000 </r>
       <r>   10.4412    0.0000 </r>
       <r>   11.6598    0.0000 </r>
       <r>   15.0287    0.0000 </r>
       <r>   16.3630    0.0000 </r>
       <r>   17.7637    0.0000 </r>
       <r>   20.5258    0.0000 </r>
       <r>   20.7555    0.0000 </r>
      </set>
      <set comment="kpoint 26">
       <r>   -2.5947    1.0000 </r>
       <r>    0.4559    1.0000 </r>
       <r>    3.1684    1.0000 </r>
       <r>    3.3455    1.0000 </r>
       <r>    9.9279    0.0000 </r>
       <r>   10.9002    0.0000 </r>
       <r>   11.6073    0.0000 </r>
       <r>   14.9356    0.0000 </r>
       <r>   16.3933    0.0000 </r>
       <r>   17.9447    0.0000 </r>
       <r>   20.5755    0.0000 </r>
       <r>   20.9825    0.0000 </r>
      </set>
      <set comment="kpoint 27">
       <r>   -4.0996    1.0000 </r>
       <r>    3.6161    1.0000 </r>
       <r>    3.9098    1.0000 </r>
       <r>    6.3440    1.0000 </r>
       <r>    6.6092    1.0000 </r>
       <r>   11.1459    0.0000 </r>
       <r>   12.2046    0.0000 </r>
       <r>   12.2542    0.0000 </r>
       <r>   15.0972    0.0000 </r>
       <r>   16.1926    0.0000 </r>
       <r>   20.2007    0.0000 </r>
       <r>   20.6037    0.0000 </r>
      </set>
      <set comment="kpoint 28">
       <r>   -3.8517    1.0000 </r>
       <r>    2.8849    1.0000 </r>
       <r>    3.8106    1.0000 </r>
       <r>    5.2814    1.0000 </r>
       <r>    7.1015    1.0000 </r>
       <r>   11.6269    0.0000 </r>
       <r>   12.1759    0.0000 </r>
       <r>   12.3715    0.0000 </r>
       <r>   15.7587    0.0000 </r>
       <r>   16.9840    0.0000 </r>
       <r>   20.1612    0.0000 </r>
       <r>   20.6054    0.0000 </r>
      </set>
      <set comment="kpoint 29">
       <r>   -3.2680    1.0000 </r>
       <r>    1.5759    1.0000 </r>
       <r>    3.4682    1.0000 </r>
       <r>    4.1709    1.0000 </r>
       <r>    8.1585    0.9534 </r>
       <r>   11.3478    0.0000 </r>
       <r>   11.9042    0.0000 </r>
       <r>   14.1121    0.0000 </r>
       <r>   15.8490    0.0000 </r>
       <r>   18.5672    0.0000 </r>
       <r>   19.5270    0.0000 </r>
       <r>   20.6119    0.0000 </r>
      </set>
      <set comment="kpoint 30">
       <r>   -4.0783    1.0000 </r>
       <r>    2.4443    1.0000 </r>
       <r>    4.3430    1.0000 </r>
       <r>    5.9733    1.0000 </r>
       <r>    6.3429    1.0000 </r>
       <r>   10.6050    0.0000 </r>
       <r>   12.2008    0.0000 </r>
       <r>   12.2886    0.0000 </r>
       <r>   15.0092    0.0000 </r>
       <r>   18.4769    0.0000 </r>
       <r>   20.3966    0.0000 </r>
       <r>   20.6117    0.0000 </r>
      </set>
      <set comment="kpoint 31">
       <r>   -4.0961    1.0000 </r>
       <r>    2.1541    1.0000 </r>
       <r>    4.2330    1.0000 </r>
       <r>    4.9949    1.0000 </r>
       <r>    7.0533    1.0000 </r>
       <r>   10.6578    0.0000 </r>
       <r>   11.6292    0.0000 </r>
       <r>   12.2950    0.0000 </r>
       <r>   14.9869    0.0000 </r>
       <r>   19.1270    0.0000 </r>
       <r>   20.5504    0.0000 </r>
       <r>   20.8757    0.0000 </r>
      </set>
      <set comment="kpoint 32">
       <r>   -4.8345    1.0000 </r>
       <r>    2.8624    1.0000 </r>
       <r>    5.1240    1.0000 </r>
       <r>    5.7718    1.0000 </r>
       <r>    6.3832    1.0000 </r>
       <r>    9.6916    0.0000 </r>
       <r>   10.8846    0.0000 </r>
       <r>   11.2517    0.0000 </r>
       <r>   13.5614    0.0000 </r>
       <r>   18.2697    0.0000 </r>
       <r>   20.5962    0.0000 </r>
       <r>   22.0083    0.0000 </r>
      </set>
      <set comment="kpoint 33">
       <r>   -5.3792    1.0000 </r>
       <r>    4.3440    1.0000 </r>
       <r>    5.1058    1.0000 </r>
       <r>    5.1058    1.0000 </r>
       <r>    8.1455    1.0180 </r>
       <r>    8.1455    1.0180 </r>
       <r>    8.9824    0.0000 </r>
       <r>   12.5148    0.0000 </r>
       <r>   12.5148    0.0000 </r>
       <r>   16.1415    0.0000 </r>
       <r>   20.3734    0.0000 </r>
       <r>   20.5987    0.0000 </r>
      </set>
      <set comment="kpoint 34">
       <r>   -4.7051    1.0000 </r>
       <r>    3.1848    1.0000 </r>
       <r>    4.1779    1.0000 </r>
       <r>    4.5224    1.0000 </r>
       <r>    8.1116    1.0221 </r>
       <r>    9.5984    0.0000 </r>
       <r>   10.0869    0.0000 </r>
       <r>   11.8615    0.0000 </r>
       <r>   15.1413    0.0000 </r>
       <r>   16.9788    0.0000 </r>
       <r>   20.5943    0.0000 </r>
       <r>   21.4076    0.0000 </r>
      </set>
      <set comment="kpoint 35">
       <r>   -3.6151    1.0000 </r>
       <r>    1.7447    1.0000 </r>
       <r>    3.5407    1.0000 </r>
       <r>    3.8132    1.0000 </r>
       <r>    8.9619    0.0000 </r>
       <r>   10.5716    0.0000 </r>
       <r>   11.2632    0.0000 </r>
       <r>   12.7248    0.0000 </r>
       <r>   16.8631    0.0000 </r>
       <r>   17.4114    0.0000 </r>
       <r>   20.5865    0.0000 </r>
       <r>   21.5554    0.0000 </r>
      </set>
      <set comment="kpoint 36">
       <r>   -2.7146    1.0000 </r>
       <r>    0.7903    1.0000 </r>
       <r>    3.3968    1.0000 </r>
       <r>    3.3983    1.0000 </r>
       <r>   10.2924    0.0000 </r>
       <r>   10.4374    0.0000 </r>
       <r>   11.2321    0.0000 </r>
       <r>   14.8150    0.0000 </r>
       <r>   16.7196    0.0000 </r>
       <r>   17.6162    0.0000 </r>
       <r>   20.5786    0.0000 </r>
       <r>   21.0770    0.0000 </r>
      </set>
      <set comment="kpoint 37">
       <r>   -2.9100    1.0000 </r>
       <r>    1.0415    1.0000 </r>
       <r>    3.3109    1.0000 </r>
       <r>    3.8049    1.0000 </r>
       <r>    8.7920    0.0000 </r>
       <r>   11.2565    0.0000 </r>
       <r>   11.8494    0.0000 </r>
       <r>   15.4932    0.0000 </r>
       <r>   15.5114    0.0000 </r>
       <r>   18.0195    0.0000 </r>
       <r>   19.9009    0.0000 </r>
       <r>   20.6167    0.0000 </r>
      </set>
      <set comment="kpoint 38">
       <r>   -3.8639    1.0000 </r>
       <r>    1.9214    1.0000 </r>
       <r>    3.8440    1.0000 </r>
       <r>    4.7091    1.0000 </r>
       <r>    7.3903    1.0000 </r>
       <r>   10.7935    0.0000 </r>
       <r>   11.5366    0.0000 </r>
       <r>   13.2393    0.0000 </r>
       <r>   15.2968    0.0000 </r>
       <r>   18.6889    0.0000 </r>
       <r>   20.4453    0.0000 </r>
       <r>   20.6908    0.0000 </r>
      </set>
      <set comment="kpoint 39">
       <r>   -4.3503    1.0000 </r>
       <r>    2.4511    1.0000 </r>
       <r>    4.0656    1.0000 </r>
       <r>    4.6909    1.0000 </r>
       <r>    7.6400    1.0000 </r>
       <r>    9.9699    0.0000 </r>
       <r>   10.5971    0.0000 </r>
       <r>   13.0418    0.0000 </r>
       <r>   14.8897    0.0000 </r>
       <r>   17.8256    0.0000 </r>
       <r>   20.5888    0.0000 </r>
       <r>   21.4661    0.0000 </r>
      </set>
      <set comment="kpoint 40">
       <r>   -3.6760    1.0000 </r>
       <r>    1.8181    1.0000 </r>
       <r>    3.8003    1.0000 </r>
       <r>    4.1007    1.0000 </r>
       <r>    8.1180    1.0280 </r>
       <r>   11.0560    0.0000 </r>
       <r>   11.5554    0.0000 </r>
       <r>   12.6768    0.0000 </r>
       <r>   15.9690    0.0000 </r>
       <r>   18.5443    0.0000 </r>
       <r>   20.5367    0.0000 </r>
       <r>   20.8274    0.0000 </r>
      </set>
      <set comment="kpoint 41">
       <r>   -3.1039    1.0000 </r>
       <r>    1.5559    1.0000 </r>
       <r>    3.4837    1.0000 </r>
       <r>    3.7516    1.0000 </r>
       <r>    9.2133    0.0000 </r>
       <r>   10.7918    0.0000 </r>
       <r>   11.8776    0.0000 </r>
       <r>   13.3162    0.0000 </r>
       <r>   16.5078    0.0000 </r>
       <r>   18.7428    0.0000 </r>
       <r>   20.4450    0.0000 </r>
       <r>   20.6873    0.0000 </r>
      </set>
      <set comment="kpoint 42">
       <r>   -3.0518    1.0000 </r>
       <r>    1.6752    1.0000 </r>
       <r>    3.4075    1.0000 </r>
       <r>    3.8685    1.0000 </r>
       <r>    9.2555    0.0000 </r>
       <r>   10.4236    0.0000 </r>
       <r>   11.9829    0.0000 </r>
       <r>   14.8177    0.0000 </r>
       <r>   15.2448    0.0000 </r>
       <r>   18.7679    0.0000 </r>
       <r>   20.3746    0.0000 </r>
       <r>   20.6544    0.0000 </r>
      </set>
      <set comment="kpoint 43">
       <r>   -3.4798    1.0000 </r>
       <r>    1.9411    1.0000 </r>
       <r>    3.6674    1.0000 </r>
       <r>    4.2254    1.0000 </r>
       <r>    8.0719    1.0017 </r>
       <r>   11.4253    0.0000 </r>
       <r>   11.9782    0.0000 </r>
       <r>   12.8133    0.0000 </r>
       <r>   16.0675    0.0000 </r>
       <r>   18.8761    0.0000 </r>
       <r>   19.6563    0.0000 </r>
       <r>   20.6119    0.0000 </r>
      </set>
      <set comment="kpoint 44">
       <r>   -3.6400    1.0000 </r>
       <r>    2.0178    1.0000 </r>
       <r>    3.7051    1.0000 </r>
       <r>    4.8477    1.0000 </r>
       <r>    7.2638    1.0000 </r>
       <r>   11.3940    0.0000 </r>
       <r>   12.0403    0.0000 </r>
       <r>   13.2501    0.0000 </r>
       <r>   15.6355    0.0000 </r>
       <r>   18.6721    0.0000 </r>
       <r>   19.3762    0.0000 </r>
       <r>   20.6079    0.0000 </r>
      </set>
      <set comment="kpoint 45">
       <r>   -3.5185    1.0000 </r>
       <r>    2.5511    1.0000 </r>
       <r>    3.5729    1.0000 </r>
       <r>    4.3308    1.0000 </r>
       <r>    8.1040    1.0156 </r>
       <r>   11.3694    0.0000 </r>
       <r>   12.1782    0.0000 </r>
       <r>   12.8751    0.0000 </r>
       <r>   15.6402    0.0000 </r>
       <r>   18.2805    0.0000 </r>
       <r>   20.0987    0.0000 </r>
       <r>   20.6090    0.0000 </r>
      </set>
      <set comment="kpoint 46">
       <r>   -3.3453    1.0000 </r>
       <r>    2.8506    1.0000 </r>
       <r>    3.4370    1.0000 </r>
       <r>    3.7406    1.0000 </r>
       <r>    9.2879    0.0000 </r>
       <r>   10.4181    0.0000 </r>
       <r>   12.2405    0.0000 </r>
       <r>   13.3004    0.0000 </r>
       <r>   14.5554    0.0000 </r>
       <r>   20.0967    0.0000 </r>
       <r>   20.6200    0.0000 </r>
       <r>   20.8815    0.0000 </r>
      </set>
      <set comment="kpoint 47">
       <r>   -3.2250    1.0000 </r>
       <r>    2.1768    1.0000 </r>
       <r>    3.4471    1.0000 </r>
       <r>    3.8766    1.0000 </r>
       <r>    9.2486    0.0000 </r>
       <r>   10.4163    0.0000 </r>
       <r>   12.1640    0.0000 </r>
       <r>   13.4822    0.0000 </r>
       <r>   15.4073    0.0000 </r>
       <r>   19.5859    0.0000 </r>
       <r>   20.3983    0.0000 </r>
       <r>   20.6499    0.0000 </r>
      </set>
      <set comment="kpoint 48">
       <r>   -3.7185    1.0000 </r>
       <r>    3.0883    1.0000 </r>
       <r>    3.5737    1.0000 </r>
       <r>    5.1681    1.0000 </r>
       <r>    7.1379    1.0000 </r>
       <r>   11.7311    0.0000 </r>
       <r>   12.2074    0.0000 </r>
       <r>   13.1482    0.0000 </r>
       <r>   14.8443    0.0000 </r>
       <r>   17.4850    0.0000 </r>
       <r>   20.1241    0.0000 </r>
       <r>   20.6045    0.0000 </r>
      </set>
      <set comment="kpoint 49">
       <r>   -3.5988    1.0000 </r>
       <r>    3.2083    1.0000 </r>
       <r>    3.5266    1.0000 </r>
       <r>    4.2496    1.0000 </r>
       <r>    8.1491    1.0057 </r>
       <r>   11.3481    0.0000 </r>
       <r>   12.2387    0.0000 </r>
       <r>   12.8504    0.0000 </r>
       <r>   14.7912    0.0000 </r>
       <r>   18.4582    0.0000 </r>
       <r>   20.3833    0.0000 </r>
       <r>   20.6071    0.0000 </r>
      </set>
      <set comment="kpoint 50">
       <r>   -3.6522    1.0000 </r>
       <r>    2.5699    1.0000 </r>
       <r>    3.6159    1.0000 </r>
       <r>    5.0340    1.0000 </r>
       <r>    7.2046    1.0000 </r>
       <r>   11.6884    0.0000 </r>
       <r>   12.1311    0.0000 </r>
       <r>   13.1702    0.0000 </r>
       <r>   15.6545    0.0000 </r>
       <r>   17.4279    0.0000 </r>
       <r>   19.8717    0.0000 </r>
       <r>   20.6058    0.0000 </r>
      </set>
      <set comment="kpoint 51">
       <r>   -4.0263    1.0000 </r>
       <r>    2.1353    1.0000 </r>
       <r>    3.7909    1.0000 </r>
       <r>    3.7909    1.0000 </r>
       <r>    9.4597    0.0000 </r>
       <r>    9.4597    0.0000 </r>
       <r>    9.8467    0.0000 </r>
       <r>   15.3438    0.0000 </r>
       <r>   15.3438    0.0000 </r>
       <r>   16.5123    0.0000 </r>
       <r>   20.5844    0.0000 </r>
       <r>   21.2973    0.0000 </r>
      </set>
      <set comment="kpoint 52">
       <r>   -3.3871    1.0000 </r>
       <r>    1.3817    1.0000 </r>
       <r>    3.4006    1.0000 </r>
       <r>    3.6917    1.0000 </r>
       <r>    9.4021    0.0000 </r>
       <r>   10.0576    0.0000 </r>
       <r>   11.2999    0.0000 </r>
       <r>   14.2643    0.0000 </r>
       <r>   16.3161    0.0000 </r>
       <r>   17.4523    0.0000 </r>
       <r>   20.5848    0.0000 </r>
       <r>   21.5677    0.0000 </r>
      </set>
      <set comment="kpoint 53">
       <r>   -2.9185    1.0000 </r>
       <r>    1.1675    1.0000 </r>
       <r>    3.4674    1.0000 </r>
       <r>    3.5229    1.0000 </r>
       <r>    9.9561    0.0000 </r>
       <r>   10.5477    0.0000 </r>
       <r>   11.4447    0.0000 </r>
       <r>   13.4365    0.0000 </r>
       <r>   17.6518    0.0000 </r>
       <r>   17.6538    0.0000 </r>
       <r>   20.5803    0.0000 </r>
       <r>   20.9336    0.0000 </r>
      </set>
      <set comment="kpoint 54">
       <r>   -3.1431    1.0000 </r>
       <r>    1.8847    1.0000 </r>
       <r>    3.4289    1.0000 </r>
       <r>    4.1000    1.0000 </r>
       <r>    8.6216    0.0000 </r>
       <r>   10.9428    0.0000 </r>
       <r>   11.9745    0.0000 </r>
       <r>   14.2221    0.0000 </r>
       <r>   15.6438    0.0000 </r>
       <r>   18.9068    0.0000 </r>
       <r>   20.2395    0.0000 </r>
       <r>   20.6094    0.0000 </r>
      </set>
      <set comment="kpoint 55">
       <r>   -3.0432    1.0000 </r>
       <r>    0.9764    1.0000 </r>
       <r>    3.2808    1.0000 </r>
       <r>    3.6835    1.0000 </r>
       <r>    8.9628    0.0000 </r>
       <r>   11.0100    0.0000 </r>
       <r>   11.5811    0.0000 </r>
       <r>   15.3611    0.0000 </r>
       <r>   15.4818    0.0000 </r>
       <r>   17.9496    0.0000 </r>
       <r>   20.5358    0.0000 </r>
       <r>   20.8041    0.0000 </r>
      </set>
      <set comment="kpoint 56">
       <r>   -2.9045    1.0000 </r>
       <r>    1.1517    1.0000 </r>
       <r>    3.3719    1.0000 </r>
       <r>    3.6971    1.0000 </r>
       <r>    9.3099    0.0000 </r>
       <r>   10.7815    0.0000 </r>
       <r>   11.7302    0.0000 </r>
       <r>   14.6891    0.0000 </r>
       <r>   16.1873    0.0000 </r>
       <r>   18.0818    0.0000 </r>
       <r>   20.4460    0.0000 </r>
       <r>   20.6852    0.0000 </r>
      </set>
      <set comment="kpoint 57">
       <r>   -3.1860    1.0000 </r>
       <r>    2.1482    1.0000 </r>
       <r>    3.4248    1.0000 </r>
       <r>    3.9268    1.0000 </r>
       <r>    9.2141    0.0000 </r>
       <r>   10.3606    0.0000 </r>
       <r>   12.1468    0.0000 </r>
       <r>   13.9747    0.0000 </r>
       <r>   15.0213    0.0000 </r>
       <r>   19.8506    0.0000 </r>
       <r>   20.4962    0.0000 </r>
       <r>   20.6770    0.0000 </r>
      </set>
      <set comment="kpoint 58">
       <r>   -3.0223    1.0000 </r>
       <r>    1.4874    1.0000 </r>
       <r>    3.3887    1.0000 </r>
       <r>    3.9751    1.0000 </r>
       <r>    8.6982    0.0000 </r>
       <r>   11.1307    0.0000 </r>
       <r>   11.7761    0.0000 </r>
       <r>   15.2577    0.0000 </r>
       <r>   15.5677    0.0000 </r>
       <r>   18.0136    0.0000 </r>
       <r>   19.9967    0.0000 </r>
       <r>   20.6160    0.0000 </r>
      </set>
      <set comment="kpoint 59">
       <r>   -2.4854    1.0000 </r>
       <r>    0.2514    1.0000 </r>
       <r>    3.1151    1.0000 </r>
       <r>    3.1151    1.0000 </r>
       <r>   10.7212    0.0000 </r>
       <r>   10.7212    0.0000 </r>
       <r>   11.3380    0.0000 </r>
       <r>   14.3915    0.0000 </r>
       <r>   17.5543    0.0000 </r>
       <r>   17.5543    0.0000 </r>
       <r>   21.0288    0.0000 </r>
       <r>   21.0288    0.0000 </r>
      </set>
      <set comment="kpoint 60">
       <r>   -2.3912    1.0000 </r>
       <r>    0.2717    1.0000 </r>
       <r>    3.2186    1.0000 </r>
       <r>    3.2307    1.0000 </r>
       <r>   10.4183    0.0000 </r>
       <r>   10.7483    0.0000 </r>
       <r>   11.5238    0.0000 </r>
       <r>   14.9502    0.0000 </r>
       <r>   16.9206    0.0000 </r>
       <r>   17.5654    0.0000 </r>
       <r>   20.5724    0.0000 </r>
       <r>   20.8416    0.0000 </r>
      </set>
     </set>
     <set comment="spin 2">
      <set comment="kpoint 1">
       <r>   -6.1498    1.0000 </r>
       <r>    6.4732    1.0000 </r>
       <r>    6.8096    1.0000 </r>
       <r>    6.8096    1.0000 </r>
       <r>    7.5391    1.0000 </r>
       <r>    7.5391    1.0000 </r>
       <r>    8.2565   -0.0350 </r>
       <r>    9.7894    0.0000 </r>
       <r>    9.7894    0.0000 </r>
       <r>   14.8581    0.0000 </r>
       <r>   18.6549    0.0000 </r>
       <r>   20.5966    0.0000 </r>
      </set>
      <set comment="kpoint 2">
       <r>   -5.6319    1.0000 </r>
       <r>    4.9382    1.0000 </r>
       <r>    5.4020    1.0000 </r>
       <r>    5.5638    1.0000 </r>
       <r>    7.5158    1.0000 </r>
       <r>    8.4105    0.0000 </r>
       <r>    9.0492    0.0000 </r>
       <r>   10.8662    0.0000 </r>
       <r>   12.3815    0.0000 </r>
       <r>   15.8598    0.0000 </r>
       <r>   19.9155    0.0000 </r>
       <r>   20.5971    0.0000 </r>
      </set>
      <set comment="kpoint 3">
       <r>   -4.4654    1.0000 </r>
       <r>    2.7672    1.0000 </r>
       <r>    3.9979    1.0000 </r>
       <r>    4.2930    1.0000 </r>
       <r>    8.6313    0.0000 </r>
       <r>    9.1959    0.0000 </r>
       <r>    9.9503    0.0000 </r>
       <r>   13.5237    0.0000 </r>
       <r>   15.2189    0.0000 </r>
       <r>   16.8421    0.0000 </r>
       <r>   20.5887    0.0000 </r>
       <r>   21.2615    0.0000 </r>
      </set>
      <set comment="kpoint 4">
       <r>   -2.9711    1.0000 </r>
       <r>    0.8255    1.0000 </r>
       <r>    3.2250    1.0000 </r>
       <r>    3.3849    1.0000 </r>
       <r>   10.0881    0.0000 </r>
       <r>   10.2852    0.0000 </r>
       <r>   11.1957    0.0000 </r>
       <r>   15.2320    0.0000 </r>
       <r>   16.2307    0.0000 </r>
       <r>   17.5151    0.0000 </r>
       <r>   20.5858    0.0000 </r>
       <r>   21.5745    0.0000 </r>
      </set>
      <set comment="kpoint 5">
       <r>   -2.2143    1.0000 </r>
       <r>   -0.0184    1.0000 </r>
       <r>    3.0685    1.0000 </r>
       <r>    3.1187    1.0000 </r>
       <r>   10.5873    0.0000 </r>
       <r>   10.9743    0.0000 </r>
       <r>   11.7929    0.0000 </r>
       <r>   14.1084    0.0000 </r>
       <r>   17.5495    0.0000 </r>
       <r>   17.8966    0.0000 </r>
       <r>   20.5670    0.0000 </r>
       <r>   20.6655    0.0000 </r>
      </set>
      <set comment="kpoint 6">
       <r>   -3.4860    1.0000 </r>
       <r>    1.4331    1.0000 </r>
       <r>    3.4122    1.0000 </r>
       <r>    3.6731    1.0000 </r>
       <r>    9.2338    0.0000 </r>
       <r>   10.3389    0.0000 </r>
       <r>   10.6902    0.0000 </r>
       <r>   15.4516    0.0000 </r>
       <r>   15.8052    0.0000 </r>
       <r>   17.0055    0.0000 </r>
       <r>   20.5830    0.0000 </r>
       <r>   21.4584    0.0000 </r>
      </set>
      <set comment="kpoint 7">
       <r>   -4.9166    1.0000 </r>
       <r>    3.4130    1.0000 </r>
       <r>    4.4448    1.0000 </r>
       <r>    4.8278    1.0000 </r>
       <r>    7.9541    1.0000 </r>
       <r>    9.0369    0.0000 </r>
       <r>    9.5862    0.0000 </r>
       <r>   12.7581    0.0000 </r>
       <r>   14.0259    0.0000 </r>
       <r>   16.8175    0.0000 </r>
       <r>   20.5928    0.0000 </r>
       <r>   21.0598    0.0000 </r>
      </set>
      <set comment="kpoint 8">
       <r>   -5.8890    1.0000 </r>
       <r>    5.4538    1.0000 </r>
       <r>    6.0363    1.0000 </r>
       <r>    6.2641    1.0000 </r>
       <r>    7.0762    1.0000 </r>
       <r>    8.3462   -0.0001 </r>
       <r>    8.8854    0.0000 </r>
       <r>   10.0180    0.0000 </r>
       <r>   11.4013    0.0000 </r>
       <r>   15.4606    0.0000 </r>
       <r>   19.3299    0.0000 </r>
       <r>   20.5971    0.0000 </r>
      </set>
      <set comment="kpoint 9">
       <r>   -5.4141    1.0000 </r>
       <r>    3.9821    1.0000 </r>
       <r>    5.5388    1.0000 </r>
       <r>    5.9168    1.0000 </r>
       <r>    6.7031    1.0000 </r>
       <r>    9.0982    0.0000 </r>
       <r>    9.8612    0.0000 </r>
       <r>   10.5228    0.0000 </r>
       <r>   12.6737    0.0000 </r>
       <r>   16.7196    0.0000 </r>
       <r>   20.5288    0.0000 </r>
       <r>   20.5970    0.0000 </r>
      </set>
      <set comment="kpoint 10">
       <r>   -4.5897    1.0000 </r>
       <r>    2.6952    1.0000 </r>
       <r>    4.5236    1.0000 </r>
       <r>    4.9758    1.0000 </r>
       <r>    7.2246    1.0000 </r>
       <r>    9.9566    0.0000 </r>
       <r>   10.7566    0.0000 </r>
       <r>   11.8438    0.0000 </r>
       <r>   14.4652    0.0000 </r>
       <r>   18.0869    0.0000 </r>
       <r>   20.5933    0.0000 </r>
       <r>   21.8605    0.0000 </r>
      </set>
      <set comment="kpoint 11">
       <r>   -3.4487    1.0000 </r>
       <r>    1.4939    1.0000 </r>
       <r>    3.5110    1.0000 </r>
       <r>    4.0518    1.0000 </r>
       <r>    8.3022   -0.0041 </r>
       <r>   10.9019    0.0000 </r>
       <r>   11.5576    0.0000 </r>
       <r>   14.0478    0.0000 </r>
       <r>   15.8011    0.0000 </r>
       <r>   18.1813    0.0000 </r>
       <r>   20.5059    0.0000 </r>
       <r>   20.7497    0.0000 </r>
      </set>
      <set comment="kpoint 12">
       <r>   -2.5874    1.0000 </r>
       <r>    0.6075    1.0000 </r>
       <r>    3.2570    1.0000 </r>
       <r>    3.4620    1.0000 </r>
       <r>    9.7729    0.0000 </r>
       <r>   10.8198    0.0000 </r>
       <r>   11.7105    0.0000 </r>
       <r>   15.3325    0.0000 </r>
       <r>   16.4960    0.0000 </r>
       <r>   17.4473    0.0000 </r>
       <r>   20.5086    0.0000 </r>
       <r>   20.7126    0.0000 </r>
      </set>
      <set comment="kpoint 13">
       <r>   -2.9826    1.0000 </r>
       <r>    1.0036    1.0000 </r>
       <r>    3.3427    1.0000 </r>
       <r>    3.5872    1.0000 </r>
       <r>    9.4176    0.0000 </r>
       <r>   10.7760    0.0000 </r>
       <r>   11.4694    0.0000 </r>
       <r>   14.5199    0.0000 </r>
       <r>   16.1495    0.0000 </r>
       <r>   18.0230    0.0000 </r>
       <r>   20.5760    0.0000 </r>
       <r>   21.1974    0.0000 </r>
      </set>
      <set comment="kpoint 14">
       <r>   -4.1457    1.0000 </r>
       <r>    2.3225    1.0000 </r>
       <r>    3.9227    1.0000 </r>
       <r>    4.1832    1.0000 </r>
       <r>    8.2155    0.1542 </r>
       <r>   10.3166    0.0000 </r>
       <r>   10.8428    0.0000 </r>
       <r>   12.3234    0.0000 </r>
       <r>   15.9263    0.0000 </r>
       <r>   17.6140    0.0000 </r>
       <r>   20.5888    0.0000 </r>
       <r>   21.6546    0.0000 </r>
      </set>
      <set comment="kpoint 15">
       <r>   -5.1630    1.0000 </r>
       <r>    3.7602    1.0000 </r>
       <r>    4.8775    1.0000 </r>
       <r>    5.1470    1.0000 </r>
       <r>    7.4706    1.0000 </r>
       <r>    9.1459    0.0000 </r>
       <r>    9.7744    0.0000 </r>
       <r>   11.3385    0.0000 </r>
       <r>   13.6548    0.0000 </r>
       <r>   16.7959    0.0000 </r>
       <r>   20.5959    0.0000 </r>
       <r>   20.8992    0.0000 </r>
      </set>
      <set comment="kpoint 16">
       <r>   -4.3316    1.0000 </r>
       <r>    2.3163    1.0000 </r>
       <r>    4.7161    1.0000 </r>
       <r>    5.8069    1.0000 </r>
       <r>    6.2661    1.0000 </r>
       <r>   10.1795    0.0000 </r>
       <r>   11.7299    0.0000 </r>
       <r>   11.9262    0.0000 </r>
       <r>   14.2984    0.0000 </r>
       <r>   19.4189    0.0000 </r>
       <r>   20.5868    0.0000 </r>
       <r>   21.4405    0.0000 </r>
      </set>
      <set comment="kpoint 17">
       <r>   -3.8571    1.0000 </r>
       <r>    2.2763    1.0000 </r>
       <r>    3.9916    1.0000 </r>
       <r>    5.1333    1.0000 </r>
       <r>    7.0278    1.0000 </r>
       <r>   11.2140    0.0000 </r>
       <r>   12.1177    0.0000 </r>
       <r>   12.4576    0.0000 </r>
       <r>   15.4834    0.0000 </r>
       <r>   18.5769    0.0000 </r>
       <r>   19.8785    0.0000 </r>
       <r>   20.6079    0.0000 </r>
      </set>
      <set comment="kpoint 18">
       <r>   -3.3261    1.0000 </r>
       <r>    2.0790    1.0000 </r>
       <r>    3.4685    1.0000 </r>
       <r>    4.3317    1.0000 </r>
       <r>    8.0807    1.0034 </r>
       <r>   11.3127    0.0000 </r>
       <r>   12.0198    0.0000 </r>
       <r>   14.1547    0.0000 </r>
       <r>   15.4766    0.0000 </r>
       <r>   18.2718    0.0000 </r>
       <r>   19.7981    0.0000 </r>
       <r>   20.6090    0.0000 </r>
      </set>
      <set comment="kpoint 19">
       <r>   -2.9682    1.0000 </r>
       <r>    1.4823    1.0000 </r>
       <r>    3.4192    1.0000 </r>
       <r>    3.7548    1.0000 </r>
       <r>    9.7021    0.0000 </r>
       <r>   10.2518    0.0000 </r>
       <r>   11.8546    0.0000 </r>
       <r>   13.8025    0.0000 </r>
       <r>   16.4998    0.0000 </r>
       <r>   18.8310    0.0000 </r>
       <r>   20.5491    0.0000 </r>
       <r>   20.7637    0.0000 </r>
      </set>
      <set comment="kpoint 20">
       <r>   -3.2041    1.0000 </r>
       <r>    1.3717    1.0000 </r>
       <r>    3.5147    1.0000 </r>
       <r>    3.6390    1.0000 </r>
       <r>    9.1853    0.0000 </r>
       <r>   11.0784    0.0000 </r>
       <r>   11.4244    0.0000 </r>
       <r>   13.0414    0.0000 </r>
       <r>   16.7375    0.0000 </r>
       <r>   18.1747    0.0000 </r>
       <r>   20.5774    0.0000 </r>
       <r>   21.2637    0.0000 </r>
      </set>
      <set comment="kpoint 21">
       <r>   -3.9127    1.0000 </r>
       <r>    1.9816    1.0000 </r>
       <r>    3.6592    1.0000 </r>
       <r>    4.0699    1.0000 </r>
       <r>    8.5366    0.0000 </r>
       <r>   10.0342    0.0000 </r>
       <r>   10.7981    0.0000 </r>
       <r>   13.8564    0.0000 </r>
       <r>   15.9412    0.0000 </r>
       <r>   17.2989    0.0000 </r>
       <r>   20.5837    0.0000 </r>
       <r>   21.3742    0.0000 </r>
      </set>
      <set comment="kpoint 22">
       <r>   -4.0543    1.0000 </r>
       <r>    3.0469    1.0000 </r>
       <r>    4.0607    1.0000 </r>
       <r>    6.1897    1.0000 </r>
       <r>    6.5004    1.0000 </r>
       <r>   10.9443    0.0000 </r>
       <r>   12.2937    0.0000 </r>
       <r>   12.3093    0.0000 </r>
       <r>   15.6561    0.0000 </r>
       <r>   16.4525    0.0000 </r>
       <r>   20.3722    0.0000 </r>
       <r>   20.6048    0.0000 </r>
      </set>
      <set comment="kpoint 23">
       <r>   -3.9068    1.0000 </r>
       <r>    3.4944    1.0000 </r>
       <r>    3.6979    1.0000 </r>
       <r>    5.3315    1.0000 </r>
       <r>    7.1703    1.0000 </r>
       <r>   11.8851    0.0000 </r>
       <r>   12.0873    0.0000 </r>
       <r>   12.2620    0.0000 </r>
       <r>   15.0160    0.0000 </r>
       <r>   16.9392    0.0000 </r>
       <r>   20.1905    0.0000 </r>
       <r>   20.6035    0.0000 </r>
      </set>
      <set comment="kpoint 24">
       <r>   -3.4183    1.0000 </r>
       <r>    2.5454    1.0000 </r>
       <r>    3.4797    1.0000 </r>
       <r>    4.4226    1.0000 </r>
       <r>    8.0171    1.0000 </r>
       <r>   11.2353    0.0000 </r>
       <r>   12.1565    0.0000 </r>
       <r>   14.1011    0.0000 </r>
       <r>   14.6368    0.0000 </r>
       <r>   18.6426    0.0000 </r>
       <r>   20.2181    0.0000 </r>
       <r>   20.6070    0.0000 </r>
      </set>
      <set comment="kpoint 25">
       <r>   -2.8027    1.0000 </r>
       <r>    1.0879    1.0000 </r>
       <r>    3.3690    1.0000 </r>
       <r>    3.6408    1.0000 </r>
       <r>    9.7302    0.0000 </r>
       <r>   10.4402    0.0000 </r>
       <r>   11.6588    0.0000 </r>
       <r>   15.0288    0.0000 </r>
       <r>   16.3632    0.0000 </r>
       <r>   17.7631    0.0000 </r>
       <r>   20.5260    0.0000 </r>
       <r>   20.7552    0.0000 </r>
      </set>
      <set comment="kpoint 26">
       <r>   -2.5941    1.0000 </r>
       <r>    0.4557    1.0000 </r>
       <r>    3.1684    1.0000 </r>
       <r>    3.3455    1.0000 </r>
       <r>    9.9268    0.0000 </r>
       <r>   10.8991    0.0000 </r>
       <r>   11.6063    0.0000 </r>
       <r>   14.9349    0.0000 </r>
       <r>   16.3936    0.0000 </r>
       <r>   17.9453    0.0000 </r>
       <r>   20.5753    0.0000 </r>
       <r>   20.9826    0.0000 </r>
      </set>
      <set comment="kpoint 27">
       <r>   -4.0991    1.0000 </r>
       <r>    3.6163    1.0000 </r>
       <r>    3.9088    1.0000 </r>
       <r>    6.3445    1.0000 </r>
       <r>    6.6096    1.0000 </r>
       <r>   11.1457    0.0000 </r>
       <r>   12.2032    0.0000 </r>
       <r>   12.2528    0.0000 </r>
       <r>   15.0968    0.0000 </r>
       <r>   16.1929    0.0000 </r>
       <r>   20.2000    0.0000 </r>
       <r>   20.6034    0.0000 </r>
      </set>
      <set comment="kpoint 28">
       <r>   -3.8513    1.0000 </r>
       <r>    2.8849    1.0000 </r>
       <r>    3.8099    1.0000 </r>
       <r>    5.2817    1.0000 </r>
       <r>    7.1015    1.0000 </r>
       <r>   11.6262    0.0000 </r>
       <r>   12.1748    0.0000 </r>
       <r>   12.3706    0.0000 </r>
       <r>   15.7590    0.0000 </r>
       <r>   16.9838    0.0000 </r>
       <r>   20.1608    0.0000 </r>
       <r>   20.6050    0.0000 </r>
      </set>
      <set comment="kpoint 29">
       <r>   -3.2675    1.0000 </r>
       <r>    1.5757    1.0000 </r>
       <r>    3.4680    1.0000 </r>
       <r>    4.1710    1.0000 </r>
       <r>    8.1579    0.9580 </r>
       <r>   11.3466    0.0000 </r>
       <r>   11.9030    0.0000 </r>
       <r>   14.1122    0.0000 </r>
       <r>   15.8489    0.0000 </r>
       <r>   18.5672    0.0000 </r>
       <r>   19.5269    0.0000 </r>
       <r>   20.6114    0.0000 </r>
      </set>
      <set comment="kpoint 30">
       <r>   -4.0779    1.0000 </r>
       <r>    2.4443    1.0000 </r>
       <r>    4.3421    1.0000 </r>
       <r>    5.9736    1.0000 </r>
       <r>    6.3430    1.0000 </r>
       <r>   10.6046    0.0000 </r>
       <r>   12.1997    0.0000 </r>
       <r>   12.2876    0.0000 </r>
       <r>   15.0093    0.0000 </r>
       <r>   18.4769    0.0000 </r>
       <r>   20.3962    0.0000 </r>
       <r>   20.6113    0.0000 </r>
      </set>
      <set comment="kpoint 31">
       <r>   -4.0957    1.0000 </r>
       <r>    2.1541    1.0000 </r>
       <r>    4.2325    1.0000 </r>
       <r>    4.9950    1.0000 </r>
       <r>    7.0528    1.0000 </r>
       <r>   10.6571    0.0000 </r>
       <r>   11.6284    0.0000 </r>
       <r>   12.2946    0.0000 </r>
       <r>   14.9870    0.0000 </r>
       <r>   19.1272    0.0000 </r>
       <r>   20.5503    0.0000 </r>
       <r>   20.8752    0.0000 </r>
      </set>
      <set comment="kpoint 32">
       <r>   -4.8341    1.0000 </r>
       <r>    2.8624    1.0000 </r>
       <r>    5.1234    1.0000 </r>
       <r>    5.7718    1.0000 </r>
       <r>    6.3827    1.0000 </r>
       <r>    9.6911    0.0000 </r>
       <r>   10.8840    0.0000 </r>
       <r>   11.2513    0.0000 </r>
       <r>   13.5615    0.0000 </r>
       <r>   18.2698    0.0000 </r>
       <r>   20.5959    0.0000 </r>
       <r>   22.0062    0.0000 </r>
      </set>
      <set comment="kpoint 33">
       <r>   -5.3789    1.0000 </r>
       <r>    4.3439    1.0000 </r>
       <r>    5.1059    1.0000 </r>
       <r>    5.1059    1.0000 </r>
       <r>    8.1446    1.0203 </r>
       <r>    8.1446    1.0203 </r>
       <r>    8.9819    0.0000 </r>
       <r>   12.5150    0.0000 </r>
       <r>   12.5150    0.0000 </r>
       <r>   16.1414    0.0000 </r>
       <r>   20.3712    0.0000 </r>
       <r>   20.5983    0.0000 </r>
      </set>
      <set comment="kpoint 34">
       <r>   -4.7048    1.0000 </r>
       <r>    3.1848    1.0000 </r>
       <r>    4.1780    1.0000 </r>
       <r>    4.5221    1.0000 </r>
       <r>    8.1106    1.0212 </r>
       <r>    9.5979    0.0000 </r>
       <r>   10.0863    0.0000 </r>
       <r>   11.8614    0.0000 </r>
       <r>   15.1417    0.0000 </r>
       <r>   16.9786    0.0000 </r>
       <r>   20.5940    0.0000 </r>
       <r>   21.4056    0.0000 </r>
      </set>
      <set comment="kpoint 35">
       <r>   -3.6146    1.0000 </r>
       <r>    1.7446    1.0000 </r>
       <r>    3.5408    1.0000 </r>
       <r>    3.8129    1.0000 </r>
       <r>    8.9609    0.0000 </r>
       <r>   10.5711    0.0000 </r>
       <r>   11.2622    0.0000 </r>
       <r>   12.7247    0.0000 </r>
       <r>   16.8627    0.0000 </r>
       <r>   17.4121    0.0000 </r>
       <r>   20.5862    0.0000 </r>
       <r>   21.5543    0.0000 </r>
      </set>
      <set comment="kpoint 36">
       <r>   -2.7140    1.0000 </r>
       <r>    0.7900    1.0000 </r>
       <r>    3.3968    1.0000 </r>
       <r>    3.3982    1.0000 </r>
       <r>   10.2913    0.0000 </r>
       <r>   10.4365    0.0000 </r>
       <r>   11.2312    0.0000 </r>
       <r>   14.8151    0.0000 </r>
       <r>   16.7189    0.0000 </r>
       <r>   17.6168    0.0000 </r>
       <r>   20.5784    0.0000 </r>
       <r>   21.0770    0.0000 </r>
      </set>
      <set comment="kpoint 37">
       <r>   -2.9094    1.0000 </r>
       <r>    1.0413    1.0000 </r>
       <r>    3.3109    1.0000 </r>
       <r>    3.8049    1.0000 </r>
       <r>    8.7912    0.0000 </r>
       <r>   11.2553    0.0000 </r>
       <r>   11.8483    0.0000 </r>
       <r>   15.4935    0.0000 </r>
       <r>   15.5110    0.0000 </r>
       <r>   18.0196    0.0000 </r>
       <r>   19.9010    0.0000 </r>
       <r>   20.6163    0.0000 </r>
      </set>
      <set comment="kpoint 38">
       <r>   -3.8635    1.0000 </r>
       <r>    1.9213    1.0000 </r>
       <r>    3.8437    1.0000 </r>
       <r>    4.7092    1.0000 </r>
       <r>    7.3897    1.0000 </r>
       <r>   10.7925    0.0000 </r>
       <r>   11.5356    0.0000 </r>
       <r>   13.2393    0.0000 </r>
       <r>   15.2968    0.0000 </r>
       <r>   18.6889    0.0000 </r>
       <r>   20.4454    0.0000 </r>
       <r>   20.6902    0.0000 </r>
      </set>
      <set comment="kpoint 39">
       <r>   -4.3499    1.0000 </r>
       <r>    2.4510    1.0000 </r>
       <r>    4.0654    1.0000 </r>
       <r>    4.6909    1.0000 </r>
       <r>    7.6393    1.0000 </r>
       <r>    9.9690    0.0000 </r>
       <r>   10.5963    0.0000 </r>
       <r>   13.0419    0.0000 </r>
       <r>   14.8899    0.0000 </r>
       <r>   17.8255    0.0000 </r>
       <r>   20.5885    0.0000 </r>
       <r>   21.4650    0.0000 </r>
      </set>
      <set comment="kpoint 40">
       <r>   -3.6755    1.0000 </r>
       <r>    1.8180    1.0000 </r>
       <r>    3.8001    1.0000 </r>
       <r>    4.1006    1.0000 </r>
       <r>    8.1173    1.0274 </r>
       <r>   11.0552    0.0000 </r>
       <r>   11.5545    0.0000 </r>
       <r>   12.6767    0.0000 </r>
       <r>   15.9691    0.0000 </r>
       <r>   18.5445    0.0000 </r>
       <r>   20.5368    0.0000 </r>
       <r>   20.8270    0.0000 </r>
      </set>
      <set comment="kpoint 41">
       <r>   -3.1033    1.0000 </r>
       <r>    1.5557    1.0000 </r>
       <r>    3.4835    1.0000 </r>
       <r>    3.7516    1.0000 </r>
       <r>    9.2125    0.0000 </r>
       <r>   10.7908    0.0000 </r>
       <r>   11.8767    0.0000 </r>
       <r>   13.3162    0.0000 </r>
       <r>   16.5080    0.0000 </r>
       <r>   18.7426    0.0000 </r>
       <r>   20.4453    0.0000 </r>
       <r>   20.6869    0.0000 </r>
      </set>
      <set comment="kpoint 42">
       <r>   -3.0513    1.0000 </r>
       <r>    1.6750    1.0000 </r>
       <r>    3.4074    1.0000 </r>
       <r>    3.8686    1.0000 </r>
       <r>    9.2547    0.0000 </r>
       <r>   10.4227    0.0000 </r>
       <r>   11.9817    0.0000 </r>
       <r>   14.8178    0.0000 </r>
       <r>   15.2449    0.0000 </r>
       <r>   18.7673    0.0000 </r>
       <r>   20.3750    0.0000 </r>
       <r>   20.6539    0.0000 </r>
      </set>
      <set comment="kpoint 43">
       <r>   -3.4794    1.0000 </r>
       <r>    1.9409    1.0000 </r>
       <r>    3.6670    1.0000 </r>
       <r>    4.2255    1.0000 </r>
       <r>    8.0714    1.0016 </r>
       <r>   11.4242    0.0000 </r>
       <r>   11.9772    0.0000 </r>
       <r>   12.8131    0.0000 </r>
       <r>   16.0676    0.0000 </r>
       <r>   18.8761    0.0000 </r>
       <r>   19.6562    0.0000 </r>
       <r>   20.6115    0.0000 </r>
      </set>
      <set comment="kpoint 44">
       <r>   -3.6395    1.0000 </r>
       <r>    2.0177    1.0000 </r>
       <r>    3.7048    1.0000 </r>
       <r>    4.8479    1.0000 </r>
       <r>    7.2634    1.0000 </r>
       <r>   11.3929    0.0000 </r>
       <r>   12.0391    0.0000 </r>
       <r>   13.2500    0.0000 </r>
       <r>   15.6356    0.0000 </r>
       <r>   18.6721    0.0000 </r>
       <r>   19.3760    0.0000 </r>
       <r>   20.6075    0.0000 </r>
      </set>
      <set comment="kpoint 45">
       <r>   -3.5181    1.0000 </r>
       <r>    2.5510    1.0000 </r>
       <r>    3.5725    1.0000 </r>
       <r>    4.3310    1.0000 </r>
       <r>    8.1037    1.0153 </r>
       <r>   11.3683    0.0000 </r>
       <r>   12.1770    0.0000 </r>
       <r>   12.8750    0.0000 </r>
       <r>   15.6404    0.0000 </r>
       <r>   18.2803    0.0000 </r>
       <r>   20.0984    0.0000 </r>
       <r>   20.6086    0.0000 </r>
      </set>
      <set comment="kpoint 46">
       <r>   -3.3448    1.0000 </r>
       <r>    2.8505    1.0000 </r>
       <r>    3.4368    1.0000 </r>
       <r>    3.7405    1.0000 </r>
       <r>    9.2875    0.0000 </r>
       <r>   10.4173    0.0000 </r>
       <r>   12.2391    0.0000 </r>
       <r>   13.3001    0.0000 </r>
       <r>   14.5556    0.0000 </r>
       <r>   20.0970    0.0000 </r>
       <r>   20.6196    0.0000 </r>
       <r>   20.8807    0.0000 </r>
      </set>
      <set comment="kpoint 47">
       <r>   -3.2245    1.0000 </r>
       <r>    2.1767    1.0000 </r>
       <r>    3.4468    1.0000 </r>
       <r>    3.8767    1.0000 </r>
       <r>    9.2480    0.0000 </r>
       <r>   10.4155    0.0000 </r>
       <r>   12.1627    0.0000 </r>
       <r>   13.4821    0.0000 </r>
       <r>   15.4075    0.0000 </r>
       <r>   19.5854    0.0000 </r>
       <r>   20.3986    0.0000 </r>
       <r>   20.6494    0.0000 </r>
      </set>
      <set comment="kpoint 48">
       <r>   -3.7180    1.0000 </r>
       <r>    3.0879    1.0000 </r>
       <r>    3.5737    1.0000 </r>
       <r>    5.1684    1.0000 </r>
       <r>    7.1377    1.0000 </r>
       <r>   11.7297    0.0000 </r>
       <r>   12.2062    0.0000 </r>
       <r>   13.1482    0.0000 </r>
       <r>   14.8443    0.0000 </r>
       <r>   17.4851    0.0000 </r>
       <r>   20.1233    0.0000 </r>
       <r>   20.6041    0.0000 </r>
      </set>
      <set comment="kpoint 49">
       <r>   -3.5983    1.0000 </r>
       <r>    3.2081    1.0000 </r>
       <r>    3.5264    1.0000 </r>
       <r>    4.2497    1.0000 </r>
       <r>    8.1490    1.0064 </r>
       <r>   11.3470    0.0000 </r>
       <r>   12.2373    0.0000 </r>
       <r>   12.8503    0.0000 </r>
       <r>   14.7913    0.0000 </r>
       <r>   18.4583    0.0000 </r>
       <r>   20.3825    0.0000 </r>
       <r>   20.6067    0.0000 </r>
      </set>
      <set comment="kpoint 50">
       <r>   -3.6517    1.0000 </r>
       <r>    2.5698    1.0000 </r>
       <r>    3.6156    1.0000 </r>
       <r>    5.0343    1.0000 </r>
       <r>    7.2043    1.0000 </r>
       <r>   11.6871    0.0000 </r>
       <r>   12.1299    0.0000 </r>
       <r>   13.1702    0.0000 </r>
       <r>   15.6547    0.0000 </r>
       <r>   17.4277    0.0000 </r>
       <r>   19.8714    0.0000 </r>
       <r>   20.6054    0.0000 </r>
      </set>
      <set comment="kpoint 51">
       <r>   -4.0259    1.0000 </r>
       <r>    2.1352    1.0000 </r>
       <r>    3.7909    1.0000 </r>
       <r>    3.7909    1.0000 </r>
       <r>    9.4587    0.0000 </r>
       <r>    9.4587    0.0000 </r>
       <r>    9.8459    0.0000 </r>
       <r>   15.3442    0.0000 </r>
       <r>   15.3442    0.0000 </r>
       <r>   16.5118    0.0000 </r>
       <r>   20.5842    0.0000 </r>
       <r>   21.2962    0.0000 </r>
      </set>
      <set comment="kpoint 52">
       <r>   -3.3866    1.0000 </r>
       <r>    1.3816    1.0000 </r>
       <r>    3.4007    1.0000 </r>
       <r>    3.6915    1.0000 </r>
       <r>    9.4011    0.0000 </r>
       <r>   10.0568    0.0000 </r>
       <r>   11.2988    0.0000 </r>
       <r>   14.2645    0.0000 </r>
       <r>   16.3156    0.0000 </r>
       <r>   17.4529    0.0000 </r>
       <r>   20.5846    0.0000 </r>
       <r>   21.5672    0.0000 </r>
      </set>
      <set comment="kpoint 53">
       <r>   -2.9179    1.0000 </r>
       <r>    1.1673    1.0000 </r>
       <r>    3.4672    1.0000 </r>
       <r>    3.5230    1.0000 </r>
       <r>    9.9550    0.0000 </r>
       <r>   10.5467    0.0000 </r>
       <r>   11.4441    0.0000 </r>
       <r>   13.4365    0.0000 </r>
       <r>   17.6512    0.0000 </r>
       <r>   17.6544    0.0000 </r>
       <r>   20.5801    0.0000 </r>
       <r>   20.9326    0.0000 </r>
      </set>
      <set comment="kpoint 54">
       <r>   -3.1425    1.0000 </r>
       <r>    1.8845    1.0000 </r>
       <r>    3.4288    1.0000 </r>
       <r>    4.1001    1.0000 </r>
       <r>    8.6209    0.0000 </r>
       <r>   10.9415    0.0000 </r>
       <r>   11.9737    0.0000 </r>
       <r>   14.2221    0.0000 </r>
       <r>   15.6441    0.0000 </r>
       <r>   18.9065    0.0000 </r>
       <r>   20.2391    0.0000 </r>
       <r>   20.6090    0.0000 </r>
      </set>
      <set comment="kpoint 55">
       <r>   -3.0427    1.0000 </r>
       <r>    0.9762    1.0000 </r>
       <r>    3.2808    1.0000 </r>
[...]
        <r>  0.0616  0.0101  0.0101  0.2036  0.1464  0.0079  0.0018  0.1464  0.0053 </r>
       </set>
      </set>
      <set comment="kpoint 54">
       <set comment="band 1">
        <r>  0.4364  0.0010  0.0010  0.0001  0.0000  0.0000  0.0000  0.0000  0.0000 </r>
        <r>  0.0035  0.0476  0.0476  0.0025  0.0000  0.0002  0.0765  0.0000  0.2295 </r>
       </set>
       <set comment="band 2">
        <r>  0.0048  0.0910  0.0910  0.0077  0.0000  0.0000  0.0000  0.0000  0.0000 </r>
        <r>  0.1948  0.0515  0.0515  0.0102  0.0098  0.2641  0.0097  0.0098  0.0291 </r>
       </set>
       <set comment="band 3">
        <r>  0.0009  0.0042  0.0042  0.2165  0.0000  0.0000  0.0000  0.0000  0.0000 </r>
        <r>  0.0000  0.0040  0.0040  0.3274  0.1089  0.0181  0.0055  0.1089  0.0165 </r>
       </set>
       <set comment="band 4">
        <r>  0.0000  0.1504  0.1504  0.0000  0.0000  0.0000  0.0000  0.0000  0.0000 </r>
        <r>  0.0000  0.0352  0.0352  0.0000  0.0026  0.0000  0.3613  0.0026  0.1204 </r>
       </set>
       <set comment="band 5">
        <r>  0.0105  0.0623  0.0623  0.0010  0.0000  0.0000  0.0000  0.0000  0.0000 </r>
        <r>  0.0993  0.0005  0.0005  0.0013  0.0002  0.5482  0.0065  0.0002  0.0195 </r>
       </set>
       <set comment="band 6">
        <r>  0.0000  0.0007  0.0007  0.0000  0.0000  0.0000  0.0000  0.0000  0.0000 </r>
        <r>  0.0000  0.0001  0.0001  0.0000  0.4694  0.0000  0.0028  0.4694  0.0009 </r>
       </set>
       <set comment="band 7">
        <r>  0.0037  0.0006  0.0006  0.1849  0.0000  0.0000  0.0000  0.0000  0.0000 </r>
        <r>  0.0210  0.0001  0.0001  0.0276  0.3116  0.0001  0.0064  0.3116  0.0193 </r>
       </set>
       <set comment="band 8">
        <r>  0.0965  0.0000  0.0000  0.0212  0.0000  0.0000  0.0000  0.0000  0.0000 </r>
        <r>  0.1671  0.0057  0.0057  0.0190  0.0099  0.0004  0.1505  0.0099  0.4515 </r>
       </set>
       <set comment="band 9">
        <r>  0.0000  0.0940  0.0940  0.0000  0.0000  0.0000  0.0000  0.0000  0.0000 </r>
        <r>  0.0000  0.0622  0.0622  0.0000  0.0001  0.0000  0.4528  0.0001  0.1509 </r>
       </set>
       <set comment="band 10">
        <r>  0.0787  0.0305  0.0305  0.0246  0.0000  0.0000  0.0000  0.0000  0.0000 </r>
        <r>  0.1476  0.1391  0.1391  0.0123  0.0126  0.0817  0.0053  0.0126  0.0160 </r>
       </set>
       <set comment="band 11">
        <r>  0.0055  0.0552  0.0552  0.1079  0.0000  0.0000  0.0000  0.0000  0.0000 </r>
        <r>  0.8235  0.0002  0.0002  0.1411  0.0663  0.0031  0.0140  0.0663  0.0419 </r>
       </set>
       <set comment="band 12">
        <r>  0.0009  0.0007  0.0007  0.0040  0.0000  0.0000  0.0000  0.0000  0.0000 </r>
        <r> 42.9153  0.0018  0.0018  0.0055  0.0025  0.0012  0.0002  0.0025  0.0005 </r>
       </set>
      </set>
      <set comment="kpoint 55">
       <set comment="band 1">
        <r>  0.4033  0.0047  0.0018  0.0047  0.0000  0.0000  0.0000  0.0000  0.0000 </r>
        <r>  0.1169  0.0444  0.0876  0.0444  0.0040  0.0042  0.0703  0.0042  0.0000 </r>
       </set>
       <set comment="band 2">
        <r>  0.0466  0.0372  0.0996  0.0372  0.0000  0.0000  0.0000  0.0000  0.0000 </r>
        <r>  0.2107  0.0251  0.0028  0.0251  0.0828  0.0960  0.0591  0.0960  0.0000 </r>
       </set>
       <set comment="band 3">
        <r>  0.0063  0.0563  0.1315  0.0563  0.0000  0.0000  0.0000  0.0000  0.0000 </r>
        <r>  0.0003  0.0220  0.0399  0.0220  0.1508  0.0010  0.3879  0.0010  0.0000 </r>
       </set>
       <set comment="band 4">
        <r>  0.0000  0.1330  0.0000  0.1330  0.0000  0.0000  0.0000  0.0000  0.0000 </r>
        <r>  0.0000  0.0148  0.0000  0.0148  0.0000  0.0606  0.0000  0.0606  0.4612 </r>
       </set>
       <set comment="band 5">
        <r>  0.0194  0.0363  0.0045  0.0363  0.0000  0.0000  0.0000  0.0000  0.0000 </r>
        <r>  0.0299  0.0005  0.0014  0.0005  0.5991  0.0200  0.0682  0.0200  0.0000 </r>
       </set>
       <set comment="band 6">
        <r>  0.0000  0.0117  0.0000  0.0117  0.0000  0.0000  0.0000  0.0000  0.0000 </r>
        <r>  0.0000  0.0016  0.0000  0.0016  0.0000  0.4103  0.0000  0.4103  0.1241 </r>
       </set>
       <set comment="band 7">
        <r>  0.0104  0.0308  0.0417  0.0308  0.0000  0.0000  0.0000  0.0000  0.0000 </r>
        <r>  0.0864  0.0006  0.0041  0.0006  0.0000  0.3525  0.0038  0.3525  0.0000 </r>
       </set>
       <set comment="band 8">
        <r>  0.1135  0.0282  0.0047  0.0282  0.0000  0.0000  0.0000  0.0000  0.0000 </r>
        <r>  0.0002  0.0756  0.1079  0.0756  0.0609  0.0040  0.1008  0.0040  0.0000 </r>
       </set>
       <set comment="band 9">
        <r>  0.0000  0.1287  0.0000  0.1287  0.0000  0.0000  0.0000  0.0000  0.0000 </r>
        <r>  0.0000  0.0590  0.0000  0.0590  0.0000  0.0163  0.0000  0.0163  0.4581 </r>
       </set>
       <set comment="band 10">
        <r>  0.0028  0.0438  0.2304  0.0438  0.0000  0.0000  0.0000  0.0000  0.0000 </r>
        <r>  0.0054  0.0050  0.0308  0.0050  0.0059  0.0022  0.4572  0.0022  0.0000 </r>
       </set>
       <set comment="band 11">
        <r>  0.0026  0.0153  0.0241  0.0153  0.0000  0.0000  0.0000  0.0000  0.0000 </r>
        <r> 31.3827  0.0045  0.0343  0.0045  0.0000  0.0010  0.0092  0.0010  0.0000 </r>
       </set>
       <set comment="band 12">
        <r>  0.0090  0.0494  0.0708  0.0494  0.0000  0.0000  0.0000  0.0000  0.0000 </r>
        <r> 12.9332  0.0186  0.1269  0.0186  0.0002  0.0039  0.0294  0.0039  0.0000 </r>
       </set>
      </set>
      <set comment="kpoint 56">
       <set comment="band 1">
        <r>  0.4395  0.0012  0.0000  0.0016  0.0000  0.0000  0.0000  0.0000  0.0000 </r>
        <r>  0.0261  0.0760  0.0584  0.0183  0.0007  0.0008  0.1607  0.0003  0.0344 </r>
       </set>
       <set comment="band 2">
        <r>  0.0068  0.0771  0.0866  0.0253  0.0000  0.0000  0.0000  0.0000  0.0000 </r>
        <r>  0.2466  0.0023  0.0399  0.0276  0.0753  0.1402  0.0137  0.0432  0.0382 </r>
       </set>
       <set comment="band 3">
        <r>  0.0055  0.0223  0.1188  0.0898  0.0000  0.0000  0.0000  0.0000  0.0000 </r>
        <r>  0.0001  0.0071  0.0818  0.0913  0.1677  0.0345  0.2302  0.0036  0.0001 </r>
       </set>
       <set comment="band 4">
        <r>  0.0001  0.1539  0.0256  0.0919  0.0000  0.0000  0.0000  0.0000  0.0000 </r>
        <r>  0.0013  0.0004  0.0098  0.0624  0.0203  0.0110  0.0737  0.0607  0.3558 </r>
       </set>
       <set comment="band 5">
        <r>  0.0136  0.0109  0.0059  0.0898  0.0000  0.0000  0.0000  0.0000  0.0000 </r>
        <r>  0.0256  0.0003  0.0027  0.0059  0.5643  0.0037  0.0458  0.0598  0.0116 </r>
       </set>
       <set comment="band 6">
        <r>  0.0067  0.0248  0.0432  0.0022  0.0000  0.0000  0.0000  0.0000  0.0000 </r>
        <r>  0.0326  0.0007  0.0000  0.0001  0.0032  0.6503  0.0222  0.0799  0.0456 </r>
       </set>
       <set comment="band 7">
        <r>  0.0030  0.0075  0.0257  0.0546  0.0000  0.0000  0.0000  0.0000  0.0000 </r>
        <r>  0.0733  0.0008  0.0000  0.0001  0.0021  0.0450  0.0013  0.6798  0.0431 </r>
       </set>
       <set comment="band 8">
        <r>  0.0592  0.0187  0.0000  0.1210  0.0000  0.0000  0.0000  0.0000  0.0000 </r>
        <r>  0.0498  0.0104  0.0001  0.0892  0.0165  0.0078  0.0716  0.0276  0.4120 </r>
       </set>
       <set comment="band 9">
        <r>  0.0720  0.0399  0.0269  0.0060  0.0000  0.0000  0.0000  0.0000  0.0000 </r>
        <r>  0.0188  0.0397  0.1641  0.0033  0.0167  0.0504  0.2617  0.0002  0.0739 </r>
       </set>
       <set comment="band 10">
        <r>  0.0030  0.0102  0.1928  0.0105  0.0000  0.0000  0.0000  0.0000  0.0000 </r>
        <r>  0.0107  0.1204  0.0107  0.0301  0.0334  0.0267  0.2773  0.0034  0.0005 </r>
       </set>
       <set comment="band 11">
        <r>  0.0024  0.1875  0.0105  0.0102  0.0000  0.0000  0.0000  0.0000  0.0000 </r>
        <r> 13.2518  0.0093  0.0548  0.0052  0.0000  0.0003  0.0062  0.0009  0.0497 </r>
       </set>
       <set comment="band 12">
        <r>  0.0014  0.1043  0.0056  0.0050  0.0000  0.0000  0.0000  0.0000  0.0000 </r>
        <r> 31.1268  0.0060  0.0347  0.0045  0.0001  0.0002  0.0027  0.0004  0.0266 </r>
       </set>
      </set>
      <set comment="kpoint 57">
       <set comment="band 1">
        <r>  0.4372  0.0002  0.0007  0.0001  0.0000  0.0000  0.0000  0.0000  0.0000 </r>
        <r>  0.0006  0.0721  0.0196  0.0024  0.0000  0.0000  0.1850  0.0000  0.1311 </r>
       </set>
       <set comment="band 2">
        <r>  0.0015  0.1194  0.0746  0.0103  0.0000  0.0000  0.0000  0.0000  0.0000 </r>
        <r>  0.1853  0.0100  0.0870  0.0148  0.0214  0.2134  0.0028  0.0063  0.0780 </r>
       </set>
       <set comment="band 3">
        <r>  0.0008  0.0005  0.0176  0.1947  0.0000  0.0000  0.0000  0.0000  0.0000 </r>
        <r>  0.0000  0.0014  0.0209  0.2913  0.2127  0.0313  0.0119  0.0295  0.0094 </r>
       </set>
       <set comment="band 4">
        <r>  0.0001  0.1547  0.1192  0.0081  0.0000  0.0000  0.0000  0.0000  0.0000 </r>
        <r>  0.0117  0.0019  0.1019  0.0103  0.0014  0.0476  0.2048  0.0072  0.1794 </r>
       </set>
       <set comment="band 5">
        <r>  0.0076  0.0152  0.1324  0.0003  0.0000  0.0000  0.0000  0.0000  0.0000 </r>
        <r>  0.0732  0.0001  0.0149  0.0006  0.0007  0.5369  0.0336  0.0033  0.0014 </r>
       </set>
       <set comment="band 6">
        <r>  0.0018  0.0010  0.0012  0.1208  0.0000  0.0000  0.0000  0.0000  0.0000 </r>
        <r>  0.0061  0.0000  0.0006  0.0289  0.5985  0.0002  0.0060  0.0952  0.0041 </r>
       </set>
       <set comment="band 7">
        <r>  0.0010  0.0005  0.0015  0.0734  0.0000  0.0000  0.0000  0.0000  0.0000 </r>
        <r>  0.0167  0.0000  0.0001  0.0106  0.0166  0.0000  0.0000  0.8147  0.0186 </r>
       </set>
       <set comment="band 8">
        <r>  0.0472  0.0106  0.0148  0.0203  0.0000  0.0000  0.0000  0.0000  0.0000 </r>
        <r>  0.2268  0.0026  0.0227  0.0181  0.0061  0.0008  0.0053  0.0119  0.5544 </r>
       </set>
       <set comment="band 9">
        <r>  0.0869  0.0173  0.0687  0.0003  0.0000  0.0000  0.0000  0.0000  0.0000 </r>
        <r>  0.0208  0.0197  0.0657  0.0007  0.0008  0.0118  0.6282  0.0001  0.0007 </r>
       </set>
       <set comment="band 10">
        <r>  0.0338  0.1048  0.0093  0.0403  0.0000  0.0000  0.0000  0.0000  0.0000 </r>
        <r>  0.1878  0.1391  0.0805  0.0306  0.0433  0.0767  0.0300  0.0049  0.0339 </r>
       </set>
       <set comment="band 11">
        <r>  0.0000  0.1134  0.0277  0.0305  0.0000  0.0000  0.0000  0.0000  0.0000 </r>
        <r> 15.4699  0.0050  0.0032  0.0495  0.0385  0.0157  0.0004  0.0048  0.0636 </r>
       </set>
       <set comment="band 12">
        <r>  0.0009  0.0928  0.0128  0.0187  0.0000  0.0000  0.0000  0.0000  0.0000 </r>
        <r> 28.6039  0.0000  0.0000  0.0330  0.0237  0.0025  0.0012  0.0032  0.0458 </r>
       </set>
      </set>
      <set comment="kpoint 58">
       <set comment="band 1">
        <r>  0.4375  0.0015  0.0003  0.0015  0.0000  0.0000  0.0000  0.0000  0.0000 </r>
        <r>  0.0108  0.0476  0.0228  0.0476  0.0005  0.0001  0.2650  0.0001  0.0000 </r>
       </set>
       <set comment="band 2">
        <r>  0.0053  0.0684  0.0481  0.0684  0.0000  0.0000  0.0000  0.0000  0.0000 </r>
        <r>  0.2242  0.0336  0.0456  0.0336  0.1779  0.0559  0.0022  0.0559  0.0000 </r>
       </set>
       <set comment="band 3">
        <r>  0.0053  0.0262  0.1782  0.0262  0.0000  0.0000  0.0000  0.0000  0.0000 </r>
        <r>  0.0000  0.0220  0.2113  0.0220  0.1030  0.0489  0.1467  0.0489  0.0000 </r>
       </set>
       <set comment="band 4">
        <r>  0.0000  0.1453  0.0000  0.1453  0.0000  0.0000  0.0000  0.0000  0.0000 </r>
        <r>  0.0000  0.0301  0.0000  0.0301  0.0000  0.0200  0.0000  0.0200  0.4728 </r>
       </set>
       <set comment="band 5">
        <r>  0.0155  0.0584  0.0063  0.0584  0.0000  0.0000  0.0000  0.0000  0.0000 </r>
        <r>  0.0678  0.0004  0.0053  0.0004  0.5472  0.0036  0.0473  0.0036  0.0000 </r>
       </set>
       <set comment="band 6">
        <r>  0.0000  0.0052  0.0000  0.0052  0.0000  0.0000  0.0000  0.0000  0.0000 </r>
        <r>  0.0000  0.0002  0.0000  0.0002  0.0000  0.4572  0.0000  0.4572  0.0329 </r>
       </set>
       <set comment="band 7">
        <r>  0.0059  0.0081  0.1089  0.0081  0.0000  0.0000  0.0000  0.0000  0.0000 </r>
        <r>  0.0773  0.0000  0.0026  0.0000  0.0018  0.3239  0.0527  0.3239  0.0000 </r>
       </set>
       <set comment="band 8">
        <r>  0.1057  0.0009  0.0557  0.0009  0.0000  0.0000  0.0000  0.0000  0.0000 </r>
        <r>  0.0588  0.0003  0.1015  0.0003  0.0072  0.0287  0.5015  0.0287  0.0000 </r>
       </set>
       <set comment="band 9">
        <r>  0.0000  0.0979  0.0000  0.0979  0.0000  0.0000  0.0000  0.0000  0.0000 </r>
        <r>  0.0000  0.0651  0.0000  0.0651  0.0000  0.0015  0.0000  0.0015  0.5718 </r>
       </set>
       <set comment="band 10">
        <r>  0.0347  0.0028  0.1122  0.0028  0.0000  0.0000  0.0000  0.0000  0.0000 </r>
        <r>  0.0990  0.1232  0.0137  0.1232  0.0728  0.0164  0.0275  0.0164  0.0000 </r>
       </set>
       <set comment="band 11">
        <r>  0.0172  0.1271  0.0219  0.1271  0.0000  0.0000  0.0000  0.0000  0.0000 </r>
        <r>  0.6375  0.0058  0.0961  0.0058  0.0013  0.0096  0.1077  0.0096  0.0000 </r>
       </set>
       <set comment="band 12">
        <r>  0.0007  0.0030  0.0006  0.0030  0.0000  0.0000  0.0000  0.0000  0.0000 </r>
        <r> 43.6675  0.0008  0.0034  0.0008  0.0001  0.0003  0.0019  0.0003  0.0000 </r>
       </set>
      </set>
      <set comment="kpoint 59">
       <set comment="band 1">
        <r>  0.4203  0.0044  0.0044  0.0044  0.0000  0.0000  0.0000  0.0000  0.0000 </r>
        <r>  0.0871  0.0779  0.0779  0.0779  0.0064  0.0064  0.0000  0.0064  0.0000 </r>
       </set>
       <set comment="band 2">
        <r>  0.0558  0.0530  0.0530  0.0530  0.0000  0.0000  0.0000  0.0000  0.0000 </r>
        <r>  0.2577  0.0143  0.0143  0.0143  0.0992  0.0992  0.0000  0.0992  0.0000 </r>
       </set>
       <set comment="band 3">
        <r>  0.0000  0.1103  0.0791  0.0682  0.0000  0.0000  0.0000  0.0000  0.0000 </r>
        <r>  0.0000  0.0004  0.0003  0.0002  0.0346  0.0299  0.2441  0.0483  0.2861 </r>
       </set>
       <set comment="band 4">
        <r>  0.0000  0.0614  0.0926  0.1035  0.0000  0.0000  0.0000  0.0000  0.0000 </r>
        <r>  0.0000  0.0002  0.0003  0.0003  0.0406  0.0453  0.2861  0.0269  0.2441 </r>
       </set>
       <set comment="band 5">
        <r>  0.0000  0.0068  0.0091  0.0129  0.0000  0.0000  0.0000  0.0000  0.0000 </r>
        <r>  0.0000  0.0006  0.0008  0.0011  0.2671  0.3807  0.0400  0.1996  0.0446 </r>
       </set>
       <set comment="band 6">
        <r>  0.0000  0.0124  0.0101  0.0062  0.0000  0.0000  0.0000  0.0000  0.0000 </r>
        <r>  0.0000  0.0011  0.0009  0.0005  0.2978  0.1842  0.0446  0.3653  0.0400 </r>
       </set>
       <set comment="band 7">
        <r>  0.0254  0.0421  0.0421  0.0421  0.0000  0.0000  0.0000  0.0000  0.0000 </r>
        <r>  0.1167  0.0096  0.0096  0.0096  0.1748  0.1748  0.0000  0.1748  0.0000 </r>
       </set>
       <set comment="band 8">
        <r>  0.0817  0.0168  0.0168  0.0168  0.0000  0.0000  0.0000  0.0000  0.0000 </r>
        <r>  0.0076  0.0969  0.0969  0.0969  0.0359  0.0359  0.0000  0.0359  0.0000 </r>
       </set>
       <set comment="band 9">
        <r>  0.0000  0.0707  0.1269  0.1401  0.0000  0.0000  0.0000  0.0000  0.0000 </r>
        <r>  0.0000  0.0076  0.0137  0.0152  0.0033  0.0036  0.2917  0.0018  0.2258 </r>
       </set>
       <set comment="band 10">
        <r>  0.0000  0.1545  0.0983  0.0850  0.0000  0.0000  0.0000  0.0000  0.0000 </r>
        <r>  0.0000  0.0167  0.0106  0.0092  0.0025  0.0022  0.2258  0.0040  0.2917 </r>
       </set>
       <set comment="band 11">
        <r>  0.0000  0.0006  0.0006  0.0005  0.0000  0.0000  0.0000  0.0000  0.0000 </r>
        <r> 43.3472  0.0001  0.0001  0.0001  0.0000  0.0000  0.0000  0.0000  0.0000 </r>
       </set>
       <set comment="band 12">
        <r>  0.0000  0.0021  0.0032  0.0036  0.0000  0.0000  0.0000  0.0000  0.0000 </r>
        <r>  0.0000  0.1028  0.1567  0.1758  0.0057  0.0064  0.0201  0.0037  0.0171 </r>
       </set>
      </set>
      <set comment="kpoint 60">
       <set comment="band 1">
        <r>  0.4642  0.0000  0.0000  0.0018  0.0000  0.0000  0.0000  0.0000  0.0000 </r>
        <r>  0.0054  0.0862  0.0862  0.0535  0.0004  0.0003  0.0230  0.0004  0.0690 </r>
       </set>
       <set comment="band 2">
        <r>  0.0025  0.0656  0.0656  0.0441  0.0000  0.0000  0.0000  0.0000  0.0000 </r>
        <r>  0.3097  0.0025  0.0025  0.0220  0.0864  0.1249  0.0024  0.0864  0.0072 </r>
       </set>
       <set comment="band 3">
        <r>  0.0044  0.0346  0.0346  0.1775  0.0000  0.0000  0.0000  0.0000  0.0000 </r>
        <r>  0.0000  0.0106  0.0106  0.0765  0.0417  0.0720  0.0933  0.0417  0.2798 </r>
       </set>
       <set comment="band 4">
        <r>  0.0000  0.1332  0.1332  0.0000  0.0000  0.0000  0.0000  0.0000  0.0000 </r>
        <r>  0.0000  0.0062  0.0062  0.0000  0.0410  0.0000  0.4011  0.0410  0.1337 </r>
       </set>
       <set comment="band 5">
        <r>  0.0172  0.0160  0.0160  0.0240  0.0000  0.0000  0.0000  0.0000  0.0000 </r>
        <r>  0.0031  0.0028  0.0028  0.0004  0.0821  0.5332  0.0270  0.0821  0.0809 </r>
       </set>
       <set comment="band 6">
        <r>  0.0000  0.0113  0.0113  0.0000  0.0000  0.0000  0.0000  0.0000  0.0000 </r>
        <r>  0.0000  0.0008  0.0008  0.0000  0.4382  0.0000  0.0425  0.4382  0.0142 </r>
       </set>
       <set comment="band 7">
        <r>  0.0036  0.0402  0.0402  0.0701  0.0000  0.0000  0.0000  0.0000  0.0000 </r>
        <r>  0.1354  0.0001  0.0001  0.0017  0.2173  0.1589  0.0023  0.2173  0.0070 </r>
       </set>
       <set comment="band 8">
        <r>  0.0991  0.0000  0.0000  0.0127  0.0000  0.0000  0.0000  0.0000  0.0000 </r>
        <r>  0.0001  0.0786  0.0786  0.1188  0.0450  0.0626  0.0113  0.0450  0.0339 </r>
       </set>
       <set comment="band 9">
        <r>  0.0021  0.0200  0.0200  0.1924  0.0000  0.0000  0.0000  0.0000  0.0000 </r>
        <r>  0.0194  0.0483  0.0483  0.0262  0.0003  0.0047  0.1136  0.0003  0.3409 </r>
       </set>
       <set comment="band 10">
        <r>  0.0000  0.1452  0.1452  0.0000  0.0000  0.0000  0.0000  0.0000  0.0000 </r>
        <r>  0.0000  0.0273  0.0273  0.0000  0.0006  0.0000  0.4241  0.0006  0.1414 </r>
       </set>
       <set comment="band 11">
        <r>  0.0001  0.0101  0.0102  0.0000  0.0000  0.0000  0.0000  0.0000  0.0000 </r>
        <r> 39.4129  0.0028  0.0028  0.0097  0.0001  0.0002  0.0014  0.0001  0.0041 </r>
       </set>
       <set comment="band 12">
        <r>  0.0022  0.0772  0.0772  0.0063  0.0000  0.0000  0.0000  0.0000  0.0000 </r>
        <r>  4.0905  0.0502  0.0503  0.1768  0.0056  0.0108  0.0149  0.0056  0.0448 </r>
       </set>
      </set>
     </set>
    </set>
   </array>
  </projected>
 </calculation>
 <structure name="finalpos" >
  <crystal>
   <varray name="basis" >
    <v>       0.00000000       2.24750000       2.24750000 </v>
    <v>       2.24750000       0.00000000       2.24750000 </v>
    <v>       2.24750000       2.24750000       0.00000000 </v>
   </varray>
   <i name="volume">     22.70539684 </i>
   <varray name="rec_basis" >
    <v>      -0.22246941       0.22246941       0.22246941 </v>
    <v>       0.22246941      -0.22246941       0.22246941 </v>
    <v>       0.22246941       0.22246941      -0.22246941 </v>
   </varray>
  </crystal>
  <varray name="positions" >
   <v>       0.50000000       0.50000000       0.50000000 </v>
   <v>       0.00000000       0.00000000       0.00000000 </v>
  </varray>
 </structure>
</modeling>
