unknown system                          
           1
     0.000000    2.247500    2.247500
     2.247500    0.000000    2.247500
     2.247500    2.247500    0.000000
   C    Ta
   1   1
Direct configuration=     1
   0.50000000  0.50000000  0.50000000
   0.00000000  0.00000000  0.00000000
