   3   3   0   0
  0.3333333E+03  0.1000000E-08  0.1000000E-08  0.1000000E-08  0.1500000E-16
  1.000000000000000E-004
  CAR 
 unknown system                          
      2.05790851    -30.49995920  301     -8.56409583      1.00000000
    -30.500  0.0000E+00  0.0000E+00
    -30.391  0.0000E+00  0.0000E+00
    -30.283  0.0000E+00  0.0000E+00
    -30.174  0.0000E+00  0.0000E+00
    -30.066  0.0000E+00  0.0000E+00
    -29.957  0.0000E+00  0.0000E+00
    -29.849  0.0000E+00  0.0000E+00
    -29.740  0.0000E+00  0.0000E+00
    -29.632  0.0000E+00  0.0000E+00
    -29.523  0.0000E+00  0.0000E+00
    -29.415  0.0000E+00  0.0000E+00
    -29.306  0.5115E-14  0.5551E-15
    -29.198  0.4688E-05  0.5088E-06
    -29.089  0.4679E+00  0.5078E-01
    -28.981  0.1553E+02  0.1736E+01
    -28.872  0.2435E+01  0.2000E+01
    -28.764  0.2618E-03  0.2000E+01
    -28.655  0.3691E-11  0.2000E+01
    -28.546  0.0000E+00  0.2000E+01
    -28.438  0.0000E+00  0.2000E+01
    -28.329  0.0000E+00  0.2000E+01
    -28.221  0.1763E-07  0.2000E+01
    -28.112  0.3069E-01  0.2003E+01
    -28.004  0.1017E+02  0.3107E+01
    -27.895  0.8219E+01  0.3999E+01
    -27.787  0.1250E-01  0.4000E+01
    -27.678  0.3257E-08  0.4000E+01
    -27.570  0.0000E+00  0.4000E+01
    -27.461  0.0000E+00  0.4000E+01
    -27.353  0.0000E+00  0.4000E+01
    -27.244  0.0000E+00  0.4000E+01
    -27.136  0.0000E+00  0.4000E+01
    -27.027  0.0000E+00  0.4000E+01
    -26.919  0.0000E+00  0.4000E+01
    -26.810  0.0000E+00  0.4000E+01
    -26.702  0.0000E+00  0.4000E+01
    -26.593  0.0000E+00  0.4000E+01
    -26.484  0.0000E+00  0.4000E+01
    -26.376  0.0000E+00  0.4000E+01
    -26.267  0.0000E+00  0.4000E+01
    -26.159  0.0000E+00  0.4000E+01
    -26.050  0.0000E+00  0.4000E+01
    -25.942  0.0000E+00  0.4000E+01
    -25.833  0.0000E+00  0.4000E+01
    -25.725  0.0000E+00  0.4000E+01
    -25.616  0.0000E+00  0.4000E+01
    -25.508  0.0000E+00  0.4000E+01
    -25.399  0.0000E+00  0.4000E+01
    -25.291  0.0000E+00  0.4000E+01
    -25.182  0.0000E+00  0.4000E+01
    -25.074  0.0000E+00  0.4000E+01
    -24.965  0.0000E+00  0.4000E+01
    -24.857  0.0000E+00  0.4000E+01
    -24.748  0.0000E+00  0.4000E+01
    -24.640  0.0000E+00  0.4000E+01
    -24.531  0.0000E+00  0.4000E+01
    -24.422  0.0000E+00  0.4000E+01
    -24.314  0.0000E+00  0.4000E+01
    -24.205  0.0000E+00  0.4000E+01
    -24.097  0.0000E+00  0.4000E+01
    -23.988  0.0000E+00  0.4000E+01
    -23.880  0.0000E+00  0.4000E+01
    -23.771  0.0000E+00  0.4000E+01
    -23.663  0.0000E+00  0.4000E+01
    -23.554  0.0000E+00  0.4000E+01
    -23.446  0.0000E+00  0.4000E+01
    -23.337  0.0000E+00  0.4000E+01
    -23.229  0.0000E+00  0.4000E+01
    -23.120  0.0000E+00  0.4000E+01
    -23.012  0.0000E+00  0.4000E+01
    -22.903  0.0000E+00  0.4000E+01
    -22.795  0.0000E+00  0.4000E+01
    -22.686  0.0000E+00  0.4000E+01
    -22.578  0.0000E+00  0.4000E+01
    -22.469  0.0000E+00  0.4000E+01
    -22.360  0.0000E+00  0.4000E+01
    -22.252  0.0000E+00  0.4000E+01
    -22.143  0.0000E+00  0.4000E+01
    -22.035  0.0000E+00  0.4000E+01
    -21.926  0.0000E+00  0.4000E+01
    -21.818  0.0000E+00  0.4000E+01
    -21.709  0.0000E+00  0.4000E+01
    -21.601  0.0000E+00  0.4000E+01
    -21.492  0.0000E+00  0.4000E+01
    -21.384  0.0000E+00  0.4000E+01
    -21.275  0.0000E+00  0.4000E+01
    -21.167  0.0000E+00  0.4000E+01
    -21.058  0.0000E+00  0.4000E+01
    -20.950  0.0000E+00  0.4000E+01
    -20.841  0.0000E+00  0.4000E+01
    -20.733  0.0000E+00  0.4000E+01
    -20.624  0.0000E+00  0.4000E+01
    -20.516  0.0000E+00  0.4000E+01
    -20.407  0.0000E+00  0.4000E+01
    -20.298  0.0000E+00  0.4000E+01
    -20.190  0.0000E+00  0.4000E+01
    -20.081  0.0000E+00  0.4000E+01
    -19.973  0.0000E+00  0.4000E+01
    -19.864  0.0000E+00  0.4000E+01
    -19.756  0.0000E+00  0.4000E+01
    -19.647  0.0000E+00  0.4000E+01
    -19.539  0.0000E+00  0.4000E+01
    -19.430  0.0000E+00  0.4000E+01
    -19.322  0.0000E+00  0.4000E+01
    -19.213  0.0000E+00  0.4000E+01
    -19.105  0.0000E+00  0.4000E+01
    -18.996  0.0000E+00  0.4000E+01
    -18.888  0.0000E+00  0.4000E+01
    -18.779  0.0000E+00  0.4000E+01
    -18.671  0.0000E+00  0.4000E+01
    -18.562  0.0000E+00  0.4000E+01
    -18.454  0.0000E+00  0.4000E+01
    -18.345  0.0000E+00  0.4000E+01
    -18.236  0.0000E+00  0.4000E+01
    -18.128  0.0000E+00  0.4000E+01
    -18.019  0.0000E+00  0.4000E+01
    -17.911  0.0000E+00  0.4000E+01
    -17.802  0.0000E+00  0.4000E+01
    -17.694  0.0000E+00  0.4000E+01
    -17.585  0.0000E+00  0.4000E+01
    -17.477  0.0000E+00  0.4000E+01
    -17.368  0.0000E+00  0.4000E+01
    -17.260  0.0000E+00  0.4000E+01
    -17.151  0.0000E+00  0.4000E+01
    -17.043  0.0000E+00  0.4000E+01
    -16.934  0.0000E+00  0.4000E+01
    -16.826  0.0000E+00  0.4000E+01
    -16.717  0.0000E+00  0.4000E+01
    -16.609  0.0000E+00  0.4000E+01
    -16.500  0.0000E+00  0.4000E+01
    -16.392  0.0000E+00  0.4000E+01
    -16.283  0.0000E+00  0.4000E+01
    -16.174  0.0000E+00  0.4000E+01
    -16.066  0.0000E+00  0.4000E+01
    -15.957  0.0000E+00  0.4000E+01
    -15.849  0.0000E+00  0.4000E+01
    -15.740  0.0000E+00  0.4000E+01
    -15.632  0.0000E+00  0.4000E+01
    -15.523  0.0000E+00  0.4000E+01
    -15.415  0.0000E+00  0.4000E+01
    -15.306  0.0000E+00  0.4000E+01
    -15.198  0.0000E+00  0.4000E+01
    -15.089  0.0000E+00  0.4000E+01
    -14.981  0.0000E+00  0.4000E+01
    -14.872  0.0000E+00  0.4000E+01
    -14.764  0.0000E+00  0.4000E+01
    -14.655  0.0000E+00  0.4000E+01
    -14.547  0.0000E+00  0.4000E+01
    -14.438  0.0000E+00  0.4000E+01
    -14.330  0.0000E+00  0.4000E+01
    -14.221  0.0000E+00  0.4000E+01
    -14.112  0.0000E+00  0.4000E+01
    -14.004  0.0000E+00  0.4000E+01
    -13.895  0.1821E-12  0.4000E+01
    -13.787  0.4237E-04  0.4000E+01
    -13.678  0.1201E+01  0.4130E+01
    -13.570  0.1613E+02  0.5880E+01
    -13.461  0.1101E+01  0.6000E+01
    -13.353  0.3428E-04  0.6000E+01
    -13.244  0.1289E-12  0.6000E+01
    -13.136  0.0000E+00  0.6000E+01
    -13.027  0.0000E+00  0.6000E+01
    -12.919  0.0000E+00  0.6000E+01
    -12.810  0.0000E+00  0.6000E+01
    -12.702  0.7414E-10  0.6000E+01
    -12.593  0.2037E-02  0.6000E+01
    -12.485  0.8327E+01  0.6904E+01
    -12.376  0.4418E+02  0.1170E+02
    -12.268  0.2779E+01  0.1200E+02
    -12.159  0.2406E-03  0.1200E+02
    -12.051  0.3165E-11  0.1200E+02
    -11.942  0.0000E+00  0.1200E+02
    -11.833  0.0000E+00  0.1200E+02
    -11.725  0.0000E+00  0.1200E+02
    -11.616  0.0000E+00  0.1200E+02
    -11.508  0.0000E+00  0.1200E+02
    -11.399  0.0000E+00  0.1200E+02
    -11.291  0.0000E+00  0.1200E+02
    -11.182  0.0000E+00  0.1200E+02
    -11.074  0.0000E+00  0.1200E+02
    -10.965  0.0000E+00  0.1200E+02
    -10.857  0.0000E+00  0.1200E+02
    -10.748  0.0000E+00  0.1200E+02
    -10.640  0.0000E+00  0.1200E+02
    -10.531  0.0000E+00  0.1200E+02
    -10.423  0.0000E+00  0.1200E+02
    -10.314  0.0000E+00  0.1200E+02
    -10.206  0.0000E+00  0.1200E+02
    -10.097  0.0000E+00  0.1200E+02
     -9.989  0.0000E+00  0.1200E+02
     -9.880  0.0000E+00  0.1200E+02
     -9.771  0.0000E+00  0.1200E+02
     -9.663  0.0000E+00  0.1200E+02
     -9.554  0.0000E+00  0.1200E+02
     -9.446  0.0000E+00  0.1200E+02
     -9.337  0.0000E+00  0.1200E+02
     -9.229  0.0000E+00  0.1200E+02
     -9.120  0.5881E-09  0.1200E+02
     -9.012  0.6632E-02  0.1200E+02
     -8.903  0.1139E+02  0.1324E+02
     -8.795  0.2528E+02  0.1598E+02
     -8.686  0.1867E+00  0.1600E+02
     -8.578  0.3118E-06  0.1600E+02
     -8.469  0.0000E+00  0.1600E+02
     -8.361  0.0000E+00  0.1600E+02
     -8.252  0.0000E+00  0.1600E+02
     -8.144  0.0000E+00  0.1600E+02
     -8.035  0.0000E+00  0.1600E+02
     -7.927  0.0000E+00  0.1600E+02
     -7.818  0.0000E+00  0.1600E+02
     -7.709  0.0000E+00  0.1600E+02
     -7.601  0.0000E+00  0.1600E+02
     -7.492  0.0000E+00  0.1600E+02
     -7.384  0.0000E+00  0.1600E+02
     -7.275  0.0000E+00  0.1600E+02
     -7.167  0.0000E+00  0.1600E+02
     -7.058  0.0000E+00  0.1600E+02
     -6.950  0.0000E+00  0.1600E+02
     -6.841  0.0000E+00  0.1600E+02
     -6.733  0.0000E+00  0.1600E+02
     -6.624  0.0000E+00  0.1600E+02
     -6.516  0.0000E+00  0.1600E+02
     -6.407  0.0000E+00  0.1600E+02
     -6.299  0.0000E+00  0.1600E+02
     -6.190  0.0000E+00  0.1600E+02
     -6.082  0.0000E+00  0.1600E+02
     -5.973  0.0000E+00  0.1600E+02
     -5.865  0.0000E+00  0.1600E+02
     -5.756  0.0000E+00  0.1600E+02
     -5.647  0.0000E+00  0.1600E+02
     -5.539  0.0000E+00  0.1600E+02
     -5.430  0.0000E+00  0.1600E+02
     -5.322  0.0000E+00  0.1600E+02
     -5.213  0.0000E+00  0.1600E+02
     -5.105  0.0000E+00  0.1600E+02
     -4.996  0.0000E+00  0.1600E+02
     -4.888  0.0000E+00  0.1600E+02
     -4.779  0.0000E+00  0.1600E+02
     -4.671  0.0000E+00  0.1600E+02
     -4.562  0.0000E+00  0.1600E+02
     -4.454  0.0000E+00  0.1600E+02
     -4.345  0.0000E+00  0.1600E+02
     -4.237  0.0000E+00  0.1600E+02
     -4.128  0.0000E+00  0.1600E+02
     -4.020  0.0000E+00  0.1600E+02
     -3.911  0.0000E+00  0.1600E+02
     -3.803  0.0000E+00  0.1600E+02
     -3.694  0.0000E+00  0.1600E+02
     -3.585  0.0000E+00  0.1600E+02
     -3.477  0.0000E+00  0.1600E+02
     -3.368  0.0000E+00  0.1600E+02
     -3.260  0.0000E+00  0.1600E+02
     -3.151  0.0000E+00  0.1600E+02
     -3.043  0.0000E+00  0.1600E+02
     -2.934  0.0000E+00  0.1600E+02
     -2.826  0.0000E+00  0.1600E+02
     -2.717  0.0000E+00  0.1600E+02
     -2.609  0.0000E+00  0.1600E+02
     -2.500  0.0000E+00  0.1600E+02
     -2.392  0.0000E+00  0.1600E+02
     -2.283  0.0000E+00  0.1600E+02
     -2.175  0.0000E+00  0.1600E+02
     -2.066  0.0000E+00  0.1600E+02
     -1.958  0.0000E+00  0.1600E+02
     -1.849  0.0000E+00  0.1600E+02
     -1.741  0.0000E+00  0.1600E+02
     -1.632  0.0000E+00  0.1600E+02
     -1.523  0.0000E+00  0.1600E+02
     -1.415  0.0000E+00  0.1600E+02
     -1.306  0.0000E+00  0.1600E+02
     -1.198  0.1944E-13  0.1600E+02
     -1.089  0.1037E-04  0.1600E+02
     -0.981  0.6640E+00  0.1607E+02
     -0.872  0.1589E+02  0.1780E+02
     -0.764  0.1878E+01  0.1800E+02
     -0.655  0.1310E-03  0.1800E+02
     -0.547  0.1175E-04  0.1800E+02
     -0.438  0.1032E+01  0.1811E+02
     -0.330  0.3127E+02  0.2151E+02
     -0.221  0.4551E+01  0.2200E+02
     -0.113  0.4377E-03  0.2200E+02
     -0.004  0.5508E-11  0.2200E+02
      0.104  0.0000E+00  0.2200E+02
      0.213  0.0000E+00  0.2200E+02
      0.321  0.3691E-11  0.2200E+02
      0.430  0.2618E-03  0.2200E+02
      0.539  0.2435E+01  0.2226E+02
      0.647  0.1553E+02  0.2395E+02
      0.756  0.4679E+00  0.2400E+02
      0.864  0.4688E-05  0.2400E+02
      0.973  0.4092E-14  0.2400E+02
      1.081  0.0000E+00  0.2400E+02
      1.190  0.0000E+00  0.2400E+02
      1.298  0.0000E+00  0.2400E+02
      1.407  0.0000E+00  0.2400E+02
      1.515  0.0000E+00  0.2400E+02
      1.624  0.0000E+00  0.2400E+02
      1.732  0.0000E+00  0.2400E+02
      1.841  0.0000E+00  0.2400E+02
      1.949  0.0000E+00  0.2400E+02
      2.058  0.0000E+00  0.2400E+02
