    3    3    1    1
  0.3333333E+03  0.1000000E-08  0.1000000E-08  0.1000000E-08  0.1500000E-16
  1.000000000000000E-004
  CAR 
 unknown system                          
   16    1   12
 
  0.0000000E+00  0.0000000E+00  0.0000000E+00  0.1000000E+01
   1      -29.020056
   2      -28.008599
   3      -13.624911
   4      -12.456427
   5      -12.456413
   6      -12.416278
   7       -8.885671
   8       -8.885574
   9       -0.917231
  10       -0.371508
  11       -0.369719
  12        0.578005
