       N       E                     dE             d eps       ncg     rms          rms(c)
DAV:   1     0.913349136847E+02    0.91335E+02   -0.42145E+03    40   0.534E+02
DAV:   2     0.451852054282E+00   -0.90883E+02   -0.87274E+02    40   0.176E+02
DAV:   3    -0.224281147281E+02   -0.22880E+02   -0.22759E+02    32   0.659E+01
DAV:   4    -0.245536723724E+02   -0.21256E+01   -0.21246E+01    28   0.181E+01
DAV:   5    -0.245708477981E+02   -0.17175E-01   -0.17175E-01    28   0.190E+00    0.792E+00
DAV:   6    -0.231565668471E+02    0.14143E+01   -0.58357E+00    28   0.181E+01    0.342E+00
DAV:   7    -0.230429314543E+02    0.11364E+00   -0.22692E-01    28   0.447E+00    0.196E+00
DAV:   8    -0.229959354091E+02    0.46996E-01   -0.23629E-01    28   0.367E+00    0.420E-01
DAV:   9    -0.229911343897E+02    0.48010E-02   -0.21055E-02    32   0.121E+00    0.187E-01
DAV:  10    -0.229928725943E+02   -0.17382E-02   -0.40279E-03    32   0.523E-01    0.733E-02
DAV:  11    -0.229955978289E+02   -0.27252E-02   -0.55583E-04    28   0.218E-01    0.404E-02
DAV:  12    -0.229977680121E+02   -0.21702E-02   -0.57162E-04    32   0.149E-01    0.186E-02
DAV:  13    -0.229998927018E+02   -0.21247E-02   -0.42318E-04    28   0.128E-01    0.225E-02
DAV:  14    -0.230001565423E+02   -0.26384E-03   -0.43348E-05    28   0.599E-02    0.672E-03
DAV:  15    -0.230005937210E+02   -0.43718E-03   -0.49618E-05    28   0.422E-02    0.684E-03
DAV:  16    -0.230006333343E+02   -0.39613E-04   -0.57134E-06    28   0.190E-02    0.346E-03
DAV:  17    -0.230006805037E+02   -0.47169E-04   -0.18096E-06    28   0.115E-02    0.123E-03
DAV:  18    -0.230006863418E+02   -0.58381E-05   -0.17493E-07    28   0.350E-03    0.822E-04
DAV:  19    -0.230006954323E+02   -0.90905E-05   -0.22385E-07    24   0.376E-03    0.186E-04
DAV:  20    -0.230006957623E+02   -0.32995E-06   -0.72599E-09    20   0.857E-04    0.100E-04
DAV:  21    -0.230006961833E+02   -0.42106E-06   -0.46783E-09    16   0.601E-04    0.512E-05
DAV:  22    -0.230006962107E+02   -0.27347E-07   -0.94609E-10    20   0.280E-04    0.354E-05
DAV:  23    -0.230006962463E+02   -0.35557E-07   -0.24496E-10    20   0.176E-04    0.283E-05
DAV:  24    -0.230006962475E+02   -0.12133E-08    0.23803E-10    20   0.773E-05
   1 F= -.23000696E+02 E0= -.23000696E+02  d E =-.722431E-19
 Found     4 degrees of freedom:
       N       E                     dE             d eps       ncg     rms          rms(c)
DAV:   1    -0.229815229400E+02    0.19173E-01   -0.57510E-01    24   0.740E+00    0.347E-01
DAV:   2    -0.229814885508E+02    0.34389E-04   -0.18582E-02    28   0.141E+00    0.264E-01
DAV:   3    -0.229805857052E+02    0.90285E-03   -0.13492E-03    32   0.533E-01    0.119E-01
DAV:   4    -0.229801722642E+02    0.41344E-03   -0.97643E-04    28   0.348E-01    0.554E-02
DAV:   5    -0.229802294356E+02   -0.57171E-04   -0.17177E-04    28   0.195E-01    0.131E-02
DAV:   6    -0.229803597102E+02   -0.13027E-03   -0.35909E-05    28   0.555E-02    0.116E-02
DAV:   7    -0.229804318990E+02   -0.72189E-04   -0.70952E-06    28   0.216E-02    0.513E-03
DAV:   8    -0.229805940589E+02   -0.16216E-03   -0.22939E-05    28   0.295E-02    0.268E-03
DAV:   9    -0.229806262708E+02   -0.32212E-04   -0.22101E-06    36   0.105E-02    0.148E-03
DAV:  10    -0.229806692719E+02   -0.43001E-04   -0.25225E-06    32   0.851E-03    0.962E-04
DAV:  11    -0.229806746690E+02   -0.53971E-05   -0.14638E-07    40   0.303E-03    0.428E-04
DAV:  12    -0.229806839551E+02   -0.92861E-05   -0.94796E-08    28   0.254E-03    0.299E-04
DAV:  13    -0.229806869064E+02   -0.29513E-05   -0.25534E-08    32   0.139E-03    0.191E-04
DAV:  14    -0.229806879418E+02   -0.10354E-05   -0.73374E-09    16   0.786E-04    0.405E-05
DAV:  15    -0.229806881180E+02   -0.17617E-06   -0.23659E-09    20   0.392E-04    0.429E-05
DAV:  16    -0.229806881819E+02   -0.63924E-07   -0.11085E-09    16   0.243E-04    0.195E-05
DAV:  17    -0.229806881888E+02   -0.68965E-08   -0.28599E-10    16   0.140E-04
   2 F= -.22980688E+02 E0= -.22980688E+02  d E =-.553941E-15
       N       E                     dE             d eps       ncg     rms          rms(c)
DAV:   1    -0.229845162199E+02   -0.38280E-02   -0.23012E+00    24   0.147E+01    0.704E-01
DAV:   2    -0.229842584599E+02    0.25776E-03   -0.70203E-02    28   0.278E+00    0.520E-01
DAV:   3    -0.229805728487E+02    0.36856E-02   -0.59408E-03    32   0.110E+00    0.220E-01
DAV:   4    -0.229791032725E+02    0.14696E-02   -0.29043E-03    28   0.639E-01    0.993E-02
DAV:   5    -0.229792547197E+02   -0.15145E-03   -0.60092E-04    24   0.369E-01    0.277E-02
DAV:   6    -0.229797635374E+02   -0.50882E-03   -0.15342E-04    28   0.107E-01    0.205E-02
DAV:   7    -0.229800196597E+02   -0.25612E-03   -0.30631E-05    28   0.439E-02    0.104E-02
DAV:   8    -0.229804443953E+02   -0.42474E-03   -0.67748E-05    28   0.536E-02    0.439E-03
DAV:   9    -0.229805396659E+02   -0.95271E-04   -0.84595E-06    36   0.194E-02    0.313E-03
DAV:  10    -0.229806423194E+02   -0.10265E-03   -0.73044E-06    32   0.150E-02    0.198E-03
DAV:  11    -0.229806596418E+02   -0.17322E-04   -0.63654E-07    40   0.558E-03    0.685E-04
DAV:  12    -0.229806820741E+02   -0.22432E-04   -0.48237E-07    28   0.490E-03    0.434E-04
DAV:  13    -0.229806850941E+02   -0.30199E-05   -0.32940E-08    32   0.127E-03    0.282E-04
DAV:  14    -0.229806874046E+02   -0.23105E-05   -0.26271E-08    24   0.116E-03    0.707E-05
DAV:  15    -0.229806880334E+02   -0.62882E-06   -0.35984E-09    20   0.546E-04    0.638E-05
DAV:  16    -0.229806881723E+02   -0.13891E-06   -0.12081E-09    16   0.268E-04    0.296E-05
DAV:  17    -0.229806881898E+02   -0.17455E-07   -0.30699E-10    20   0.182E-04    0.136E-05
DAV:  18    -0.229806881914E+02   -0.16057E-08    0.42242E-11    20   0.821E-05
   3 F= -.22980688E+02 E0= -.22980688E+02  d E =-.549439E-15
       N       E                     dE             d eps       ncg     rms          rms(c)
DAV:   1    -0.229999861419E+02   -0.19298E-01   -0.10412E+00    24   0.954E+00    0.363E-01
DAV:   2    -0.230000127083E+02   -0.26566E-04   -0.17407E-02    28   0.130E+00    0.222E-01
DAV:   3    -0.229989613975E+02    0.10513E-02   -0.19061E-03    32   0.499E-01    0.147E-02
DAV:   4    -0.229989180618E+02    0.43336E-04   -0.89092E-05    28   0.116E-01    0.964E-03
DAV:   5    -0.229989283185E+02   -0.10257E-04   -0.44789E-05    36   0.170E-01    0.421E-03
DAV:   6    -0.229989998953E+02   -0.71577E-04   -0.36341E-05    28   0.765E-02    0.379E-03
DAV:   7    -0.229991465676E+02   -0.14667E-03   -0.23466E-05    32   0.472E-02    0.233E-03
DAV:   8    -0.229991670240E+02   -0.20456E-04   -0.26453E-06    32   0.147E-02    0.145E-03
DAV:   9    -0.229992235926E+02   -0.56569E-04   -0.39153E-06    32   0.118E-02    0.476E-04
DAV:  10    -0.229992363444E+02   -0.12752E-04   -0.50025E-07    40   0.539E-03    0.484E-04
DAV:  11    -0.229992488187E+02   -0.12474E-04   -0.18725E-07    28   0.361E-03    0.290E-04
DAV:  12    -0.229992493924E+02   -0.57363E-06   -0.58311E-09    24   0.765E-04    0.116E-04
DAV:  13    -0.229992506703E+02   -0.12780E-05   -0.12675E-08    16   0.105E-03    0.427E-05
DAV:  14    -0.229992507989E+02   -0.12857E-06   -0.33516E-09    20   0.454E-04    0.231E-05
DAV:  15    -0.229992508476E+02   -0.48667E-07   -0.11211E-09    16   0.249E-04    0.670E-06
DAV:  16    -0.229992508517E+02   -0.41007E-08   -0.27015E-10    20   0.116E-04
   4 F= -.22999251E+02 E0= -.22999251E+02  d E =-.300050E-19
       N       E                     dE             d eps       ncg     rms          rms(c)
DAV:   1    -0.229980772674E+02    0.11736E-02   -0.18566E+00    24   0.112E+01    0.246E-01
DAV:   2    -0.229987821571E+02   -0.70489E-03   -0.11194E-02    32   0.908E-01    0.145E-01
DAV:   3    -0.229990551223E+02   -0.27297E-03   -0.14379E-04    32   0.111E-01    0.323E-02
DAV:   4    -0.229990808552E+02   -0.25733E-04   -0.12706E-05    32   0.317E-02    0.616E-03
DAV:   5    -0.229991211823E+02   -0.40327E-04   -0.56853E-06    32   0.179E-02    0.249E-03
DAV:   6    -0.229991487184E+02   -0.27536E-04   -0.19543E-06    28   0.855E-03    0.207E-03
DAV:   7    -0.229992060952E+02   -0.57377E-04   -0.53192E-06    28   0.116E-02    0.123E-03
DAV:   8    -0.229992177089E+02   -0.11614E-04   -0.48828E-07    40   0.414E-03    0.646E-04
DAV:   9    -0.229992370836E+02   -0.19375E-04   -0.10237E-06    32   0.501E-03    0.428E-04
DAV:  10    -0.229992462719E+02   -0.91883E-05   -0.19954E-07    32   0.268E-03    0.280E-04
DAV:  11    -0.229992482374E+02   -0.19655E-05   -0.22658E-08    32   0.889E-04    0.200E-04
DAV:  12    -0.229992505797E+02   -0.23423E-05   -0.24049E-08    28   0.120E-03    0.854E-05
DAV:  13    -0.229992507095E+02   -0.12987E-06   -0.67764E-10    24   0.233E-04    0.284E-05
DAV:  14    -0.229992508303E+02   -0.12077E-06   -0.51539E-10    16   0.226E-04    0.158E-05
DAV:  15    -0.229992508488E+02   -0.18430E-07   -0.23732E-11    20   0.980E-05    0.423E-06
DAV:  16    -0.229992508520E+02   -0.32721E-08    0.62066E-11    16   0.591E-05
   5 F= -.22999251E+02 E0= -.22999251E+02  d E =-.308242E-19
       N       E                     dE             d eps       ncg     rms          rms(c)
DAV:   1    -0.229884513751E+02    0.10799E-01   -0.17035E+00    24   0.131E+01    0.311E-01
DAV:   2    -0.229895503940E+02   -0.10990E-02   -0.28731E-02    28   0.153E+00    0.171E-01
DAV:   3    -0.229891501415E+02    0.40025E-03   -0.10602E-03    32   0.348E-01    0.692E-02
DAV:   4    -0.229891443943E+02    0.57471E-05   -0.22186E-04    28   0.178E-01    0.206E-02
DAV:   5    -0.229891667351E+02   -0.22341E-04   -0.14794E-05    28   0.360E-02    0.110E-02
DAV:   6    -0.229892055177E+02   -0.38783E-04   -0.13578E-05    28   0.319E-02    0.508E-03
DAV:   7    -0.229892240802E+02   -0.18562E-04   -0.12370E-06    28   0.161E-02    0.233E-03
DAV:   8    -0.229892929738E+02   -0.68894E-04   -0.58576E-06    28   0.143E-02    0.134E-03
DAV:   9    -0.229893275076E+02   -0.34534E-04   -0.25944E-06    40   0.103E-02    0.176E-03
DAV:  10    -0.229893523372E+02   -0.24830E-04   -0.13401E-06    32   0.875E-03    0.551E-04
DAV:  11    -0.229893585306E+02   -0.61934E-05   -0.12905E-07    40   0.277E-03    0.291E-04
DAV:  12    -0.229893657257E+02   -0.71952E-05   -0.10840E-07    32   0.236E-03    0.322E-04
DAV:  13    -0.229893681645E+02   -0.24388E-05   -0.21757E-08    28   0.122E-03    0.119E-04
DAV:  14    -0.229893690166E+02   -0.85211E-06   -0.43542E-09    24   0.602E-04    0.426E-05
DAV:  15    -0.229893692098E+02   -0.19311E-06   -0.16958E-09    16   0.294E-04    0.466E-05
DAV:  16    -0.229893692563E+02   -0.46528E-07   -0.55440E-10    20   0.215E-04    0.647E-06
DAV:  17    -0.229893692594E+02   -0.31255E-08   -0.11362E-10    24   0.108E-04
   6 F= -.22989369E+02 E0= -.22989369E+02  d E =-.143881E-16
       N       E                     dE             d eps       ncg     rms          rms(c)
DAV:   1    -0.229917951541E+02   -0.24259E-02   -0.49165E+00    24   0.223E+01    0.571E-01
DAV:   2    -0.229918074551E+02   -0.12301E-04   -0.66570E-02    28   0.241E+00    0.282E-01
DAV:   3    -0.229901173261E+02    0.16901E-02   -0.36435E-03    32   0.605E-01    0.102E-01
DAV:   4    -0.229900575119E+02    0.59814E-04   -0.75040E-04    32   0.263E-01    0.327E-02
DAV:   5    -0.229901425714E+02   -0.85060E-04   -0.43715E-05    28   0.772E-02    0.169E-02
DAV:   6    -0.229902310991E+02   -0.88528E-04   -0.18197E-05    28   0.380E-02    0.573E-03
DAV:   7    -0.229902759261E+02   -0.44827E-04   -0.24119E-06    36   0.213E-02    0.441E-03
DAV:   8    -0.229904163104E+02   -0.14038E-03   -0.18388E-05    28   0.303E-02    0.322E-03
DAV:   9    -0.229904581855E+02   -0.41875E-04   -0.35099E-06    40   0.120E-02    0.175E-03
DAV:  10    -0.229905101889E+02   -0.52003E-04   -0.45779E-06    32   0.140E-02    0.164E-03
DAV:  11    -0.229905176173E+02   -0.74284E-05   -0.46441E-07    40   0.684E-03    0.607E-04
DAV:  12    -0.229905326409E+02   -0.15024E-04   -0.30758E-07    32   0.395E-03    0.235E-04
DAV:  13    -0.229905364656E+02   -0.38247E-05   -0.35857E-08    32   0.155E-03    0.182E-04
DAV:  14    -0.229905388810E+02   -0.24155E-05   -0.17664E-08    20   0.117E-03    0.838E-05
DAV:  15    -0.229905392936E+02   -0.41260E-06   -0.49843E-09    20   0.580E-04    0.539E-05
DAV:  16    -0.229905395038E+02   -0.21019E-06   -0.27149E-09    16   0.417E-04    0.167E-05
DAV:  17    -0.229905395146E+02   -0.10795E-07   -0.78376E-10    20   0.189E-04    0.106E-05
DAV:  18    -0.229905395194E+02   -0.47746E-08   -0.10161E-11    16   0.101E-04
   7 F= -.22990540E+02 E0= -.22990540E+02  d E =-.566094E-19
       N       E                     dE             d eps       ncg     rms          rms(c)
DAV:   1    -0.229995257079E+02   -0.89862E-02   -0.24670E+00    24   0.157E+01    0.305E-01
DAV:   2    -0.230005116082E+02   -0.98590E-03   -0.28543E-02    32   0.164E+00    0.160E-01
DAV:   3    -0.230001203532E+02    0.39125E-03   -0.10939E-03    28   0.343E-01    0.575E-02
DAV:   4    -0.230001308921E+02   -0.10539E-04   -0.23551E-04    28   0.160E-01    0.177E-02
DAV:   5    -0.230001494069E+02   -0.18515E-04   -0.11551E-05    32   0.333E-02    0.908E-03
DAV:   6    -0.230001807489E+02   -0.31342E-04   -0.55704E-06    28   0.211E-02    0.316E-03
DAV:   7    -0.230002102387E+02   -0.29490E-04   -0.15536E-06    28   0.156E-02    0.242E-03
DAV:   8    -0.230002472533E+02   -0.37015E-04   -0.17022E-06    32   0.860E-03    0.105E-03
DAV:   9    -0.230002821790E+02   -0.34926E-04   -0.20698E-06    32   0.805E-03    0.865E-04
DAV:  10    -0.230003077897E+02   -0.25611E-04   -0.13853E-06    32   0.617E-03    0.501E-04
DAV:  11    -0.230003162645E+02   -0.84748E-05   -0.17202E-07    32   0.267E-03    0.330E-04
DAV:  12    -0.230003229407E+02   -0.66762E-05   -0.77996E-08    28   0.194E-03    0.229E-04
DAV:  13    -0.230003252970E+02   -0.23563E-05   -0.13437E-08    24   0.122E-03    0.998E-05
DAV:  14    -0.230003258082E+02   -0.51119E-06   -0.52509E-09    20   0.611E-04    0.606E-05
DAV:  15    -0.230003259212E+02   -0.11299E-06   -0.17952E-09    20   0.317E-04    0.269E-05
DAV:  16    -0.230003259528E+02   -0.31641E-07   -0.74746E-10    16   0.223E-04    0.130E-05
DAV:  17    -0.230003259559E+02   -0.30836E-08   -0.15930E-10    20   0.107E-04
   8 F= -.23000326E+02 E0= -.23000326E+02  d E =-.606912E-19
       N       E                     dE             d eps       ncg     rms          rms(c)
DAV:   1    -0.229978245609E+02    0.25014E-02   -0.49165E+00    24   0.214E+01    0.270E-01
DAV:   2    -0.230003434228E+02   -0.25189E-02   -0.33973E-02    32   0.154E+00    0.140E-01
DAV:   3    -0.230001926224E+02    0.15080E-03   -0.76276E-04    28   0.314E-01    0.501E-02
DAV:   4    -0.230002403139E+02   -0.47692E-04   -0.20630E-04    32   0.157E-01    0.166E-02
DAV:   5    -0.230002520937E+02   -0.11780E-04   -0.17584E-05    32   0.377E-02    0.104E-02
DAV:   6    -0.230002675275E+02   -0.15434E-04   -0.21418E-06    28   0.163E-02    0.245E-03
DAV:   7    -0.230002759533E+02   -0.84258E-05   -0.44993E-07    28   0.100E-02    0.140E-03
DAV:   8    -0.230002879056E+02   -0.11952E-04   -0.43089E-07    28   0.419E-03    0.854E-04
DAV:   9    -0.230003081808E+02   -0.20275E-04   -0.17566E-06    28   0.708E-03    0.534E-04
DAV:  10    -0.230003142748E+02   -0.60940E-05   -0.22489E-07    40   0.282E-03    0.296E-04
DAV:  11    -0.230003216800E+02   -0.74053E-05   -0.17267E-07    32   0.249E-03    0.152E-04
DAV:  12    -0.230003239047E+02   -0.22246E-05   -0.18155E-08    32   0.897E-04    0.118E-04
DAV:  13    -0.230003256284E+02   -0.17238E-05   -0.12565E-08    20   0.918E-04    0.590E-05
DAV:  14    -0.230003258471E+02   -0.21861E-06   -0.31052E-09    24   0.387E-04    0.301E-05
DAV:  15    -0.230003259413E+02   -0.94265E-07   -0.18103E-09    16   0.290E-04    0.149E-05
DAV:  16    -0.230003259523E+02   -0.10936E-07   -0.35442E-10    24   0.157E-04    0.520E-06
DAV:  17    -0.230003259568E+02   -0.45427E-08   -0.65441E-11    16   0.891E-05
   9 F= -.23000326E+02 E0= -.23000326E+02  d E =-.620364E-19
