 vasp.5.2.12 11Nov11 complex                                                    
  
 executed on             LinuxIFC date 2012.10.09  22:34:36
 running on    1 nodes
 distr:  one band on    1 nodes,    1 groups


--------------------------------------------------------------------------------------------------------


 INCAR:
 POTCAR:   PAW_PBE C 08Apr2002                    
 POTCAR:   PAW_PBE O 08Apr2002                    
 POTCAR:   PAW_PBE C 08Apr2002                    
   VRHFIN =C: s2p2                                                              
   LEXCH  = PE                                                                  
   EATOM  =   147.1560 eV,   10.8157 Ry                                         
                                                                                
   TITEL  = PAW_PBE C 08Apr2002                                                 
   LULTRA =        F    use ultrasoft PP ?                                      
   IUNSCR =        0    unscreen: 0-lin 1-nonlin 2-no                           
   RPACOR =     .000    partial core radius                                     
   POMASS =   12.011; ZVAL   =    4.000    mass and valenz                      
   RCORE  =    1.500    outmost cutoff radius                                   
   RWIGS  =    1.630; RWIGS  =     .863    wigner-seitz radius (au A)           
   ENMAX  =  400.000; ENMIN  =  300.000 eV                                      
   ICORE  =        2    local potential                                         
   LCOR   =        T    correct aug charges                                     
   LPAW   =        T    paw PP                                                  
   EAUG   =  644.873                                                            
   DEXC   =     .000                                                            
   RMAX   =    2.266    core radius for proj-oper                               
   RAUG   =    1.300    factor for augmentation sphere                          
   RDEP   =    1.501    radius for radial grids                                 
   RDEPT  =    1.300    core radius for aug-charge                              
   QCUT   =   -5.516; QGAM   =   11.032    optimization parameters              
                                                                                
   Description                                                                  
     l     E      TYP  RCUT    TYP  RCUT                                        
     0   .000     23  1.200                                                     
     0   .000     23  1.200                                                     
     1   .000     23  1.500                                                     
     1  2.500     23  1.500                                                     
     2   .000      7  1.500                                                     
  local pseudopotential read in
  atomic valenz-charges read in
  non local Contribution for L=           0  read in
    real space projection operators read in
  non local Contribution for L=           0  read in
    real space projection operators read in
  non local Contribution for L=           1  read in
    real space projection operators read in
  non local Contribution for L=           1  read in
    real space projection operators read in
    PAW grid and wavefunctions read in
 
   number of l-projection  operators is LMAX  =           4
   number of lm-projection operators is LMMAX =           8
 
 POTCAR:   PAW_PBE O 08Apr2002                    
   VRHFIN =O: s2p4                                                              
   LEXCH  = PE                                                                  
   EATOM  =   432.3788 eV,   31.7789 Ry                                         
                                                                                
   TITEL  = PAW_PBE O 08Apr2002                                                 
   LULTRA =        F    use ultrasoft PP ?                                      
   IUNSCR =        0    unscreen: 0-lin 1-nonlin 2-no                           
   RPACOR =     .000    partial core radius                                     
   POMASS =   16.000; ZVAL   =    6.000    mass and valenz                      
   RCORE  =    1.520    outmost cutoff radius                                   
   RWIGS  =    1.550; RWIGS  =     .820    wigner-seitz radius (au A)           
   ENMAX  =  400.000; ENMIN  =  300.000 eV                                      
   ICORE  =        2    local potential                                         
   LCOR   =        T    correct aug charges                                     
   LPAW   =        T    paw PP                                                  
   EAUG   =  605.392                                                            
   DEXC   =     .000                                                            
   RMAX   =    2.264    core radius for proj-oper                               
   RAUG   =    1.300    factor for augmentation sphere                          
   RDEP   =    1.550    radius for radial grids                                 
   QCUT   =   -5.520; QGAM   =   11.041    optimization parameters              
                                                                                
   Description                                                                  
     l     E      TYP  RCUT    TYP  RCUT                                        
     0   .000     23  1.200                                                     
     0  -.700     23  1.200                                                     
     1   .000     23  1.520                                                     
     1   .600     23  1.520                                                     
     2   .000      7  1.500                                                     
  local pseudopotential read in
  atomic valenz-charges read in
  non local Contribution for L=           0  read in
    real space projection operators read in
  non local Contribution for L=           0  read in
    real space projection operators read in
  non local Contribution for L=           1  read in
    real space projection operators read in
  non local Contribution for L=           1  read in
    real space projection operators read in
    PAW grid and wavefunctions read in
 
   number of l-projection  operators is LMAX  =           4
   number of lm-projection operators is LMMAX =           8
 
 PAW_PBE C 08Apr2002                    :
 energy of atom  1       EATOM= -147.1560
 kinetic energy error for atom=    0.0854 (will be added to EATOM!!)
 PAW_PBE O 08Apr2002                    :
 energy of atom  2       EATOM= -432.3788
 kinetic energy error for atom=    0.3782 (will be added to EATOM!!)
 
 
 POSCAR:  C  O                                   
  positions in cartesian coordinates
  No initial velocities read in
 exchange correlation table for  LEXCH =        8
   RHO(1)=    0.500       N(1)  =     2000
   RHO(2)=  100.500       N(2)  =     4000
 


--------------------------------------------------------------------------------------------------------


 ion  position               nearest neighbor table
   1  0.500  0.500  0.500-   2 1.18   3 1.18
   2  0.382  0.500  0.500-   1 1.18
   3  0.618  0.500  0.500-   1 1.18
 
  LATTYP: Found a simple cubic cell.
 ALAT       =    10.0000000000
  
  Lattice vectors:
  
 A1 = (  10.0000000000,   0.0000000000,   0.0000000000)
 A2 = (   0.0000000000,  10.0000000000,   0.0000000000)
 A3 = (   0.0000000000,   0.0000000000,  10.0000000000)
 Subroutine PRICEL returns:
 Original cell was already a primitive cell.
 

Analysis of symmetry for initial positions (statically):

 Routine SETGRP: Setting up the symmetry group for a 
 simple cubic supercell.


 Subroutine GETGRP returns: Found 16 space group operations
 (whereof 16 operations were pure point group operations)
 out of a pool of 48 trial point group operations.


The static configuration has the point symmetry D_4h.

Analysis of symmetry for dynamics (positions and initial velocities):

 Subroutine DYNSYM returns: Found 16 space group operations
 (whereof 16 operations were pure point group operations)
 out of a pool of 16 trial space group operations
 (whereof 16 operations were pure point group operations)
 and found also     1 'primitive' translations


The dynamic configuration has the point symmetry D_4h.
 
 
 KPOINTS: KPOINTS created by Atomic Simulation Env

Automatic generation of k-mesh.
 
 Subroutine IBZKPT returns following result:
 ===========================================
 
 Found      1 irreducible k-points:
 
 Following reciprocal coordinates:
            Coordinates               Weight
  0.000000  0.000000  0.000000      1.000000
 
 Following cartesian coordinates:
            Coordinates               Weight
  0.000000  0.000000  0.000000      1.000000
 
 
 Subroutine IBZKPT_HF returns following result:
 ==============================================
 
 Found      1 k-points in 1st BZ
 the following      1 k-points will be used (e.g. in the exchange kernel)
 Following reciprocal coordinates:   # in IRBZ
  0.000000  0.000000  0.000000       1 t-inv F


--------------------------------------------------------------------------------------------------------




 Dimension of arrays:
   k-points           NKPTS =      1   k-points in BZ     NKDIM =      1   number of bands    NBANDS=     12
   number of dos      NEDOS =    301   number of ions     NIONS =      3
   non local maximal  LDIM  =      4   non local SUM 2l+1 LMDIM =      8
   total plane-waves  NPLWV = 262144
   max r-space proj   IRMAX =      1   max aug-charges    IRDMAX=   3600
   dimension x,y,z NGX =    64 NGY =   64 NGZ =   64
   dimension x,y,z NGXF=   128 NGYF=  128 NGZF=  128
   support grid    NGXF=   128 NGYF=  128 NGZF=  128
   ions per type =               1   2
 NGX,Y,Z   is equivalent  to a cutoff of  10.64, 10.64, 10.64 a.u.
 NGXF,Y,Z  is equivalent  to a cutoff of  21.28, 21.28, 21.28 a.u.


 I would recommend the setting:
   dimension x,y,z NGX =    61 NGY =   61 NGZ =   61
 SYSTEM =  unknown system                          
 POSCAR =   C  O                                   

 Startparameter for this run:
   NWRITE =      2    write-flag & timer
   PREC   = accura    normal or accurate (medium, high low for compatibility)
   ISTART =      0    job   : 0-new  1-cont  2-samecut
   ICHARG =      2    charge: 1-file 2-atom 10-const
   ISPIN  =      1    spin polarized calculation?
   LNONCOLLINEAR =      F non collinear calculations
   LSORBIT =      F    spin-orbit coupling
   INIWAV =      1    electr: 0-lowe 1-rand  2-diag
   LASPH  =      F    aspherical Exc in radial PAW
   METAGGA=      F    non-selfconsistent MetaGGA calc.

 Electronic Relaxation 1
   ENCUT  =  350.0 eV  25.72 Ry    5.07 a.u.  15.25 15.25 15.25*2*pi/ulx,y,z
   ENINI  =  350.0     initial cutoff
   ENAUG  =  644.9 eV  augmentation charge cutoff
   NELM   =     60;   NELMIN=  2; NELMDL= -5     # of ELM steps 
   EDIFF  = 0.1E-07   stopping-criterion for ELM
   LREAL  =      F    real-space projection
   NLSPLINE    = F    spline interpolate recip. space projectors
   LCOMPAT=      F    compatible to vasp.4.4
   GGA_COMPAT  = T    GGA compatible to vasp.4.4-vasp.4.6
   LMAXPAW     = -100 max onsite density
   LMAXMIX     =    2 max onsite mixed and CHGCAR
   VOSKOWN=      0    Vosko Wilk Nusair interpolation
   ROPT   =    0.00000   0.00000
 Ionic relaxation
   EDIFFG = 0.1E-06   stopping-criterion for IOM
   NSW    =     73    number of steps for IOM
   NBLOCK =      1;   KBLOCK =      1    inner block; outer block 
   IBRION =      6    ionic relax: 0-MD 1-quasi-New 2-CG
   NFREE  =      2    steps in history (QN), initial steepest desc. (CG)
   ISIF   =      2    stress and relaxation
   IWAVPR =     11    prediction:  0-non 1-charg 2-wave 3-comb
   ISYM   =      2    0-nonsym 1-usesym 2-fastsym
   LCORR  =      T    Harris-Foulkes like correction to forces

   POTIM  = 0.0150    time-step for ionic-motion
   TEIN   =    0.0    initial temperature
   TEBEG  =    0.0;   TEEND  =   0.0 temperature during run
   SMASS  =  -3.00    Nose mass-parameter (am)
   estimated Nose-frequenzy (Omega)   =  0.10E-29 period in steps =****** mass=  -0.229E-26a.u.
   SCALEE = 1.0000    scale energy and forces
   NPACO  =    256;   APACO  = 16.0  distance and # of slots for P.C.
   PSTRESS=    0.0 pullay stress

  Mass of Ions in am
   POMASS =  12.01 16.00
  Ionic Valenz
   ZVAL   =   4.00  6.00
  Atomic Wigner-Seitz radii
   RWIGS  =  -1.00 -1.00
  virtual crystal weights 
   VCA    =   1.00  1.00
   NELECT =      16.0000    total number of electrons
   NUPDOWN=      -1.0000    fix difference up-down

 DOS related values:
   EMIN   =  10.00;   EMAX   =-10.00  energy-range for DOS
   EFERMI =   0.00
   ISMEAR =     0;   SIGMA  =   0.05  broadening in eV -4-tet -1-fermi 0-gaus

 Electronic relaxation 2 (details)
   IALGO  =     38    algorithm
   LDIAG  =      T    sub-space diagonalisation (order eigenvalues)
   LSUBROT=      T    optimize rotation matrix (better conditioning)
   TURBO    =      0    0=normal 1=particle mesh
   IRESTART =      0    0=no restart 2=restart with 2 vectors
   NREBOOT  =      0    no. of reboots
   NMIN     =      0    reboot dimension
   EREF     =   0.00    reference energy to select bands
   IMIX   =      4    mixing-type and parameters
     AMIX     =   0.40;   BMIX     =  1.00
     AMIX_MAG =   1.60;   BMIX_MAG =  1.00
     AMIN     =   0.10
     WC   =   100.;   INIMIX=   1;  MIXPRE=   1

 Intra band minimization:
   WEIMIN = 0.0010     energy-eigenvalue tresh-hold
   EBREAK =  0.21E-09  absolut break condition
   DEPER  =   0.30     relativ break condition  

   TIME   =   0.40     timestep for ELM

  volume/ion in A,a.u.               =     333.33      2249.44
  Fermi-wavevector in a.u.,A,eV,Ry     =   0.412523  0.779555  2.315374  0.170175
  Thomas-Fermi vector in A             =   1.369550
 
 Write flags
   LWAVE  =      T    write WAVECAR
   LCHARG =      T    write CHGCAR
   LVTOT  =      F    write LOCPOT, total local potential
   LVHAR  =      F    write LOCPOT, Hartree potential only
   LELF   =      F    write electronic localiz. function (ELF)
   LORBIT =      0    0 simple, 1 ext, 2 COOP (PROOUT)


 Dipole corrections
   LMONO  =      F    monopole corrections only (constant potential shift)
   LDIPOL =      F    correct potential (dipole corrections)
   IDIPOL =      0    1-x, 2-y, 3-z, 4-all directions 
   EPSILON=  1.0000000 bulk dielectric constant

 Exchange correlation treatment:
   GGA     =    --    GGA type
   LEXCH   =     8    internal setting for exchange type
   VOSKOWN=      0    Vosko Wilk Nusair interpolation
   LHFCALC =     F    Hartree Fock is set to
   LHFONE  =     F    Hartree Fock one center treatment
   AEXX    =    0.0000 exact exchange contribution

 Linear response parameters
   LEPSILON=     F    determine dielectric tensor
   LRPA    =     F    only Hartree local field effects (RPA)
   LNABLA  =     F    use nabla operator in PAW spheres
   LVEL    =     F    velocity operator in full k-point grid
   LINTERFAST=   F  fast interpolation
   KINTER  =     0    interpolate to denser k-point grid
   CSHIFT  =0.1000    complex shift for real part using Kramers Kronig
   OMEGAMAX=  -1.0    maximum frequency
   RTIME   =    0.100 relaxation time in fs

 Orbital magnetization related:
   ORBITALMAG=     F  switch on orbital magnetization
   LCHIMAG   =     F  perturbation theory with respect to B field
   DQ        =  0.001000  dq finite difference perturbation B field



--------------------------------------------------------------------------------------------------------


 finite differences with symmetry
 charge density and potential will be updated during run
 non-spin polarized calculation
 Variant of blocked Davidson
 Davidson routine will perform the subspace rotation
 perform sub-space diagonalisation
    after iterative eigenvector-optimisation
 modified Broyden-mixing scheme, WC =      100.0
 initial mixing is a Kerker type mixing with AMIX =  0.4000 and BMIX =      1.0000
 Hartree-type preconditioning will be used
 using additional bands            4
 reciprocal scheme for non local part
 calculate Harris-corrections to forces 
   (improved forces if not selfconsistent)
 use gradient corrections 
 use of overlap-Matrix (Vanderbilt PP)
 Gauss-broadening in eV      SIGMA  =   0.05


--------------------------------------------------------------------------------------------------------


  energy-cutoff  :      350.00
  volume of cell :     1000.00
      direct lattice vectors                 reciprocal lattice vectors
    10.000000000  0.000000000  0.000000000     0.100000000  0.000000000  0.000000000
     0.000000000 10.000000000  0.000000000     0.000000000  0.100000000  0.000000000
     0.000000000  0.000000000 10.000000000     0.000000000  0.000000000  0.100000000

  length of vectors
    10.000000000 10.000000000 10.000000000     0.100000000  0.100000000  0.100000000


 
 k-points in units of 2pi/SCALE and weight: KPOINTS created by Atomic Simulation Env
   0.00000000  0.00000000  0.00000000       1.000
 
 k-points in reciprocal lattice and weights: KPOINTS created by Atomic Simulation Env
   0.00000000  0.00000000  0.00000000       1.000
 
 position of ions in fractional coordinates (direct lattice) 
   0.50000000  0.50000000  0.50000000
   0.38232762  0.50000000  0.50000000
   0.61767238  0.50000000  0.50000000
 
 position of ions in cartesian coordinates  (Angst):
   5.00000000  5.00000000  5.00000000
   3.82327623  5.00000000  5.00000000
   6.17672377  5.00000000  5.00000000
 


--------------------------------------------------------------------------------------------------------


 k-point  1 :  0.00000.00000.0000  plane waves:   14795

 maximum and minimum number of plane-waves per node :     14795    14795

 maximum number of plane-waves:     14795
 maximum index in each direction: 
   IXMAX=   15   IYMAX=   15   IZMAX=   15
   IXMIN=  -15   IYMIN=  -15   IZMIN=  -15

 NGX is ok and might be reduce to  62
 NGY is ok and might be reduce to  62
 NGZ is ok and might be reduce to  62

 serial   3D FFT for wavefunctions
 parallel 3D FFT for charge:
    minimum data exchange during FFTs selected (reduces bandwidth)


 total amount of memory used by VASP on root node   237235. kBytes
========================================================================

   base      :      30000. kBytes
   nonl-proj :       2603. kBytes
   fftplans  :      72476. kBytes
   grid      :     129302. kBytes
   one-center:          9. kBytes
   wavefun   :       2845. kBytes
 
 Broyden mixing: mesh for mixing (old mesh)
   NGX = 31   NGY = 31   NGZ = 31
  (NGX  =128   NGY  =128   NGZ  =128)
  gives a total of  29791 points

 initial charge density was supplied:
 charge density of overlapping atoms calculated
 number of electron      16.0000000 magnetization 
 keeping initial charge density in first step


--------------------------------------------------------------------------------------------------------


 Maximum index for augmentation-charges         3303 (set IRDMAX)


--------------------------------------------------------------------------------------------------------


 First call to EWALD:  gamma=   0.177
 Maximum number of real-space cells 3x 3x 3
 Maximum number of reciprocal cells 3x 3x 3

    FEWALD:  cpu time    0.00: real time    0.00


----------------------------------------- Iteration    1(   1)  ---------------------------------------


    POTLOK:  cpu time    4.00: real time    4.67
    SETDIJ:  cpu time    0.01: real time    0.01
     EDDAV:  cpu time    3.38: real time    3.91
       DOS:  cpu time    0.00: real time    0.00
    --------------------------------------------
      LOOP:  cpu time    7.39: real time    8.62

 eigenvalue-minimisations  :    40
 total energy-change (2. order) : 0.9133491E+02  (-0.4214534E+03)
 number of electron      16.0000000 magnetization 
 augmentation part       16.0000000 magnetization 

 Free energy of the ion-electron system (eV)
  ---------------------------------------------------
  alpha Z        PSCENC =         1.06689490
  Ewald energy   TEWEN  =       293.25155938
  -1/2 Hartree   DENC   =     -1104.63994796
  -exchange  EXHF       =         0.00000000
  -V(xc)+E(xc)   XCENC  =        68.22275316
  PAW double counting   =       529.82824833     -534.67809926
  entropy T*S    EENTRO =         0.00000000
  eigenvalues    EBANDS =      -172.78833981
  atomic energy  EATOM  =      1011.07184495
  ---------------------------------------------------
  free energy    TOTEN  =        91.33491368 eV

  energy without entropy =       91.33491368  energy(sigma->0) =       91.33491368


--------------------------------------------------------------------------------------------------------




----------------------------------------- Iteration    1(   2)  ---------------------------------------


     EDDAV:  cpu time    4.18: real time    5.29
       DOS:  cpu time    0.00: real time    0.00
    --------------------------------------------
      LOOP:  cpu time    4.18: real time    5.31

 eigenvalue-minimisations  :    40
 total energy-change (2. order) :-0.9088306E+02  (-0.8727427E+02)
 number of electron      16.0000000 magnetization 
 augmentation part       16.0000000 magnetization 

 Free energy of the ion-electron system (eV)
  ---------------------------------------------------
  alpha Z        PSCENC =         1.06689490
  Ewald energy   TEWEN  =       293.25155938
  -1/2 Hartree   DENC   =     -1104.63994796
  -exchange  EXHF       =         0.00000000
  -V(xc)+E(xc)   XCENC  =        68.22275316
  PAW double counting   =       529.82824833     -534.67809926
  entropy T*S    EENTRO =         0.00000000
  eigenvalues    EBANDS =      -263.67140145
  atomic energy  EATOM  =      1011.07184495
  ---------------------------------------------------
  free energy    TOTEN  =         0.45185205 eV

  energy without entropy =        0.45185205  energy(sigma->0) =        0.45185205


--------------------------------------------------------------------------------------------------------




----------------------------------------- Iteration    1(   3)  ---------------------------------------


     EDDAV:  cpu time    3.46: real time    4.66
       DOS:  cpu time    0.00: real time    0.00
    --------------------------------------------
      LOOP:  cpu time    3.46: real time    4.67

 eigenvalue-minimisations  :    32
 total energy-change (2. order) :-0.2287997E+02  (-0.2275934E+02)
 number of electron      16.0000000 magnetization 
 augmentation part       16.0000000 magnetization 

 Free energy of the ion-electron system (eV)
  ---------------------------------------------------
  alpha Z        PSCENC =         1.06689490
  Ewald energy   TEWEN  =       293.25155938
  -1/2 Hartree   DENC   =     -1104.63994796
  -exchange  EXHF       =         0.00000000
  -V(xc)+E(xc)   XCENC  =        68.22275316
  PAW double counting   =       529.82824833     -534.67809926
  entropy T*S    EENTRO =         0.00000000
  eigenvalues    EBANDS =      -286.55136823
  atomic energy  EATOM  =      1011.07184495
  ---------------------------------------------------
  free energy    TOTEN  =       -22.42811473 eV

  energy without entropy =      -22.42811473  energy(sigma->0) =      -22.42811473


--------------------------------------------------------------------------------------------------------




----------------------------------------- Iteration    1(   4)  ---------------------------------------


     EDDAV:  cpu time    3.49: real time    3.84
       DOS:  cpu time    0.00: real time    0.00
    --------------------------------------------
      LOOP:  cpu time    3.49: real time    3.85

 eigenvalue-minimisations  :    28
 total energy-change (2. order) :-0.2125558E+01  (-0.2124571E+01)
 number of electron      16.0000000 magnetization 
 augmentation part       16.0000000 magnetization 

 Free energy of the ion-electron system (eV)
  ---------------------------------------------------
  alpha Z        PSCENC =         1.06689490
  Ewald energy   TEWEN  =       293.25155938
  -1/2 Hartree   DENC   =     -1104.63994796
  -exchange  EXHF       =         0.00000000
  -V(xc)+E(xc)   XCENC  =        68.22275316
  PAW double counting   =       529.82824833     -534.67809926
  entropy T*S    EENTRO =         0.00000000
  eigenvalues    EBANDS =      -288.67692587
  atomic energy  EATOM  =      1011.07184495
  ---------------------------------------------------
  free energy    TOTEN  =       -24.55367237 eV

  energy without entropy =      -24.55367237  energy(sigma->0) =      -24.55367237


--------------------------------------------------------------------------------------------------------




----------------------------------------- Iteration    1(   5)  ---------------------------------------


     EDDAV:  cpu time    3.14: real time    3.46
       DOS:  cpu time    0.00: real time    0.00
    CHARGE:  cpu time    0.75: real time    0.86
    MIXING:  cpu time    0.13: real time    0.13
    --------------------------------------------
      LOOP:  cpu time    4.03: real time    4.54

 eigenvalue-minimisations  :    28
 total energy-change (2. order) :-0.1717543E-01  (-0.1717481E-01)
 number of electron      16.0000050 magnetization 
 augmentation part        1.4704342 magnetization 

 Broyden mixing:
  rms(total) = 0.79233E+00    rms(broyden)= 0.78899E+00
  rms(prec ) = 0.10189E+01
  weight for this iteration     100.00

 Free energy of the ion-electron system (eV)
  ---------------------------------------------------
  alpha Z        PSCENC =         1.06689490
  Ewald energy   TEWEN  =       293.25155938
  -1/2 Hartree   DENC   =     -1104.63994796
  -exchange  EXHF       =         0.00000000
  -V(xc)+E(xc)   XCENC  =        68.22275316
  PAW double counting   =       529.82824833     -534.67809926
  entropy T*S    EENTRO =         0.00000000
  eigenvalues    EBANDS =      -288.69410130
  atomic energy  EATOM  =      1011.07184495
  ---------------------------------------------------
  free energy    TOTEN  =       -24.57084780 eV

  energy without entropy =      -24.57084780  energy(sigma->0) =      -24.57084780


--------------------------------------------------------------------------------------------------------




----------------------------------------- Iteration    1(   6)  ---------------------------------------


    POTLOK:  cpu time    4.41: real time    5.24
    SETDIJ:  cpu time    0.01: real time    0.01
     EDDAV:  cpu time    3.17: real time    3.47
       DOS:  cpu time    0.00: real time    0.00
    CHARGE:  cpu time    0.68: real time    0.84
    MIXING:  cpu time    0.12: real time    0.16
    --------------------------------------------
      LOOP:  cpu time    8.39: real time    9.73

 eigenvalue-minimisations  :    28
 total energy-change (2. order) : 0.1414281E+01  (-0.5835747E+00)
 number of electron      16.0000043 magnetization 
 augmentation part        1.3049241 magnetization 

 Broyden mixing:
  rms(total) = 0.34226E+00    rms(broyden)= 0.34176E+00
  rms(prec ) = 0.39645E+00
  weight for this iteration     100.00

 eigenvalues of (default mixing * dielectric matrix)
  average eigenvalue GAMMA=   0.9656
  0.9656

 Free energy of the ion-electron system (eV)
  ---------------------------------------------------
  alpha Z        PSCENC =         1.06689490
  Ewald energy   TEWEN  =       293.25155938
  -1/2 Hartree   DENC   =     -1128.93974213
  -exchange  EXHF       =         0.00000000
  -V(xc)+E(xc)   XCENC  =        69.70233202
  PAW double counting   =       623.29266651     -628.40290906
  entropy T*S    EENTRO =         0.00000000
  eigenvalues    EBANDS =      -264.19921342
  atomic energy  EATOM  =      1011.07184495
  ---------------------------------------------------
  free energy    TOTEN  =       -23.15656685 eV

  energy without entropy =      -23.15656685  energy(sigma->0) =      -23.15656685


--------------------------------------------------------------------------------------------------------




----------------------------------------- Iteration    1(   7)  ---------------------------------------


    POTLOK:  cpu time    3.98: real time    4.60
    SETDIJ:  cpu time    0.01: real time    0.01
     EDDAV:  cpu time    2.93: real time    3.41
       DOS:  cpu time    0.00: real time    0.00
    CHARGE:  cpu time    0.82: real time    0.91
    MIXING:  cpu time    0.13: real time    0.16
    --------------------------------------------
      LOOP:  cpu time    7.87: real time    9.18

 eigenvalue-minimisations  :    28
 total energy-change (2. order) : 0.1136354E+00  (-0.2269182E-01)
 number of electron      16.0000044 magnetization 
 augmentation part        1.3181435 magnetization 

 Broyden mixing:
  rms(total) = 0.19602E+00    rms(broyden)= 0.19602E+00
  rms(prec ) = 0.23034E+00
  weight for this iteration     100.00

 eigenvalues of (default mixing * dielectric matrix)
  average eigenvalue GAMMA=   1.6613
  0.9487  2.3738

 Free energy of the ion-electron system (eV)
  ---------------------------------------------------
  alpha Z        PSCENC =         1.06689490
  Ewald energy   TEWEN  =       293.25155938
  -1/2 Hartree   DENC   =     -1133.58888337
  -exchange  EXHF       =         0.00000000
  -V(xc)+E(xc)   XCENC  =        69.89555038
  PAW double counting   =       656.49328408     -661.51097651
  entropy T*S    EENTRO =         0.00000000
  eigenvalues    EBANDS =      -259.72220526
  atomic energy  EATOM  =      1011.07184495
  ---------------------------------------------------
  free energy    TOTEN  =       -23.04293145 eV

  energy without entropy =      -23.04293145  energy(sigma->0) =      -23.04293145


--------------------------------------------------------------------------------------------------------




----------------------------------------- Iteration    1(   8)  ---------------------------------------


    POTLOK:  cpu time    4.74: real time    4.79
    SETDIJ:  cpu time    0.01: real time    0.01
     EDDAV:  cpu time    3.13: real time    3.40
       DOS:  cpu time    0.00: real time    0.00
    CHARGE:  cpu time    0.84: real time    0.92
    MIXING:  cpu time    0.13: real time    0.13
    --------------------------------------------
      LOOP:  cpu time    8.86: real time    9.30

 eigenvalue-minimisations  :    28
 total energy-change (2. order) : 0.4699605E-01  (-0.2362923E-01)
 number of electron      16.0000044 magnetization 
 augmentation part        1.3137298 magnetization 

 Broyden mixing:
  rms(total) = 0.41994E-01    rms(broyden)= 0.41936E-01
  rms(prec ) = 0.61999E-01
  weight for this iteration     100.00

 eigenvalues of (default mixing * dielectric matrix)
  average eigenvalue GAMMA=   1.3113
  2.3044  0.9307  0.6990

 Free energy of the ion-electron system (eV)
  ---------------------------------------------------
  alpha Z        PSCENC =         1.06689490
  Ewald energy   TEWEN  =       293.25155938
  -1/2 Hartree   DENC   =     -1141.78420782
  -exchange  EXHF       =         0.00000000
  -V(xc)+E(xc)   XCENC  =        70.29846831
  PAW double counting   =       710.93430102     -715.89457918
  entropy T*S    EENTRO =         0.00000000
  eigenvalues    EBANDS =      -251.94021697
  atomic energy  EATOM  =      1011.07184495
  ---------------------------------------------------
  free energy    TOTEN  =       -22.99593541 eV

  energy without entropy =      -22.99593541  energy(sigma->0) =      -22.99593541


--------------------------------------------------------------------------------------------------------




----------------------------------------- Iteration    1(   9)  ---------------------------------------


    POTLOK:  cpu time    4.67: real time    4.73
    SETDIJ:  cpu time    0.01: real time    0.01
     EDDAV:  cpu time    3.63: real time    3.95
       DOS:  cpu time    0.00: real time    0.00
    CHARGE:  cpu time    0.97: real time    1.08
    MIXING:  cpu time    0.13: real time    0.13
    --------------------------------------------
      LOOP:  cpu time    9.42: real time    9.92

 eigenvalue-minimisations  :    32
 total energy-change (2. order) : 0.4801019E-02  (-0.2105478E-02)
 number of electron      16.0000044 magnetization 
 augmentation part        1.3089133 magnetization 

 Broyden mixing:
  rms(total) = 0.18738E-01    rms(broyden)= 0.18710E-01
  rms(prec ) = 0.28988E-01
  weight for this iteration     100.00

 eigenvalues of (default mixing * dielectric matrix)
  average eigenvalue GAMMA=   1.4553
  2.4471  1.1219  1.1260  1.1260

 Free energy of the ion-electron system (eV)
  ---------------------------------------------------
  alpha Z        PSCENC =         1.06689490
  Ewald energy   TEWEN  =       293.25155938
  -1/2 Hartree   DENC   =     -1141.22090442
  -exchange  EXHF       =         0.00000000
  -V(xc)+E(xc)   XCENC  =        70.27306808
  PAW double counting   =       708.18410514     -713.13293084
  entropy T*S    EENTRO =         0.00000000
  eigenvalues    EBANDS =      -252.48477158
  atomic energy  EATOM  =      1011.07184495
  ---------------------------------------------------
  free energy    TOTEN  =       -22.99113439 eV

  energy without entropy =      -22.99113439  energy(sigma->0) =      -22.99113439


--------------------------------------------------------------------------------------------------------




----------------------------------------- Iteration    1(  10)  ---------------------------------------


    POTLOK:  cpu time    4.28: real time    5.13
    SETDIJ:  cpu time    0.01: real time    0.01
     EDDAV:  cpu time    3.24: real time    3.62
       DOS:  cpu time    0.00: real time    0.00
    CHARGE:  cpu time    0.84: real time    0.94
    MIXING:  cpu time    0.13: real time    0.18
    --------------------------------------------
      LOOP:  cpu time    8.50: real time    9.93

 eigenvalue-minimisations  :    32
 total energy-change (2. order) :-0.1738205E-02  (-0.4027927E-03)
 number of electron      16.0000043 magnetization 
 augmentation part        1.3080945 magnetization 

 Broyden mixing:
  rms(total) = 0.73284E-02    rms(broyden)= 0.73163E-02
  rms(prec ) = 0.15135E-01
  weight for this iteration     100.00

 eigenvalues of (default mixing * dielectric matrix)
  average eigenvalue GAMMA=   1.5053
  2.1895  2.1895  0.9662  1.0907  1.0907

 Free energy of the ion-electron system (eV)
  ---------------------------------------------------
  alpha Z        PSCENC =         1.06689490
  Ewald energy   TEWEN  =       293.25155938
  -1/2 Hartree   DENC   =     -1141.47650295
  -exchange  EXHF       =         0.00000000
  -V(xc)+E(xc)   XCENC  =        70.27838390
  PAW double counting   =       710.01082173     -714.92985002
  entropy T*S    EENTRO =         0.00000000
  eigenvalues    EBANDS =      -252.26602449
  atomic energy  EATOM  =      1011.07184495
  ---------------------------------------------------
  free energy    TOTEN  =       -22.99287259 eV

  energy without entropy =      -22.99287259  energy(sigma->0) =      -22.99287259


--------------------------------------------------------------------------------------------------------




----------------------------------------- Iteration    1(  11)  ---------------------------------------


    POTLOK:  cpu time    4.12: real time    4.50
    SETDIJ:  cpu time    0.01: real time    0.01
     EDDAV:  cpu time    3.49: real time    3.63
       DOS:  cpu time    0.00: real time    0.00
    CHARGE:  cpu time    0.73: real time    1.10
    MIXING:  cpu time    0.13: real time    0.21
    --------------------------------------------
      LOOP:  cpu time    8.48: real time    9.45

 eigenvalue-minimisations  :    28
 total energy-change (2. order) :-0.2725235E-02  (-0.5558293E-04)
 number of electron      16.0000043 magnetization 
 augmentation part        1.3094886 magnetization 

 Broyden mixing:
  rms(total) = 0.40368E-02    rms(broyden)= 0.40346E-02
  rms(prec ) = 0.94778E-02
  weight for this iteration     100.00

 eigenvalues of (default mixing * dielectric matrix)
  average eigenvalue GAMMA=   1.6955
  3.2806  2.3937  1.4686  0.9086  1.0608  1.0608

 Free energy of the ion-electron system (eV)
  ---------------------------------------------------
  alpha Z        PSCENC =         1.06689490
  Ewald energy   TEWEN  =       293.25155938
  -1/2 Hartree   DENC   =     -1141.65147979
  -exchange  EXHF       =         0.00000000
  -V(xc)+E(xc)   XCENC  =        70.27312552
  PAW double counting   =       708.48340338     -713.39203953
  entropy T*S    EENTRO =         0.00000000
  eigenvalues    EBANDS =      -252.09890663
  atomic energy  EATOM  =      1011.07184495
  ---------------------------------------------------
  free energy    TOTEN  =       -22.99559783 eV

  energy without entropy =      -22.99559783  energy(sigma->0) =      -22.99559783


--------------------------------------------------------------------------------------------------------




----------------------------------------- Iteration    1(  12)  ---------------------------------------


    POTLOK:  cpu time    4.23: real time    4.85
    SETDIJ:  cpu time    0.02: real time    0.02
     EDDAV:  cpu time    3.44: real time    3.91
       DOS:  cpu time    0.00: real time    0.00
    CHARGE:  cpu time    0.62: real time    0.62
    MIXING:  cpu time    0.13: real time    0.13
    --------------------------------------------
      LOOP:  cpu time    8.44: real time    9.58

 eigenvalue-minimisations  :    32
 total energy-change (2. order) :-0.2170183E-02  (-0.5716156E-04)
 number of electron      16.0000043 magnetization 
 augmentation part        1.3085507 magnetization 

 Broyden mixing:
  rms(total) = 0.18622E-02    rms(broyden)= 0.18602E-02
  rms(prec ) = 0.49382E-02
  weight for this iteration     100.00

 eigenvalues of (default mixing * dielectric matrix)
  average eigenvalue GAMMA=   1.9198
  3.8992  2.9199  2.2581  1.3316  1.0641  1.0641  0.9019

 Free energy of the ion-electron system (eV)
  ---------------------------------------------------
  alpha Z        PSCENC =         1.06689490
  Ewald energy   TEWEN  =       293.25155938
  -1/2 Hartree   DENC   =     -1142.19786969
  -exchange  EXHF       =         0.00000000
  -V(xc)+E(xc)   XCENC  =        70.29105255
  PAW double counting   =       708.73405542     -713.64151090
  entropy T*S    EENTRO =         0.00000000
  eigenvalues    EBANDS =      -251.57379462
  atomic energy  EATOM  =      1011.07184495
  ---------------------------------------------------
  free energy    TOTEN  =       -22.99776801 eV

  energy without entropy =      -22.99776801  energy(sigma->0) =      -22.99776801


--------------------------------------------------------------------------------------------------------




----------------------------------------- Iteration    1(  13)  ---------------------------------------


    POTLOK:  cpu time    3.96: real time    4.08
    SETDIJ:  cpu time    0.01: real time    0.01
     EDDAV:  cpu time    2.38: real time    2.51
       DOS:  cpu time    0.00: real time    0.00
    CHARGE:  cpu time    0.61: real time    0.61
    MIXING:  cpu time    0.13: real time    0.13
    --------------------------------------------
      LOOP:  cpu time    7.09: real time    7.35

 eigenvalue-minimisations  :    28
 total energy-change (2. order) :-0.2124690E-02  (-0.4231754E-04)
 number of electron      16.0000043 magnetization 
 augmentation part        1.3085756 magnetization 

 Broyden mixing:
  rms(total) = 0.22482E-02    rms(broyden)= 0.22474E-02
  rms(prec ) = 0.31656E-02
  weight for this iteration     100.00

 eigenvalues of (default mixing * dielectric matrix)
  average eigenvalue GAMMA=   2.0137
  5.3945  2.9494  2.3793  1.5076  1.0520  1.0520  0.9061  0.8684

 Free energy of the ion-electron system (eV)
  ---------------------------------------------------
  alpha Z        PSCENC =         1.06689490
  Ewald energy   TEWEN  =       293.25155938
  -1/2 Hartree   DENC   =     -1142.36954895
  -exchange  EXHF       =         0.00000000
  -V(xc)+E(xc)   XCENC  =        70.29115817
  PAW double counting   =       708.64561933     -713.55954489
  entropy T*S    EENTRO =         0.00000000
  eigenvalues    EBANDS =      -251.39787558
  atomic energy  EATOM  =      1011.07184495
  ---------------------------------------------------
  free energy    TOTEN  =       -22.99989270 eV

  energy without entropy =      -22.99989270  energy(sigma->0) =      -22.99989270


--------------------------------------------------------------------------------------------------------




----------------------------------------- Iteration    1(  14)  ---------------------------------------


    POTLOK:  cpu time    3.48: real time    3.76
    SETDIJ:  cpu time    0.01: real time    0.01
     EDDAV:  cpu time    2.58: real time    2.66
       DOS:  cpu time    0.00: real time    0.00
    CHARGE:  cpu time    0.69: real time    0.69
    MIXING:  cpu time    0.14: real time    0.14
    --------------------------------------------
      LOOP:  cpu time    6.90: real time    7.27

 eigenvalue-minimisations  :    28
 total energy-change (2. order) :-0.2638405E-03  (-0.4334822E-05)
 number of electron      16.0000043 magnetization 
 augmentation part        1.3085346 magnetization 

 Broyden mixing:
  rms(total) = 0.67239E-03    rms(broyden)= 0.67144E-03
  rms(prec ) = 0.12783E-02
  weight for this iteration     100.00

 eigenvalues of (default mixing * dielectric matrix)
  average eigenvalue GAMMA=   2.3321
  7.1340  3.4371  2.5701  2.3596  1.5311  1.0463  1.0463  0.9034  0.9613

 Free energy of the ion-electron system (eV)
  ---------------------------------------------------
  alpha Z        PSCENC =         1.06689490
  Ewald energy   TEWEN  =       293.25155938
  -1/2 Hartree   DENC   =     -1142.29342212
  -exchange  EXHF       =         0.00000000
  -V(xc)+E(xc)   XCENC  =        70.28703723
  PAW double counting   =       708.72000980     -713.63163965
  entropy T*S    EENTRO =         0.00000000
  eigenvalues    EBANDS =      -251.47244102
  atomic energy  EATOM  =      1011.07184495
  ---------------------------------------------------
  free energy    TOTEN  =       -23.00015654 eV

  energy without entropy =      -23.00015654  energy(sigma->0) =      -23.00015654


--------------------------------------------------------------------------------------------------------




----------------------------------------- Iteration    1(  15)  ---------------------------------------


    POTLOK:  cpu time    4.07: real time    4.58
    SETDIJ:  cpu time    0.01: real time    0.01
     EDDAV:  cpu time    2.96: real time    3.55
       DOS:  cpu time    0.00: real time    0.00
    CHARGE:  cpu time    0.92: real time    0.92
    MIXING:  cpu time    0.15: real time    0.18
    --------------------------------------------
      LOOP:  cpu time    8.11: real time    9.27

 eigenvalue-minimisations  :    28
 total energy-change (2. order) :-0.4371787E-03  (-0.4961766E-05)
 number of electron      16.0000043 magnetization 
 augmentation part        1.3086590 magnetization 

 Broyden mixing:
  rms(total) = 0.68386E-03    rms(broyden)= 0.68354E-03
  rms(prec ) = 0.90369E-03
  weight for this iteration     100.00

 eigenvalues of (default mixing * dielectric matrix)
  average eigenvalue GAMMA=   2.2757
  7.6537  3.7092  2.7222  2.3512  1.5379  1.0474  1.0474  0.8905  0.8988  0.8988

 Free energy of the ion-electron system (eV)
  ---------------------------------------------------
  alpha Z        PSCENC =         1.06689490
  Ewald energy   TEWEN  =       293.25155938
  -1/2 Hartree   DENC   =     -1142.22975341
  -exchange  EXHF       =         0.00000000
  -V(xc)+E(xc)   XCENC  =        70.28362247
  PAW double counting   =       708.72251402     -713.63192296
  entropy T*S    EENTRO =         0.00000000
  eigenvalues    EBANDS =      -251.53535307
  atomic energy  EATOM  =      1011.07184495
  ---------------------------------------------------
  free energy    TOTEN  =       -23.00059372 eV

  energy without entropy =      -23.00059372  energy(sigma->0) =      -23.00059372


--------------------------------------------------------------------------------------------------------




----------------------------------------- Iteration    1(  16)  ---------------------------------------


    POTLOK:  cpu time    4.56: real time    5.20
    SETDIJ:  cpu time    0.01: real time    0.01
     EDDAV:  cpu time    3.09: real time    3.58
       DOS:  cpu time    0.00: real time    0.00
    CHARGE:  cpu time    0.73: real time    1.03
    MIXING:  cpu time    0.25: real time    0.32
    --------------------------------------------
      LOOP:  cpu time    8.64: real time   10.16

 eigenvalue-minimisations  :    28
 total energy-change (2. order) :-0.3961326E-04  (-0.5713449E-06)
 number of electron      16.0000043 magnetization 
 augmentation part        1.3084983 magnetization 

 Broyden mixing:
  rms(total) = 0.34574E-03    rms(broyden)= 0.34525E-03
  rms(prec ) = 0.49491E-03
  weight for this iteration     100.00

 eigenvalues of (default mixing * dielectric matrix)
  average eigenvalue GAMMA=   2.4696
  8.4062  4.0668  3.2143  2.6786  2.3325  1.5735  1.0488  1.0488  0.9551  0.9551
  0.8857

 Free energy of the ion-electron system (eV)
  ---------------------------------------------------
  alpha Z        PSCENC =         1.06689490
  Ewald energy   TEWEN  =       293.25155938
  -1/2 Hartree   DENC   =     -1142.25372696
  -exchange  EXHF       =         0.00000000
  -V(xc)+E(xc)   XCENC  =        70.28511243
  PAW double counting   =       708.77702191     -713.68680788
  entropy T*S    EENTRO =         0.00000000
  eigenvalues    EBANDS =      -251.51253207
  atomic energy  EATOM  =      1011.07184495
  ---------------------------------------------------
  free energy    TOTEN  =       -23.00063333 eV

  energy without entropy =      -23.00063333  energy(sigma->0) =      -23.00063333


--------------------------------------------------------------------------------------------------------




----------------------------------------- Iteration    1(  17)  ---------------------------------------


    POTLOK:  cpu time    4.96: real time    5.80
    SETDIJ:  cpu time    0.01: real time    0.01
     EDDAV:  cpu time    2.92: real time    3.40
       DOS:  cpu time    0.00: real time    0.00
    CHARGE:  cpu time    0.91: real time    0.99
    MIXING:  cpu time    0.15: real time    0.23
    --------------------------------------------
      LOOP:  cpu time    8.95: real time   10.44

 eigenvalue-minimisations  :    28
 total energy-change (2. order) :-0.4716946E-04  (-0.1809627E-06)
 number of electron      16.0000043 magnetization 
 augmentation part        1.3085289 magnetization 

 Broyden mixing:
  rms(total) = 0.12345E-03    rms(broyden)= 0.12332E-03
  rms(prec ) = 0.15612E-03
  weight for this iteration     100.00

 eigenvalues of (default mixing * dielectric matrix)
  average eigenvalue GAMMA=   2.3871
  8.5102  4.5235  3.2320  2.5467  2.2864  1.5558  1.0467  1.0467  0.8887  0.9625
  1.0227  1.0227

 Free energy of the ion-electron system (eV)
  ---------------------------------------------------
  alpha Z        PSCENC =         1.06689490
  Ewald energy   TEWEN  =       293.25155938
  -1/2 Hartree   DENC   =     -1142.26065173
  -exchange  EXHF       =         0.00000000
  -V(xc)+E(xc)   XCENC  =        70.28549331
  PAW double counting   =       708.74168385     -713.65214526
  entropy T*S    EENTRO =         0.00000000
  eigenvalues    EBANDS =      -251.50535990
  atomic energy  EATOM  =      1011.07184495
  ---------------------------------------------------
  free energy    TOTEN  =       -23.00068050 eV

  energy without entropy =      -23.00068050  energy(sigma->0) =      -23.00068050


--------------------------------------------------------------------------------------------------------




----------------------------------------- Iteration    1(  18)  ---------------------------------------


    POTLOK:  cpu time    4.48: real time    4.99
    SETDIJ:  cpu time    0.01: real time    0.01
     EDDAV:  cpu time    2.79: real time    3.08
       DOS:  cpu time    0.00: real time    0.00
    CHARGE:  cpu time    0.74: real time    0.81
    MIXING:  cpu time    0.21: real time    0.29
    --------------------------------------------
      LOOP:  cpu time    8.24: real time    9.20

 eigenvalue-minimisations  :    28
 total energy-change (2. order) :-0.5838062E-05  (-0.1749342E-07)
 number of electron      16.0000043 magnetization 
 augmentation part        1.3085384 magnetization 

 Broyden mixing:
  rms(total) = 0.82237E-04    rms(broyden)= 0.82191E-04
  rms(prec ) = 0.11075E-03
  weight for this iteration     100.00

 eigenvalues of (default mixing * dielectric matrix)
  average eigenvalue GAMMA=   2.5537
  8.7505  5.4520  3.4764  3.2570  2.5296  2.2377  1.5837  1.0503  1.0503  0.9907
  0.9907  0.8860  0.9436

 Free energy of the ion-electron system (eV)
  ---------------------------------------------------
  alpha Z        PSCENC =         1.06689490
  Ewald energy   TEWEN  =       293.25155938
  -1/2 Hartree   DENC   =     -1142.25864276
  -exchange  EXHF       =         0.00000000
  -V(xc)+E(xc)   XCENC  =        70.28538007
  PAW double counting   =       708.74449063     -713.65482509
  entropy T*S    EENTRO =         0.00000000
  eigenvalues    EBANDS =      -251.50738841
  atomic energy  EATOM  =      1011.07184495
  ---------------------------------------------------
  free energy    TOTEN  =       -23.00068634 eV

  energy without entropy =      -23.00068634  energy(sigma->0) =      -23.00068634


--------------------------------------------------------------------------------------------------------




----------------------------------------- Iteration    1(  19)  ---------------------------------------


    POTLOK:  cpu time    4.55: real time    5.21
    SETDIJ:  cpu time    0.01: real time    0.01
     EDDAV:  cpu time    2.65: real time    2.93
       DOS:  cpu time    0.00: real time    0.00
    CHARGE:  cpu time    0.84: real time    0.86
    MIXING:  cpu time    0.22: real time    0.30
    --------------------------------------------
      LOOP:  cpu time    8.27: real time    9.36

 eigenvalue-minimisations  :    24
 total energy-change (2. order) :-0.9090545E-05  (-0.2238485E-07)
 number of electron      16.0000043 magnetization 
 augmentation part        1.3085412 magnetization 

 Broyden mixing:
  rms(total) = 0.18642E-04    rms(broyden)= 0.18561E-04
  rms(prec ) = 0.24304E-04
  weight for this iteration     100.00

 eigenvalues of (default mixing * dielectric matrix)
  average eigenvalue GAMMA=   2.4468
  8.7741  5.5080  3.7162  2.9652  2.4999  2.2285  1.5816  1.0504  1.0504  1.0539
  1.0539  0.9449  0.9449  0.8836

 Free energy of the ion-electron system (eV)
  ---------------------------------------------------
  alpha Z        PSCENC =         1.06689490
  Ewald energy   TEWEN  =       293.25155938
  -1/2 Hartree   DENC   =     -1142.25309732
  -exchange  EXHF       =         0.00000000
  -V(xc)+E(xc)   XCENC  =        70.28511499
  PAW double counting   =       708.74837055     -713.65857885
  entropy T*S    EENTRO =         0.00000000
  eigenvalues    EBANDS =      -251.51280402
  atomic energy  EATOM  =      1011.07184495
  ---------------------------------------------------
  free energy    TOTEN  =       -23.00069543 eV

  energy without entropy =      -23.00069543  energy(sigma->0) =      -23.00069543


--------------------------------------------------------------------------------------------------------




----------------------------------------- Iteration    1(  20)  ---------------------------------------


    POTLOK:  cpu time    4.72: real time    4.99
    SETDIJ:  cpu time    0.01: real time    0.01
     EDDAV:  cpu time    2.58: real time    2.67
       DOS:  cpu time    0.00: real time    0.00
    CHARGE:  cpu time    0.77: real time    0.77
    MIXING:  cpu time    0.15: real time    0.15
    --------------------------------------------
      LOOP:  cpu time    8.23: real time    8.61

 eigenvalue-minimisations  :    20
 total energy-change (2. order) :-0.3299451E-06  (-0.7259864E-09)
 number of electron      16.0000043 magnetization 
 augmentation part        1.3085382 magnetization 

 Broyden mixing:
  rms(total) = 0.99957E-05    rms(broyden)= 0.99808E-05
  rms(prec ) = 0.14348E-04
  weight for this iteration     100.00

 eigenvalues of (default mixing * dielectric matrix)
  average eigenvalue GAMMA=   2.5120
  8.7830  5.6567  3.8861  3.2592  2.8505  2.4799  2.2296  1.5963  1.0510  1.0510
  0.8853  1.0114  1.0114  0.9643  0.9643

 Free energy of the ion-electron system (eV)
  ---------------------------------------------------
  alpha Z        PSCENC =         1.06689490
  Ewald energy   TEWEN  =       293.25155938
  -1/2 Hartree   DENC   =     -1142.25382449
  -exchange  EXHF       =         0.00000000
  -V(xc)+E(xc)   XCENC  =        70.28515811
  PAW double counting   =       708.74755774     -713.65778164
  entropy T*S    EENTRO =         0.00000000
  eigenvalues    EBANDS =      -251.51210470
  atomic energy  EATOM  =      1011.07184495
  ---------------------------------------------------
  free energy    TOTEN  =       -23.00069576 eV

  energy without entropy =      -23.00069576  energy(sigma->0) =      -23.00069576


--------------------------------------------------------------------------------------------------------




----------------------------------------- Iteration    1(  21)  ---------------------------------------


    POTLOK:  cpu time    4.32: real time    5.62
    SETDIJ:  cpu time    0.01: real time    0.01
     EDDAV:  cpu time    2.04: real time    2.22
       DOS:  cpu time    0.00: real time    0.00
    CHARGE:  cpu time    0.82: real time    0.96
    MIXING:  cpu time    0.21: real time    0.21
    --------------------------------------------
      LOOP:  cpu time    7.41: real time    9.09

 eigenvalue-minimisations  :    16
 total energy-change (2. order) :-0.4210594E-06  (-0.4678284E-09)
 number of electron      16.0000043 magnetization 
 augmentation part        1.3085385 magnetization 

 Broyden mixing:
  rms(total) = 0.51246E-05    rms(broyden)= 0.51238E-05
  rms(prec ) = 0.68981E-05
  weight for this iteration     100.00

 eigenvalues of (default mixing * dielectric matrix)
  average eigenvalue GAMMA=   2.4159
  8.7881  5.6464  3.9730  3.1296  2.7590  2.4848  2.1658  1.5889  1.0507  1.0507
  1.1796  0.8842  1.0051  0.9805  0.9843  0.9843

 Free energy of the ion-electron system (eV)
  ---------------------------------------------------
  alpha Z        PSCENC =         1.06689490
  Ewald energy   TEWEN  =       293.25155938
  -1/2 Hartree   DENC   =     -1142.25393245
  -exchange  EXHF       =         0.00000000
  -V(xc)+E(xc)   XCENC  =        70.28517008
  PAW double counting   =       708.74756624     -713.65780865
  entropy T*S    EENTRO =         0.00000000
  eigenvalues    EBANDS =      -251.51199063
  atomic energy  EATOM  =      1011.07184495
  ---------------------------------------------------
  free energy    TOTEN  =       -23.00069618 eV

  energy without entropy =      -23.00069618  energy(sigma->0) =      -23.00069618


--------------------------------------------------------------------------------------------------------




----------------------------------------- Iteration    1(  22)  ---------------------------------------


    POTLOK:  cpu time    5.05: real time    6.01
    SETDIJ:  cpu time    0.01: real time    0.01
     EDDAV:  cpu time    2.11: real time    3.05
       DOS:  cpu time    0.00: real time    0.00
    CHARGE:  cpu time    0.80: real time    1.07
    MIXING:  cpu time    0.17: real time    0.24
    --------------------------------------------
      LOOP:  cpu time    8.14: real time   10.39

 eigenvalue-minimisations  :    20
 total energy-change (2. order) :-0.2734737E-07  (-0.9460877E-10)
 number of electron      16.0000043 magnetization 
 augmentation part        1.3085395 magnetization 

 Broyden mixing:
  rms(total) = 0.35403E-05    rms(broyden)= 0.35372E-05
  rms(prec ) = 0.54113E-05
  weight for this iteration     100.00

 eigenvalues of (default mixing * dielectric matrix)
  average eigenvalue GAMMA=   2.5061
  8.7956  5.6747  4.4490  3.3500  3.3500  2.7859  2.4786  2.2445  1.5938  1.0509
  1.0509  1.0187  1.0187  0.8864  0.9637  0.9637  0.9291

 Free energy of the ion-electron system (eV)
  ---------------------------------------------------
  alpha Z        PSCENC =         1.06689490
  Ewald energy   TEWEN  =       293.25155938
  -1/2 Hartree   DENC   =     -1142.25405125
  -exchange  EXHF       =         0.00000000
  -V(xc)+E(xc)   XCENC  =        70.28517401
  PAW double counting   =       708.74753520     -713.65777486
  entropy T*S    EENTRO =         0.00000000
  eigenvalues    EBANDS =      -251.51187854
  atomic energy  EATOM  =      1011.07184495
  ---------------------------------------------------
  free energy    TOTEN  =       -23.00069621 eV

  energy without entropy =      -23.00069621  energy(sigma->0) =      -23.00069621


--------------------------------------------------------------------------------------------------------




----------------------------------------- Iteration    1(  23)  ---------------------------------------


    POTLOK:  cpu time    4.76: real time    6.11
    SETDIJ:  cpu time    0.01: real time    0.01
     EDDAV:  cpu time    2.28: real time    2.97
       DOS:  cpu time    0.00: real time    0.00
    CHARGE:  cpu time    0.94: real time    1.08
    MIXING:  cpu time    0.18: real time    0.18
    --------------------------------------------
      LOOP:  cpu time    8.16: real time   10.45

 eigenvalue-minimisations  :    20
 total energy-change (2. order) :-0.3555715E-07  (-0.2449596E-10)
 number of electron      16.0000043 magnetization 
 augmentation part        1.3085392 magnetization 

 Broyden mixing:
  rms(total) = 0.28278E-05    rms(broyden)= 0.28275E-05
  rms(prec ) = 0.37716E-05
  weight for this iteration     100.00

 eigenvalues of (default mixing * dielectric matrix)
  average eigenvalue GAMMA=   2.4145
  8.7982  5.6996  4.6153  3.6280  3.1219  2.5840  2.4706  2.1941  1.5939  1.0507
  1.0507  1.0316  1.0316  0.9601  0.9601  0.8866  0.8922  0.8922

 Free energy of the ion-electron system (eV)
  ---------------------------------------------------
  alpha Z        PSCENC =         1.06689490
  Ewald energy   TEWEN  =       293.25155938
  -1/2 Hartree   DENC   =     -1142.25393401
  -exchange  EXHF       =         0.00000000
  -V(xc)+E(xc)   XCENC  =        70.28517350
  PAW double counting   =       708.74763850     -713.65787417
  entropy T*S    EENTRO =         0.00000000
  eigenvalues    EBANDS =      -251.51199930
  atomic energy  EATOM  =      1011.07184495
  ---------------------------------------------------
  free energy    TOTEN  =       -23.00069625 eV

  energy without entropy =      -23.00069625  energy(sigma->0) =      -23.00069625


--------------------------------------------------------------------------------------------------------




----------------------------------------- Iteration    1(  24)  ---------------------------------------


    POTLOK:  cpu time    4.69: real time    5.00
    SETDIJ:  cpu time    0.01: real time    0.01
     EDDAV:  cpu time    1.97: real time    2.20
       DOS:  cpu time    0.00: real time    0.00
    --------------------------------------------
      LOOP:  cpu time    6.67: real time    7.22

 eigenvalue-minimisations  :    20
 total energy-change (2. order) :-0.1213266E-08  ( 0.2380318E-10)
 number of electron      16.0000043 magnetization 
 augmentation part        1.3085392 magnetization 

 Free energy of the ion-electron system (eV)
  ---------------------------------------------------
  alpha Z        PSCENC =         1.06689490
  Ewald energy   TEWEN  =       293.25155938
  -1/2 Hartree   DENC   =     -1142.25389403
  -exchange  EXHF       =         0.00000000
  -V(xc)+E(xc)   XCENC  =        70.28517306
  PAW double counting   =       708.74767691     -713.65791463
  entropy T*S    EENTRO =         0.00000000
  eigenvalues    EBANDS =      -251.51203678
  atomic energy  EATOM  =      1011.07184495
  ---------------------------------------------------
  free energy    TOTEN  =       -23.00069625 eV

  energy without entropy =      -23.00069625  energy(sigma->0) =      -23.00069625


--------------------------------------------------------------------------------------------------------




 average (electrostatic) potential at core
  the test charge radii are     0.6991  0.7215
  (the norm of the test charge is              1.0000)
       1 -63.5745       2 -82.7465       3 -82.7465
 
 
 
 E-fermi :  -8.5648     XC(G=0):  -0.7807     alpha+bet : -0.2502


 k-point   1 :       0.0000    0.0000    0.0000
  band No.  band energies     occupation 
      1     -29.0205      2.00000
      2     -28.0093      2.00000
      3     -13.6246      2.00000
      4     -12.4569      2.00000
      5     -12.4569      2.00000
      6     -12.4163      2.00000
      7      -8.8858      2.00000
      8      -8.8858      2.00000
      9      -0.9130      0.00000
     10      -0.3706      0.00000
     11      -0.3706      0.00000
     12       0.5772      0.00000


--------------------------------------------------------------------------------------------------------


 soft charge-density along one line, spin component           1
         0         1         2         3         4         5         6         7         8         9
 total charge-density along one line
 
 pseudopotential strength for first ion, spin component:           1
 10.548   0.029   0.000   0.000   0.000   0.000   0.000   0.000
  0.029  -0.001   0.000   0.000   0.000   0.000   0.000   0.000
  0.000   0.000  -4.620   0.000   0.000  -0.017   0.000   0.000
  0.000   0.000   0.000  -4.620   0.000   0.000  -0.017   0.000
  0.000   0.000   0.000   0.000  -4.668   0.000   0.000  -0.028
  0.000   0.000  -0.017   0.000   0.000  -0.779   0.000   0.000
  0.000   0.000   0.000  -0.017   0.000   0.000  -0.779   0.000
  0.000   0.000   0.000   0.000  -0.028   0.000   0.000  -0.780
 total augmentation occupancy for first ion, spin component:           1
  1.576  -1.192   0.000   0.000   0.000   0.000   0.000   0.000
 -1.192   1.916   0.000   0.000   0.000   0.000   0.000   0.000
  0.000   0.000   0.916   0.000   0.000   0.139   0.000   0.000
  0.000   0.000   0.000   0.916   0.000   0.000   0.139   0.000
  0.000   0.000   0.000   0.000   1.455   0.000   0.000   0.406
  0.000   0.000   0.139   0.000   0.000   0.021   0.000   0.000
  0.000   0.000   0.000   0.139   0.000   0.000   0.021   0.000
  0.000   0.000   0.000   0.000   0.406   0.000   0.000   0.143


------------------------ aborting loop because EDIFF is reached ----------------------------------------


    CHARGE:  cpu time    0.68: real time    0.83
    FORLOC:  cpu time    0.29: real time    0.37
    FORNL :  cpu time    0.15: real time    0.19
    STRESS:  cpu time    0.73: real time    0.73
    FORHAR:  cpu time    1.36: real time    1.56
    MIXING:  cpu time    0.17: real time    0.17

  FORCE on cell =-STRESS in cart. coord.  units (eV):
  Direction    XX          YY          ZZ          XY          YZ          ZX
  --------------------------------------------------------------------------------------
  Alpha Z     1.06689     1.06689     1.06689
  Ewald     648.98270  -177.86565  -177.86565     0.00000     0.00000     0.00000
  Hartree   652.68238   244.78564   244.78564     0.00000     0.00000     0.00000
  E(xc)     -72.53996   -74.72114   -74.72114     0.00000     0.00000     0.00000
  Local   -1467.55149  -304.97412  -304.97412     0.00000     0.00000     0.00000
  n-local   -55.74966   -50.06530   -50.06530     0.00000     0.00000     0.00000
  augment    10.46827    13.12352    13.12352     0.00000     0.00000     0.00000
  Kinetic   278.60198   344.05032   344.05032     0.00000     0.00000     0.00000
  Fock        0.00000     0.00000     0.00000     0.00000     0.00000     0.00000
  -------------------------------------------------------------------------------------
  Total      -4.03890    -4.59983    -4.59983     0.00000     0.00000     0.00000
  in kB      -6.47103    -7.36974    -7.36974     0.00000     0.00000     0.00000
  external pressure =       -7.07 kB  Pullay stress =        0.00 kB


 VOLUME and BASIS-vectors are now :
 -----------------------------------------------------------------------------
  energy-cutoff  :      350.00
  volume of cell :     1000.00
      direct lattice vectors                 reciprocal lattice vectors
    10.000000000  0.000000000  0.000000000     0.100000000  0.000000000  0.000000000
     0.000000000 10.000000000  0.000000000     0.000000000  0.100000000  0.000000000
     0.000000000  0.000000000 10.000000000     0.000000000  0.000000000  0.100000000

  length of vectors
    10.000000000 10.000000000 10.000000000     0.100000000  0.100000000  0.100000000


 FORCES acting on ions
    electron-ion (+dipol)            ewald-force                    non-local-force                 convergence-correction
 -----------------------------------------------------------------------------------------------
   -.461E-13 -.767E-12 -.778E-12   0.250E-12 0.907E-17 0.213E-16   0.000E+00 0.000E+00 0.000E+00   0.495E-14 -.361E-14 -.424E-13
   0.271E+03 0.145E-11 -.204E-05   -.335E+03 -.413E-16 -.378E-16   0.643E+02 0.170E-25 -.129E-25   0.223E-04 -.123E-13 -.509E-13
   -.271E+03 -.799E-12 0.204E-05   0.335E+03 0.379E-16 0.132E-16   -.643E+02 -.162E-25 0.000E+00   -.223E-04 0.904E-17 -.877E-13
 -----------------------------------------------------------------------------------------------
   0.199E-11 -.121E-12 -.136E-11   -.568E-13 0.568E-17 -.334E-17   0.000E+00 0.808E-27 -.129E-25   -.136E-13 -.159E-13 -.181E-12
 
 
 POSITION                                       TOTAL-FORCE (eV/Angst)
 -----------------------------------------------------------------------------------
      5.00000      5.00000      5.00000         0.000000      0.000000      0.000000
      3.82328      5.00000      5.00000        -0.014273      0.000000      0.000000
      6.17672      5.00000      5.00000         0.014273      0.000000      0.000000
 -----------------------------------------------------------------------------------
    total drift:                                0.000000      0.000000      0.000000


--------------------------------------------------------------------------------------------------------



  FREE ENERGIE OF THE ION-ELECTRON SYSTEM (eV)
  ---------------------------------------------------
  free  energy   TOTEN  =       -23.000696 eV

  energy  without entropy=      -23.000696  energy(sigma->0) =      -23.000696
 


--------------------------------------------------------------------------------------------------------


    POTLOK:  cpu time    4.55: real time    5.08


--------------------------------------------------------------------------------------------------------


 
 
Found     4 degrees of freedom:
 
 
        Directions for atom     1:
        --------------------------
 
              1.0000000000000000      0.0000000000000000      0.0000000000000000
              0.0000000000000000      1.0000000000000000      0.0000000000000000
 
 
        Directions for atom     2:
        --------------------------
 
              1.0000000000000000      0.0000000000000000      0.0000000000000000
              0.0000000000000000      1.0000000000000000      0.0000000000000000
 Finite differences:
   Step               POTIM =   1.500000000000000E-002
   Degrees of freedom DOF   =            4
  LATTYP: Found a simple cubic cell.
 ALAT       =    10.0000000000
  
  Lattice vectors:
  
 A1 = (  10.0000000000,   0.0000000000,   0.0000000000)
 A2 = (   0.0000000000,  10.0000000000,   0.0000000000)
 A3 = (   0.0000000000,   0.0000000000,  10.0000000000)
 Subroutine PRICEL returns:
 Original cell was already a primitive cell.
 

Analysis of symmetry for initial positions (statically):

 Routine SETGRP: Setting up the symmetry group for a 
 simple cubic supercell.


 Subroutine GETGRP returns: Found  8 space group operations
 (whereof  8 operations were pure point group operations)
 out of a pool of 48 trial point group operations.


The static configuration has the point symmetry C_4v.

Analysis of symmetry for dynamics (positions and initial velocities):

 Subroutine DYNSYM returns: Found  8 space group operations
 (whereof  8 operations were pure point group operations)
 out of a pool of  8 trial space group operations
 (whereof  8 operations were pure point group operations)
 and found also     1 'primitive' translations


The dynamic configuration has the point symmetry C_4v.
 
 KPOINTS: KPOINTS created by Atomic Simulation Env

Automatic generation of k-mesh.
 
 Subroutine IBZKPT returns following result:
 ===========================================
 
 Found      1 irreducible k-points:
 
 Following reciprocal coordinates:
            Coordinates               Weight
  0.000000  0.000000  0.000000      1.000000
 
 Following cartesian coordinates:
            Coordinates               Weight
  0.000000  0.000000  0.000000      1.000000
 
    WAVPRE:  cpu time    0.81: real time    0.85
    FEWALD:  cpu time    0.00: real time    0.00
    ORTHCH:  cpu time    0.03: real time    0.03
     LOOP+:  cpu time  190.36: real time  217.65


----------------------------------------- Iteration    2(   1)  ---------------------------------------


    POTLOK:  cpu time    4.50: real time    5.29
    SETDIJ:  cpu time    0.01: real time    0.01
     EDDAV:  cpu time    2.50: real time    2.91
       DOS:  cpu time    0.00: real time    0.00
    CHARGE:  cpu time    0.81: real time    0.81
    MIXING:  cpu time    0.14: real time    0.14
    --------------------------------------------
      LOOP:  cpu time    7.96: real time    9.16

 eigenvalue-minimisations  :    24
 total energy-change (2. order) : 0.1917331E-01  (-0.5750960E-01)
 number of electron      16.0000045 magnetization 
 augmentation part        1.3088730 magnetization 

 Broyden mixing:
  rms(total) = 0.34700E-01    rms(broyden)= 0.34276E-01
  rms(prec ) = 0.39816E-01
  weight for this iteration     100.00

 Free energy of the ion-electron system (eV)
  ---------------------------------------------------
  alpha Z        PSCENC =         1.06689490
  Ewald energy   TEWEN  =       293.34738675
  -1/2 Hartree   DENC   =     -1142.27424297
  -exchange  EXHF       =         0.00000000
  -V(xc)+E(xc)   XCENC  =        70.28661777
  PAW double counting   =       708.74760745     -713.65784302
  entropy T*S    EENTRO =         0.00000000
  eigenvalues    EBANDS =      -251.56978877
  atomic energy  EATOM  =      1011.07184495
  ---------------------------------------------------
  free energy    TOTEN  =       -22.98152294 eV

  energy without entropy =      -22.98152294  energy(sigma->0) =      -22.98152294


--------------------------------------------------------------------------------------------------------




----------------------------------------- Iteration    2(   2)  ---------------------------------------


    POTLOK:  cpu time    4.25: real time    4.79
    SETDIJ:  cpu time    0.01: real time    0.01
     EDDAV:  cpu time    2.79: real time    3.20
       DOS:  cpu time    0.00: real time    0.00
    CHARGE:  cpu time    0.79: real time    0.95
    MIXING:  cpu time    0.12: real time    0.12
    --------------------------------------------
      LOOP:  cpu time    7.96: real time    9.08

 eigenvalue-minimisations  :    28
 total energy-change (2. order) : 0.3438923E-04  (-0.1858177E-02)
 number of electron      16.0000045 magnetization 
 augmentation part        1.3088369 magnetization 

 Broyden mixing:
  rms(total) = 0.26413E-01    rms(broyden)= 0.26405E-01
  rms(prec ) = 0.30838E-01
  weight for this iteration     100.00

 eigenvalues of (default mixing * dielectric matrix)
  average eigenvalue GAMMA=   1.2892
  1.2892

 Free energy of the ion-electron system (eV)
  ---------------------------------------------------
  alpha Z        PSCENC =         1.06689490
  Ewald energy   TEWEN  =       293.34738675
  -1/2 Hartree   DENC   =     -1142.29488897
  -exchange  EXHF       =         0.00000000
  -V(xc)+E(xc)   XCENC  =        70.28802324
  PAW double counting   =       708.84765895     -713.75859474
  entropy T*S    EENTRO =         0.00000000
  eigenvalues    EBANDS =      -251.54981363
  atomic energy  EATOM  =      1011.07184495
  ---------------------------------------------------
  free energy    TOTEN  =       -22.98148855 eV

  energy without entropy =      -22.98148855  energy(sigma->0) =      -22.98148855


--------------------------------------------------------------------------------------------------------




----------------------------------------- Iteration    2(   3)  ---------------------------------------


    POTLOK:  cpu time    4.43: real time    5.35
    SETDIJ:  cpu time    0.01: real time    0.01
     EDDAV:  cpu time    3.05: real time    3.27
       DOS:  cpu time    0.00: real time    0.00
    CHARGE:  cpu time    0.69: real time    0.94
    MIXING:  cpu time    0.12: real time    0.16
    --------------------------------------------
      LOOP:  cpu time    8.31: real time    9.75

 eigenvalue-minimisations  :    32
 total energy-change (2. order) : 0.9028456E-03  (-0.1349229E-03)
 number of electron      16.0000045 magnetization 
 augmentation part        1.3088377 magnetization 

 Broyden mixing:
  rms(total) = 0.11930E-01    rms(broyden)= 0.11922E-01
  rms(prec ) = 0.15301E-01
  weight for this iteration     100.00

 eigenvalues of (default mixing * dielectric matrix)
  average eigenvalue GAMMA=   1.6143
  0.6765  2.5520

 Free energy of the ion-electron system (eV)
  ---------------------------------------------------
  alpha Z        PSCENC =         1.06689490
  Ewald energy   TEWEN  =       293.34738675
  -1/2 Hartree   DENC   =     -1142.30534100
  -exchange  EXHF       =         0.00000000
  -V(xc)+E(xc)   XCENC  =        70.28840290
  PAW double counting   =       708.90831805     -713.81976483
  entropy T*S    EENTRO =         0.00000000
  eigenvalues    EBANDS =      -251.53832744
  atomic energy  EATOM  =      1011.07184495
  ---------------------------------------------------
  free energy    TOTEN  =       -22.98058571 eV

  energy without entropy =      -22.98058571  energy(sigma->0) =      -22.98058571


--------------------------------------------------------------------------------------------------------




----------------------------------------- Iteration    2(   4)  ---------------------------------------


    POTLOK:  cpu time    4.04: real time    4.63
    SETDIJ:  cpu time    0.01: real time    0.01
     EDDAV:  cpu time    2.67: real time    2.88
       DOS:  cpu time    0.00: real time    0.00
    CHARGE:  cpu time    0.99: real time    0.99
    MIXING:  cpu time    0.12: real time    0.12
    --------------------------------------------
      LOOP:  cpu time    7.83: real time    8.69

 eigenvalue-minimisations  :    28
 total energy-change (2. order) : 0.4134410E-03  (-0.9764258E-04)
 number of electron      16.0000045 magnetization 
 augmentation part        1.3087570 magnetization 

 Broyden mixing:
  rms(total) = 0.55360E-02    rms(broyden)= 0.55332E-02
  rms(prec ) = 0.72562E-02
  weight for this iteration     100.00

 eigenvalues of (default mixing * dielectric matrix)
  average eigenvalue GAMMA=   1.2889
  2.3229  0.7719  0.7719

 Free energy of the ion-electron system (eV)
  ---------------------------------------------------
  alpha Z        PSCENC =         1.06689490
  Ewald energy   TEWEN  =       293.34738675
  -1/2 Hartree   DENC   =     -1142.31976771
  -exchange  EXHF       =         0.00000000
  -V(xc)+E(xc)   XCENC  =        70.28931691
  PAW double counting   =       708.99437833     -713.90633322
  entropy T*S    EENTRO =         0.00000000
  eigenvalues    EBANDS =      -251.52389316
  atomic energy  EATOM  =      1011.07184495
  ---------------------------------------------------
  free energy    TOTEN  =       -22.98017226 eV

  energy without entropy =      -22.98017226  energy(sigma->0) =      -22.98017226


--------------------------------------------------------------------------------------------------------




----------------------------------------- Iteration    2(   5)  ---------------------------------------


    POTLOK:  cpu time    4.17: real time    4.61
    SETDIJ:  cpu time    0.01: real time    0.01
     EDDAV:  cpu time    2.72: real time    2.73
       DOS:  cpu time    0.00: real time    0.00
    CHARGE:  cpu time    0.61: real time    0.61
    MIXING:  cpu time    0.12: real time    0.18
    --------------------------------------------
      LOOP:  cpu time    7.63: real time    8.17

 eigenvalue-minimisations  :    28
 total energy-change (2. order) :-0.5717135E-04  (-0.1717717E-04)
 number of electron      16.0000045 magnetization 
 augmentation part        1.3087798 magnetization 

 Broyden mixing:
  rms(total) = 0.13097E-02    rms(broyden)= 0.12951E-02
  rms(prec ) = 0.25622E-02
  weight for this iteration     100.00

 eigenvalues of (default mixing * dielectric matrix)
  average eigenvalue GAMMA=   1.3837
  2.0846  1.6556  0.8973  0.8973

 Free energy of the ion-electron system (eV)
  ---------------------------------------------------
  alpha Z        PSCENC =         1.06689490
  Ewald energy   TEWEN  =       293.34738675
  -1/2 Hartree   DENC   =     -1142.31086612
  -exchange  EXHF       =         0.00000000
  -V(xc)+E(xc)   XCENC  =        70.28875217
  PAW double counting   =       708.96529274     -713.87701502
  entropy T*S    EENTRO =         0.00000000
  eigenvalues    EBANDS =      -251.53251980
  atomic energy  EATOM  =      1011.07184495
  ---------------------------------------------------
  free energy    TOTEN  =       -22.98022944 eV

  energy without entropy =      -22.98022944  energy(sigma->0) =      -22.98022944


--------------------------------------------------------------------------------------------------------




----------------------------------------- Iteration    2(   6)  ---------------------------------------


    POTLOK:  cpu time    3.97: real time    4.35
    SETDIJ:  cpu time    0.01: real time    0.01
     EDDAV:  cpu time    2.63: real time    2.75
       DOS:  cpu time    0.00: real time    0.00
    CHARGE:  cpu time    0.68: real time    0.82
    MIXING:  cpu time    0.13: real time    0.27
    --------------------------------------------
      LOOP:  cpu time    7.42: real time    8.22

 eigenvalue-minimisations  :    28
 total energy-change (2. order) :-0.1302746E-03  (-0.3590866E-05)
 number of electron      16.0000045 magnetization 
 augmentation part        1.3087910 magnetization 

 Broyden mixing:
  rms(total) = 0.11587E-02    rms(broyden)= 0.11582E-02
  rms(prec ) = 0.18518E-02
  weight for this iteration     100.00

 eigenvalues of (default mixing * dielectric matrix)
  average eigenvalue GAMMA=   1.5260
  2.7913  2.2128  0.9092  0.9092  0.8073

 Free energy of the ion-electron system (eV)
  ---------------------------------------------------
  alpha Z        PSCENC =         1.06689490
  Ewald energy   TEWEN  =       293.34738675
  -1/2 Hartree   DENC   =     -1142.30781039
  -exchange  EXHF       =         0.00000000
  -V(xc)+E(xc)   XCENC  =        70.28855805
  PAW double counting   =       708.95989868     -713.87145526
[...]
  -1/2 Hartree   DENC   =     -1142.22910407
  -exchange  EXHF       =         0.00000000
  -V(xc)+E(xc)   XCENC  =        70.28442140
  PAW double counting   =       708.71692896     -713.62702815
  entropy T*S    EENTRO =         0.00000000
  eigenvalues    EBANDS =      -251.50784524
  atomic energy  EATOM  =      1011.07184495
  ---------------------------------------------------
  free energy    TOTEN  =       -23.00032594 eV

  energy without entropy =      -23.00032594  energy(sigma->0) =      -23.00032594


--------------------------------------------------------------------------------------------------------




----------------------------------------- Iteration    9(  16)  ---------------------------------------


    POTLOK:  cpu time    4.10: real time    4.93
    SETDIJ:  cpu time    0.01: real time    0.01
     EDDAV:  cpu time    2.55: real time    2.88
       DOS:  cpu time    0.00: real time    0.00
    CHARGE:  cpu time    0.74: real time    0.93
    MIXING:  cpu time    0.16: real time    0.23
    --------------------------------------------
      LOOP:  cpu time    7.56: real time    9.02

 eigenvalue-minimisations  :    24
 total energy-change (2. order) :-0.1093599E-07  (-0.3544187E-10)
 number of electron      16.0000039 magnetization 
 augmentation part        1.3084905 magnetization 

 Broyden mixing:
  rms(total) = 0.51985E-06    rms(broyden)= 0.51826E-06
  rms(prec ) = 0.84507E-06
  weight for this iteration     100.00

 eigenvalues of (default mixing * dielectric matrix)
  average eigenvalue GAMMA=   2.2867
  8.6198  5.4152  3.2261  2.6138  2.6138  2.0781  1.7427  0.8976  0.8976  1.2571
  0.9728  0.9728  1.0574  0.9986  0.9365

 Free energy of the ion-electron system (eV)
  ---------------------------------------------------
  alpha Z        PSCENC =         1.06689490
  Ewald energy   TEWEN  =       293.22356130
  -1/2 Hartree   DENC   =     -1142.22909472
  -exchange  EXHF       =         0.00000000
  -V(xc)+E(xc)   XCENC  =        70.28442096
  PAW double counting   =       708.71693477     -713.62703438
  entropy T*S    EENTRO =         0.00000000
  eigenvalues    EBANDS =      -251.50785374
  atomic energy  EATOM  =      1011.07184495
  ---------------------------------------------------
  free energy    TOTEN  =       -23.00032595 eV

  energy without entropy =      -23.00032595  energy(sigma->0) =      -23.00032595


--------------------------------------------------------------------------------------------------------




----------------------------------------- Iteration    9(  17)  ---------------------------------------


    POTLOK:  cpu time    4.59: real time    5.26
    SETDIJ:  cpu time    0.01: real time    0.01
     EDDAV:  cpu time    1.83: real time    2.23
       DOS:  cpu time    0.00: real time    0.00
    --------------------------------------------
      LOOP:  cpu time    6.44: real time    7.51

 eigenvalue-minimisations  :    16
 total energy-change (2. order) :-0.4542699E-08  (-0.6544099E-11)
 number of electron      16.0000039 magnetization 
 augmentation part        1.3084905 magnetization 

 Free energy of the ion-electron system (eV)
  ---------------------------------------------------
  alpha Z        PSCENC =         1.06689490
  Ewald energy   TEWEN  =       293.22356130
  -1/2 Hartree   DENC   =     -1142.22909124
  -exchange  EXHF       =         0.00000000
  -V(xc)+E(xc)   XCENC  =        70.28442082
  PAW double counting   =       708.71693936     -713.62703899
  entropy T*S    EENTRO =         0.00000000
  eigenvalues    EBANDS =      -251.50785706
  atomic energy  EATOM  =      1011.07184495
  ---------------------------------------------------
  free energy    TOTEN  =       -23.00032596 eV

  energy without entropy =      -23.00032596  energy(sigma->0) =      -23.00032596


--------------------------------------------------------------------------------------------------------




 average (electrostatic) potential at core
  the test charge radii are     0.6991  0.7215
  (the norm of the test charge is              1.0000)
       1 -63.5746       2 -82.7461       3 -82.7470
 
 
 
 E-fermi :  -8.5641     XC(G=0):  -0.7811     alpha+bet : -0.2502


 k-point   1 :       0.0000    0.0000    0.0000
  band No.  band energies     occupation 
      1     -29.0201      2.00000
      2     -28.0086      2.00000
      3     -13.6249      2.00000
      4     -12.4564      2.00000
      5     -12.4564      2.00000
      6     -12.4163      2.00000
      7      -8.8857      2.00000
      8      -8.8856      2.00000
      9      -0.9172      0.00000
     10      -0.3715      0.00000
     11      -0.3697      0.00000
     12       0.5780      0.00000


--------------------------------------------------------------------------------------------------------


 soft charge-density along one line, spin component           1
         0         1         2         3         4         5         6         7         8         9
 total charge-density along one line
 
 pseudopotential strength for first ion, spin component:           1
 10.548   0.029   0.000   0.000   0.000   0.000   0.000   0.000
  0.029  -0.001   0.000   0.000   0.000   0.000   0.000   0.000
  0.000   0.000  -4.620   0.000   0.000  -0.017   0.000   0.000
  0.000   0.000   0.000  -4.620   0.000   0.000  -0.017   0.000
  0.000   0.000   0.000   0.000  -4.668   0.000   0.000  -0.028
  0.000   0.000  -0.017   0.000   0.000  -0.779   0.000   0.000
  0.000   0.000   0.000  -0.017   0.000   0.000  -0.779   0.000
  0.000   0.000   0.000   0.000  -0.028   0.000   0.000  -0.780
 total augmentation occupancy for first ion, spin component:           1
  1.576  -1.191  -0.001   0.000   0.000  -0.001   0.000   0.000
 -1.191   1.916   0.008   0.000   0.000   0.003   0.000   0.000
 -0.001   0.008   0.916   0.000   0.003   0.139   0.000   0.002
  0.000   0.000   0.000   0.916   0.000   0.000   0.139   0.000
  0.000   0.000   0.003   0.000   1.455   0.002   0.000   0.406
 -0.001   0.003   0.139   0.000   0.002   0.021   0.000   0.001
  0.000   0.000   0.000   0.139   0.000   0.000   0.021   0.000
  0.000   0.000   0.002   0.000   0.406   0.001   0.000   0.143


------------------------ aborting loop because EDIFF is reached ----------------------------------------


    CHARGE:  cpu time    0.58: real time    0.64
    FORLOC:  cpu time    0.35: real time    0.35
    FORNL :  cpu time    0.11: real time    0.11
    STRESS:  cpu time    0.75: real time    0.78
    FORHAR:  cpu time    1.33: real time    1.49
    MIXING:  cpu time    0.15: real time    0.15

  FORCE on cell =-STRESS in cart. coord.  units (eV):
  Direction    XX          YY          ZZ          XY          YZ          ZX
  --------------------------------------------------------------------------------------
  Alpha Z     1.06689     1.06689     1.06689
  Ewald     648.89741  -177.80818  -177.86584     4.99225     0.00000     0.00000
  Hartree   652.65050   244.80085   244.77774     2.31799     0.00000     0.00000
  E(xc)     -72.53940   -74.72021   -74.72036     0.01390     0.00000     0.00000
  Local   -1467.45039  -305.03711  -304.96438    -6.84995     0.00000     0.00000
  n-local   -55.74751   -50.06450   -50.06451    -0.03577     0.00000     0.00000
  augment    10.46896    13.12294    13.12345    -0.01683     0.00000     0.00000
  Kinetic   278.60530   344.03900   344.04727    -0.41705     0.00000     0.00000
  Fock        0.00000     0.00000     0.00000     0.00000     0.00000     0.00000
  -------------------------------------------------------------------------------------
  Total      -4.04823    -4.60031    -4.59973     0.00454     0.00000     0.00000
  in kB      -6.48599    -7.37051    -7.36959     0.00728     0.00000     0.00000
  external pressure =       -7.08 kB  Pullay stress =        0.00 kB


 VOLUME and BASIS-vectors are now :
 -----------------------------------------------------------------------------
  energy-cutoff  :      350.00
  volume of cell :     1000.00
      direct lattice vectors                 reciprocal lattice vectors
    10.000000000  0.000000000  0.000000000     0.100000000  0.000000000  0.000000000
     0.000000000 10.000000000  0.000000000     0.000000000  0.100000000  0.000000000
     0.000000000  0.000000000 10.000000000     0.000000000  0.000000000  0.100000000

  length of vectors
    10.000000000 10.000000000 10.000000000     0.100000000  0.100000000  0.100000000


 FORCES acting on ions
    electron-ion (+dipol)            ewald-force                    non-local-force                 convergence-correction
 -----------------------------------------------------------------------------------------------
   0.520E-01 -.316E+01 -.770E-12   -.608E-01 0.316E+01 -.855E-18   0.943E-03 -.101E+00 0.000E+00   0.523E-05 0.255E-05 -.442E-13
   0.271E+03 0.288E+01 -.464E-05   -.335E+03 -.373E+01 0.311E-16   0.643E+02 0.902E+00 0.000E+00   0.435E-06 0.167E-04 -.787E-13
   -.271E+03 -.608E+00 0.202E-05   0.335E+03 0.572E+00 -.336E-16   -.643E+02 0.834E-01 0.000E+00   0.367E-06 -.110E-05 -.709E-13
 -----------------------------------------------------------------------------------------------
   0.117E-01 -.884E+00 -.263E-05   0.000E+00 0.222E-15 -.334E-17   -.117E-01 0.884E+00 0.000E+00   0.603E-05 0.182E-04 -.194E-12
 
 
 POSITION                                       TOTAL-FORCE (eV/Angst)
 -----------------------------------------------------------------------------------
      5.00000      5.00000      5.00000        -0.007888     -0.096777      0.000000
      3.82328      4.98500      5.00000        -0.006257      0.049059      0.000000
      6.17672      5.00000      5.00000         0.014145      0.047717      0.000000
 -----------------------------------------------------------------------------------
    total drift:                                0.000020      0.000715     -0.000003


--------------------------------------------------------------------------------------------------------



  FREE ENERGIE OF THE ION-ELECTRON SYSTEM (eV)
  ---------------------------------------------------
  free  energy   TOTEN  =       -23.000326 eV

  energy  without entropy=      -23.000326  energy(sigma->0) =      -23.000326
 
 d Force = 0.1723518E-07[-0.147E-02, 0.147E-02]  d Energy = 0.9181349E-09 0.163E-07
 d Force = 0.0000000E+00[ 0.112E+00,-0.112E+00]  d Ewald  =-0.3410605E-12 0.341E-12


--------------------------------------------------------------------------------------------------------


    POTLOK:  cpu time    4.92: real time    4.93


--------------------------------------------------------------------------------------------------------


 Finite differences progress:
  Degree of freedom:   4/  4
  Displacement:        2/  2
  Total:               8/  8


--------------------------------------------------------------------------------------------------------


 INTERNAL STRAIN TENSORS FROM DISPLACED ATOMS
 ============================================

 INTERNAL STRAIN TENSOR FOR ION    1 for displacements in x,y,z  (eV/Angst):
          X           Y           Z          XY          YZ          ZX
  --------------------------------------------------------------------------------
  x     0.00000     0.00000     0.00000     0.00000     0.00000     0.00000
  y     0.00000     0.00000     0.00000     0.00000     0.00000     0.00000
  z     0.00000     0.00000     0.00000     0.00000     0.00000     0.00000

 INTERNAL STRAIN TENSOR FOR ION    2 for displacements in x,y,z  (eV/Angst):
          X           Y           Z          XY          YZ          ZX
  --------------------------------------------------------------------------------
  x   118.50024     0.30516     0.30516     0.00000     0.00000     0.00000
  y     0.00000     0.00000     0.00000    -0.30318     0.00000     0.00000
  z     0.00000     0.00000     0.00000     0.00000     0.00000    -0.30312

 INTERNAL STRAIN TENSOR FOR ION    3 for displacements in x,y,z  (eV/Angst):
          X           Y           Z          XY          YZ          ZX
  --------------------------------------------------------------------------------
  x  -118.50024    -0.30516    -0.30516     0.00000     0.00000     0.00000
  y     0.00000     0.00000     0.00000     0.30318     0.00000     0.00000
  z     0.00000     0.00000     0.00000     0.00000     0.00000     0.30312


--------------------------------------------------------------------------------------------------------


 
 SECOND DERIVATIVES (NOT SYMMETRIZED)
 ------------------------------------
               1X          1Y          1Z          2X          2Y          2Z          3X          3Y          3Z 
  1X  -178.008281    0.000000    0.000000   89.061201    0.000000    0.000000   89.061201    0.000000    0.000000
  1Y     0.000000  -12.859518    0.000000    0.000000    6.451785    0.000000    0.000000    6.451785    0.000000
  1Z     0.000000    0.000000  -12.859518    0.000000    0.000000    6.451785    0.000000    0.000000    6.451785
  2X    89.004140    0.000000    0.000000  -95.494216    0.000000    0.000000    6.433016    0.000000    0.000000
  2Y     0.000000    6.429759    0.000000    0.000000   -3.270660    0.000000    0.000000   -3.181125    0.000000
  2Z     0.000000    0.000000    6.429759    0.000000    0.000000   -3.270660    0.000000    0.000000   -3.181125
  3X    89.004140    0.000000    0.000000    6.433016    0.000000    0.000000  -95.494216    0.000000    0.000000
  3Y     0.000000    6.429759    0.000000    0.000000   -3.181125    0.000000    0.000000   -3.270660    0.000000
  3Z     0.000000    0.000000    6.429759    0.000000    0.000000   -3.181125    0.000000    0.000000   -3.270660
 
 
 Eigenvectors and eigenvalues of the dynamical matrix
 ----------------------------------------------------
 
 
   1 f  =   70.587022 THz   443.511339 2PiTHz 2354.529537 cm-1   291.924562 meV
             X         Y         Z           dx          dy          dz
      5.000000  5.000000  5.000000    -0.852622    0.000000    0.000000  
      3.823276  5.000000  5.000000     0.369484    0.000000    0.000000  
      6.176724  5.000000  5.000000     0.369484    0.000000    0.000000  
 
   2 f  =   39.458070 THz   247.922367 2PiTHz 1316.179508 cm-1   163.185520 meV
             X         Y         Z           dx          dy          dz
      5.000000  5.000000  5.000000     0.000000    0.000000    0.000000  
      3.823276  5.000000  5.000000     0.707107    0.000000    0.000000  
      6.176724  5.000000  5.000000    -0.707107    0.000000    0.000000  
 
   3 f  =   18.979386 THz   119.250997 2PiTHz  633.084139 cm-1    78.492458 meV
             X         Y         Z           dx          dy          dz
      5.000000  5.000000  5.000000     0.000000   -0.849848   -0.064576  
      3.823276  5.000000  5.000000     0.000000    0.368794    0.028023  
      6.176724  5.000000  5.000000     0.000000    0.368794    0.028023  
 
   4 f  =   18.979386 THz   119.250997 2PiTHz  633.084139 cm-1    78.492458 meV
             X         Y         Z           dx          dy          dz
      5.000000  5.000000  5.000000     0.000000   -0.064576    0.849848  
      3.823276  5.000000  5.000000     0.000000    0.028023   -0.368794  
      6.176724  5.000000  5.000000     0.000000    0.028023   -0.368794  
 
   5 f  =    1.169461 THz     7.347941 2PiTHz   39.009023 cm-1     4.836504 meV
             X         Y         Z           dx          dy          dz
      5.000000  5.000000  5.000000     0.000000    0.000000    0.000000  
      3.823276  5.000000  5.000000     0.000000   -0.707107    0.000224  
      6.176724  5.000000  5.000000     0.000000    0.707107   -0.000224  
 
   6 f  =    1.169461 THz     7.347941 2PiTHz   39.009023 cm-1     4.836504 meV
             X         Y         Z           dx          dy          dz
      5.000000  5.000000  5.000000     0.000000    0.000000    0.000000  
      3.823276  5.000000  5.000000     0.000000    0.000224    0.707107  
      6.176724  5.000000  5.000000     0.000000   -0.000224   -0.707107  
 
   7 f/i=    0.010077 THz     0.063318 2PiTHz    0.336145 cm-1     0.041677 meV
             X         Y         Z           dx          dy          dz
      5.000000  5.000000  5.000000    -0.522529    0.000000    0.000000  
      3.823276  5.000000  5.000000    -0.602895    0.000000    0.000000  
      6.176724  5.000000  5.000000    -0.602895    0.000000    0.000000  
 
   8 f/i=    0.014467 THz     0.090902 2PiTHz    0.482583 cm-1     0.059833 meV
             X         Y         Z           dx          dy          dz
      5.000000  5.000000  5.000000     0.000000    0.013963   -0.522870  
      3.823276  5.000000  5.000000     0.000000    0.016089   -0.602451  
      6.176724  5.000000  5.000000     0.000000    0.016089   -0.602451  
 
   9 f/i=    0.014467 THz     0.090902 2PiTHz    0.482583 cm-1     0.059833 meV
             X         Y         Z           dx          dy          dz
      5.000000  5.000000  5.000000     0.000000    0.522870    0.013963  
      3.823276  5.000000  5.000000     0.000000    0.602451    0.016089  
      6.176724  5.000000  5.000000     0.000000    0.602451    0.016089  
 


--------------------------------------------------------------------------------------------------------


  LATTYP: Found a simple cubic cell.
 ALAT       =    10.0000000000
  
  Lattice vectors:
  
 A1 = (  10.0000000000,   0.0000000000,   0.0000000000)
 A2 = (   0.0000000000,  10.0000000000,   0.0000000000)
 A3 = (   0.0000000000,   0.0000000000,  10.0000000000)
 Subroutine PRICEL returns:
 Original cell was already a primitive cell.
 

Analysis of symmetry for initial positions (statically):

 Routine SETGRP: Setting up the symmetry group for a 
 simple cubic supercell.


 Subroutine GETGRP returns: Found 16 space group operations
 (whereof 16 operations were pure point group operations)
 out of a pool of 48 trial point group operations.


The static configuration has the point symmetry D_4h.

Analysis of symmetry for dynamics (positions and initial velocities):

 Subroutine DYNSYM returns: Found 16 space group operations
 (whereof 16 operations were pure point group operations)
 out of a pool of 16 trial space group operations
 (whereof 16 operations were pure point group operations)
 and found also     1 'primitive' translations


The dynamic configuration has the point symmetry D_4h.
 
 KPOINTS: KPOINTS created by Atomic Simulation Env

Automatic generation of k-mesh.
 
 Subroutine IBZKPT returns following result:
 ===========================================
 
 Found      1 irreducible k-points:
 
 Following reciprocal coordinates:
            Coordinates               Weight
  0.000000  0.000000  0.000000      1.000000
 
 Following cartesian coordinates:
            Coordinates               Weight
  0.000000  0.000000  0.000000      1.000000
 
 writing wavefunctions
     LOOP+:  cpu time  145.16: real time  168.10
    4ORBIT:  cpu time    0.00: real time    0.07

 total amount of memory used by VASP on root node   237235. kBytes
========================================================================

   base      :      30000. kBytes
   nonl-proj :       2603. kBytes
   fftplans  :      72476. kBytes
   grid      :     129302. kBytes
   one-center:          9. kBytes
   wavefun   :       2845. kBytes
 
  
  
 General timing and accounting informations for this job:
 ========================================================
  
                  Total CPU time used (sec):     1350.148
                            User time (sec):     1332.229
                          System time (sec):       17.918
                         Elapsed time (sec):     1538.880
  
                   Maximum memory used (kb):           0.
                   Average memory used (kb):           0.
  
                          Minor page faults:      6615653
                          Major page faults:           57
                 Voluntary context switches:         5017
