<?xml version="1.0" encoding="ISO-8859-1"?>
<modeling>
 <generator>
  <i name="program" type="string">vasp </i>
  <i name="version" type="string">5.2.12  </i>
  <i name="subversion" type="string">11Nov11 complex                                                      parallel </i>
  <i name="platform" type="string">LinuxIFC </i>
  <i name="date" type="string">2012 10 09 </i>
  <i name="time" type="string">22:34:36 </i>
 </generator>
 <incar>
  <i type="string" name="PREC">accurate</i>
  <i type="int" name="IBRION">     6</i>
  <i type="int" name="NFREE">     2</i>
  <i name="EDIFF">      0.00000001</i>
  <i type="int" name="NSW">     1</i>
  <i name="ENCUT">    350.00000000</i>
  <i name="POTIM">      0.01500000</i>
  <i type="logical" name="LREAL"> F  </i>
  <i type="int" name="ISMEAR">     0</i>
  <i name="SIGMA">      0.05000000</i>
 </incar>
 <kpoints>
  <generation param="Monkhorst-Pack">
   <v type="int" name="divisions">       1        1        1 </v>
   <v name="usershift">      0.00000000       0.00000000       0.00000000 </v>
   <v name="genvec1">      1.00000000       0.00000000       0.00000000 </v>
   <v name="genvec2">      0.00000000       1.00000000       0.00000000 </v>
   <v name="genvec3">      0.00000000       0.00000000       1.00000000 </v>
   <v name="shift">      0.00000000       0.00000000       0.00000000 </v>
  </generation>
  <varray name="kpointlist" >
   <v>       0.00000000       0.00000000       0.00000000 </v>
  </varray>
  <varray name="weights" >
   <v>       1.00000000 </v>
  </varray>
 </kpoints>
 <parameters>
  <separator name="general" >
   <i type="string" name="SYSTEM">unknown system</i>
   <i type="logical" name="LCOMPAT"> F  </i>
  </separator>
  <separator name="electronic" >
   <i type="string" name="PREC">accura</i>
   <i name="ENMAX">    350.00000000</i>
   <i name="ENAUG">    644.87300000</i>
   <i name="EDIFF">      0.00000001</i>
   <i type="int" name="IALGO">    38</i>
   <i type="int" name="IWAVPR">    11</i>
   <i type="int" name="NBANDS">    12</i>
   <i name="NELECT">     16.00000000</i>
   <i type="int" name="TURBO">     0</i>
   <i type="int" name="IRESTART">     0</i>
   <i type="int" name="NREBOOT">     0</i>
   <i type="int" name="NMIN">     0</i>
   <i name="EREF">      0.00000000</i>
   <separator name="electronic smearing" >
    <i type="int" name="ISMEAR">     0</i>
    <i name="SIGMA">      0.05000000</i>
    <i name="KSPACING">      0.50000000</i>
    <i type="logical" name="KGAMMA"> T  </i>
   </separator>
   <separator name="electronic projectors" >
    <i type="logical" name="LREAL"> F  </i>
    <v name="ROPT">      0.00000000      0.00000000</v>
    <i type="int" name="LMAXPAW">  -100</i>
    <i type="int" name="LMAXMIX">     2</i>
    <i type="logical" name="NLSPLINE"> F  </i>
   </separator>
   <separator name="electronic startup" >
    <i type="int" name="ISTART">     0</i>
    <i type="int" name="ICHARG">     2</i>
    <i type="int" name="INIWAV">     1</i>
   </separator>
   <separator name="electronic spin" >
    <i type="int" name="ISPIN">     1</i>
    <i type="logical" name="LNONCOLLINEAR"> F  </i>
    <v name="MAGMOM">      1.00000000      1.00000000      1.00000000</v>
    <i name="NUPDOWN">     -1.00000000</i>
    <i type="logical" name="LSORBIT"> F  </i>
    <v name="SAXIS">      0.00000000      0.00000000      1.00000000</v>
    <i type="logical" name="LSPIRAL"> F  </i>
    <v name="QSPIRAL">      0.00000000      0.00000000      0.00000000</v>
    <i type="logical" name="LZEROZ"> F  </i>
   </separator>
   <separator name="electronic exchange-correlation" >
    <i type="logical" name="LASPH"> F  </i>
    <i type="logical" name="LMETAGGA"> F  </i>
   </separator>
   <separator name="electronic convergence" >
    <i type="int" name="NELM">    60</i>
    <i type="int" name="NELMDL">    -5</i>
    <i type="int" name="NELMIN">     2</i>
    <i name="ENINI">    350.00000000</i>
    <separator name="electronic convergence detail" >
     <i type="logical" name="LDIAG"> T  </i>
     <i type="logical" name="LSUBROT"> T  </i>
     <i name="WEIMIN">      0.00100000</i>
     <i name="EBREAK">      0.00000000</i>
     <i name="DEPER">      0.30000000</i>
     <i type="int" name="NRMM">     4</i>
     <i name="TIME">      0.40000000</i>
    </separator>
   </separator>
   <separator name="electronic mixer" >
    <i name="AMIX">      0.40000000</i>
    <i name="BMIX">      1.00000000</i>
    <i name="AMIN">      0.10000000</i>
    <i name="AMIX_MAG">      1.60000000</i>
    <i name="BMIX_MAG">      1.00000000</i>
    <separator name="electronic mixer details" >
     <i type="int" name="IMIX">     4</i>
     <i type="int" name="MAXMIX">   -45</i>
     <i name="WC">    100.00000000</i>
     <i type="int" name="INIMIX">     1</i>
     <i type="int" name="MIXPRE">     1</i>
     <i type="int" name="MREMOVE">     5</i>
    </separator>
   </separator>
   <separator name="electronic dipolcorrection" >
    <i type="logical" name="LDIPOL"> F  </i>
    <i type="logical" name="LMONO"> F  </i>
    <i type="int" name="IDIPOL">     0</i>
    <i name="EPSILON">      1.00000000</i>
    <v name="DIPOL">   -100.00000000   -100.00000000   -100.00000000</v>
    <i name="EFIELD">      0.00000000</i>
   </separator>
  </separator>
  <separator name="grids" >
   <i type="int" name="NGX">    64</i>
   <i type="int" name="NGY">    64</i>
   <i type="int" name="NGZ">    64</i>
   <i type="int" name="NGXF">   128</i>
   <i type="int" name="NGYF">   128</i>
   <i type="int" name="NGZF">   128</i>
   <i type="logical" name="ADDGRID"> F  </i>
  </separator>
  <separator name="ionic" >
   <i type="int" name="NSW">    73</i>
   <i type="int" name="IBRION">     6</i>
   <i type="int" name="ISIF">     2</i>
   <i name="PSTRESS">      0.00000000</i>
   <i name="EDIFFG">      0.00000010</i>
   <i type="int" name="NFREE">     2</i>
   <i name="POTIM">      0.01500000</i>
   <i name="SMASS">     -3.00000000</i>
   <i name="SCALEE">      1.00000000</i>
  </separator>
  <separator name="ionic md" >
   <i name="TEBEG">      0.00010000</i>
   <i name="TEEND">      0.00010000</i>
   <i type="int" name="NBLOCK">     1</i>
   <i type="int" name="KBLOCK">     1</i>
   <i type="int" name="NPACO">   256</i>
   <i name="APACO">     16.00000000</i>
  </separator>
  <separator name="symmetry" >
   <i type="int" name="ISYM">     2</i>
   <i name="SYMPREC">      0.00001000</i>
  </separator>
  <separator name="dos" >
   <i type="logical" name="LORBIT"> F  </i>
   <v name="RWIGS">     -1.00000000     -1.00000000</v>
   <i type="int" name="NEDOS">   301</i>
   <i name="EMIN">     10.00000000</i>
   <i name="EMAX">    -10.00000000</i>
   <i name="EFERMI">      0.00000000</i>
  </separator>
  <separator name="writing" >
   <i type="int" name="NWRITE">     2</i>
   <i type="logical" name="LWAVE"> T  </i>
   <i type="logical" name="LCHARG"> T  </i>
   <i type="logical" name="LPARD"> F  </i>
   <i type="logical" name="LVTOT"> F  </i>
   <i type="logical" name="LVHAR"> F  </i>
   <i type="logical" name="LELF"> F  </i>
   <i type="logical" name="LOPTICS"> F  </i>
   <v name="STM">      0.00000000      0.00000000      0.00000000      0.00000000      0.00000000      0.00000000      0.00000000</v>
  </separator>
  <separator name="performance" >
   <i type="int" name="NPAR">     1</i>
   <i type="int" name="NSIM">     4</i>
   <i type="int" name="NBLK">    -1</i>
   <i type="logical" name="LPLANE"> T  </i>
   <i type="logical" name="LSCALAPACK"> F  </i>
   <i type="logical" name="LSCAAWARE"> F  </i>
   <i type="logical" name="LSCALU"> F  </i>
   <i type="logical" name="LASYNC"> F  </i>
   <i type="logical" name="LORBITALREAL"> F  </i>
  </separator>
  <separator name="miscellaneous" >
   <i type="int" name="IDIOT">     3</i>
   <i type="logical" name="LMUSIC"> F  </i>
   <v name="POMASS">     12.01100000     16.00000000</v>
   <v name="DARWINR">      0.00000000      0.00000000</v>
   <v name="DARWINV">      1.00000000      1.00000000</v>
   <i type="logical" name="LCORR"> T  </i>
  </separator>
  <i type="logical" name="GGA_COMPAT"> T  </i>
  <i type="logical" name="LBERRY"> F  </i>
  <i type="int" name="ICORELEVEL">     0</i>
  <i type="logical" name="LDAU"> F  </i>
  <i type="int" name="I_CONSTRAINED_M">     0</i>
  <separator name="electronic exchange-correlation" >
   <i type="string" name="GGA">--</i>
   <i type="int" name="VOSKOWN">     0</i>
   <i type="logical" name="LHFCALC"> F  </i>
   <i type="string" name="PRECFOCK"></i>
   <i type="logical" name="LHFONE"> F  </i>
   <i type="logical" name="LRHFCALC"> F  </i>
   <i type="logical" name="LTHOMAS"> F  </i>
   <i type="logical" name="LMODELHF"> F  </i>
   <i name="ENCUT4O">     -1.00000000</i>
   <i type="int" name="EXXOEP">     0</i>
   <i type="int" name="FOURORBIT">     0</i>
   <i name="AEXX">      0.00000000</i>
   <i name="HFALPHA">      0.00000000</i>
   <i name="ALDAX">      1.00000000</i>
   <i name="AGGAX">      1.00000000</i>
   <i name="ALDAC">      1.00000000</i>
   <i name="AGGAC">      1.00000000</i>
   <i type="int" name="NKREDX">     1</i>
   <i type="int" name="NKREDY">     1</i>
   <i type="int" name="NKREDZ">     1</i>
   <i type="logical" name="SHIFTRED"> F  </i>
   <i type="logical" name="ODDONLY"> F  </i>
   <i type="logical" name="EVENONLY"> F  </i>
   <i type="int" name="LMAXFOCK">     0</i>
   <i type="int" name="NMAXFOCKAE">     0</i>
   <i type="logical" name="LFOCKAEDFT"> F  </i>
   <i name="HFSCREEN">      0.00000000</i>
   <i name="HFSCREENC">      0.00000000</i>
  </separator>
  <separator name="vdW DFT" >
   <i type="logical" name="LUSE_VDW"> F  </i>
   <i name="Zab_VDW">     -0.84910000</i>
   <i name="PARAM1">      0.12340000</i>
   <i name="PARAM2">      1.00000000</i>
   <i name="PARAM3">      0.00000000</i>
  </separator>
  <separator name="model GW" >
   <i type="int" name="MODEL_GW">     0</i>
   <i name="MODEL_EPS0">    200.00000000</i>
   <i name="MODEL_ALPHA">      1.00000000</i>
  </separator>
  <separator name="linear response parameters" >
   <i type="logical" name="LEPSILON"> F  </i>
   <i type="logical" name="LRPA"> F  </i>
   <i type="logical" name="LNABLA"> F  </i>
   <i type="logical" name="LVEL"> F  </i>
   <i type="int" name="KINTER">     0</i>
   <i name="CSHIFT">      0.10000000</i>
   <i name="OMEGAMAX">     -1.00000000</i>
  </separator>
  <separator name="orbital magnetization" >
   <i type="logical" name="NUCIND"> F  </i>
   <v name="MAGPOS">      0.00000000      0.00000000      0.00000000</v>
   <i type="logical" name="LNICSALL"> T  </i>
   <i type="logical" name="ORBITALMAG"> F  </i>
   <i type="logical" name="LMAGBLOCH"> F  </i>
   <i type="logical" name="LCHIMAG"> F  </i>
   <i type="logical" name="LGAUGE"> T  </i>
   <i type="int" name="MAGATOM">     0</i>
   <v name="MAGDIPOL">      0.00000000      0.00000000      0.00000000</v>
   <v name="AVECCONST">      0.00000000      0.00000000      0.00000000</v>
  </separator>
  <separator name="response functions" >
   <i type="logical" name="LADDER"> F  </i>
   <i type="logical" name="LHARTREE"> T  </i>
   <i type="int" name="IBSE">     0</i>
   <i type="logical" name="LTCTE"> F  </i>
   <i type="logical" name="LTETE"> F  </i>
   <i type="logical" name="LFXCEPS"> F  </i>
   <i type="logical" name="L2ORDER"> F  </i>
   <i type="logical" name="LUSEW"> F  </i>
   <i name="ENCUTGW">     -2.00000000</i>
   <i name="ENCUTGWSOFT">     -2.00000000</i>
   <i name="ENCUTLF">     -1.00000000</i>
   <i type="int" name="LMAXMP2">    -1</i>
   <i name="SCISSOR">      0.00000000</i>
   <i type="int" name="NOMEGA">     0</i>
   <i type="int" name="NOMEGAR">     0</i>
   <i type="int" name="NBANDSGW">    -1</i>
   <i type="int" name="NBANDSO">    -1</i>
   <i type="int" name="NBANDSV">    -1</i>
   <i name="OPTEMAX">      0.00000000</i>
   <i type="int" name="NELM">     1</i>
   <i type="int" name="DIM">     3</i>
   <i type="int" name="ANTIRES">     0</i>
   <i name="OMEGAMAX">    -30.00000000</i>
   <i name="OMEGATL">   -200.00000000</i>
   <i type="int" name="OMEGAGRID">     0</i>
   <i name="CSHIFT">     -0.10000000</i>
   <i type="logical" name="SELFENERGY"> F  </i>
   <i type="logical" name="LSPECTRAL"> F  </i>
   <i type="logical" name="ODDONLYGW"> F  </i>
   <i type="logical" name="EVENONLYGW"> F  </i>
   <i type="int" name="NKREDLFX">     1</i>
   <i type="int" name="NKREDLFY">     1</i>
   <i type="int" name="NKREDLFZ">     1</i>
   <i type="int" name="MAXMEM">  1800</i>
   <i type="int" name="TELESCOPE">     0</i>
  </separator>
 </parameters>
 <atominfo>
  <atoms>       3 </atoms>
  <types>       2 </types>
  <array name="atoms" >
   <dimension dim="1">ion</dimension>
   <field type="string">element</field>
   <field type="int">atomtype</field>
   <set>
    <rc><c>C </c><c>   1</c></rc>
    <rc><c>O </c><c>   2</c></rc>
    <rc><c>O </c><c>   2</c></rc>
   </set>
  </array>
  <array name="atomtypes" >
   <dimension dim="1">type</dimension>
   <field type="int">atomspertype</field>
   <field type="string">element</field>
   <field>mass</field>
   <field>valence</field>
   <field type="string">pseudopotential</field>
   <set>
    <rc><c>   1</c><c>C </c><c>     12.01100000</c><c>      4.00000000</c><c> PAW_PBE C 08Apr2002                    </c></rc>
    <rc><c>   2</c><c>O </c><c>     16.00000000</c><c>      6.00000000</c><c> PAW_PBE O 08Apr2002                    </c></rc>
   </set>
  </array>
 </atominfo>
 <structure name="initialpos" >
  <crystal>
   <varray name="basis" >
    <v>      10.00000000       0.00000000       0.00000000 </v>
    <v>       0.00000000      10.00000000       0.00000000 </v>
    <v>       0.00000000       0.00000000      10.00000000 </v>
   </varray>
   <i name="volume">   1000.00000000 </i>
   <varray name="rec_basis" >
    <v>       0.10000000       0.00000000       0.00000000 </v>
    <v>       0.00000000       0.10000000       0.00000000 </v>
    <v>       0.00000000       0.00000000       0.10000000 </v>
   </varray>
  </crystal>
  <varray name="positions" >
   <v>       0.50000000       0.50000000       0.50000000 </v>
   <v>       0.38232762       0.50000000       0.50000000 </v>
   <v>       0.61767238       0.50000000       0.50000000 </v>
  </varray>
 </structure>
 <calculation>
  <scstep>
   <time name="dav">    3.38    3.91</time>
   <time name="total">    7.39    8.62</time>
   <energy>
    <i name="alphaZ">      1.06689490 </i>
    <i name="ewald">    293.25155938 </i>
    <i name="hartreedc">  -1104.63994796 </i>
    <i name="XCdc">     68.22275316 </i>
    <i name="pawpsdc">    529.82824833 </i>
    <i name="pawaedc">   -534.67809926 </i>
    <i name="eentropy">      0.00000000 </i>
    <i name="bandstr">   -172.78833981 </i>
    <i name="atom">   1011.07184495 </i>
    <i name="e_fr_energy">     91.33491368 </i>
    <i name="e_wo_entrp">     91.33491368 </i>
    <i name="e_0_energy">     91.33491368 </i>
   </energy>
  </scstep>
  <scstep>
   <time name="dav">    4.18    5.29</time>
   <time name="total">    4.18    5.31</time>
   <energy>
    <i name="e_fr_energy">      0.45185205 </i>
    <i name="e_wo_entrp">      0.45185205 </i>
    <i name="e_0_energy">      0.45185205 </i>
   </energy>
  </scstep>
  <scstep>
   <time name="dav">    3.46    4.66</time>
   <time name="total">    3.46    4.67</time>
   <energy>
    <i name="e_fr_energy">    -22.42811473 </i>
    <i name="e_wo_entrp">    -22.42811473 </i>
    <i name="e_0_energy">    -22.42811473 </i>
   </energy>
  </scstep>
  <scstep>
   <time name="dav">    3.49    3.84</time>
   <time name="total">    3.49    3.85</time>
   <energy>
    <i name="e_fr_energy">    -24.55367237 </i>
    <i name="e_wo_entrp">    -24.55367237 </i>
    <i name="e_0_energy">    -24.55367237 </i>
   </energy>
  </scstep>
  <scstep>
   <time name="dav">    3.14    3.46</time>
   <time name="total">    4.03    4.54</time>
   <energy>
    <i name="e_fr_energy">    -24.57084780 </i>
    <i name="e_wo_entrp">    -24.57084780 </i>
    <i name="e_0_energy">    -24.57084780 </i>
   </energy>
  </scstep>
  <scstep>
   <time name="dav">    3.17    3.47</time>
   <time name="total">    8.39    9.73</time>
   <energy>
    <i name="e_fr_energy">    -23.15656685 </i>
    <i name="e_wo_entrp">    -23.15656685 </i>
    <i name="e_0_energy">    -23.15656685 </i>
   </energy>
  </scstep>
  <scstep>
   <time name="dav">    2.93    3.41</time>
   <time name="total">    7.87    9.18</time>
   <energy>
    <i name="e_fr_energy">    -23.04293145 </i>
    <i name="e_wo_entrp">    -23.04293145 </i>
    <i name="e_0_energy">    -23.04293145 </i>
   </energy>
  </scstep>
  <scstep>
   <time name="dav">    3.13    3.40</time>
   <time name="total">    8.86    9.30</time>
   <energy>
    <i name="e_fr_energy">    -22.99593541 </i>
    <i name="e_wo_entrp">    -22.99593541 </i>
    <i name="e_0_energy">    -22.99593541 </i>
   </energy>
  </scstep>
  <scstep>
   <time name="dav">    3.63    3.95</time>
   <time name="total">    9.42    9.92</time>
   <energy>
    <i name="e_fr_energy">    -22.99113439 </i>
    <i name="e_wo_entrp">    -22.99113439 </i>
    <i name="e_0_energy">    -22.99113439 </i>
   </energy>
  </scstep>
  <scstep>
   <time name="dav">    3.24    3.62</time>
   <time name="total">    8.50    9.93</time>
   <energy>
    <i name="e_fr_energy">    -22.99287259 </i>
    <i name="e_wo_entrp">    -22.99287259 </i>
    <i name="e_0_energy">    -22.99287259 </i>
   </energy>
  </scstep>
  <scstep>
   <time name="dav">    3.49    3.63</time>
   <time name="total">    8.48    9.45</time>
   <energy>
    <i name="e_fr_energy">    -22.99559783 </i>
    <i name="e_wo_entrp">    -22.99559783 </i>
    <i name="e_0_energy">    -22.99559783 </i>
   </energy>
  </scstep>
  <scstep>
   <time name="dav">    3.44    3.91</time>
   <time name="total">    8.44    9.58</time>
   <energy>
    <i name="e_fr_energy">    -22.99776801 </i>
    <i name="e_wo_entrp">    -22.99776801 </i>
    <i name="e_0_energy">    -22.99776801 </i>
   </energy>
  </scstep>
  <scstep>
   <time name="dav">    2.38    2.51</time>
   <time name="total">    7.09    7.35</time>
   <energy>
    <i name="e_fr_energy">    -22.99989270 </i>
    <i name="e_wo_entrp">    -22.99989270 </i>
    <i name="e_0_energy">    -22.99989270 </i>
   </energy>
  </scstep>
  <scstep>
   <time name="dav">    2.58    2.66</time>
   <time name="total">    6.90    7.27</time>
   <energy>
    <i name="e_fr_energy">    -23.00015654 </i>
    <i name="e_wo_entrp">    -23.00015654 </i>
    <i name="e_0_energy">    -23.00015654 </i>
   </energy>
  </scstep>
  <scstep>
   <time name="dav">    2.96    3.55</time>
   <time name="total">    8.11    9.27</time>
   <energy>
    <i name="e_fr_energy">    -23.00059372 </i>
    <i name="e_wo_entrp">    -23.00059372 </i>
    <i name="e_0_energy">    -23.00059372 </i>
   </energy>
  </scstep>
  <scstep>
   <time name="dav">    3.09    3.58</time>
   <time name="total">    8.64   10.16</time>
   <energy>
    <i name="e_fr_energy">    -23.00063333 </i>
    <i name="e_wo_entrp">    -23.00063333 </i>
    <i name="e_0_energy">    -23.00063333 </i>
   </energy>
  </scstep>
  <scstep>
   <time name="dav">    2.92    3.40</time>
   <time name="total">    8.95   10.44</time>
   <energy>
    <i name="e_fr_energy">    -23.00068050 </i>
    <i name="e_wo_entrp">    -23.00068050 </i>
    <i name="e_0_energy">    -23.00068050 </i>
   </energy>
  </scstep>
  <scstep>
   <time name="dav">    2.79    3.08</time>
   <time name="total">    8.24    9.20</time>
   <energy>
    <i name="e_fr_energy">    -23.00068634 </i>
    <i name="e_wo_entrp">    -23.00068634 </i>
    <i name="e_0_energy">    -23.00068634 </i>
   </energy>
  </scstep>
  <scstep>
   <time name="dav">    2.65    2.93</time>
   <time name="total">    8.27    9.36</time>
   <energy>
    <i name="e_fr_energy">    -23.00069543 </i>
    <i name="e_wo_entrp">    -23.00069543 </i>
    <i name="e_0_energy">    -23.00069543 </i>
   </energy>
  </scstep>
  <scstep>
   <time name="dav">    2.58    2.67</time>
   <time name="total">    8.23    8.61</time>
   <energy>
    <i name="e_fr_energy">    -23.00069576 </i>
    <i name="e_wo_entrp">    -23.00069576 </i>
    <i name="e_0_energy">    -23.00069576 </i>
   </energy>
  </scstep>
  <scstep>
   <time name="dav">    2.04    2.22</time>
   <time name="total">    7.41    9.09</time>
   <energy>
    <i name="e_fr_energy">    -23.00069618 </i>
    <i name="e_wo_entrp">    -23.00069618 </i>
    <i name="e_0_energy">    -23.00069618 </i>
   </energy>
  </scstep>
  <scstep>
   <time name="dav">    2.11    3.05</time>
   <time name="total">    8.14   10.39</time>
   <energy>
    <i name="e_fr_energy">    -23.00069621 </i>
    <i name="e_wo_entrp">    -23.00069621 </i>
    <i name="e_0_energy">    -23.00069621 </i>
   </energy>
  </scstep>
  <scstep>
   <time name="dav">    2.28    2.97</time>
   <time name="total">    8.16   10.45</time>
   <energy>
    <i name="e_fr_energy">    -23.00069625 </i>
    <i name="e_wo_entrp">    -23.00069625 </i>
    <i name="e_0_energy">    -23.00069625 </i>
   </energy>
  </scstep>
  <scstep>
   <time name="dav">    1.97    2.20</time>
   <time name="total">    6.67    7.22</time>
   <energy>
    <i name="alphaZ">      1.06689490 </i>
    <i name="ewald">    293.25155938 </i>
    <i name="hartreedc">  -1142.25389403 </i>
    <i name="XCdc">     70.28517306 </i>
    <i name="pawpsdc">    708.74767691 </i>
    <i name="pawaedc">   -713.65791463 </i>
    <i name="eentropy">      0.00000000 </i>
    <i name="bandstr">   -251.51203678 </i>
    <i name="atom">   1011.07184495 </i>
    <i name="e_fr_energy">    -23.00069625 </i>
    <i name="e_wo_entrp">    -23.00069625 </i>
    <i name="e_0_energy">    -23.00069625 </i>
   </energy>
  </scstep>
  <parameters_embedded>
   <separator name="dft+d2" >
    <i type="logical" name="LVDW"> F  </i>
   </separator>
  </parameters_embedded>
  <structure>
   <crystal>
    <varray name="basis" >
     <v>      10.00000000       0.00000000       0.00000000 </v>
     <v>       0.00000000      10.00000000       0.00000000 </v>
     <v>       0.00000000       0.00000000      10.00000000 </v>
    </varray>
    <i name="volume">   1000.00000000 </i>
    <varray name="rec_basis" >
     <v>       0.10000000       0.00000000       0.00000000 </v>
     <v>       0.00000000       0.10000000       0.00000000 </v>
     <v>       0.00000000       0.00000000       0.10000000 </v>
    </varray>
   </crystal>
   <varray name="positions" >
    <v>       0.50000000       0.50000000       0.50000000 </v>
    <v>       0.38232762       0.50000000       0.50000000 </v>
    <v>       0.61767238       0.50000000       0.50000000 </v>
   </varray>
  </structure>
  <varray name="forces" >
   <v>       0.00000000       0.00000000       0.00000000 </v>
   <v>      -0.01427331       0.00000000       0.00000000 </v>
   <v>       0.01427331       0.00000000       0.00000000 </v>
  </varray>
  <varray name="stress" >
   <v>      -6.47102958       0.00000000       0.00000000 </v>
   <v>       0.00000000      -7.36974000       0.00000000 </v>
   <v>       0.00000000       0.00000000      -7.36974000 </v>
  </varray>
  <energy>
   <i name="e_fr_energy">    -23.00069625 </i>
   <i name="e_wo_entrp">    -23.00069625 </i>
   <i name="e_0_energy">      0.00000000 </i>
  </energy>
  <kpoints>
   <generation param="Monkhorst-Pack">
    <v type="int" name="divisions">       1        1        1 </v>
    <v name="usershift">      0.00000000       0.00000000       0.00000000 </v>
    <v name="genvec1">      1.00000000       0.00000000       0.00000000 </v>
    <v name="genvec2">      0.00000000       1.00000000       0.00000000 </v>
    <v name="genvec3">      0.00000000       0.00000000       1.00000000 </v>
    <v name="shift">      0.00000000       0.00000000       0.00000000 </v>
   </generation>
   <varray name="kpointlist" >
    <v>       0.00000000       0.00000000       0.00000000 </v>
   </varray>
   <varray name="weights" >
    <v>       1.00000000 </v>
   </varray>
  </kpoints>
  <time name="totalsc">  190.36  217.65</time>
 </calculation>
 <calculation>
  <scstep>
   <time name="dav">    2.50    2.91</time>
   <time name="total">    7.96    9.16</time>
   <energy>
    <i name="alphaZ">      1.06689490 </i>
    <i name="ewald">    293.34738675 </i>
    <i name="hartreedc">  -1142.27424297 </i>
    <i name="XCdc">     70.28661777 </i>
    <i name="pawpsdc">    708.74760745 </i>
    <i name="pawaedc">   -713.65784302 </i>
    <i name="eentropy">      0.00000000 </i>
    <i name="bandstr">   -251.56978877 </i>
    <i name="atom">   1011.07184495 </i>
    <i name="e_fr_energy">    -22.98152294 </i>
    <i name="e_wo_entrp">    -22.98152294 </i>
    <i name="e_0_energy">    -22.98152294 </i>
   </energy>
  </scstep>
  <scstep>
   <time name="dav">    2.79    3.20</time>
   <time name="total">    7.96    9.08</time>
   <energy>
    <i name="e_fr_energy">    -22.98148855 </i>
    <i name="e_wo_entrp">    -22.98148855 </i>
    <i name="e_0_energy">    -22.98148855 </i>
   </energy>
  </scstep>
  <scstep>
   <time name="dav">    3.05    3.27</time>
   <time name="total">    8.31    9.75</time>
   <energy>
    <i name="e_fr_energy">    -22.98058571 </i>
    <i name="e_wo_entrp">    -22.98058571 </i>
    <i name="e_0_energy">    -22.98058571 </i>
   </energy>
  </scstep>
  <scstep>
   <time name="dav">    2.67    2.88</time>
   <time name="total">    7.83    8.69</time>
   <energy>
    <i name="e_fr_energy">    -22.98017226 </i>
    <i name="e_wo_entrp">    -22.98017226 </i>
    <i name="e_0_energy">    -22.98017226 </i>
   </energy>
  </scstep>
  <scstep>
   <time name="dav">    2.72    2.73</time>
   <time name="total">    7.63    8.17</time>
   <energy>
    <i name="e_fr_energy">    -22.98022944 </i>
    <i name="e_wo_entrp">    -22.98022944 </i>
    <i name="e_0_energy">    -22.98022944 </i>
   </energy>
  </scstep>
  <scstep>
   <time name="dav">    2.63    2.75</time>
   <time name="total">    7.42    8.22</time>
   <energy>
    <i name="e_fr_energy">    -22.98035971 </i>
    <i name="e_wo_entrp">    -22.98035971 </i>
    <i name="e_0_energy">    -22.98035971 </i>
   </energy>
  </scstep>
  <scstep>
   <time name="dav">    2.97    3.27</time>
   <time name="total">    8.25    9.10</time>
   <energy>
    <i name="e_fr_energy">    -22.98043190 </i>
    <i name="e_wo_entrp">    -22.98043190 </i>
    <i name="e_0_energy">    -22.98043190 </i>
   </energy>
  </scstep>
  <scstep>
   <time name="dav">    3.06    3.35</time>
   <time name="total">    9.03    9.79</time>
   <energy>
    <i name="e_fr_energy">    -22.98059406 </i>
    <i name="e_wo_entrp">    -22.98059406 </i>
    <i name="e_0_energy">    -22.98059406 </i>
   </energy>
  </scstep>
  <scstep>
   <time name="dav">    3.24    3.36</time>
   <time name="total">    8.70    9.61</time>
   <energy>
    <i name="e_fr_energy">    -22.98062627 </i>
    <i name="e_wo_entrp">    -22.98062627 </i>
    <i name="e_0_energy">    -22.98062627 </i>
   </energy>
  </scstep>
  <scstep>
   <time name="dav">    2.75    3.09</time>
   <time name="total">    7.49    8.21</time>
   <energy>
    <i name="e_fr_energy">    -22.98066927 </i>
    <i name="e_wo_entrp">    -22.98066927 </i>
    <i name="e_0_energy">    -22.98066927 </i>
   </energy>
  </scstep>
  <scstep>
   <time name="dav">    3.70    3.70</time>
   <time name="total">    8.39    8.65</time>
   <energy>
    <i name="e_fr_energy">    -22.98067467 </i>
    <i name="e_wo_entrp">    -22.98067467 </i>
    <i name="e_0_energy">    -22.98067467 </i>
   </energy>
  </scstep>
  <scstep>
   <time name="dav">    2.67    2.99</time>
   <time name="total">    7.82    8.77</time>
   <energy>
    <i name="e_fr_energy">    -22.98068396 </i>
    <i name="e_wo_entrp">    -22.98068396 </i>
    <i name="e_0_energy">    -22.98068396 </i>
   </energy>
  </scstep>
  <scstep>
   <time name="dav">    3.21    3.47</time>
   <time name="total">    8.63    9.52</time>
   <energy>
    <i name="e_fr_energy">    -22.98068691 </i>
    <i name="e_wo_entrp">    -22.98068691 </i>
    <i name="e_0_energy">    -22.98068691 </i>
   </energy>
  </scstep>
  <scstep>
   <time name="dav">    1.97    2.42</time>
   <time name="total">    8.06    9.74</time>
   <energy>
    <i name="e_fr_energy">    -22.98068794 </i>
    <i name="e_wo_entrp">    -22.98068794 </i>
    <i name="e_0_energy">    -22.98068794 </i>
   </energy>
  </scstep>
  <scstep>
   <time name="dav">    2.21    2.96</time>
   <time name="total">    7.85    9.52</time>
   <energy>
    <i name="e_fr_energy">    -22.98068812 </i>
    <i name="e_wo_entrp">    -22.98068812 </i>
    <i name="e_0_energy">    -22.98068812 </i>
   </energy>
  </scstep>
  <scstep>
   <time name="dav">    1.98    2.29</time>
   <time name="total">    7.35    8.16</time>
   <energy>
    <i name="e_fr_energy">    -22.98068818 </i>
    <i name="e_wo_entrp">    -22.98068818 </i>
    <i name="e_0_energy">    -22.98068818 </i>
   </energy>
  </scstep>
  <scstep>
   <time name="dav">    1.97    2.19</time>
   <time name="total">    6.80    7.48</time>
   <energy>
    <i name="alphaZ">      1.06689490 </i>
    <i name="ewald">    293.34738675 </i>
    <i name="hartreedc">  -1142.30513663 </i>
    <i name="XCdc">     70.28824609 </i>
    <i name="pawpsdc">    708.96390620 </i>
    <i name="pawaedc">   -713.87554335 </i>
    <i name="eentropy">      0.00000000 </i>
    <i name="bandstr">   -251.53828708 </i>
    <i name="atom">   1011.07184495 </i>
    <i name="e_fr_energy">    -22.98068819 </i>
    <i name="e_wo_entrp">    -22.98068819 </i>
    <i name="e_0_energy">    -22.98068819 </i>
   </energy>
  </scstep>
  <structure>
   <crystal>
    <varray name="basis" >
     <v>      10.00000000       0.00000000       0.00000000 </v>
     <v>       0.00000000      10.00000000       0.00000000 </v>
     <v>       0.00000000       0.00000000      10.00000000 </v>
    </varray>
    <i name="volume">   1000.00000000 </i>
    <varray name="rec_basis" >
     <v>       0.10000000       0.00000000       0.00000000 </v>
     <v>       0.00000000       0.10000000       0.00000000 </v>
     <v>       0.00000000       0.00000000       0.10000000 </v>
    </varray>
   </crystal>
   <varray name="positions" >
    <v>       0.50150000       0.50000000       0.50000000 </v>
    <v>       0.38232762       0.50000000       0.50000000 </v>
    <v>       0.61767238       0.50000000       0.50000000 </v>
   </varray>
  </structure>
  <varray name="forces" >
   <v>      -2.67013120       0.00000000       0.00000000 </v>
   <v>       1.24654424       0.00000000       0.00000000 </v>
   <v>       1.42358696       0.00000000       0.00000000 </v>
  </varray>
  <varray name="stress" >
   <v>      -6.24660689       0.00000000       0.00000000 </v>
   <v>       0.00000000      -7.36984888       0.00000000 </v>
   <v>       0.00000000       0.00000000      -7.36984888 </v>
  </varray>
  <energy>
   <i name="e_fr_energy">    -22.98068819 </i>
   <i name="e_wo_entrp">    -22.98068819 </i>
   <i name="e_0_energy">      0.00000000 </i>
  </energy>
  <kpoints>
   <generation param="Monkhorst-Pack">
    <v type="int" name="divisions">       1        1        1 </v>
    <v name="usershift">      0.00000000       0.00000000       0.00000000 </v>
    <v name="genvec1">      1.00000000       0.00000000       0.00000000 </v>
    <v name="genvec2">      0.00000000       1.00000000       0.00000000 </v>
    <v name="genvec3">      0.00000000       0.00000000       1.00000000 </v>
    <v name="shift">      0.00000000       0.00000000       0.00000000 </v>
   </generation>
   <varray name="kpointlist" >
    <v>       0.00000000       0.00000000       0.00000000 </v>
   </varray>
   <varray name="weights" >
    <v>       1.00000000 </v>
   </varray>
  </kpoints>
  <time name="totalsc">  144.45  161.87</time>
 </calculation>
 <calculation>
  <scstep>
   <time name="dav">    2.58    3.07</time>
   <time name="total">    8.26    9.39</time>
   <energy>
    <i name="alphaZ">      1.06689490 </i>
    <i name="ewald">    293.34738675 </i>
    <i name="hartreedc">  -1142.30541855 </i>
    <i name="XCdc">     70.28855435 </i>
    <i name="pawpsdc">    708.96387886 </i>
    <i name="pawaedc">   -713.87551561 </i>
    <i name="eentropy">      0.00000000 </i>
    <i name="bandstr">   -251.54214187 </i>
    <i name="atom">   1011.07184495 </i>
    <i name="e_fr_energy">    -22.98451622 </i>
    <i name="e_wo_entrp">    -22.98451622 </i>
    <i name="e_0_energy">    -22.98451622 </i>
   </energy>
  </scstep>
  <scstep>
   <time name="dav">    2.88    3.37</time>
   <time name="total">    7.97    9.46</time>
   <energy>
    <i name="e_fr_energy">    -22.98425846 </i>
    <i name="e_wo_entrp">    -22.98425846 </i>
    <i name="e_0_energy">    -22.98425846 </i>
   </energy>
  </scstep>
  <scstep>
   <time name="dav">    3.28    4.01</time>
   <time name="total">    8.57   10.27</time>
   <energy>
    <i name="e_fr_energy">    -22.98057285 </i>
    <i name="e_wo_entrp">    -22.98057285 </i>
    <i name="e_0_energy">    -22.98057285 </i>
   </energy>
  </scstep>
  <scstep>
   <time name="dav">    2.98    3.11</time>
   <time name="total">    7.87    9.06</time>
   <energy>
    <i name="e_fr_energy">    -22.97910327 </i>
    <i name="e_wo_entrp">    -22.97910327 </i>
    <i name="e_0_energy">    -22.97910327 </i>
   </energy>
  </scstep>
  <scstep>
   <time name="dav">    2.33    2.65</time>
   <time name="total">    6.59    7.48</time>
   <energy>
    <i name="e_fr_energy">    -22.97925472 </i>
    <i name="e_wo_entrp">    -22.97925472 </i>
    <i name="e_0_energy">    -22.97925472 </i>
   </energy>
  </scstep>
  <scstep>
   <time name="dav">    2.79    3.58</time>
   <time name="total">    7.08    8.51</time>
   <energy>
    <i name="e_fr_energy">    -22.97976354 </i>
    <i name="e_wo_entrp">    -22.97976354 </i>
    <i name="e_0_energy">    -22.97976354 </i>
   </energy>
  </scstep>
  <scstep>
   <time name="dav">    2.77    3.28</time>
   <time name="total">    7.73    9.36</time>
   <energy>
    <i name="e_fr_energy">    -22.98001966 </i>
    <i name="e_wo_entrp">    -22.98001966 </i>
    <i name="e_0_energy">    -22.98001966 </i>
   </energy>
  </scstep>
  <scstep>
   <time name="dav">    2.83    3.06</time>
   <time name="total">    7.68    8.97</time>
   <energy>
    <i name="e_fr_energy">    -22.98044440 </i>
    <i name="e_wo_entrp">    -22.98044440 </i>
    <i name="e_0_energy">    -22.98044440 </i>
   </energy>
  </scstep>
  <scstep>
   <time name="dav">    3.25    3.44</time>
   <time name="total">    8.21    9.29</time>
   <energy>
    <i name="e_fr_energy">    -22.98053967 </i>
    <i name="e_wo_entrp">    -22.98053967 </i>
    <i name="e_0_energy">    -22.98053967 </i>
   </energy>
  </scstep>
  <scstep>
   <time name="dav">    2.91    3.19</time>
   <time name="total">    7.44    8.26</time>
   <energy>
    <i name="e_fr_energy">    -22.98064232 </i>
    <i name="e_wo_entrp">    -22.98064232 </i>
    <i name="e_0_energy">    -22.98064232 </i>
   </energy>
  </scstep>
  <scstep>
   <time name="dav">    3.19    3.96</time>
   <time name="total">    8.36    9.57</time>
   <energy>
    <i name="e_fr_energy">    -22.98065964 </i>
    <i name="e_wo_entrp">    -22.98065964 </i>
    <i name="e_0_energy">    -22.98065964 </i>
   </energy>
  </scstep>
  <scstep>
   <time name="dav">    2.72    2.89</time>
   <time name="total">    7.78    8.46</time>
   <energy>
    <i name="e_fr_energy">    -22.98068207 </i>
    <i name="e_wo_entrp">    -22.98068207 </i>
    <i name="e_0_energy">    -22.98068207 </i>
   </energy>
  </scstep>
  <scstep>
   <time name="dav">    2.78    3.56</time>
   <time name="total">    7.81    9.27</time>
   <energy>
    <i name="e_fr_energy">    -22.98068509 </i>
    <i name="e_wo_entrp">    -22.98068509 </i>
    <i name="e_0_energy">    -22.98068509 </i>
   </energy>
  </scstep>
  <scstep>
   <time name="dav">    2.28    2.52</time>
   <time name="total">    7.42    8.61</time>
   <energy>
    <i name="e_fr_energy">    -22.98068740 </i>
    <i name="e_wo_entrp">    -22.98068740 </i>
    <i name="e_0_energy">    -22.98068740 </i>
   </energy>
  </scstep>
  <scstep>
   <time name="dav">    2.12    2.45</time>
   <time name="total">    7.48    8.75</time>
   <energy>
    <i name="e_fr_energy">    -22.98068803 </i>
    <i name="e_wo_entrp">    -22.98068803 </i>
    <i name="e_0_energy">    -22.98068803 </i>
   </energy>
  </scstep>
  <scstep>
   <time name="dav">    1.83    1.99</time>
   <time name="total">    7.26    7.95</time>
   <energy>
    <i name="e_fr_energy">    -22.98068817 </i>
    <i name="e_wo_entrp">    -22.98068817 </i>
    <i name="e_0_energy">    -22.98068817 </i>
   </energy>
  </scstep>
  <scstep>
   <time name="dav">    2.13    2.24</time>
   <time name="total">    7.95    8.53</time>
   <energy>
    <i name="e_fr_energy">    -22.98068819 </i>
    <i name="e_wo_entrp">    -22.98068819 </i>
    <i name="e_0_energy">    -22.98068819 </i>
   </energy>
  </scstep>
  <scstep>
   <time name="dav">    2.30    2.60</time>
   <time name="total">    6.84    7.36</time>
   <energy>
    <i name="alphaZ">      1.06689490 </i>
    <i name="ewald">    293.34738675 </i>
    <i name="hartreedc">  -1142.30512951 </i>
    <i name="XCdc">     70.28824551 </i>
    <i name="pawpsdc">    708.96386728 </i>
    <i name="pawaedc">   -713.87550372 </i>
    <i name="eentropy">      0.00000000 </i>
    <i name="bandstr">   -251.53829435 </i>
    <i name="atom">   1011.07184495 </i>
    <i name="e_fr_energy">    -22.98068819 </i>
    <i name="e_wo_entrp">    -22.98068819 </i>
    <i name="e_0_energy">    -22.98068819 </i>
   </energy>
  </scstep>
  <structure>
   <crystal>
    <varray name="basis" >
     <v>      10.00000000       0.00000000       0.00000000 </v>
     <v>       0.00000000      10.00000000       0.00000000 </v>
     <v>       0.00000000       0.00000000      10.00000000 </v>
    </varray>
    <i name="volume">   1000.00000000 </i>
    <varray name="rec_basis" >
     <v>       0.10000000       0.00000000       0.00000000 </v>
     <v>       0.00000000       0.10000000       0.00000000 </v>
     <v>       0.00000000       0.00000000       0.10000000 </v>
    </varray>
   </crystal>
   <varray name="positions" >
    <v>       0.49850000       0.50000000       0.50000000 </v>
    <v>       0.38232762       0.50000000       0.50000000 </v>
    <v>       0.61767238       0.50000000       0.50000000 </v>
   </varray>
  </structure>
  <varray name="forces" >
   <v>       2.67011723       0.00000000       0.00000000 </v>
   <v>      -1.42358072       0.00000000       0.00000000 </v>
   <v>      -1.24653651       0.00000000       0.00000000 </v>
  </varray>
  <varray name="stress" >
   <v>      -6.24661594       0.00000000       0.00000000 </v>
   <v>       0.00000000      -7.36984198       0.00000000 </v>
   <v>       0.00000000       0.00000000      -7.36984198 </v>
  </varray>
  <energy>
   <i name="e_fr_energy">    -22.98068819 </i>
   <i name="e_wo_entrp">    -22.98068819 </i>
   <i name="e_0_energy">      0.00000000 </i>
  </energy>
  <kpoints>
   <generation param="Monkhorst-Pack">
    <v type="int" name="divisions">       1        1        1 </v>
    <v name="usershift">      0.00000000       0.00000000       0.00000000 </v>
    <v name="genvec1">      1.00000000       0.00000000       0.00000000 </v>
    <v name="genvec2">      0.00000000       1.00000000       0.00000000 </v>
    <v name="genvec3">      0.00000000       0.00000000       1.00000000 </v>
    <v name="shift">      0.00000000       0.00000000       0.00000000 </v>
   </generation>
   <varray name="kpointlist" >
    <v>       0.00000000       0.00000000       0.00000000 </v>
   </varray>
   <varray name="weights" >
    <v>       1.00000000 </v>
   </varray>
  </kpoints>
  <time name="totalsc">  148.15  169.68</time>
 </calculation>
 <calculation>
  <scstep>
   <time name="dav">    2.37    3.12</time>
   <time name="total">    7.42    9.86</time>
   <energy>
    <i name="alphaZ">      1.06689490 </i>
    <i name="ewald">    293.20414784 </i>
    <i name="hartreedc">  -1142.25445316 </i>
    <i name="XCdc">     70.28611793 </i>
    <i name="pawpsdc">    708.96388590 </i>
    <i name="pawaedc">   -713.87552272 </i>
    <i name="eentropy">      0.00000000 </i>
    <i name="bandstr">   -251.46290179 </i>
    <i name="atom">   1011.07184495 </i>
    <i name="e_fr_energy">    -22.99998614 </i>
    <i name="e_wo_entrp">    -22.99998614 </i>
    <i name="e_0_energy">    -22.99998614 </i>
   </energy>
  </scstep>
  <scstep>
   <time name="dav">    3.00    3.57</time>
   <time name="total">    7.74    9.01</time>
   <energy>
    <i name="e_fr_energy">    -23.00001271 </i>
    <i name="e_wo_entrp">    -23.00001271 </i>
    <i name="e_0_energy">    -23.00001271 </i>
   </energy>
  </scstep>
  <scstep>
   <time name="dav">    3.12    3.45</time>
   <time name="total">    8.05    8.79</time>
   <energy>
    <i name="e_fr_energy">    -22.99896140 </i>
    <i name="e_wo_entrp">    -22.99896140 </i>
    <i name="e_0_energy">    -22.99896140 </i>
   </energy>
  </scstep>
  <scstep>
   <time name="dav">    3.22    3.38</time>
   <time name="total">    8.10    8.97</time>
   <energy>
    <i name="e_fr_energy">    -22.99891806 </i>
    <i name="e_wo_entrp">    -22.99891806 </i>
    <i name="e_0_energy">    -22.99891806 </i>
   </energy>
  </scstep>
  <scstep>
   <time name="dav">    3.00    3.48</time>
   <time name="total">    8.45    9.50</time>
   <energy>
    <i name="e_fr_energy">    -22.99892832 </i>
    <i name="e_wo_entrp">    -22.99892832 </i>
    <i name="e_0_energy">    -22.99892832 </i>
   </energy>
  </scstep>
  <scstep>
   <time name="dav">    2.68    2.91</time>
   <time name="total">    7.58    8.55</time>
   <energy>
    <i name="e_fr_energy">    -22.99899990 </i>
    <i name="e_wo_entrp">    -22.99899990 </i>
    <i name="e_0_energy">    -22.99899990 </i>
   </energy>
  </scstep>
  <scstep>
   <time name="dav">    3.38    3.44</time>
   <time name="total">    8.23    9.45</time>
   <energy>
    <i name="e_fr_energy">    -22.99914657 </i>
    <i name="e_wo_entrp">    -22.99914657 </i>
    <i name="e_0_energy">    -22.99914657 </i>
   </energy>
  </scstep>
  <scstep>
   <time name="dav">    2.75    3.00</time>
   <time name="total">    7.77    8.17</time>
   <energy>
    <i name="e_fr_energy">    -22.99916702 </i>
    <i name="e_wo_entrp">    -22.99916702 </i>
    <i name="e_0_energy">    -22.99916702 </i>
   </energy>
  </scstep>
  <scstep>
   <time name="dav">    2.90    3.05</time>
   <time name="total">    7.82    8.37</time>
   <energy>
    <i name="e_fr_energy">    -22.99922359 </i>
    <i name="e_wo_entrp">    -22.99922359 </i>
    <i name="e_0_energy">    -22.99922359 </i>
   </energy>
  </scstep>
  <scstep>
   <time name="dav">    3.43    3.43</time>
   <time name="total">    9.04    9.29</time>
   <energy>
    <i name="e_fr_energy">    -22.99923634 </i>
    <i name="e_wo_entrp">    -22.99923634 </i>
    <i name="e_0_energy">    -22.99923634 </i>
   </energy>
  </scstep>
  <scstep>
   <time name="dav">    3.02    3.21</time>
   <time name="total">    7.86    8.40</time>
   <energy>
    <i name="e_fr_energy">    -22.99924882 </i>
    <i name="e_wo_entrp">    -22.99924882 </i>
    <i name="e_0_energy">    -22.99924882 </i>
   </energy>
  </scstep>
  <scstep>
   <time name="dav">    2.56    2.84</time>
   <time name="total">    7.80    9.19</time>
   <energy>
    <i name="e_fr_energy">    -22.99924939 </i>
    <i name="e_wo_entrp">    -22.99924939 </i>
    <i name="e_0_energy">    -22.99924939 </i>
   </energy>
  </scstep>
  <scstep>
   <time name="dav">    1.85    2.36</time>
   <time name="total">    7.76    9.04</time>
   <energy>
    <i name="e_fr_energy">    -22.99925067 </i>
    <i name="e_wo_entrp">    -22.99925067 </i>
    <i name="e_0_energy">    -22.99925067 </i>
   </energy>
  </scstep>
  <scstep>
   <time name="dav">    2.26    2.39</time>
   <time name="total">    8.20    8.84</time>
   <energy>
    <i name="e_fr_energy">    -22.99925080 </i>
    <i name="e_wo_entrp">    -22.99925080 </i>
    <i name="e_0_energy">    -22.99925080 </i>
   </energy>
  </scstep>
  <scstep>
   <time name="dav">    2.18    2.19</time>
   <time name="total">    8.45    8.85</time>
   <energy>
    <i name="e_fr_energy">    -22.99925085 </i>
    <i name="e_wo_entrp">    -22.99925085 </i>
    <i name="e_0_energy">    -22.99925085 </i>
   </energy>
  </scstep>
  <scstep>
   <time name="dav">    2.27    2.57</time>
   <time name="total">    7.26    8.06</time>
   <energy>
    <i name="alphaZ">      1.06689490 </i>
    <i name="ewald">    293.20414784 </i>
    <i name="hartreedc">  -1142.21414240 </i>
    <i name="XCdc">     70.28369210 </i>
    <i name="pawpsdc">    708.68675909 </i>
    <i name="pawaedc">   -713.59675515 </i>
    <i name="eentropy">      0.00000000 </i>
    <i name="bandstr">   -251.50169218 </i>
    <i name="atom">   1011.07184495 </i>
    <i name="e_fr_energy">    -22.99925085 </i>
    <i name="e_wo_entrp">    -22.99925085 </i>
    <i name="e_0_energy">    -22.99925085 </i>
   </energy>
  </scstep>
  <structure>
   <crystal>
    <varray name="basis" >
     <v>      10.00000000       0.00000000       0.00000000 </v>
     <v>       0.00000000      10.00000000       0.00000000 </v>
     <v>       0.00000000       0.00000000      10.00000000 </v>
    </varray>
    <i name="volume">   1000.00000000 </i>
    <varray name="rec_basis" >
     <v>       0.10000000       0.00000000       0.00000000 </v>
     <v>       0.00000000       0.10000000       0.00000000 </v>
     <v>       0.00000000       0.00000000       0.10000000 </v>
    </varray>
   </crystal>
   <varray name="positions" >
    <v>       0.50000000       0.50150000       0.50000000 </v>
    <v>       0.38232762       0.50000000       0.50000000 </v>
    <v>       0.61767238       0.50000000       0.50000000 </v>
   </varray>
  </structure>
  <varray name="forces" >
   <v>       0.00000000      -0.19289254       0.00000000 </v>
   <v>      -0.00795160       0.09644627       0.00000000 </v>
   <v>       0.00795160       0.09644627       0.00000000 </v>
  </varray>
  <varray name="stress" >
   <v>      -6.49505637       0.00000000       0.00000000 </v>
   <v>       0.00000000      -7.37387878       0.00000000 </v>
   <v>       0.00000000       0.00000000      -7.36977860 </v>
  </varray>
  <energy>
   <i name="e_fr_energy">    -22.99925085 </i>
   <i name="e_wo_entrp">    -22.99925085 </i>
   <i name="e_0_energy">      0.00000000 </i>
  </energy>
  <kpoints>
   <generation param="Monkhorst-Pack">
    <v type="int" name="divisions">       1        1        1 </v>
    <v name="usershift">      0.00000000       0.00000000       0.00000000 </v>
    <v name="genvec1">      1.00000000       0.00000000       0.00000000 </v>
    <v name="genvec2">      0.00000000       1.00000000       0.00000000 </v>
    <v name="genvec3">      0.00000000       0.00000000       1.00000000 </v>
    <v name="shift">      0.00000000       0.00000000       0.00000000 </v>
   </generation>
   <varray name="kpointlist" >
    <v>       0.00000000       0.00000000       0.00000000 </v>
   </varray>
   <varray name="weights" >
    <v>       1.00000000 </v>
   </varray>
  </kpoints>
  <time name="totalsc">  136.57  152.50</time>
 </calculation>
 <calculation>
  <scstep>
   <time name="dav">    2.86    3.09</time>
   <time name="total">    8.27    9.55</time>
   <energy>
    <i name="alphaZ">      1.06689490 </i>
    <i name="ewald">    293.20414784 </i>
    <i name="hartreedc">  -1142.21636847 </i>
    <i name="XCdc">     70.28422277 </i>
    <i name="pawpsdc">    708.68679731 </i>
    <i name="pawaedc">   -713.59679356 </i>
    <i name="eentropy">      0.00000000 </i>
    <i name="bandstr">   -251.49882302 </i>
    <i name="atom">   1011.07184495 </i>
    <i name="e_fr_energy">    -22.99807727 </i>
    <i name="e_wo_entrp">    -22.99807727 </i>
    <i name="e_0_energy">    -22.99807727 </i>
   </energy>
  </scstep>
  <scstep>
   <time name="dav">    3.11    3.88</time>
   <time name="total">    8.02   10.13</time>
   <energy>
    <i name="e_fr_energy">    -22.99878216 </i>
    <i name="e_wo_entrp">    -22.99878216 </i>
    <i name="e_0_energy">    -22.99878216 </i>
   </energy>
  </scstep>
  <scstep>
   <time name="dav">    2.96    3.38</time>
   <time name="total">    8.27    9.45</time>
   <energy>
    <i name="e_fr_energy">    -22.99905512 </i>
    <i name="e_wo_entrp">    -22.99905512 </i>
    <i name="e_0_energy">    -22.99905512 </i>
   </energy>
  </scstep>
  <scstep>
   <time name="dav">    3.08    3.25</time>
   <time name="total">    8.25    9.45</time>
   <energy>
    <i name="e_fr_energy">    -22.99908086 </i>
    <i name="e_wo_entrp">    -22.99908086 </i>
    <i name="e_0_energy">    -22.99908086 </i>
   </energy>
  </scstep>
  <scstep>
   <time name="dav">    3.21    3.56</time>
   <time name="total">    8.57    9.57</time>
   <energy>
    <i name="e_fr_energy">    -22.99912118 </i>
    <i name="e_wo_entrp">    -22.99912118 </i>
    <i name="e_0_energy">    -22.99912118 </i>
   </energy>
  </scstep>
  <scstep>
   <time name="dav">    3.27    3.64</time>
   <time name="total">    8.49    9.59</time>
   <energy>
    <i name="e_fr_energy">    -22.99914872 </i>
    <i name="e_wo_entrp">    -22.99914872 </i>
    <i name="e_0_energy">    -22.99914872 </i>
   </energy>
  </scstep>
  <scstep>
   <time name="dav">    3.44    3.51</time>
   <time name="total">    8.75    9.69</time>
   <energy>
    <i name="e_fr_energy">    -22.99920610 </i>
    <i name="e_wo_entrp">    -22.99920610 </i>
    <i name="e_0_energy">    -22.99920610 </i>
   </energy>
  </scstep>
  <scstep>
   <time name="dav">    3.96    4.38</time>
   <time name="total">    9.38   11.00</time>
   <energy>
    <i name="e_fr_energy">    -22.99921771 </i>
    <i name="e_wo_entrp">    -22.99921771 </i>
    <i name="e_0_energy">    -22.99921771 </i>
   </energy>
  </scstep>
  <scstep>
   <time name="dav">    2.87    3.36</time>
   <time name="total">    7.68    8.88</time>
   <energy>
    <i name="e_fr_energy">    -22.99923708 </i>
    <i name="e_wo_entrp">    -22.99923708 </i>
    <i name="e_0_energy">    -22.99923708 </i>
   </energy>
  </scstep>
  <scstep>
   <time name="dav">    2.76    3.00</time>
   <time name="total">    7.66    8.73</time>
   <energy>
    <i name="e_fr_energy">    -22.99924627 </i>
    <i name="e_wo_entrp">    -22.99924627 </i>
    <i name="e_0_energy">    -22.99924627 </i>
   </energy>
  </scstep>
  <scstep>
   <time name="dav">    2.88    3.02</time>
   <time name="total">    7.89    9.11</time>
   <energy>
    <i name="e_fr_energy">    -22.99924824 </i>
    <i name="e_wo_entrp">    -22.99924824 </i>
    <i name="e_0_energy">    -22.99924824 </i>
   </energy>
  </scstep>
  <scstep>
   <time name="dav">    2.97    3.58</time>
   <time name="total">    8.37   10.37</time>
   <energy>
    <i name="e_fr_energy">    -22.99925058 </i>
    <i name="e_wo_entrp">    -22.99925058 </i>
    <i name="e_0_energy">    -22.99925058 </i>
   </energy>
  </scstep>
  <scstep>
   <time name="dav">    2.65    2.65</time>
   <time name="total">    8.01    8.85</time>
   <energy>
    <i name="e_fr_energy">    -22.99925071 </i>
    <i name="e_wo_entrp">    -22.99925071 </i>
    <i name="e_0_energy">    -22.99925071 </i>
   </energy>
  </scstep>
  <scstep>
   <time name="dav">    1.96    2.52</time>
   <time name="total">    7.65    8.87</time>
   <energy>
    <i name="e_fr_energy">    -22.99925083 </i>
    <i name="e_wo_entrp">    -22.99925083 </i>
    <i name="e_0_energy">    -22.99925083 </i>
   </energy>
  </scstep>
  <scstep>
   <time name="dav">    2.25    2.44</time>
   <time name="total">    7.21    7.66</time>
   <energy>
    <i name="e_fr_energy">    -22.99925085 </i>
    <i name="e_wo_entrp">    -22.99925085 </i>
    <i name="e_0_energy">    -22.99925085 </i>
   </energy>
  </scstep>
  <scstep>
   <time name="dav">    1.71    2.10</time>
   <time name="total">    5.93    6.83</time>
   <energy>
    <i name="alphaZ">      1.06689490 </i>
    <i name="ewald">    293.20414784 </i>
    <i name="hartreedc">  -1142.21413671 </i>
    <i name="XCdc">     70.28369238 </i>
    <i name="pawpsdc">    708.68677383 </i>
    <i name="pawaedc">   -713.59676986 </i>
    <i name="eentropy">      0.00000000 </i>
    <i name="bandstr">   -251.50169819 </i>
    <i name="atom">   1011.07184495 </i>
    <i name="e_fr_energy">    -22.99925085 </i>
    <i name="e_wo_entrp">    -22.99925085 </i>
    <i name="e_0_energy">    -22.99925085 </i>
   </energy>
  </scstep>
  <structure>
   <crystal>
    <varray name="basis" >
     <v>      10.00000000       0.00000000       0.00000000 </v>
     <v>       0.00000000      10.00000000       0.00000000 </v>
     <v>       0.00000000       0.00000000      10.00000000 </v>
    </varray>
    <i name="volume">   1000.00000000 </i>
    <varray name="rec_basis" >
     <v>       0.10000000       0.00000000       0.00000000 </v>
     <v>       0.00000000       0.10000000       0.00000000 </v>
     <v>       0.00000000       0.00000000       0.10000000 </v>
    </varray>
   </crystal>
   <varray name="positions" >
    <v>       0.50000000       0.49850000       0.50000000 </v>
    <v>       0.38232762       0.50000000       0.50000000 </v>
    <v>       0.61767238       0.50000000       0.50000000 </v>
   </varray>
  </structure>
  <varray name="forces" >
   <v>       0.00000000       0.19289301       0.00000000 </v>
   <v>      -0.00795179      -0.09644650       0.00000000 </v>
   <v>       0.00795179      -0.09644650       0.00000000 </v>
  </varray>
  <varray name="stress" >
   <v>      -6.49506310       0.00000000       0.00000000 </v>
   <v>       0.00000000      -7.37388759       0.00000000 </v>
   <v>       0.00000000       0.00000000      -7.36978686 </v>
  </varray>
  <energy>
   <i name="e_fr_energy">    -22.99925085 </i>
   <i name="e_wo_entrp">    -22.99925085 </i>
   <i name="e_0_energy">      0.00000000 </i>
  </energy>
  <kpoints>
   <generation param="Monkhorst-Pack">
    <v type="int" name="divisions">       1        1        1 </v>
    <v name="usershift">      0.00000000       0.00000000       0.00000000 </v>
    <v name="genvec1">      1.00000000       0.00000000       0.00000000 </v>
    <v name="genvec2">      0.00000000       1.00000000       0.00000000 </v>
    <v name="genvec3">      0.00000000       0.00000000       1.00000000 </v>
    <v name="shift">      0.00000000       0.00000000       0.00000000 </v>
   </generation>
   <varray name="kpointlist" >
    <v>       0.00000000       0.00000000       0.00000000 </v>
   </varray>
   <varray name="weights" >
    <v>       1.00000000 </v>
   </varray>
  </kpoints>
  <time name="totalsc">  136.96  158.03</time>
 </calculation>
 <calculation>
  <scstep>
   <time name="dav">    2.45    3.07</time>
   <time name="total">    7.51    9.40</time>
   <energy>
    <i name="alphaZ">      1.06689490 </i>
    <i name="ewald">    298.34100395 </i>
    <i name="hartreedc">  -1145.74160541 </i>
    <i name="XCdc">     70.34956016 </i>
    <i name="pawpsdc">    708.68677416 </i>
    <i name="pawaedc">   -713.59677027 </i>
    <i name="eentropy">      0.00000000 </i>
    <i name="bandstr">   -253.16615381 </i>
    <i name="atom">   1011.07184495 </i>
    <i name="e_fr_energy">    -22.98845138 </i>
    <i name="e_wo_entrp">    -22.98845138 </i>
    <i name="e_0_energy">    -22.98845138 </i>
   </energy>
  </scstep>
  <scstep>
   <time name="dav">    2.89    3.04</time>
   <time name="total">    8.25    9.51</time>
   <energy>
    <i name="e_fr_energy">    -22.98955039 </i>
    <i name="e_wo_entrp">    -22.98955039 </i>
    <i name="e_0_energy">    -22.98955039 </i>
   </energy>
  </scstep>
  <scstep>
   <time name="dav">    2.82    3.51</time>
   <time name="total">    8.22    9.85</time>
   <energy>
    <i name="e_fr_energy">    -22.98915014 </i>
    <i name="e_wo_entrp">    -22.98915014 </i>
    <i name="e_0_energy">    -22.98915014 </i>
   </energy>
  </scstep>
  <scstep>
   <time name="dav">    2.57    2.87</time>
   <time name="total">    7.67    8.76</time>
   <energy>
    <i name="e_fr_energy">    -22.98914439 </i>
    <i name="e_wo_entrp">    -22.98914439 </i>
    <i name="e_0_energy">    -22.98914439 </i>
   </energy>
  </scstep>
  <scstep>
   <time name="dav">    2.58    2.69</time>
   <time name="total">    7.30    7.66</time>
   <energy>
    <i name="e_fr_energy">    -22.98916674 </i>
    <i name="e_wo_entrp">    -22.98916674 </i>
    <i name="e_0_energy">    -22.98916674 </i>
   </energy>
  </scstep>
  <scstep>
   <time name="dav">    3.03    3.52</time>
   <time name="total">    8.41   10.13</time>
   <energy>
    <i name="e_fr_energy">    -22.98920552 </i>
    <i name="e_wo_entrp">    -22.98920552 </i>
    <i name="e_0_energy">    -22.98920552 </i>
   </energy>
  </scstep>
  <scstep>
   <time name="dav">    2.91    3.32</time>
   <time name="total">    8.36    9.58</time>
   <energy>
    <i name="e_fr_energy">    -22.98922408 </i>
    <i name="e_wo_entrp">    -22.98922408 </i>
    <i name="e_0_energy">    -22.98922408 </i>
   </energy>
  </scstep>
  <scstep>
   <time name="dav">    2.79    3.12</time>
   <time name="total">    7.77    8.93</time>
   <energy>
    <i name="e_fr_energy">    -22.98929297 </i>
    <i name="e_wo_entrp">    -22.98929297 </i>
    <i name="e_0_energy">    -22.98929297 </i>
   </energy>
  </scstep>
  <scstep>
   <time name="dav">    3.37    3.80</time>
   <time name="total">    8.37    8.86</time>
   <energy>
    <i name="e_fr_energy">    -22.98932751 </i>
    <i name="e_wo_entrp">    -22.98932751 </i>
    <i name="e_0_energy">    -22.98932751 </i>
   </energy>
  </scstep>
  <scstep>
   <time name="dav">    3.00    3.21</time>
   <time name="total">    7.90    8.42</time>
   <energy>
    <i name="e_fr_energy">    -22.98935234 </i>
    <i name="e_wo_entrp">    -22.98935234 </i>
    <i name="e_0_energy">    -22.98935234 </i>
   </energy>
  </scstep>
  <scstep>
   <time name="dav">    4.03    4.15</time>
   <time name="total">    9.18    9.95</time>
   <energy>
    <i name="e_fr_energy">    -22.98935853 </i>
    <i name="e_wo_entrp">    -22.98935853 </i>
    <i name="e_0_energy">    -22.98935853 </i>
   </energy>
  </scstep>
  <scstep>
   <time name="dav">    2.93    3.68</time>
   <time name="total">    8.10    9.48</time>
   <energy>
    <i name="e_fr_energy">    -22.98936573 </i>
    <i name="e_wo_entrp">    -22.98936573 </i>
    <i name="e_0_energy">    -22.98936573 </i>
   </energy>
  </scstep>
  <scstep>
   <time name="dav">    2.64    2.88</time>
   <time name="total">    8.38    9.37</time>
   <energy>
    <i name="e_fr_energy">    -22.98936816 </i>
    <i name="e_wo_entrp">    -22.98936816 </i>
    <i name="e_0_energy">    -22.98936816 </i>
   </energy>
  </scstep>
  <scstep>
   <time name="dav">    2.45    2.79</time>
   <time name="total">    7.39    8.66</time>
   <energy>
    <i name="e_fr_energy">    -22.98936902 </i>
    <i name="e_wo_entrp">    -22.98936902 </i>
    <i name="e_0_energy">    -22.98936902 </i>
   </energy>
  </scstep>
  <scstep>
   <time name="dav">    2.07    2.34</time>
   <time name="total">    8.16    9.21</time>
   <energy>
    <i name="e_fr_energy">    -22.98936921 </i>
    <i name="e_wo_entrp">    -22.98936921 </i>
    <i name="e_0_energy">    -22.98936921 </i>
   </energy>
  </scstep>
  <scstep>
   <time name="dav">    2.23    2.26</time>
   <time name="total">    8.16    8.80</time>
   <energy>
    <i name="e_fr_energy">    -22.98936926 </i>
    <i name="e_wo_entrp">    -22.98936926 </i>
    <i name="e_0_energy">    -22.98936926 </i>
   </energy>
  </scstep>
  <scstep>
   <time name="dav">    2.54    2.84</time>
   <time name="total">    7.16    8.15</time>
   <energy>
    <i name="alphaZ">      1.06689490 </i>
    <i name="ewald">    298.34100395 </i>
    <i name="hartreedc">  -1146.86539813 </i>
    <i name="XCdc">     70.40480719 </i>
    <i name="pawpsdc">    713.74001242 </i>
    <i name="pawaedc">   -718.67453643 </i>
    <i name="eentropy">      0.00000000 </i>
    <i name="bandstr">   -252.07399810 </i>
    <i name="atom">   1011.07184495 </i>
    <i name="e_fr_energy">    -22.98936926 </i>
    <i name="e_wo_entrp">    -22.98936926 </i>
    <i name="e_0_energy">    -22.98936926 </i>
   </energy>
  </scstep>
  <structure>
   <crystal>
    <varray name="basis" >
     <v>      10.00000000       0.00000000       0.00000000 </v>
     <v>       0.00000000      10.00000000       0.00000000 </v>
     <v>       0.00000000       0.00000000      10.00000000 </v>
    </varray>
    <i name="volume">   1000.00000000 </i>
    <varray name="rec_basis" >
     <v>       0.10000000       0.00000000       0.00000000 </v>
     <v>       0.00000000       0.10000000       0.00000000 </v>
     <v>       0.00000000       0.00000000       0.10000000 </v>
    </varray>
   </crystal>
   <varray name="positions" >
    <v>       0.50000000       0.50000000       0.50000000 </v>
    <v>       0.38382762       0.50000000       0.50000000 </v>
    <v>       0.61767238       0.50000000       0.50000000 </v>
   </varray>
  </structure>
  <varray name="forces" >
   <v>       1.41038450       0.00000000       0.00000000 </v>
   <v>      -1.52247378       0.00000000       0.00000000 </v>
   <v>       0.11208928       0.00000000       0.00000000 </v>
  </varray>
  <varray name="stress" >
   <v>      -3.50906555       0.00000000       0.00000000 </v>
   <v>       0.00000000      -7.36225727       0.00000000 </v>
   <v>       0.00000000       0.00000000      -7.36225727 </v>
  </varray>
  <energy>
   <i name="e_fr_energy">    -22.98936926 </i>
   <i name="e_wo_entrp">    -22.98936926 </i>
   <i name="e_0_energy">      0.00000000 </i>
  </energy>
  <kpoints>
   <generation param="Monkhorst-Pack">
    <v type="int" name="divisions">       1        1        1 </v>
    <v name="usershift">      0.00000000       0.00000000       0.00000000 </v>
    <v name="genvec1">      1.00000000       0.00000000       0.00000000 </v>
    <v name="genvec2">      0.00000000       1.00000000       0.00000000 </v>
    <v name="genvec3">      0.00000000       0.00000000       1.00000000 </v>
    <v name="shift">      0.00000000       0.00000000       0.00000000 </v>
   </generation>
   <varray name="kpointlist" >
    <v>       0.00000000       0.00000000       0.00000000 </v>
   </varray>
   <varray name="weights" >
    <v>       1.00000000 </v>
   </varray>
  </kpoints>
  <time name="totalsc">  145.54  165.25</time>
 </calculation>
 <calculation>
  <scstep>
   <time name="dav">    2.48    3.21</time>
   <time name="total">    7.79    9.03</time>
   <energy>
    <i name="alphaZ">      1.06689490 </i>
    <i name="ewald">    288.27657839 </i>
    <i name="hartreedc">  -1139.88061784 </i>
    <i name="XCdc">     70.27539373 </i>
    <i name="pawpsdc">    713.74000249 </i>
    <i name="pawaedc">   -718.67452532 </i>
    <i name="eentropy">      0.00000000 </i>
    <i name="bandstr">   -248.86736646 </i>
    <i name="atom">   1011.07184495 </i>
    <i name="e_fr_energy">    -22.99179515 </i>
    <i name="e_wo_entrp">    -22.99179515 </i>
    <i name="e_0_energy">    -22.99179515 </i>
   </energy>
  </scstep>
  <scstep>
   <time name="dav">    2.78    3.45</time>
   <time name="total">    7.63    9.26</time>
   <energy>
    <i name="e_fr_energy">    -22.99180746 </i>
    <i name="e_wo_entrp">    -22.99180746 </i>
    <i name="e_0_energy">    -22.99180746 </i>
   </energy>
  </scstep>
  <scstep>
   <time name="dav">    3.54    3.72</time>
   <time name="total">    8.84    9.50</time>
   <energy>
    <i name="e_fr_energy">    -22.99011733 </i>
    <i name="e_wo_entrp">    -22.99011733 </i>
    <i name="e_0_energy">    -22.99011733 </i>
   </energy>
  </scstep>
  <scstep>
   <time name="dav">    3.54    4.11</time>
   <time name="total">    8.69   10.19</time>
   <energy>
    <i name="e_fr_energy">    -22.99005751 </i>
    <i name="e_wo_entrp">    -22.99005751 </i>
    <i name="e_0_energy">    -22.99005751 </i>
   </energy>
  </scstep>
  <scstep>
   <time name="dav">    2.67    2.68</time>
   <time name="total">    7.87    9.08</time>
   <energy>
    <i name="e_fr_energy">    -22.99014257 </i>
    <i name="e_wo_entrp">    -22.99014257 </i>
    <i name="e_0_energy">    -22.99014257 </i>
   </energy>
  </scstep>
  <scstep>
   <time name="dav">    3.00    3.23</time>
   <time name="total">    8.22    9.58</time>
   <energy>
    <i name="e_fr_energy">    -22.99023110 </i>
    <i name="e_wo_entrp">    -22.99023110 </i>
    <i name="e_0_energy">    -22.99023110 </i>
   </energy>
  </scstep>
  <scstep>
   <time name="dav">    3.11    3.67</time>
   <time name="total">    8.40   10.41</time>
   <energy>
    <i name="e_fr_energy">    -22.99027593 </i>
    <i name="e_wo_entrp">    -22.99027593 </i>
    <i name="e_0_energy">    -22.99027593 </i>
   </energy>
  </scstep>
  <scstep>
   <time name="dav">    2.58    3.14</time>
   <time name="total">    7.53    9.02</time>
   <energy>
    <i name="e_fr_energy">    -22.99041631 </i>
    <i name="e_wo_entrp">    -22.99041631 </i>
    <i name="e_0_energy">    -22.99041631 </i>
   </energy>
  </scstep>
  <scstep>
   <time name="dav">    3.24    3.37</time>
   <time name="total">    8.28    8.61</time>
   <energy>
    <i name="e_fr_energy">    -22.99045819 </i>
    <i name="e_wo_entrp">    -22.99045819 </i>
    <i name="e_0_energy">    -22.99045819 </i>
   </energy>
  </scstep>
  <scstep>
   <time name="dav">    2.78    3.16</time>
   <time name="total">    7.10    8.48</time>
   <energy>
    <i name="e_fr_energy">    -22.99051019 </i>
    <i name="e_wo_entrp">    -22.99051019 </i>
    <i name="e_0_energy">    -22.99051019 </i>
   </energy>
  </scstep>
  <scstep>
   <time name="dav">    3.45    3.91</time>
   <time name="total">    7.77    9.67</time>
   <energy>
    <i name="e_fr_energy">    -22.99051762 </i>
    <i name="e_wo_entrp">    -22.99051762 </i>
    <i name="e_0_energy">    -22.99051762 </i>
   </energy>
  </scstep>
  <scstep>
   <time name="dav">    2.86    3.04</time>
   <time name="total">    7.52    9.27</time>
   <energy>
    <i name="e_fr_energy">    -22.99053264 </i>
    <i name="e_wo_entrp">    -22.99053264 </i>
    <i name="e_0_energy">    -22.99053264 </i>
   </energy>
  </scstep>
  <scstep>
   <time name="dav">    3.06    3.57</time>
   <time name="total">    7.84    8.94</time>
   <energy>
    <i name="e_fr_energy">    -22.99053647 </i>
    <i name="e_wo_entrp">    -22.99053647 </i>
    <i name="e_0_energy">    -22.99053647 </i>
   </energy>
  </scstep>
  <scstep>
   <time name="dav">    2.26    2.63</time>
   <time name="total">    7.96    9.21</time>
   <energy>
    <i name="e_fr_energy">    -22.99053888 </i>
    <i name="e_wo_entrp">    -22.99053888 </i>
    <i name="e_0_energy">    -22.99053888 </i>
   </energy>
  </scstep>
  <scstep>
   <time name="dav">    2.42    2.58</time>
   <time name="total">    8.03    8.51</time>
   <energy>
    <i name="e_fr_energy">    -22.99053929 </i>
    <i name="e_wo_entrp">    -22.99053929 </i>
    <i name="e_0_energy">    -22.99053929 </i>
   </energy>
  </scstep>
  <scstep>
   <time name="dav">    2.11    2.12</time>
   <time name="total">    7.76    7.98</time>
   <energy>
    <i name="e_fr_energy">    -22.99053950 </i>
    <i name="e_wo_entrp">    -22.99053950 </i>
    <i name="e_0_energy">    -22.99053950 </i>
   </energy>
  </scstep>
  <scstep>
   <time name="dav">    2.18    2.44</time>
   <time name="total">    7.81    8.21</time>
   <energy>
    <i name="e_fr_energy">    -22.99053951 </i>
    <i name="e_wo_entrp">    -22.99053951 </i>
    <i name="e_0_energy">    -22.99053951 </i>
   </energy>
  </scstep>
  <scstep>
   <time name="dav">    1.97    2.06</time>
   <time name="total">    6.50    6.93</time>
   <energy>
    <i name="alphaZ">      1.06689490 </i>
    <i name="ewald">    288.27657839 </i>
    <i name="hartreedc">  -1137.71888623 </i>
    <i name="XCdc">     70.16872863 </i>
    <i name="pawpsdc">    703.98976063 </i>
    <i name="pawaedc">   -708.87724372 </i>
    <i name="eentropy">      0.00000000 </i>
    <i name="bandstr">   -250.96821707 </i>
    <i name="atom">   1011.07184495 </i>
    <i name="e_fr_energy">    -22.99053952 </i>
    <i name="e_wo_entrp">    -22.99053952 </i>
    <i name="e_0_energy">    -22.99053952 </i>
   </energy>
  </scstep>
  <structure>
   <crystal>
    <varray name="basis" >
     <v>      10.00000000       0.00000000       0.00000000 </v>
     <v>       0.00000000      10.00000000       0.00000000 </v>
     <v>       0.00000000       0.00000000      10.00000000 </v>
    </varray>
    <i name="volume">   1000.00000000 </i>
    <varray name="rec_basis" >
     <v>       0.10000000       0.00000000       0.00000000 </v>
     <v>       0.00000000       0.10000000       0.00000000 </v>
     <v>       0.00000000       0.00000000       0.10000000 </v>
    </varray>
   </crystal>
   <varray name="positions" >
    <v>       0.50000000       0.50000000       0.50000000 </v>
    <v>       0.38082762       0.50000000       0.50000000 </v>
    <v>       0.61767238       0.50000000       0.50000000 </v>
   </varray>
  </structure>
  <varray name="forces" >
   <v>      -1.26145153       0.00000000       0.00000000 </v>
   <v>       1.34235271       0.00000000       0.00000000 </v>
   <v>      -0.08090118       0.00000000       0.00000000 </v>
  </varray>
  <varray name="stress" >
   <v>      -9.20481752       0.00000000       0.00000000 </v>
   <v>       0.00000000      -7.37692485       0.00000000 </v>
   <v>       0.00000000       0.00000000      -7.37692485 </v>
  </varray>
  <energy>
   <i name="e_fr_energy">    -22.99053952 </i>
   <i name="e_wo_entrp">    -22.99053952 </i>
   <i name="e_0_energy">      0.00000000 </i>
  </energy>
  <kpoints>
   <generation param="Monkhorst-Pack">
    <v type="int" name="divisions">       1        1        1 </v>
    <v name="usershift">      0.00000000       0.00000000       0.00000000 </v>
    <v name="genvec1">      1.00000000       0.00000000       0.00000000 </v>
    <v name="genvec2">      0.00000000       1.00000000       0.00000000 </v>
    <v name="genvec3">      0.00000000       0.00000000       1.00000000 </v>
    <v name="shift">      0.00000000       0.00000000       0.00000000 </v>
   </generation>
   <varray name="kpointlist" >
    <v>       0.00000000       0.00000000       0.00000000 </v>
   </varray>
   <varray name="weights" >
    <v>       1.00000000 </v>
   </varray>
  </kpoints>
  <time name="totalsc">  150.57  172.62</time>
 </calculation>
 <calculation>
  <scstep>
   <time name="dav">    2.47    2.47</time>
   <time name="total">    7.63    8.33</time>
   <energy>
    <i name="alphaZ">      1.06689490 </i>
    <i name="ewald">    293.22356130 </i>
    <i name="hartreedc">  -1141.14635077 </i>
    <i name="XCdc">     70.23105287 </i>
    <i name="pawpsdc">    703.98970812 </i>
    <i name="pawaedc">   -708.87719091 </i>
    <i name="eentropy">      0.00000000 </i>
    <i name="bandstr">   -252.55904617 </i>
    <i name="atom">   1011.07184495 </i>
    <i name="e_fr_energy">    -22.99952571 </i>
    <i name="e_wo_entrp">    -22.99952571 </i>
    <i name="e_0_energy">    -22.99952571 </i>
   </energy>
  </scstep>
  <scstep>
   <time name="dav">    3.02    3.69</time>
   <time name="total">    8.62    9.96</time>
   <energy>
    <i name="e_fr_energy">    -23.00051161 </i>
    <i name="e_wo_entrp">    -23.00051161 </i>
    <i name="e_0_energy">    -23.00051161 </i>
   </energy>
  </scstep>
  <scstep>
   <time name="dav">    2.85    3.50</time>
   <time name="total">    8.28    9.74</time>
   <energy>
    <i name="e_fr_energy">    -23.00012035 </i>
    <i name="e_wo_entrp">    -23.00012035 </i>
    <i name="e_0_energy">    -23.00012035 </i>
   </energy>
  </scstep>
  <scstep>
   <time name="dav">    3.15    3.43</time>
   <time name="total">    8.27    9.21</time>
   <energy>
    <i name="e_fr_energy">    -23.00013089 </i>
    <i name="e_wo_entrp">    -23.00013089 </i>
    <i name="e_0_energy">    -23.00013089 </i>
   </energy>
  </scstep>
  <scstep>
   <time name="dav">    3.07    3.45</time>
   <time name="total">    8.29    9.70</time>
   <energy>
    <i name="e_fr_energy">    -23.00014941 </i>
    <i name="e_wo_entrp">    -23.00014941 </i>
    <i name="e_0_energy">    -23.00014941 </i>
   </energy>
  </scstep>
  <scstep>
   <time name="dav">    2.78    2.99</time>
   <time name="total">    7.46    9.13</time>
   <energy>
    <i name="e_fr_energy">    -23.00018075 </i>
    <i name="e_wo_entrp">    -23.00018075 </i>
    <i name="e_0_energy">    -23.00018075 </i>
   </energy>
  </scstep>
  <scstep>
   <time name="dav">    2.65    3.11</time>
   <time name="total">    7.43    9.04</time>
   <energy>
    <i name="e_fr_energy">    -23.00021024 </i>
    <i name="e_wo_entrp">    -23.00021024 </i>
    <i name="e_0_energy">    -23.00021024 </i>
   </energy>
  </scstep>
  <scstep>
   <time name="dav">    2.92    3.24</time>
   <time name="total">    8.51    9.81</time>
   <energy>
    <i name="e_fr_energy">    -23.00024725 </i>
    <i name="e_wo_entrp">    -23.00024725 </i>
    <i name="e_0_energy">    -23.00024725 </i>
   </energy>
  </scstep>
  <scstep>
   <time name="dav">    2.81    3.17</time>
   <time name="total">    8.04    9.13</time>
   <energy>
    <i name="e_fr_energy">    -23.00028218 </i>
    <i name="e_wo_entrp">    -23.00028218 </i>
    <i name="e_0_energy">    -23.00028218 </i>
   </energy>
  </scstep>
  <scstep>
   <time name="dav">    2.97    3.22</time>
   <time name="total">    8.23    9.45</time>
   <energy>
    <i name="e_fr_energy">    -23.00030779 </i>
    <i name="e_wo_entrp">    -23.00030779 </i>
    <i name="e_0_energy">    -23.00030779 </i>
   </energy>
  </scstep>
  <scstep>
   <time name="dav">    2.83    3.17</time>
   <time name="total">    8.00    8.85</time>
   <energy>
    <i name="e_fr_energy">    -23.00031626 </i>
    <i name="e_wo_entrp">    -23.00031626 </i>
    <i name="e_0_energy">    -23.00031626 </i>
   </energy>
  </scstep>
  <scstep>
   <time name="dav">    3.02    3.29</time>
   <time name="total">    8.46    9.50</time>
   <energy>
    <i name="e_fr_energy">    -23.00032294 </i>
    <i name="e_wo_entrp">    -23.00032294 </i>
    <i name="e_0_energy">    -23.00032294 </i>
   </energy>
  </scstep>
  <scstep>
   <time name="dav">    2.48    3.12</time>
   <time name="total">    8.02    9.04</time>
   <energy>
    <i name="e_fr_energy">    -23.00032530 </i>
    <i name="e_wo_entrp">    -23.00032530 </i>
    <i name="e_0_energy">    -23.00032530 </i>
   </energy>
  </scstep>
  <scstep>
   <time name="dav">    1.88    2.34</time>
   <time name="total">    6.91    7.84</time>
   <energy>
    <i name="e_fr_energy">    -23.00032581 </i>
    <i name="e_wo_entrp">    -23.00032581 </i>
    <i name="e_0_energy">    -23.00032581 </i>
   </energy>
  </scstep>
  <scstep>
   <time name="dav">    2.30    2.36</time>
   <time name="total">    7.97    8.47</time>
   <energy>
    <i name="e_fr_energy">    -23.00032592 </i>
    <i name="e_wo_entrp">    -23.00032592 </i>
    <i name="e_0_energy">    -23.00032592 </i>
   </energy>
  </scstep>
  <scstep>
   <time name="dav">    1.94    1.94</time>
   <time name="total">    8.06    8.42</time>
   <energy>
    <i name="e_fr_energy">    -23.00032595 </i>
    <i name="e_wo_entrp">    -23.00032595 </i>
    <i name="e_0_energy">    -23.00032595 </i>
   </energy>
  </scstep>
  <scstep>
   <time name="dav">    2.37    2.37</time>
   <time name="total">    7.27    7.64</time>
   <energy>
    <i name="alphaZ">      1.06689490 </i>
    <i name="ewald">    293.22356130 </i>
    <i name="hartreedc">  -1142.22908822 </i>
    <i name="XCdc">     70.28442022 </i>
    <i name="pawpsdc">    708.71689730 </i>
    <i name="pawaedc">   -713.62699665 </i>
    <i name="eentropy">      0.00000000 </i>
    <i name="bandstr">   -251.50785977 </i>
    <i name="atom">   1011.07184495 </i>
    <i name="e_fr_energy">    -23.00032596 </i>
    <i name="e_wo_entrp">    -23.00032596 </i>
    <i name="e_0_energy">    -23.00032596 </i>
   </energy>
  </scstep>
  <structure>
   <crystal>
    <varray name="basis" >
     <v>      10.00000000       0.00000000       0.00000000 </v>
     <v>       0.00000000      10.00000000       0.00000000 </v>
     <v>       0.00000000       0.00000000      10.00000000 </v>
    </varray>
    <i name="volume">   1000.00000000 </i>
    <varray name="rec_basis" >
     <v>       0.10000000       0.00000000       0.00000000 </v>
     <v>       0.00000000       0.10000000       0.00000000 </v>
     <v>       0.00000000       0.00000000       0.10000000 </v>
    </varray>
   </crystal>
   <varray name="positions" >
    <v>       0.50000000       0.50000000       0.50000000 </v>
    <v>       0.38232762       0.50150000       0.50000000 </v>
    <v>       0.61767238       0.50000000       0.50000000 </v>
   </varray>
  </structure>
  <varray name="forces" >
   <v>      -0.00788458       0.09677698       0.00000000 </v>
   <v>      -0.00625974      -0.04906047       0.00000000 </v>
   <v>       0.01414432      -0.04771650       0.00000000 </v>
  </varray>
  <varray name="stress" >
   <v>      -6.48599126      -0.00728795       0.00000000 </v>
   <v>      -0.00729127      -7.37050550       0.00000000 </v>
   <v>       0.00000000       0.00000000      -7.36959089 </v>
  </varray>
  <energy>
   <i name="e_fr_energy">    -23.00032596 </i>
   <i name="e_wo_entrp">    -23.00032596 </i>
   <i name="e_0_energy">      0.00000000 </i>
  </energy>
  <kpoints>
   <generation param="Monkhorst-Pack">
    <v type="int" name="divisions">       1        1        1 </v>
    <v name="usershift">      0.00000000       0.00000000       0.00000000 </v>
    <v name="genvec1">      1.00000000       0.00000000       0.00000000 </v>
    <v name="genvec2">      0.00000000       1.00000000       0.00000000 </v>
    <v name="genvec3">      0.00000000       0.00000000       1.00000000 </v>
    <v name="shift">      0.00000000       0.00000000       0.00000000 </v>
   </generation>
   <varray name="kpointlist" >
    <v>       0.00000000       0.00000000       0.00000000 </v>
   </varray>
   <varray name="weights" >
    <v>       1.00000000 </v>
   </varray>
  </kpoints>
  <time name="totalsc">  144.81  163.54</time>
 </calculation>
 <calculation>
  <scstep>
   <time name="dav">    2.65    2.87</time>
   <time name="total">    8.03    8.87</time>
   <energy>
    <i name="alphaZ">      1.06689490 </i>
    <i name="ewald">    293.22356130 </i>
    <i name="hartreedc">  -1142.21164342 </i>
    <i name="XCdc">     70.28350153 </i>
    <i name="pawpsdc">    708.71692460 </i>
    <i name="pawaedc">   -713.62702400 </i>
    <i name="eentropy">      0.00000000 </i>
    <i name="bandstr">   -251.52188443 </i>
    <i name="atom">   1011.07184495 </i>
    <i name="e_fr_energy">    -22.99782456 </i>
    <i name="e_wo_entrp">    -22.99782456 </i>
    <i name="e_0_energy">    -22.99782456 </i>
   </energy>
  </scstep>
  <scstep>
   <time name="dav">    3.32    3.65</time>
   <time name="total">    8.55   10.13</time>
   <energy>
    <i name="e_fr_energy">    -23.00034342 </i>
    <i name="e_wo_entrp">    -23.00034342 </i>
    <i name="e_0_energy">    -23.00034342 </i>
   </energy>
  </scstep>
  <scstep>
   <time name="dav">    2.74    3.28</time>
   <time name="total">    7.94    9.30</time>
   <energy>
    <i name="e_fr_energy">    -23.00019262 </i>
    <i name="e_wo_entrp">    -23.00019262 </i>
    <i name="e_0_energy">    -23.00019262 </i>
   </energy>
  </scstep>
  <scstep>
   <time name="dav">    3.13    3.52</time>
   <time name="total">    7.75    8.98</time>
   <energy>
    <i name="e_fr_energy">    -23.00024031 </i>
    <i name="e_wo_entrp">    -23.00024031 </i>
    <i name="e_0_energy">    -23.00024031 </i>
   </energy>
  </scstep>
  <scstep>
[...]
    <v>       0.00000000       0.00000000       0.46460979       0.00000000       0.00000000      -0.20441624       0.00000000       0.00000000      -0.19882033 </v>
    <v>       6.42243660       0.00000000       0.00000000       0.40206347       0.00000000       0.00000000      -5.96838853       0.00000000       0.00000000 </v>
    <v>       0.00000000       0.46460979       0.00000000       0.00000000      -0.19882033       0.00000000       0.00000000      -0.20441624       0.00000000 </v>
    <v>       0.00000000       0.00000000       0.46460979       0.00000000       0.00000000      -0.19882033       0.00000000       0.00000000      -0.20441624 </v>
   </varray>
   <v name="eigenvalues"> -2.03867635E+01 -6.37045200E+00 -1.47388250E+00 -1.47388250E+00 -5.59590265E-03 -5.59590265E-03  4.15520916E-07  8.56414865E-07  8.56414869E-07</v>
   <varray name="eigenvectors" >
    <v>  -8.52621695E-01  1.77432623E-17 -3.46677472E-17  3.69483589E-01  5.15242620E-17 -1.58579889E-16  3.69483589E-01  5.84639277E-17  7.31033183E-17</v>
    <v>   2.66334264E-16  5.13541884E-18  1.26700685E-16  7.07106781E-01  1.32948026E-16  1.55081160E-16 -7.07106781E-01 -7.43547780E-17  1.40129710E-17</v>
    <v>  -7.67137387E-17 -8.49847905E-01 -6.45764198E-02  1.72128604E-17  3.68793868E-01  2.80231175E-02  1.74279420E-17  3.68793868E-01  2.80231175E-02</v>
    <v>  -5.24872784E-18 -6.45764198E-02  8.49847905E-01  1.85669069E-18  2.80231175E-02 -3.68793868E-01  1.47296015E-18  2.80231175E-02 -3.68793868E-01</v>
    <v>   7.97916273E-14  6.61657299E-14 -1.15884970E-14  9.20879395E-14 -7.07106746E-01  2.24314533E-04  9.17171318E-14  7.07106746E-01 -2.24314533E-04</v>
    <v>  -1.41561806E-14 -2.08234771E-16  6.29382382E-18 -1.62151987E-14  2.24314533E-04  7.07106746E-01 -1.61828335E-14 -2.24314533E-04 -7.07106746E-01</v>
    <v>  -5.22528703E-01  1.70256242E-10  2.08390082E-10 -6.02894582E-01  1.96061240E-10  2.40087885E-10 -6.02894582E-01  1.96276844E-10  2.40125757E-10</v>
    <v>  -2.03564838E-10  1.39634911E-02 -5.22870391E-01 -2.34873433E-10  1.60887215E-02 -6.02450779E-01 -2.34873724E-10  1.60887215E-02 -6.02450779E-01</v>
    <v>   1.75581285E-10  5.22870391E-01  1.39634911E-02  2.02585873E-10  6.02450779E-01  1.60887215E-02  2.02585853E-10  6.02450779E-01  1.60887215E-02</v>
   </varray>
  </dynmat>
  <kpoints>
   <generation param="Monkhorst-Pack">
    <v type="int" name="divisions">       1        1        1 </v>
    <v name="usershift">      0.00000000       0.00000000       0.00000000 </v>
    <v name="genvec1">      1.00000000       0.00000000       0.00000000 </v>
    <v name="genvec2">      0.00000000       1.00000000       0.00000000 </v>
    <v name="genvec3">      0.00000000       0.00000000       1.00000000 </v>
    <v name="shift">      0.00000000       0.00000000       0.00000000 </v>
   </generation>
   <varray name="kpointlist" >
    <v>       0.00000000       0.00000000       0.00000000 </v>
   </varray>
   <varray name="weights" >
    <v>       1.00000000 </v>
   </varray>
  </kpoints>
  <time name="totalsc">  145.16  168.10</time>
  <eigenvalues>
   <array>
    <dimension dim="1">band</dimension>
    <dimension dim="2">kpoint</dimension>
    <dimension dim="3">spin</dimension>
    <field>eigene</field>
    <field>occ</field>
    <set>
     <set comment="spin 1">
      <set comment="kpoint 1">
       <r>  -29.0201    1.0000 </r>
       <r>  -28.0086    1.0000 </r>
       <r>  -13.6249    1.0000 </r>
       <r>  -12.4564    1.0000 </r>
       <r>  -12.4564    1.0000 </r>
       <r>  -12.4163    1.0000 </r>
       <r>   -8.8857    1.0000 </r>
       <r>   -8.8856    1.0000 </r>
       <r>   -0.9172    0.0000 </r>
       <r>   -0.3715    0.0000 </r>
       <r>   -0.3697    0.0000 </r>
       <r>    0.5780    0.0000 </r>
      </set>
     </set>
    </set>
   </array>
  </eigenvalues>
  <separator name="orbital magnetization" >
   <v name="MAGDIPOLOUT">      0.00000000      0.00000000      0.00000000</v>
  </separator>
  <dos>
   <i name="efermi">     -8.56409583 </i>
   <total>
    <array>
     <dimension dim="1">gridpoints</dimension>
     <dimension dim="2">spin</dimension>
     <field>energy</field>
     <field>total</field>
     <field>integrated</field>
     <set>
      <set comment="spin 1">
       <r>   -30.5000     0.0000     0.0000 </r>
       <r>   -30.3914     0.0000     0.0000 </r>
       <r>   -30.2829     0.0000     0.0000 </r>
       <r>   -30.1744     0.0000     0.0000 </r>
       <r>   -30.0659     0.0000     0.0000 </r>
       <r>   -29.9573     0.0000     0.0000 </r>
       <r>   -29.8488     0.0000     0.0000 </r>
       <r>   -29.7403     0.0000     0.0000 </r>
       <r>   -29.6317     0.0000     0.0000 </r>
       <r>   -29.5232     0.0000     0.0000 </r>
       <r>   -29.4147     0.0000     0.0000 </r>
       <r>   -29.3062     0.0000     0.0000 </r>
       <r>   -29.1976     0.0000     0.0000 </r>
       <r>   -29.0891     0.4679     0.0508 </r>
       <r>   -28.9806    15.5252     1.7357 </r>
       <r>   -28.8721     2.4354     2.0000 </r>
       <r>   -28.7635     0.0003     2.0000 </r>
       <r>   -28.6550     0.0000     2.0000 </r>
       <r>   -28.5465     0.0000     2.0000 </r>
       <r>   -28.4380     0.0000     2.0000 </r>
       <r>   -28.3294     0.0000     2.0000 </r>
       <r>   -28.2209     0.0000     2.0000 </r>
       <r>   -28.1124     0.0307     2.0033 </r>
       <r>   -28.0039    10.1669     3.1067 </r>
       <r>   -27.8953     8.2186     3.9986 </r>
       <r>   -27.7868     0.0125     4.0000 </r>
       <r>   -27.6783     0.0000     4.0000 </r>
       <r>   -27.5698     0.0000     4.0000 </r>
       <r>   -27.4612     0.0000     4.0000 </r>
       <r>   -27.3527     0.0000     4.0000 </r>
       <r>   -27.2442     0.0000     4.0000 </r>
       <r>   -27.1356     0.0000     4.0000 </r>
       <r>   -27.0271     0.0000     4.0000 </r>
       <r>   -26.9186     0.0000     4.0000 </r>
       <r>   -26.8101     0.0000     4.0000 </r>
       <r>   -26.7015     0.0000     4.0000 </r>
       <r>   -26.5930     0.0000     4.0000 </r>
       <r>   -26.4845     0.0000     4.0000 </r>
       <r>   -26.3760     0.0000     4.0000 </r>
       <r>   -26.2674     0.0000     4.0000 </r>
       <r>   -26.1589     0.0000     4.0000 </r>
       <r>   -26.0504     0.0000     4.0000 </r>
       <r>   -25.9419     0.0000     4.0000 </r>
       <r>   -25.8333     0.0000     4.0000 </r>
       <r>   -25.7248     0.0000     4.0000 </r>
       <r>   -25.6163     0.0000     4.0000 </r>
       <r>   -25.5078     0.0000     4.0000 </r>
       <r>   -25.3992     0.0000     4.0000 </r>
       <r>   -25.2907     0.0000     4.0000 </r>
       <r>   -25.1822     0.0000     4.0000 </r>
       <r>   -25.0736     0.0000     4.0000 </r>
       <r>   -24.9651     0.0000     4.0000 </r>
       <r>   -24.8566     0.0000     4.0000 </r>
       <r>   -24.7481     0.0000     4.0000 </r>
       <r>   -24.6395     0.0000     4.0000 </r>
       <r>   -24.5310     0.0000     4.0000 </r>
       <r>   -24.4225     0.0000     4.0000 </r>
       <r>   -24.3140     0.0000     4.0000 </r>
       <r>   -24.2054     0.0000     4.0000 </r>
       <r>   -24.0969     0.0000     4.0000 </r>
       <r>   -23.9884     0.0000     4.0000 </r>
       <r>   -23.8799     0.0000     4.0000 </r>
       <r>   -23.7713     0.0000     4.0000 </r>
       <r>   -23.6628     0.0000     4.0000 </r>
       <r>   -23.5543     0.0000     4.0000 </r>
       <r>   -23.4458     0.0000     4.0000 </r>
       <r>   -23.3372     0.0000     4.0000 </r>
       <r>   -23.2287     0.0000     4.0000 </r>
       <r>   -23.1202     0.0000     4.0000 </r>
       <r>   -23.0116     0.0000     4.0000 </r>
       <r>   -22.9031     0.0000     4.0000 </r>
       <r>   -22.7946     0.0000     4.0000 </r>
       <r>   -22.6861     0.0000     4.0000 </r>
       <r>   -22.5775     0.0000     4.0000 </r>
       <r>   -22.4690     0.0000     4.0000 </r>
       <r>   -22.3605     0.0000     4.0000 </r>
       <r>   -22.2520     0.0000     4.0000 </r>
       <r>   -22.1434     0.0000     4.0000 </r>
       <r>   -22.0349     0.0000     4.0000 </r>
       <r>   -21.9264     0.0000     4.0000 </r>
       <r>   -21.8179     0.0000     4.0000 </r>
       <r>   -21.7093     0.0000     4.0000 </r>
       <r>   -21.6008     0.0000     4.0000 </r>
       <r>   -21.4923     0.0000     4.0000 </r>
       <r>   -21.3838     0.0000     4.0000 </r>
       <r>   -21.2752     0.0000     4.0000 </r>
       <r>   -21.1667     0.0000     4.0000 </r>
       <r>   -21.0582     0.0000     4.0000 </r>
       <r>   -20.9497     0.0000     4.0000 </r>
       <r>   -20.8411     0.0000     4.0000 </r>
       <r>   -20.7326     0.0000     4.0000 </r>
       <r>   -20.6241     0.0000     4.0000 </r>
       <r>   -20.5155     0.0000     4.0000 </r>
       <r>   -20.4070     0.0000     4.0000 </r>
       <r>   -20.2985     0.0000     4.0000 </r>
       <r>   -20.1900     0.0000     4.0000 </r>
       <r>   -20.0814     0.0000     4.0000 </r>
       <r>   -19.9729     0.0000     4.0000 </r>
       <r>   -19.8644     0.0000     4.0000 </r>
       <r>   -19.7559     0.0000     4.0000 </r>
       <r>   -19.6473     0.0000     4.0000 </r>
       <r>   -19.5388     0.0000     4.0000 </r>
       <r>   -19.4303     0.0000     4.0000 </r>
       <r>   -19.3218     0.0000     4.0000 </r>
       <r>   -19.2132     0.0000     4.0000 </r>
       <r>   -19.1047     0.0000     4.0000 </r>
       <r>   -18.9962     0.0000     4.0000 </r>
       <r>   -18.8877     0.0000     4.0000 </r>
       <r>   -18.7791     0.0000     4.0000 </r>
       <r>   -18.6706     0.0000     4.0000 </r>
       <r>   -18.5621     0.0000     4.0000 </r>
       <r>   -18.4535     0.0000     4.0000 </r>
       <r>   -18.3450     0.0000     4.0000 </r>
       <r>   -18.2365     0.0000     4.0000 </r>
       <r>   -18.1280     0.0000     4.0000 </r>
       <r>   -18.0194     0.0000     4.0000 </r>
       <r>   -17.9109     0.0000     4.0000 </r>
       <r>   -17.8024     0.0000     4.0000 </r>
       <r>   -17.6939     0.0000     4.0000 </r>
       <r>   -17.5853     0.0000     4.0000 </r>
       <r>   -17.4768     0.0000     4.0000 </r>
       <r>   -17.3683     0.0000     4.0000 </r>
       <r>   -17.2598     0.0000     4.0000 </r>
       <r>   -17.1512     0.0000     4.0000 </r>
       <r>   -17.0427     0.0000     4.0000 </r>
       <r>   -16.9342     0.0000     4.0000 </r>
       <r>   -16.8257     0.0000     4.0000 </r>
       <r>   -16.7171     0.0000     4.0000 </r>
       <r>   -16.6086     0.0000     4.0000 </r>
       <r>   -16.5001     0.0000     4.0000 </r>
       <r>   -16.3915     0.0000     4.0000 </r>
       <r>   -16.2830     0.0000     4.0000 </r>
       <r>   -16.1745     0.0000     4.0000 </r>
       <r>   -16.0660     0.0000     4.0000 </r>
       <r>   -15.9574     0.0000     4.0000 </r>
       <r>   -15.8489     0.0000     4.0000 </r>
       <r>   -15.7404     0.0000     4.0000 </r>
       <r>   -15.6319     0.0000     4.0000 </r>
       <r>   -15.5233     0.0000     4.0000 </r>
       <r>   -15.4148     0.0000     4.0000 </r>
       <r>   -15.3063     0.0000     4.0000 </r>
       <r>   -15.1978     0.0000     4.0000 </r>
       <r>   -15.0892     0.0000     4.0000 </r>
       <r>   -14.9807     0.0000     4.0000 </r>
       <r>   -14.8722     0.0000     4.0000 </r>
       <r>   -14.7637     0.0000     4.0000 </r>
       <r>   -14.6551     0.0000     4.0000 </r>
       <r>   -14.5466     0.0000     4.0000 </r>
       <r>   -14.4381     0.0000     4.0000 </r>
       <r>   -14.3296     0.0000     4.0000 </r>
       <r>   -14.2210     0.0000     4.0000 </r>
       <r>   -14.1125     0.0000     4.0000 </r>
       <r>   -14.0040     0.0000     4.0000 </r>
       <r>   -13.8954     0.0000     4.0000 </r>
       <r>   -13.7869     0.0000     4.0000 </r>
       <r>   -13.6784     1.2010     4.1303 </r>
       <r>   -13.5699    16.1265     5.8805 </r>
       <r>   -13.4613     1.1012     6.0000 </r>
       <r>   -13.3528     0.0000     6.0000 </r>
       <r>   -13.2443     0.0000     6.0000 </r>
       <r>   -13.1358     0.0000     6.0000 </r>
       <r>   -13.0272     0.0000     6.0000 </r>
       <r>   -12.9187     0.0000     6.0000 </r>
       <r>   -12.8102     0.0000     6.0000 </r>
       <r>   -12.7017     0.0000     6.0000 </r>
       <r>   -12.5931     0.0020     6.0002 </r>
       <r>   -12.4846     8.3273     6.9040 </r>
       <r>   -12.3761    44.1771    11.6983 </r>
       <r>   -12.2676     2.7795    12.0000 </r>
       <r>   -12.1590     0.0002    12.0000 </r>
       <r>   -12.0505     0.0000    12.0000 </r>
       <r>   -11.9420     0.0000    12.0000 </r>
       <r>   -11.8334     0.0000    12.0000 </r>
       <r>   -11.7249     0.0000    12.0000 </r>
       <r>   -11.6164     0.0000    12.0000 </r>
       <r>   -11.5079     0.0000    12.0000 </r>
       <r>   -11.3993     0.0000    12.0000 </r>
       <r>   -11.2908     0.0000    12.0000 </r>
       <r>   -11.1823     0.0000    12.0000 </r>
       <r>   -11.0738     0.0000    12.0000 </r>
       <r>   -10.9652     0.0000    12.0000 </r>
       <r>   -10.8567     0.0000    12.0000 </r>
       <r>   -10.7482     0.0000    12.0000 </r>
       <r>   -10.6397     0.0000    12.0000 </r>
       <r>   -10.5311     0.0000    12.0000 </r>
       <r>   -10.4226     0.0000    12.0000 </r>
       <r>   -10.3141     0.0000    12.0000 </r>
       <r>   -10.2056     0.0000    12.0000 </r>
       <r>   -10.0970     0.0000    12.0000 </r>
       <r>    -9.9885     0.0000    12.0000 </r>
       <r>    -9.8800     0.0000    12.0000 </r>
       <r>    -9.7715     0.0000    12.0000 </r>
       <r>    -9.6629     0.0000    12.0000 </r>
       <r>    -9.5544     0.0000    12.0000 </r>
       <r>    -9.4459     0.0000    12.0000 </r>
       <r>    -9.3373     0.0000    12.0000 </r>
       <r>    -9.2288     0.0000    12.0000 </r>
       <r>    -9.1203     0.0000    12.0000 </r>
       <r>    -9.0118     0.0066    12.0007 </r>
       <r>    -8.9032    11.3872    13.2365 </r>
       <r>    -8.7947    25.2769    15.9797 </r>
       <r>    -8.6862     0.1867    16.0000 </r>
       <r>    -8.5777     0.0000    16.0000 </r>
       <r>    -8.4691     0.0000    16.0000 </r>
       <r>    -8.3606     0.0000    16.0000 </r>
       <r>    -8.2521     0.0000    16.0000 </r>
       <r>    -8.1436     0.0000    16.0000 </r>
       <r>    -8.0350     0.0000    16.0000 </r>
       <r>    -7.9265     0.0000    16.0000 </r>
       <r>    -7.8180     0.0000    16.0000 </r>
       <r>    -7.7095     0.0000    16.0000 </r>
       <r>    -7.6009     0.0000    16.0000 </r>
       <r>    -7.4924     0.0000    16.0000 </r>
       <r>    -7.3839     0.0000    16.0000 </r>
       <r>    -7.2753     0.0000    16.0000 </r>
       <r>    -7.1668     0.0000    16.0000 </r>
       <r>    -7.0583     0.0000    16.0000 </r>
       <r>    -6.9498     0.0000    16.0000 </r>
       <r>    -6.8412     0.0000    16.0000 </r>
       <r>    -6.7327     0.0000    16.0000 </r>
       <r>    -6.6242     0.0000    16.0000 </r>
       <r>    -6.5157     0.0000    16.0000 </r>
       <r>    -6.4071     0.0000    16.0000 </r>
       <r>    -6.2986     0.0000    16.0000 </r>
       <r>    -6.1901     0.0000    16.0000 </r>
       <r>    -6.0816     0.0000    16.0000 </r>
       <r>    -5.9730     0.0000    16.0000 </r>
       <r>    -5.8645     0.0000    16.0000 </r>
       <r>    -5.7560     0.0000    16.0000 </r>
       <r>    -5.6475     0.0000    16.0000 </r>
       <r>    -5.5389     0.0000    16.0000 </r>
       <r>    -5.4304     0.0000    16.0000 </r>
       <r>    -5.3219     0.0000    16.0000 </r>
       <r>    -5.2133     0.0000    16.0000 </r>
       <r>    -5.1048     0.0000    16.0000 </r>
       <r>    -4.9963     0.0000    16.0000 </r>
       <r>    -4.8878     0.0000    16.0000 </r>
       <r>    -4.7792     0.0000    16.0000 </r>
       <r>    -4.6707     0.0000    16.0000 </r>
       <r>    -4.5622     0.0000    16.0000 </r>
       <r>    -4.4537     0.0000    16.0000 </r>
       <r>    -4.3451     0.0000    16.0000 </r>
       <r>    -4.2366     0.0000    16.0000 </r>
       <r>    -4.1281     0.0000    16.0000 </r>
       <r>    -4.0196     0.0000    16.0000 </r>
       <r>    -3.9110     0.0000    16.0000 </r>
       <r>    -3.8025     0.0000    16.0000 </r>
       <r>    -3.6940     0.0000    16.0000 </r>
       <r>    -3.5855     0.0000    16.0000 </r>
       <r>    -3.4769     0.0000    16.0000 </r>
       <r>    -3.3684     0.0000    16.0000 </r>
       <r>    -3.2599     0.0000    16.0000 </r>
       <r>    -3.1514     0.0000    16.0000 </r>
       <r>    -3.0428     0.0000    16.0000 </r>
       <r>    -2.9343     0.0000    16.0000 </r>
       <r>    -2.8258     0.0000    16.0000 </r>
       <r>    -2.7172     0.0000    16.0000 </r>
       <r>    -2.6087     0.0000    16.0000 </r>
       <r>    -2.5002     0.0000    16.0000 </r>
       <r>    -2.3917     0.0000    16.0000 </r>
       <r>    -2.2831     0.0000    16.0000 </r>
       <r>    -2.1746     0.0000    16.0000 </r>
       <r>    -2.0661     0.0000    16.0000 </r>
       <r>    -1.9576     0.0000    16.0000 </r>
       <r>    -1.8490     0.0000    16.0000 </r>
       <r>    -1.7405     0.0000    16.0000 </r>
       <r>    -1.6320     0.0000    16.0000 </r>
       <r>    -1.5235     0.0000    16.0000 </r>
       <r>    -1.4149     0.0000    16.0000 </r>
       <r>    -1.3064     0.0000    16.0000 </r>
       <r>    -1.1979     0.0000    16.0000 </r>
       <r>    -1.0894     0.0000    16.0000 </r>
       <r>    -0.9808     0.6640    16.0721 </r>
       <r>    -0.8723    15.8870    17.7962 </r>
       <r>    -0.7638     1.8775    18.0000 </r>
       <r>    -0.6552     0.0001    18.0000 </r>
       <r>    -0.5467     0.0000    18.0000 </r>
       <r>    -0.4382     1.0324    18.1120 </r>
       <r>    -0.3297    31.2737    21.5061 </r>
       <r>    -0.2211     4.5510    22.0000 </r>
       <r>    -0.1126     0.0004    22.0000 </r>
       <r>    -0.0041     0.0000    22.0000 </r>
       <r>     0.1044     0.0000    22.0000 </r>
       <r>     0.2130     0.0000    22.0000 </r>
       <r>     0.3215     0.0000    22.0000 </r>
       <r>     0.4300     0.0003    22.0000 </r>
       <r>     0.5385     2.4354    22.2643 </r>
       <r>     0.6471    15.5252    23.9492 </r>
       <r>     0.7556     0.4679    24.0000 </r>
       <r>     0.8641     0.0000    24.0000 </r>
       <r>     0.9726     0.0000    24.0000 </r>
       <r>     1.0812     0.0000    24.0000 </r>
       <r>     1.1897     0.0000    24.0000 </r>
       <r>     1.2982     0.0000    24.0000 </r>
       <r>     1.4068     0.0000    24.0000 </r>
       <r>     1.5153     0.0000    24.0000 </r>
       <r>     1.6238     0.0000    24.0000 </r>
       <r>     1.7323     0.0000    24.0000 </r>
       <r>     1.8409     0.0000    24.0000 </r>
       <r>     1.9494     0.0000    24.0000 </r>
       <r>     2.0579     0.0000    24.0000 </r>
      </set>
     </set>
    </array>
   </total>
  </dos>
 </calculation>
 <structure name="finalpos" >
  <crystal>
   <varray name="basis" >
    <v>      10.00000000       0.00000000       0.00000000 </v>
    <v>       0.00000000      10.00000000       0.00000000 </v>
    <v>       0.00000000       0.00000000      10.00000000 </v>
   </varray>
   <i name="volume">   1000.00000000 </i>
   <varray name="rec_basis" >
    <v>       0.10000000       0.00000000       0.00000000 </v>
    <v>       0.00000000       0.10000000       0.00000000 </v>
    <v>       0.00000000       0.00000000       0.10000000 </v>
   </varray>
  </crystal>
  <varray name="positions" >
   <v>       0.50000000       0.50000000       0.50000000 </v>
   <v>       0.38232762       0.49850000       0.50000000 </v>
   <v>       0.61767238       0.50000000       0.50000000 </v>
  </varray>
 </structure>
</modeling>
