unknown system                          
           1
    10.000000    0.000000    0.000000
     0.000000   10.000000    0.000000
     0.000000    0.000000   10.000000
   C    O 
   1   2
Direct configuration=     1
   0.50000000  0.50000000  0.50000000
   0.38232762  0.50000000  0.50000000
   0.61767238  0.50000000  0.50000000
Direct configuration=     2
   0.50150000  0.50000000  0.50000000
   0.38232762  0.50000000  0.50000000
   0.61767238  0.50000000  0.50000000
Direct configuration=     3
   0.49850000  0.50000000  0.50000000
   0.38232762  0.50000000  0.50000000
   0.61767238  0.50000000  0.50000000
Direct configuration=     4
   0.50000000  0.50150000  0.50000000
   0.38232762  0.50000000  0.50000000
   0.61767238  0.50000000  0.50000000
Direct configuration=     5
   0.50000000  0.49850000  0.50000000
   0.38232762  0.50000000  0.50000000
   0.61767238  0.50000000  0.50000000
Direct configuration=     6
   0.50000000  0.50000000  0.50000000
   0.38382762  0.50000000  0.50000000
   0.61767238  0.50000000  0.50000000
Direct configuration=     7
   0.50000000  0.50000000  0.50000000
   0.38082762  0.50000000  0.50000000
   0.61767238  0.50000000  0.50000000
Direct configuration=     8
   0.50000000  0.50000000  0.50000000
   0.38232762  0.50150000  0.50000000
   0.61767238  0.50000000  0.50000000
Direct configuration=     9
   0.50000000  0.50000000  0.50000000
   0.38232762  0.49850000  0.50000000
   0.61767238  0.50000000  0.50000000
