   1   1   1   0
  0.1946362E+02  0.3019346E-09  0.3019346E-09  0.3019346E-09  0.5000000E-15
  1.000000000000000E-004
  CAR 
 unknown system                          
     23.15402962     -3.44548585  301      5.38790692      1.00000000
     -3.445  0.0000E+00  0.0000E+00  0.0000E+00  0.0000E+00
     -3.357  0.0000E+00  0.0000E+00  0.0000E+00  0.0000E+00
     -3.268  0.0000E+00  0.0000E+00  0.0000E+00  0.0000E+00
     -3.179  0.0000E+00  0.0000E+00  0.0000E+00  0.0000E+00
     -3.091  0.0000E+00  0.0000E+00  0.0000E+00  0.0000E+00
     -3.002  0.0000E+00  0.0000E+00  0.0000E+00  0.0000E+00
     -2.913  0.0000E+00  0.0000E+00  0.0000E+00  0.0000E+00
     -2.825  0.0000E+00  0.0000E+00  0.0000E+00  0.0000E+00
     -2.736  0.0000E+00  0.0000E+00  0.0000E+00  0.0000E+00
     -2.648 -0.1066E-29 -0.6172E-35 -0.9450E-31 -0.5473E-36
     -2.559 -0.1660E-18 -0.1209E-22 -0.1472E-19 -0.1072E-23
     -2.470 -0.4237E-10 -0.3989E-13 -0.3757E-11 -0.3537E-14
     -2.382 -0.1671E-04 -0.2160E-06 -0.1482E-05 -0.1915E-07
     -2.293 -0.3517E-02 -0.1365E-02 -0.3133E-03 -0.1210E-03
     -2.204  0.1016E+00  0.4802E-01  0.8696E-02  0.4136E-02
     -2.116  0.6531E-02  0.5967E-01  0.9275E-02  0.9427E-02
     -2.027 -0.1730E-03 -0.1890E-02  0.9259E-02  0.9259E-02
     -1.938 -0.2736E-08 -0.5072E-06  0.9259E-02  0.9259E-02
     -1.850 -0.2440E-13 -0.1489E-12  0.9259E-02  0.9259E-02
     -1.761 -0.2270E-06 -0.8348E-09  0.9259E-02  0.9259E-02
     -1.672 -0.2628E-02 -0.1487E-03  0.9026E-02  0.9246E-02
     -1.584  0.1045E+00 -0.4308E-02  0.1829E-01  0.8864E-02
     -1.495  0.2192E+00  0.3187E+00  0.3773E-01  0.3712E-01
     -1.406 -0.7780E-02 -0.7690E-03  0.3704E-01  0.3705E-01
     -1.318 -0.3983E-05 -0.1994E-03  0.3704E-01  0.3704E-01
     -1.229 -0.3992E-11 -0.1407E-08  0.3704E-01  0.3704E-01
     -1.140 -0.3919E-05 -0.2712E-07  0.3704E-01  0.3704E-01
     -1.052 -0.7742E-02 -0.9598E-03  0.3635E-01  0.3695E-01
     -0.963  0.2185E+00  0.4257E-01  0.5573E-01  0.4073E-01
     -0.874  0.1052E+00  0.2827E+00  0.6505E-01  0.6579E-01
     -0.786 -0.2649E-02 -0.1096E-01  0.6481E-01  0.6482E-01
     -0.697 -0.2399E-06 -0.2183E-04  0.6481E-01  0.6481E-01
     -0.608 -0.3128E-03 -0.1099E-04  0.6479E-01  0.6481E-01
     -0.520  0.1368E-01 -0.3689E-02  0.6600E-01  0.6449E-01
     -0.431  0.9203E-01  0.9076E-01  0.7416E-01  0.7253E-01
     -0.342  0.3153E+00  0.2236E+00  0.1021E+00  0.9236E-01
     -0.254 -0.2778E-02  0.1099E+00  0.1019E+00  0.1021E+00
     -0.165 -0.1707E-03 -0.2816E-02  0.1019E+00  0.1019E+00
     -0.076 -0.4915E-06 -0.2676E-06  0.1019E+00  0.1019E+00
      0.012 -0.5437E-02 -0.3217E-03  0.1014E+00  0.1018E+00
      0.101  0.2145E+00 -0.6916E-02  0.1204E+00  0.1012E+00
      0.190  0.4328E+00  0.6378E+00  0.1588E+00  0.1578E+00
      0.278 -0.1851E-01 -0.3802E-02  0.1571E+00  0.1574E+00
      0.367  0.1227E+00 -0.4978E-03  0.1680E+00  0.1574E+00
      0.456  0.2007E+00  0.3186E+00  0.1858E+00  0.1856E+00
      0.544 -0.6773E-02 -0.4783E-02  0.1852E+00  0.1852E+00
      0.633 -0.2552E-05 -0.1419E-03  0.1852E+00  0.1852E+00
      0.722 -0.2358E-04 -0.2372E-06  0.1852E+00  0.1852E+00
      0.810 -0.1699E-01 -0.3144E-02  0.1837E+00  0.1849E+00
      0.899  0.4855E+00  0.1192E+00  0.2267E+00  0.1955E+00
      0.988  0.3832E+00  0.6333E+00  0.2607E+00  0.2516E+00
      1.076  0.1998E+00  0.2988E+00  0.2784E+00  0.2781E+00
      1.165 -0.1805E-01 -0.6233E-02  0.2768E+00  0.2776E+00
      1.254  0.2769E+00  0.9902E-01  0.3014E+00  0.2864E+00
      1.342  0.1876E+00  0.2066E+00  0.3180E+00  0.3047E+00
      1.431  0.7880E+00  0.6622E+00  0.3879E+00  0.3634E+00
      1.520  0.6069E+00  0.7442E+00  0.4417E+00  0.4294E+00
      1.608  0.6168E+00  0.4481E+00  0.4964E+00  0.4691E+00
      1.697  0.4217E-01  0.3602E+00  0.5001E+00  0.5010E+00
      1.786 -0.2924E-02 -0.1182E-01  0.4998E+00  0.5000E+00
      1.874  0.7542E-01 -0.8835E-02  0.5065E+00  0.4992E+00
      1.963  0.3306E+00  0.2865E+00  0.5358E+00  0.5246E+00
      2.052  0.1347E+01  0.8954E+00  0.6552E+00  0.6040E+00
      2.140  0.4549E+00  0.1033E+01  0.6956E+00  0.6956E+00
      2.229  0.3021E+00  0.1935E+00  0.7223E+00  0.7128E+00
      2.318  0.1938E-01  0.9647E-01  0.7241E+00  0.7213E+00
      2.406  0.7178E+00  0.3728E+00  0.7877E+00  0.7544E+00
      2.495  0.5161E+00  0.7826E+00  0.8335E+00  0.8238E+00
      2.584 -0.7171E-02  0.1111E+00  0.8328E+00  0.8336E+00
      2.672  0.1799E+00  0.1852E-01  0.8488E+00  0.8353E+00
      2.761  0.2777E+00  0.2705E+00  0.8734E+00  0.8592E+00
      2.850  0.8820E+00  0.8730E+00  0.9516E+00  0.9366E+00
      2.938  0.1111E+01  0.8990E+00  0.1050E+01  0.1016E+01
      3.027  0.5634E+00  0.6182E+00  0.1100E+01  0.1071E+01
      3.116  0.1090E+00  0.4658E+00  0.1110E+01  0.1112E+01
      3.204  0.4739E+00  0.9537E-01  0.1152E+01  0.1121E+01
      3.293  0.4899E+00  0.7615E+00  0.1195E+01  0.1188E+01
      3.382  0.1010E-01  0.5828E-01  0.1196E+01  0.1194E+01
      3.470  0.5490E+00  0.2903E+00  0.1245E+01  0.1219E+01
      3.559  0.6411E+00  0.7704E+00  0.1302E+01  0.1288E+01
      3.648 -0.7415E-02  0.1820E+00  0.1301E+01  0.1304E+01
      3.736  0.1797E+01  0.9129E+00  0.1460E+01  0.1385E+01
      3.825  0.1498E+00  0.9993E+00  0.1474E+01  0.1473E+01
      3.914  0.6250E+00  0.4726E+00  0.1529E+01  0.1515E+01
      4.002  0.3025E+00  0.3662E+00  0.1556E+01  0.1548E+01
      4.091  0.3065E-02  0.8003E-01  0.1556E+01  0.1555E+01
      4.180  0.5093E+00  0.2548E+00  0.1601E+01  0.1577E+01
      4.268  0.6569E+00  0.7652E+00  0.1660E+01  0.1645E+01
      4.357  0.6894E+00  0.4341E+00  0.1721E+01  0.1684E+01
      4.446  0.1191E+01  0.1179E+01  0.1826E+01  0.1788E+01
      4.534  0.6640E-01  0.5155E+00  0.1832E+01  0.1834E+01
      4.623  0.9463E+00  0.2885E+00  0.1916E+01  0.1860E+01
      4.712  0.6415E+00  0.1310E+01  0.1973E+01  0.1976E+01
      4.800  0.3015E+00  0.9996E-01  0.2000E+01  0.1985E+01
      4.889  0.9677E+00  0.5125E+00  0.2085E+01  0.2030E+01
      4.978  0.9948E+00  0.1360E+01  0.2174E+01  0.2151E+01
      5.066  0.1848E-02  0.2916E+00  0.2174E+01  0.2176E+01
      5.155  0.7412E+00  0.1402E+00  0.2240E+01  0.2189E+01
      5.244  0.1709E+01  0.1876E+01  0.2391E+01  0.2355E+01
      5.332  0.7715E+00  0.8329E+00  0.2459E+01  0.2429E+01
      5.421  0.8712E+00  0.1003E+01  0.2537E+01  0.2518E+01
      5.510  0.5343E-01  0.2108E+00  0.2541E+01  0.2537E+01
      5.598  0.3551E+00  0.3319E+00  0.2573E+01  0.2566E+01
      5.687  0.1728E+00  0.7039E-01  0.2588E+01  0.2572E+01
      5.776  0.9177E+00  0.9196E+00  0.2670E+01  0.2654E+01
      5.864  0.2752E+00  0.2880E+00  0.2694E+01  0.2679E+01
      5.953  0.1383E+01  0.1106E+01  0.2817E+01  0.2777E+01
      6.042  0.1836E+00  0.5520E+00  0.2833E+01  0.2826E+01
      6.130  0.2833E+00  0.2171E+00  0.2858E+01  0.2846E+01
      6.219  0.4708E+00  0.3091E+00  0.2900E+01  0.2873E+01
      6.308  0.9756E+00  0.9457E+00  0.2986E+01  0.2957E+01
      6.396  0.1219E+01  0.9985E+00  0.3094E+01  0.3045E+01
      6.485  0.1001E+01  0.1358E+01  0.3183E+01  0.3166E+01
      6.574  0.4270E+00  0.4833E+00  0.3221E+01  0.3209E+01
      6.662  0.1444E-01  0.1577E+00  0.3222E+01  0.3223E+01
      6.751 -0.9191E-02 -0.6126E-02  0.3221E+01  0.3222E+01
      6.840  0.2943E+00  0.2706E-01  0.3248E+01  0.3225E+01
      6.928  0.4766E+00  0.5998E+00  0.3290E+01  0.3278E+01
      7.017  0.4855E+00  0.6023E+00  0.3333E+01  0.3331E+01
      7.106  0.6759E+00  0.2094E+00  0.3393E+01  0.3350E+01
      7.194  0.3270E+00  0.7578E+00  0.3422E+01  0.3417E+01
      7.283  0.8914E+00  0.7333E+00  0.3501E+01  0.3482E+01
      7.372 -0.1973E-01  0.2068E+00  0.3499E+01  0.3500E+01
      7.460  0.2842E+00  0.1078E+00  0.3524E+01  0.3510E+01
      7.549  0.2559E-01  0.2061E+00  0.3527E+01  0.3528E+01
      7.638  0.4514E+00  0.9908E-01  0.3567E+01  0.3537E+01
      7.726  0.1076E+01  0.1116E+01  0.3662E+01  0.3636E+01
      7.815  0.1027E+01  0.9161E+00  0.3753E+01  0.3717E+01
      7.904  0.8076E+00  0.9442E+00  0.3825E+01  0.3801E+01
      7.992  0.1078E+01  0.1214E+01  0.3920E+01  0.3908E+01
      8.081 -0.2739E-01  0.7819E-01  0.3918E+01  0.3915E+01
      8.170  0.6269E+00  0.4912E+00  0.3973E+01  0.3959E+01
      8.258 -0.1194E-01  0.1551E+00  0.3972E+01  0.3973E+01
      8.347 -0.2439E-03 -0.3742E-02  0.3972E+01  0.3972E+01
      8.436 -0.3196E-02 -0.2859E-03  0.3972E+01  0.3972E+01
      8.524  0.1003E+00  0.6851E-03  0.3981E+01  0.3972E+01
      8.613  0.7224E+00  0.4912E+00  0.4045E+01  0.4016E+01
      8.702  0.3317E+00  0.6249E+00  0.4074E+01  0.4071E+01
      8.790  0.3326E+00  0.2294E+00  0.4104E+01  0.4092E+01
      8.879  0.1770E+00  0.3093E+00  0.4119E+01  0.4119E+01
      8.968  0.6133E+00  0.4685E-01  0.4174E+01  0.4123E+01
      9.056  0.1306E+01  0.1816E+01  0.4290E+01  0.4284E+01
      9.145  0.4718E+00  0.1823E+00  0.4331E+01  0.4300E+01
      9.234  0.4530E+00  0.8084E+00  0.4372E+01  0.4372E+01
      9.322  0.2386E-01 -0.2926E-01  0.4374E+01  0.4369E+01
      9.411  0.4905E+00  0.3234E+00  0.4417E+01  0.4398E+01
      9.500  0.4407E+00  0.6062E+00  0.4456E+01  0.4452E+01
      9.588  0.2936E+00  0.2904E+00  0.4482E+01  0.4478E+01
      9.677 -0.1000E-01  0.4503E-01  0.4481E+01  0.4482E+01
      9.766 -0.6341E-04 -0.1026E-02  0.4481E+01  0.4481E+01
      9.854 -0.5510E-02 -0.7321E-03  0.4481E+01  0.4481E+01
      9.943  0.1528E+00  0.2407E-01  0.4495E+01  0.4484E+01
     10.032  0.7151E+00  0.5566E+00  0.4558E+01  0.4533E+01
     10.120  0.9388E-01  0.3411E+00  0.4566E+01  0.4563E+01
     10.209  0.1369E+01  0.8699E+00  0.4688E+01  0.4640E+01
     10.298  0.1073E+01  0.1309E+01  0.4783E+01  0.4756E+01
     10.386  0.1174E+01  0.1001E+01  0.4887E+01  0.4845E+01
     10.475  0.4493E+00  0.8704E+00  0.4927E+01  0.4922E+01
     10.564  0.7029E-01  0.3212E-01  0.4933E+01  0.4925E+01
     10.652  0.7661E+00  0.6823E+00  0.5001E+01  0.4986E+01
     10.741  0.1411E-01  0.1506E+00  0.5002E+01  0.4999E+01
     10.830  0.5779E+00  0.4578E+00  0.5053E+01  0.5040E+01
     10.918  0.3316E+00  0.3406E+00  0.5083E+01  0.5070E+01
     11.007  0.4375E+00  0.4436E+00  0.5122E+01  0.5109E+01
     11.096  0.6524E+00  0.5280E+00  0.5179E+01  0.5156E+01
     11.184  0.1294E+01  0.8752E+00  0.5294E+01  0.5234E+01
     11.273  0.9465E+00  0.1362E+01  0.5378E+01  0.5354E+01
     11.362  0.1204E+00  0.4056E+00  0.5389E+01  0.5390E+01
     11.450  0.1541E+00  0.9139E-02  0.5402E+01  0.5391E+01
     11.539  0.1658E+00  0.2995E+00  0.5417E+01  0.5418E+01
     11.628 -0.6188E-02 -0.1098E-01  0.5417E+01  0.5417E+01
     11.716  0.4524E-01 -0.2218E-01  0.5421E+01  0.5415E+01
     11.805  0.6041E+00  0.5874E+00  0.5474E+01  0.5467E+01
     11.894 -0.3178E-01  0.5719E-01  0.5471E+01  0.5472E+01
     11.982  0.3018E+00  0.1772E+00  0.5498E+01  0.5488E+01
     12.071  0.2047E+00  0.1410E+00  0.5516E+01  0.5500E+01
     12.160  0.1218E+01  0.9825E+00  0.5624E+01  0.5587E+01
     12.248  0.4420E+00  0.7178E+00  0.5663E+01  0.5651E+01
     12.337  0.3585E+00  0.4260E+00  0.5695E+01  0.5689E+01
     12.426 -0.1016E-01  0.6758E-01  0.5694E+01  0.5695E+01
     12.514  0.9555E-01 -0.2325E-01  0.5703E+01  0.5693E+01
     12.603  0.5436E+00  0.6017E+00  0.5751E+01  0.5746E+01
     12.692  0.2636E+00  0.1552E+00  0.5774E+01  0.5760E+01
     12.780  0.2000E+00  0.2015E+00  0.5792E+01  0.5777E+01
     12.869  0.5084E+00  0.6079E+00  0.5837E+01  0.5831E+01
     12.958  0.6033E+00  0.5526E+00  0.5891E+01  0.5880E+01
     13.046 -0.1930E-01  0.9805E-01  0.5889E+01  0.5889E+01
     13.135 -0.1364E-03 -0.2210E-02  0.5889E+01  0.5889E+01
     13.224 -0.2965E-02 -0.2035E-03  0.5889E+01  0.5889E+01
     13.312  0.1302E+00 -0.1508E-01  0.5900E+01  0.5888E+01
     13.401  0.5194E+00  0.6323E+00  0.5946E+01  0.5944E+01
     13.490 -0.2003E-01  0.1009E-01  0.5944E+01  0.5944E+01
     13.578 -0.2230E-04 -0.5695E-03  0.5944E+01  0.5944E+01
     13.667 -0.2104E-10 -0.5369E-08  0.5944E+01  0.5944E+01
     13.756 -0.5352E-10 -0.6071E-13  0.5944E+01  0.5944E+01
     13.844 -0.3954E-04 -0.5253E-06  0.5944E+01  0.5944E+01
     13.933 -0.2397E-01 -0.5711E-02  0.5942E+01  0.5944E+01
     14.022  0.6586E+00  0.1987E+00  0.6001E+01  0.5962E+01
     14.110  0.6421E+00  0.1041E+01  0.6058E+01  0.6054E+01
     14.199 -0.2350E-01  0.2022E-01  0.6056E+01  0.6056E+01
     14.288 -0.6016E-02 -0.1338E-02  0.6055E+01  0.6056E+01
     14.376  0.2303E+00 -0.4140E-02  0.6075E+01  0.6055E+01
     14.465  0.4064E+00  0.6359E+00  0.6111E+01  0.6112E+01
     14.554  0.2539E+00  0.6287E-01  0.6134E+01  0.6117E+01
     14.642  0.4000E+00  0.5057E+00  0.6169E+01  0.6162E+01
     14.731  0.4039E+00  0.3159E+00  0.6205E+01  0.6190E+01
     14.820  0.6427E+00  0.6590E+00  0.6262E+01  0.6248E+01
     14.908  0.1818E+00  0.3398E+00  0.6278E+01  0.6279E+01
     14.997 -0.6901E-02 -0.8257E-02  0.6278E+01  0.6278E+01
     15.086 -0.2671E-05 -0.1028E-03  0.6278E+01  0.6278E+01
     15.174 -0.5522E-05 -0.5745E-07  0.6278E+01  0.6278E+01
     15.263 -0.1507E-01 -0.2009E-02  0.6276E+01  0.6278E+01
     15.352  0.4608E+00  0.7651E-01  0.6317E+01  0.6284E+01
     15.440  0.5088E+00  0.8639E+00  0.6362E+01  0.6361E+01
     15.529  0.4402E-01 -0.7171E-02  0.6366E+01  0.6360E+01
     15.618  0.6968E+00  0.5641E+00  0.6428E+01  0.6410E+01
     15.706  0.6178E+00  0.6804E+00  0.6483E+01  0.6471E+01
     15.795 -0.1549E-01  0.1247E+00  0.6481E+01  0.6482E+01
     15.883 -0.8833E-02 -0.3621E-02  0.6481E+01  0.6481E+01
     15.972  0.2987E+00  0.1850E-01  0.6507E+01  0.6483E+01
     16.061  0.3473E+00  0.6267E+00  0.6538E+01  0.6539E+01
     16.149 -0.2148E-01 -0.2272E-01  0.6536E+01  0.6537E+01
     16.238  0.3037E+00  0.1634E+00  0.6563E+01  0.6551E+01
     16.327  0.1389E-01  0.1583E+00  0.6564E+01  0.6565E+01
     16.415  0.1934E+00  0.3628E-01  0.6581E+01  0.6568E+01
     16.504  0.4378E+00  0.4790E+00  0.6620E+01  0.6611E+01
     16.593 -0.1138E-01  0.9740E-01  0.6619E+01  0.6619E+01
     16.681  0.6344E+00  0.3972E+00  0.6675E+01  0.6655E+01
     16.770  0.5862E-02  0.2462E+00  0.6676E+01  0.6677E+01
     16.859 -0.5067E-03 -0.6554E-02  0.6676E+01  0.6676E+01
     16.947 -0.4928E-02 -0.2465E-03  0.6675E+01  0.6676E+01
     17.036  0.2137E+00 -0.2646E-01  0.6694E+01  0.6674E+01
     17.125  0.7602E+00  0.9405E+00  0.6762E+01  0.6757E+01
     17.213 -0.3972E-01  0.2604E-01  0.6758E+01  0.6759E+01
     17.302  0.3830E+00  0.2298E-01  0.6792E+01  0.6761E+01
     17.391  0.5846E+00  0.9238E+00  0.6844E+01  0.6843E+01
     17.479  0.2991E+00  0.2007E+00  0.6871E+01  0.6861E+01
     17.568 -0.2619E-02  0.1084E+00  0.6870E+01  0.6871E+01
     17.657 -0.3143E-03 -0.2778E-02  0.6870E+01  0.6870E+01
     17.745  0.1663E-02 -0.3876E-02  0.6871E+01  0.6870E+01
     17.834  0.2175E+00  0.9686E-01  0.6890E+01  0.6879E+01
     17.923  0.1829E+00  0.3204E+00  0.6906E+01  0.6907E+01
     18.011  0.7666E+00  0.3647E+00  0.6974E+01  0.6939E+01
     18.100  0.2927E+00  0.6881E+00  0.7000E+01  0.7000E+01
     18.189  0.2911E+00  0.1448E-01  0.7026E+01  0.7002E+01
     18.277  0.2223E-01  0.3050E+00  0.7028E+01  0.7029E+01
     18.366  0.4627E-01 -0.3322E-01  0.7032E+01  0.7026E+01
     18.455  0.7061E+00  0.6452E+00  0.7094E+01  0.7083E+01
     18.543 -0.2596E-01  0.1102E+00  0.7092E+01  0.7093E+01
     18.632  0.1623E+00  0.2082E-01  0.7106E+01  0.7095E+01
     18.721  0.7927E+00  0.7030E+00  0.7177E+01  0.7157E+01
     18.809  0.4142E+00  0.4166E+00  0.7214E+01  0.7194E+01
     18.898  0.1075E+02  0.9087E+01  0.8167E+01  0.8000E+01
     18.987  0.1186E+01  0.2792E+01  0.8272E+01  0.8247E+01
     19.075  0.1826E+00  0.4606E+00  0.8288E+01  0.8288E+01
     19.164  0.2947E+00  0.2506E+00  0.8314E+01  0.8310E+01
     19.253  0.4182E+00  0.1089E+00  0.8352E+01  0.8320E+01
     19.341  0.6283E+00  0.9025E+00  0.8407E+01  0.8400E+01
     19.430  0.3583E+00  0.3117E+00  0.8439E+01  0.8428E+01
     19.519  0.1680E+00  0.3057E+00  0.8454E+01  0.8455E+01
     19.607  0.1105E+00 -0.8681E-02  0.8464E+01  0.8454E+01
     19.696  0.2065E+00  0.3178E+00  0.8482E+01  0.8482E+01
     19.785  0.2252E-01 -0.1701E-01  0.8484E+01  0.8481E+01
     19.873  0.2954E+00  0.2934E+00  0.8510E+01  0.8507E+01
     19.962 -0.1134E-01  0.3154E-01  0.8509E+01  0.8509E+01
     20.051  0.4665E-02 -0.1088E-01  0.8510E+01  0.8508E+01
     20.139  0.3669E+00  0.2387E+00  0.8542E+01  0.8530E+01
     20.228  0.6419E+00  0.6506E+00  0.8599E+01  0.8587E+01
     20.317  0.2399E+00  0.3581E+00  0.8620E+01  0.8619E+01
     20.405  0.2541E+00  0.2234E+00  0.8643E+01  0.8639E+01
     20.494  0.3075E+00  0.7655E+00  0.8670E+01  0.8707E+01
     20.583  0.6382E+00  0.2831E+00  0.8727E+01  0.8732E+01
     20.671  0.3553E+00  0.1731E+00  0.8758E+01  0.8747E+01
     20.760  0.1922E-01  0.1312E+00  0.8760E+01  0.8759E+01
     20.849  0.3139E+00  0.2574E+00  0.8788E+01  0.8782E+01
     20.937 -0.1638E-01  0.5712E-01  0.8786E+01  0.8787E+01
     21.026  0.3155E+00  0.1904E+00  0.8814E+01  0.8803E+01
     21.115 -0.7830E-02  0.1297E+00  0.8814E+01  0.8815E+01
     21.203  0.4165E+00  0.6256E-01  0.8851E+01  0.8821E+01
     21.292  0.6692E+00  0.8196E+00  0.8910E+01  0.8893E+01
     21.381  0.7900E-01  0.2750E+00  0.8917E+01  0.8918E+01
     21.469 -0.2374E-02 -0.1034E-01  0.8917E+01  0.8917E+01
     21.558 -0.3216E-06 -0.1841E-04  0.8917E+01  0.8917E+01
     21.647 -0.1646E-10 -0.4003E-10  0.8917E+01  0.8917E+01
     21.735 -0.1989E-04 -0.2916E-06  0.8917E+01  0.8917E+01
     21.824 -0.2412E-01 -0.4770E-02  0.8915E+01  0.8916E+01
     21.913  0.6660E+00  0.1966E+00  0.8974E+01  0.8934E+01
     22.001  0.3062E+00  0.7761E+00  0.9001E+01  0.9002E+01
     22.090 -0.8243E-02 -0.2795E-01  0.9000E+01  0.9000E+01
     22.179 -0.1228E-05 -0.6208E-04  0.9000E+01  0.9000E+01
     22.267 -0.2682E-12 -0.1348E-09  0.9000E+01  0.9000E+01
     22.356  0.0000E+00  0.0000E+00  0.9000E+01  0.9000E+01
     22.445  0.0000E+00  0.0000E+00  0.9000E+01  0.9000E+01
     22.533  0.0000E+00  0.0000E+00  0.9000E+01  0.9000E+01
     22.622  0.0000E+00  0.0000E+00  0.9000E+01  0.9000E+01
     22.711  0.0000E+00  0.0000E+00  0.9000E+01  0.9000E+01
     22.799  0.0000E+00  0.0000E+00  0.9000E+01  0.9000E+01
     22.888  0.0000E+00  0.0000E+00  0.9000E+01  0.9000E+01
     22.977  0.0000E+00  0.0000E+00  0.9000E+01  0.9000E+01
     23.065  0.0000E+00  0.0000E+00  0.9000E+01  0.9000E+01
     23.154  0.0000E+00  0.0000E+00  0.9000E+01  0.9000E+01
     23.15402962     -3.44548585  301      5.38790692      1.00000000
     -3.445  0.0000E+00  0.0000E+00  0.0000E+00  0.0000E+00  0.0000E+00  0.0000E+00  0.0000E+00  0.0000E+00  0.0000E+00  0.0000E+00  0.0000E+00  0.0000E+00  0.0000E+00  0.0000E+00  0.0000E+00  0.0000E+00  0.0000E+00  0.0000E+00
     -3.357  0.0000E+00  0.0000E+00  0.0000E+00  0.0000E+00  0.0000E+00  0.0000E+00  0.0000E+00  0.0000E+00  0.0000E+00  0.0000E+00  0.0000E+00  0.0000E+00  0.0000E+00  0.0000E+00  0.0000E+00  0.0000E+00  0.0000E+00  0.0000E+00
     -3.268  0.0000E+00  0.0000E+00  0.0000E+00  0.0000E+00  0.0000E+00  0.0000E+00  0.0000E+00  0.0000E+00  0.0000E+00  0.0000E+00  0.0000E+00  0.0000E+00  0.0000E+00  0.0000E+00  0.0000E+00  0.0000E+00  0.0000E+00  0.0000E+00
     -3.179  0.0000E+00  0.0000E+00  0.0000E+00  0.0000E+00  0.0000E+00  0.0000E+00  0.0000E+00  0.0000E+00  0.0000E+00  0.0000E+00  0.0000E+00  0.0000E+00  0.0000E+00  0.0000E+00  0.0000E+00  0.0000E+00  0.0000E+00  0.0000E+00
     -3.091  0.0000E+00  0.0000E+00  0.0000E+00  0.0000E+00  0.0000E+00  0.0000E+00  0.0000E+00  0.0000E+00  0.0000E+00  0.0000E+00  0.0000E+00  0.0000E+00  0.0000E+00  0.0000E+00  0.0000E+00  0.0000E+00  0.0000E+00  0.0000E+00
     -3.002  0.0000E+00  0.0000E+00  0.0000E+00  0.0000E+00  0.0000E+00  0.0000E+00  0.0000E+00  0.0000E+00  0.0000E+00  0.0000E+00  0.0000E+00  0.0000E+00  0.0000E+00  0.0000E+00  0.0000E+00  0.0000E+00  0.0000E+00  0.0000E+00
     -2.913  0.0000E+00  0.0000E+00  0.0000E+00  0.0000E+00  0.0000E+00  0.0000E+00  0.0000E+00  0.0000E+00  0.0000E+00  0.0000E+00  0.0000E+00  0.0000E+00  0.0000E+00  0.0000E+00  0.0000E+00  0.0000E+00  0.0000E+00  0.0000E+00
     -2.825  0.0000E+00  0.0000E+00  0.0000E+00  0.0000E+00  0.0000E+00  0.0000E+00  0.0000E+00  0.0000E+00  0.0000E+00  0.0000E+00  0.0000E+00  0.0000E+00  0.0000E+00  0.0000E+00  0.0000E+00  0.0000E+00  0.0000E+00  0.0000E+00
     -2.736  0.0000E+00  0.0000E+00  0.0000E+00  0.0000E+00  0.0000E+00  0.0000E+00  0.0000E+00  0.0000E+00  0.0000E+00  0.0000E+00  0.0000E+00  0.0000E+00  0.0000E+00  0.0000E+00  0.0000E+00  0.0000E+00  0.0000E+00  0.0000E+00
     -2.648 -0.8357E-30 -0.4837E-35 -0.6672E-32 -0.3864E-37 -0.6672E-32 -0.3864E-37 -0.6672E-32 -0.3864E-37 -0.2549E-33 -0.1475E-38 -0.2549E-33 -0.1475E-38 -0.1069E-43 -0.5441E-56 -0.2549E-33 -0.1475E-38 -0.2117E-44 -0.3557E-56
     -2.559 -0.1301E-18 -0.9477E-23 -0.1039E-20 -0.7572E-25 -0.1039E-20 -0.7572E-25 -0.1039E-20 -0.7572E-25 -0.3970E-22 -0.2890E-26 -0.3970E-22 -0.2890E-26 -0.1665E-32 -0.1066E-43 -0.3970E-22 -0.2890E-26 -0.3296E-33 -0.6971E-44
     -2.470 -0.3322E-10 -0.3126E-13 -0.2652E-12 -0.2497E-15 -0.2652E-12 -0.2497E-15 -0.2652E-12 -0.2497E-15 -0.1013E-13 -0.9533E-17 -0.1013E-13 -0.9533E-17 -0.4250E-24 -0.3516E-34 -0.1013E-13 -0.9533E-17 -0.8414E-25 -0.2299E-34
     -2.382 -0.1311E-04 -0.1693E-06 -0.1046E-06 -0.1352E-08 -0.1046E-06 -0.1352E-08 -0.1046E-06 -0.1352E-08 -0.3998E-08 -0.5162E-10 -0.3998E-08 -0.5162E-10 -0.1676E-18 -0.1904E-27 -0.3998E-08 -0.5162E-10 -0.3319E-19 -0.1245E-27
     -2.293 -0.2757E-02 -0.1070E-02 -0.2201E-04 -0.8545E-05 -0.2201E-04 -0.8545E-05 -0.2201E-04 -0.8545E-05 -0.8411E-06 -0.3262E-06 -0.8411E-06 -0.3262E-06 -0.3527E-16 -0.1203E-23 -0.8411E-06 -0.3262E-06 -0.6984E-17 -0.7867E-24
     -2.204  0.7967E-01  0.3763E-01  0.6360E-03  0.3006E-03  0.6360E-03  0.3006E-03  0.6360E-03  0.3006E-03  0.2430E-04  0.1147E-04  0.2430E-04  0.1147E-04  0.1019E-14  0.4233E-22  0.2430E-04  0.1147E-04  0.2018E-15  0.2767E-22
     -2.116  0.5121E-02  0.4676E-01  0.4088E-04  0.3735E-03  0.4088E-04  0.3735E-03  0.4088E-04  0.3735E-03  0.1562E-05  0.1426E-04  0.1562E-05  0.1426E-04  0.6550E-16  0.5260E-22  0.1562E-05  0.1426E-04  0.1297E-16  0.3439E-22
     -2.027 -0.1356E-03 -0.1481E-02 -0.1083E-05 -0.1183E-04 -0.1083E-05 -0.1183E-04 -0.1083E-05 -0.1183E-04 -0.4137E-07 -0.4517E-06 -0.4137E-07 -0.4517E-06 -0.1735E-17 -0.1666E-23 -0.4137E-07 -0.4517E-06 -0.3435E-18 -0.1089E-23
     -1.938 -0.2145E-08 -0.3975E-06 -0.1712E-10 -0.3175E-08 -0.1712E-10 -0.3175E-08 -0.1712E-10 -0.3175E-08 -0.6543E-12 -0.1212E-09 -0.6543E-12 -0.1212E-09 -0.2744E-22 -0.4472E-27 -0.6543E-12 -0.1212E-09 -0.5442E-23 -0.2925E-27
     -1.850 -0.1812E-13 -0.1167E-12 -0.1362E-15 -0.9321E-15 -0.1362E-15 -0.9321E-15 -0.1317E-14 -0.9325E-15 -0.4945E-16 -0.3560E-16 -0.8925E-17 -0.3558E-16 -0.1717E-16 -0.4975E-20 -0.4945E-16 -0.3560E-16 -0.5151E-16 -0.1493E-19
     -1.761 -0.1685E-06 -0.6194E-09 -0.1266E-08 -0.4657E-11 -0.1266E-08 -0.4657E-11 -0.1228E-07 -0.4516E-10 -0.4612E-09 -0.1695E-11 -0.8312E-10 -0.3054E-12 -0.1602E-09 -0.5895E-12 -0.4612E-09 -0.1695E-11 -0.4806E-09 -0.1769E-11
     -1.672 -0.1951E-02 -0.1103E-03 -0.1466E-04 -0.8297E-06 -0.1466E-04 -0.8297E-06 -0.1422E-03 -0.8046E-05 -0.5338E-05 -0.3019E-06 -0.9621E-06 -0.5441E-07 -0.1854E-05 -0.1050E-06 -0.5338E-05 -0.3019E-06 -0.5563E-05 -0.3151E-06
     -1.584  0.7759E-01 -0.3196E-02  0.5829E-03 -0.2403E-04  0.5829E-03 -0.2403E-04  0.5654E-02 -0.2330E-03  0.2123E-03 -0.8745E-05  0.3826E-04 -0.1576E-05  0.7375E-04 -0.3042E-05  0.2123E-03 -0.8745E-05  0.2212E-03 -0.9126E-05
     -1.495  0.1627E+00  0.2365E+00  0.1223E-02  0.1778E-02  0.1223E-02  0.1778E-02  0.1186E-01  0.1724E-01  0.4453E-03  0.6470E-03  0.8025E-04  0.1166E-03  0.1547E-03  0.2251E-03  0.4453E-03  0.6470E-03  0.4640E-03  0.6752E-03
     -1.406 -0.5776E-02 -0.5705E-03 -0.4339E-04 -0.4290E-05 -0.4339E-04 -0.4290E-05 -0.4209E-03 -0.4160E-04 -0.1580E-04 -0.1561E-05 -0.2848E-05 -0.2813E-06 -0.5490E-05 -0.5430E-06 -0.1580E-04 -0.1561E-05 -0.1647E-04 -0.1629E-05
     -1.318 -0.2957E-05 -0.1479E-03 -0.2222E-07 -0.1112E-05 -0.2222E-07 -0.1112E-05 -0.2155E-06 -0.1079E-04 -0.8093E-08 -0.4047E-06 -0.1458E-08 -0.7294E-07 -0.2811E-08 -0.1408E-06 -0.8093E-08 -0.4047E-06 -0.8433E-08 -0.4224E-06
     -1.229 -0.2882E-11 -0.1044E-08 -0.1062E-12 -0.7852E-11 -0.1062E-12 -0.7852E-11 -0.1181E-12 -0.7614E-10 -0.1037E-13 -0.2857E-11 -0.3531E-13 -0.5149E-12 -0.2370E-14 -0.9939E-12 -0.1037E-13 -0.2857E-11 -0.7111E-14 -0.2982E-11
     -1.140 -0.2748E-05 -0.1900E-07 -0.1889E-06 -0.1307E-08 -0.1889E-06 -0.1307E-08 -0.1726E-07 -0.1195E-09 -0.1246E-07 -0.8617E-10 -0.6876E-07 -0.4754E-09 -0.1877E-08 -0.1300E-10 -0.1246E-07 -0.8617E-10 -0.5630E-08 -0.3901E-10
     -1.052 -0.5428E-02 -0.6724E-03 -0.3731E-03 -0.4625E-04 -0.3731E-03 -0.4625E-04 -0.3410E-04 -0.4229E-05 -0.2462E-04 -0.3050E-05 -0.1358E-03 -0.1683E-04 -0.3707E-05 -0.4602E-06 -0.2462E-04 -0.3050E-05 -0.1112E-04 -0.1381E-05
     -0.963  0.1532E+00  0.2983E-01  0.1053E-01  0.2052E-02  0.1053E-01  0.2052E-02  0.9625E-03  0.1876E-03  0.6949E-03  0.1353E-03  0.3833E-02  0.7463E-03  0.1046E-03  0.2041E-04  0.6949E-03  0.1353E-03  0.3139E-03  0.6123E-04
     -0.874  0.7372E-01  0.1980E+00  0.5067E-02  0.1362E-01  0.5067E-02  0.1362E-01  0.4632E-03  0.1245E-02  0.3344E-03  0.8982E-03  0.1845E-02  0.4955E-02  0.5036E-04  0.1355E-03  0.3344E-03  0.8982E-03  0.1511E-03  0.4065E-03
     -0.786 -0.1857E-02 -0.7676E-02 -0.1277E-03 -0.5280E-03 -0.1277E-03 -0.5280E-03 -0.1167E-04 -0.4827E-04 -0.8425E-05 -0.3482E-04 -0.4647E-04 -0.1921E-03 -0.1269E-05 -0.5253E-05 -0.8425E-05 -0.3482E-04 -0.3806E-05 -0.1576E-04
     -0.697 -0.1678E-06 -0.1529E-04 -0.1146E-07 -0.1052E-05 -0.1146E-07 -0.1052E-05 -0.1340E-08 -0.9616E-07 -0.9661E-09 -0.6935E-07 -0.4288E-08 -0.3826E-06 -0.1107E-09 -0.1046E-07 -0.9661E-09 -0.6935E-07 -0.3322E-09 -0.3139E-07
     -0.608 -0.2045E-03 -0.7179E-05 -0.1165E-04 -0.4093E-06 -0.1165E-04 -0.4093E-06 -0.1165E-04 -0.4093E-06 -0.8350E-05 -0.2931E-06 -0.8350E-05 -0.2931E-06 -0.3689E-10 -0.6942E-13 -0.8350E-05 -0.2931E-06 -0.3588E-16 -0.4545E-13
     -0.520  0.8944E-02 -0.2411E-02  0.5151E-03 -0.1373E-03  0.4927E-03 -0.1378E-03  0.5151E-03 -0.1373E-03  0.3697E-03 -0.9834E-04  0.3690E-03 -0.9836E-04 -0.5815E-05 -0.1159E-06  0.3690E-03 -0.9836E-04 -0.9504E-19 -0.1219E-24
     -0.431  0.6019E-01  0.5935E-01  0.3510E-02  0.3626E-02  0.3185E-02  0.2666E-02  0.3510E-02  0.3626E-02  0.2523E-02  0.2614E-02  0.2513E-02  0.2586E-02 -0.8462E-04 -0.2495E-03  0.2513E-02  0.2586E-02 -0.1405E-17  0.1787E-23
     -0.342  0.2043E+00  0.1449E+00  0.1304E-02  0.1342E-02  0.4230E-01  0.2878E-01  0.1304E-02  0.1342E-02  0.1768E-03  0.4543E-03  0.1393E-02  0.1268E-02  0.1065E-01  0.7136E-02  0.1393E-02  0.1268E-02  0.1794E-15  0.4161E-22
     -0.254 -0.1801E-02  0.7116E-01 -0.1279E-04  0.4886E-03 -0.3690E-03  0.1464E-01 -0.1279E-04  0.4886E-03 -0.2586E-05  0.8835E-04 -0.1315E-04  0.5081E-03 -0.9256E-04  0.3681E-02 -0.1315E-04  0.5081E-03 -0.1559E-17  0.2129E-22
     -0.165 -0.1106E-03 -0.1824E-02 -0.7709E-06 -0.1272E-04 -0.2271E-04 -0.3747E-03 -0.7709E-06 -0.1272E-04 -0.1469E-06 -0.2422E-05 -0.7979E-06 -0.1316E-04 -0.5702E-05 -0.9414E-04 -0.7979E-06 -0.1316E-04 -0.6070E-15 -0.1908E-18
     -0.076 -0.2996E-06 -0.1733E-06 -0.1890E-07 -0.1274E-08 -0.1365E-08 -0.3536E-07 -0.5881E-07 -0.1431E-08 -0.2087E-07 -0.3101E-09 -0.3614E-08 -0.1255E-08 -0.3913E-08 -0.8898E-08 -0.3763E-08 -0.1256E-08 -0.5446E-08 -0.2133E-10
      0.012 -0.3314E-02 -0.1959E-03 -0.2095E-03 -0.1240E-04 -0.1356E-04 -0.8033E-06 -0.6520E-03 -0.3858E-04 -0.2313E-03 -0.1368E-04 -0.4001E-04 -0.2365E-05 -0.4299E-04 -0.2548E-05 -0.4167E-04 -0.2464E-05 -0.6038E-04 -0.3576E-05
      0.101  0.1307E+00 -0.4212E-02  0.8265E-02 -0.2666E-03  0.5349E-03 -0.1727E-04  0.2572E-01 -0.8294E-03  0.9126E-02 -0.2941E-03  0.1578E-02 -0.5085E-04  0.1696E-02 -0.5477E-04  0.1644E-02 -0.5296E-04  0.2382E-02 -0.7687E-04
      0.190  0.2638E+00  0.3884E+00  0.1668E-01  0.2458E-01  0.1079E-02  0.1592E-02  0.5190E-01  0.7648E-01  0.1842E-01  0.2712E-01  0.3185E-02  0.4689E-02  0.3422E-02  0.5051E-02  0.3317E-02  0.4884E-02  0.4806E-02  0.7089E-02
      0.278 -0.1111E-01 -0.2304E-02 -0.6533E-03 -0.1427E-03 -0.1038E-03 -0.1318E-04 -0.2119E-02 -0.4495E-03 -0.8508E-03 -0.1657E-03 -0.2916E-03 -0.3789E-04 -0.1275E-03 -0.2890E-04 -0.3188E-03 -0.4043E-04 -0.1901E-03 -0.4127E-04
      0.367  0.6822E-01 -0.2963E-03  0.2473E-02 -0.1683E-04  0.2473E-02 -0.3516E-05  0.1093E-01 -0.5573E-04  0.7596E-02 -0.2366E-04  0.6750E-02 -0.9784E-05  0.2603E-03 -0.3197E-05  0.7596E-02 -0.1078E-04  0.7810E-03 -0.4924E-05
      0.456  0.1116E+00  0.1770E+00  0.4046E-02  0.6428E-02  0.4046E-02  0.6428E-02  0.1788E-01  0.2839E-01  0.1243E-01  0.1972E-01  0.1104E-01  0.1752E-01  0.4259E-03  0.6771E-03  0.1243E-01  0.1972E-01  0.1278E-02  0.2031E-02
      0.544 -0.3767E-02 -0.2658E-02 -0.1366E-03 -0.9650E-04 -0.1366E-03 -0.9650E-04 -0.6034E-03 -0.4262E-03 -0.4194E-03 -0.2960E-03 -0.3727E-03 -0.2630E-03 -0.1438E-04 -0.1017E-04 -0.4194E-03 -0.2960E-03 -0.4313E-04 -0.3050E-04
      0.633 -0.1419E-05 -0.7888E-04 -0.5145E-07 -0.2864E-05 -0.5145E-07 -0.2864E-05 -0.2274E-06 -0.1265E-04 -0.1580E-06 -0.8785E-05 -0.1404E-06 -0.7806E-05 -0.5417E-08 -0.3017E-06 -0.1580E-06 -0.8785E-05 -0.1625E-07 -0.9051E-06
      0.722 -0.1083E-04 -0.1091E-06 -0.1030E-05 -0.1057E-07 -0.1154E-05 -0.1125E-07 -0.6429E-07 -0.6973E-09 -0.2453E-05 -0.2485E-07 -0.3141E-05 -0.3189E-07 -0.1516E-06 -0.8961E-09 -0.2455E-05 -0.2486E-07 -0.3363E-07 -0.3512E-09
      0.810 -0.7723E-02 -0.1438E-02 -0.5327E-03 -0.1234E-03 -0.1262E-02 -0.1838E-03 -0.6031E-04 -0.9493E-05 -0.1470E-02 -0.3060E-03 -0.1815E-02 -0.3876E-03 -0.8329E-03 -0.6993E-04 -0.1480E-02 -0.3068E-03 -0.1644E-04 -0.3975E-05
      0.899  0.2200E+00  0.5456E-01  0.1372E-01  0.4856E-02  0.3901E-01  0.6495E-02  0.1807E-02  0.3516E-03  0.3999E-01  0.1198E-01  0.4870E-01  0.1519E-01  0.2882E-01  0.1915E-02  0.4033E-01  0.1200E-01  0.4070E-03  0.1567E-03
      0.988  0.1807E+00  0.2853E+00  0.1393E-01  0.1196E-01  0.4358E-01  0.6518E-01  0.1259E-02  0.2691E-02  0.1565E-01  0.4151E-01  0.2861E-01  0.4874E-01  0.3389E-01  0.6056E-01  0.1604E-01  0.4222E-01  0.7415E-03  0.3194E-03