    1    1    1    2
  0.1946362E+02  0.3019346E-09  0.3019346E-09  0.3019346E-09  0.5000000E-15
  1.000000000000000E-004
  CAR 
 unknown system                          
    5   28    9
 
  0.8333333E-01  0.8333333E-01  0.8333333E-01  0.9259259E-02
   1       -2.236417     -2.201021
   2        5.694326      5.728806
   3        6.042055      6.076480
   4        6.042055      6.076480
   5        8.651272      8.682557
   6        8.651272      8.682557
   7       18.379875     18.412984
   8       18.856988     18.873338
   9       21.291354     21.323858
 
  0.2500000E+00  0.8333333E-01  0.8333333E-01  0.2777778E-01
   1       -0.973323     -0.938129
   2        4.880368      4.914734
   3        6.299015      6.332855
   4        6.541156      6.575159
   5        7.924707      7.956570
   6        9.116246      9.147411
   7       18.850954     18.867661
   8       19.111556     19.141811
   9       20.797596     20.829371
 
  0.4166667E+00  0.8333333E-01  0.8333333E-01  0.2777778E-01
   1        0.874118      0.909584
   2        4.887235      4.920216
   3        5.715287      5.748848
   4        6.125645      6.158955
   5        9.408993      9.440292
   6       10.799267     10.829197
   7       16.408228     16.438770
   8       18.858357     18.874856
   9       19.354653     19.386636
 
 -0.4166667E+00  0.8333333E-01  0.8333333E-01  0.2777778E-01
   1        1.229630      1.265369
   2        5.182457      5.214867
   3        5.924272      5.957616
   4        5.938274      5.971413
   5       11.012580     11.041924
   6       11.177489     11.207197
   7       14.826970     14.858632
   8       18.014802     18.046247
   9       18.862362     18.878746
 
 -0.2500000E+00  0.8333333E-01  0.8333333E-01  0.2777778E-01
   1        0.374214      0.409453
   2        4.574611      4.608298
   3        5.901132      5.934522
   4        6.384842      6.418363
   5        8.998738      9.030591
   6        9.940552      9.971075
   7       17.299966     17.330201
   8       18.861481     18.877881
   9       20.636242     20.667744
 
 -0.8333333E-01  0.8333333E-01  0.8333333E-01  0.2777778E-01
   1       -1.572933     -1.537672
   2        5.124916      5.159417
   3        6.362219      6.396358
   4        6.397442      6.431624
   5        7.915154      7.946983
   6        8.963242      8.994275
   7       18.857080     18.873432
   8       19.615752     19.648502
   9       20.470130     20.500664
 
  0.2500000E+00  0.2500000E+00  0.8333333E-01  0.2777778E-01
   1       -0.386643     -0.351701
   2        4.251388      4.285937
   3        6.330374      6.363318
   4        7.096403      7.130078
   5        7.609522      7.642644
   6        9.533850      9.564392
   7       18.856828     18.873175
   8       20.250163     20.279592
   9       21.913221     21.944961
 
  0.4166667E+00  0.2500000E+00  0.8333333E-01  0.5555556E-01
   1        1.358810      1.393226
   2        3.712857      3.747123
   3        5.151277      5.184682
   4        7.663123      7.695809
   5        8.970320      9.002631
   6       11.077425     11.107255
   7       17.975661     18.007895
   8       18.867866     18.884426
   9       21.199070     21.232060
 
 -0.4166667E+00  0.2500000E+00  0.8333333E-01  0.5555556E-01
   1        2.395961      2.431072
   2        3.863367      3.895404
   3        5.183337      5.217232
   4        7.090380      7.122983
   5       10.607397     10.637966
   6       12.904010     12.934633
   7       14.044287     14.077162
   8       18.861167     18.877541
   9       20.169226     20.198660
 
 -0.2500000E+00  0.2500000E+00  0.8333333E-01  0.5555556E-01
   1        2.060472      2.095248
   2        4.190445      4.223845
   3        4.624070      4.657554
   4        7.222502      7.254889
   5        8.987881      9.020057
   6       12.144213     12.173865
   7       16.641204     16.674463
   8       18.864113     18.880523
   9       20.551768     20.470424
 
 -0.8333333E-01  0.2500000E+00  0.8333333E-01  0.5555556E-01
   1        0.111168      0.146161
   2        4.333940      4.368247
   3        5.886325      5.919551
   4        6.947615      6.980942
   5        7.935719      7.968254
   6       10.006488     10.037076
   7       18.760280     18.785797
   8       18.897463     18.918104
   9       21.895100     21.926542
 
  0.4166667E+00  0.4166667E+00  0.8333333E-01  0.2777778E-01
   1        1.488528      1.521829
   2        2.784890      2.819511
   3        6.210723      6.244811
   4        9.346178      9.377815
   5       10.352637     10.384451
   6       10.950807     10.980131
   7       17.435170     17.469720
   8       18.827912     18.862804
   9       18.858660     18.875114
 
 -0.4166667E+00  0.4166667E+00  0.8333333E-01  0.5555556E-01
   1        1.984237      2.017000
   2        2.910573      2.944932
   3        6.236418      6.270287
   4        9.154228      9.185517
   5       11.254647     11.284614
   6       13.331182     13.361865
   7       14.384712     14.420033
   8       17.312664     17.347427
   9       18.856317     18.872900
 
 -0.2500000E+00  0.4166667E+00  0.8333333E-01  0.5555556E-01
   1        3.007882      3.042105
   2        3.475998      3.508496
   3        4.944986      4.978867
   4        7.732065      7.764148
   5       10.265313     10.296469
   6       12.537511     12.571716
   7       15.656390     15.686993
   8       18.403192     18.433464
   9       18.867787     18.884408
 
 -0.8333333E-01  0.4166667E+00  0.8333333E-01  0.5555556E-01
   1        1.576860      1.612293
   2        4.623315      4.655453
   3        5.356841      5.390786
   4        6.422245      6.455333
   5       10.180796     10.211542
   6       11.747336     11.776827
   7       15.343852     15.375931
   8       18.862036     18.878439
   9       19.262183     19.293319
 
 -0.4166667E+00 -0.4166667E+00  0.8333333E-01  0.2777778E-01
   1        1.448404      1.481328
   2        2.455475      2.490118
   3        7.434992      7.469165
   4       10.379584     10.409431
   5       11.451019     11.480345
   6       11.948778     11.979040
   7       15.373299     15.409474
   8       17.052422     17.088684
   9       18.158060     18.221313
 
 -0.2500000E+00 -0.4166667E+00  0.8333333E-01  0.5555556E-01
   1        2.023248      2.056545
   2        3.190076      3.224337
   3        5.294107      5.328196
   4        8.594456      8.626295
   5       10.342560     10.373757
   6       12.080817     12.110764
   7       15.974355     16.008925
   8       18.855719     18.872792
   9       18.974848     19.008623
 
 -0.2500000E+00 -0.2500000E+00  0.8333333E-01  0.2777778E-01
   1        0.901418      0.935670
   2        3.411367      3.445953
   3        5.699342      5.732685
   4        8.114762      8.147645
   5        8.748521      8.781299
   6       10.244171     10.274047
   7       18.853479     18.869861
   8       19.813418     19.845385
   9       21.265276     21.298952
 
  0.2500000E+00  0.2500000E+00  0.2500000E+00  0.9259259E-02
   1       -0.494515     -0.459273
   2        4.800263      4.834278
   3        6.303561      6.337316
   4        6.303561      6.337316
   5        8.817518      8.848986
   6        8.817518      8.848986
   7       17.780062     17.810741
   8       18.861170     18.877571
   9       21.200849     21.231597
 
  0.4166667E+00  0.2500000E+00  0.2500000E+00  0.2777778E-01
   1        0.996175      1.031194
   2        4.367139      4.401156
   3        5.391134      5.424276
   4        6.837874      6.870547
   5        8.126005      8.158618
   6       11.151198     11.181126
   7       17.842800     17.873575
   8       18.866011     18.882503
   9       20.987607     21.020590
 
 -0.4166667E+00  0.2500000E+00  0.2500000E+00  0.2777778E-01
   1        2.668464      2.703577
   2        3.957645      3.989629
   3        4.769734      4.803655
   4        7.248178      7.280368
   5        9.436699      9.468403
   6       12.288014     12.320020
   7       16.206383     16.237776
   8       18.860913     18.877339
   9       19.244199     19.274848
 
 -0.2500000E+00  0.2500000E+00  0.2500000E+00  0.2777778E-01
   1        2.185246      2.219515
   2        3.538257      3.571235
   3        5.206132      5.240281
   4        7.652056      7.684457
   5       11.179156     11.208408
   6       12.123894     12.155577
   7       14.535635     14.569153
   8       18.860552     18.876927
   9       20.382541     20.390426
 
  0.4166667E+00  0.4166667E+00  0.2500000E+00  0.2777778E-01
   1        1.418082      1.453075
   2        4.126684      4.159835
   3        5.231998      5.265737
   4        6.846175      6.879273
   5       10.204206     10.235853
   6       10.886915     10.916389
   7       16.465146     16.496866
   8       18.862997     18.879397
   9       20.089239     20.120193
 
 -0.4166667E+00  0.4166667E+00  0.2500000E+00  0.5555556E-01
   1        2.876355      2.909725
   2        3.705153      3.738619
   3        4.410277      4.444540
   4        7.838572      7.870636
   5       10.151517     10.182885
   6       12.795328     12.826905
   7       15.569366     15.602194
   8       18.678006     18.710136
   9       18.868154     18.885174
 
 -0.2500000E+00  0.4166667E+00  0.2500000E+00  0.5555556E-01
   1        2.784603      2.816786
   2        3.693782      3.727948
   3        4.868757      4.902771
   4        7.787569      7.820288
   5       11.168731     11.198972
   6       13.997675     14.031107
   7       14.751395     14.784129
   8       17.054356     17.087544
   9       18.863598     18.880014
 
 -0.4166667E+00 -0.4166667E+00  0.2500000E+00  0.2777778E-01
   1        2.344087      2.377498
   2        3.246117      3.279605
   3        5.731969      5.765813
   4        8.531838      8.563283
   5       10.767625     10.797853
   6       12.664931     12.700942
   7       14.673058     14.703281
   8       18.630276     18.657867
   9       18.884042     18.901730
 
  0.4166667E+00  0.4166667E+00  0.4166667E+00  0.9259259E-02
   1        0.897780      0.933542
   2        5.578153      5.610540
   3        5.808374      5.841862
   4        5.808374      5.841862
   5       10.569443     10.599360
   6       10.569443     10.599360
   7       15.527439     15.558184
   8       18.042954     18.074710
   9       18.864985     18.881419
 
 -0.4166667E+00  0.4166667E+00  0.4166667E+00  0.2777778E-01
   1        1.890470      1.925957
   2        4.427379      4.459423
   3        5.531540      5.565131
   4        6.483244      6.516202
   5       10.424983     10.455235
   6       12.224379     12.254761
   7       14.588064     14.620067
   8       18.861586     18.877962
   9       19.433352     19.463693
