       N       E                     dE             d eps       ncg     rms          rms(c)
DAV:   1     0.285465787434E+01    0.28547E+01   -0.13570E+03  1205   0.215E+02
DAV:   2    -0.155531484052E+01   -0.44100E+01   -0.37270E+01  1195   0.325E+01
DAV:   3    -0.162082422222E+01   -0.65509E-01   -0.65109E-01  1296   0.329E+00
DAV:   4    -0.162088412041E+01   -0.59898E-04   -0.59894E-04  1308   0.907E-02
DAV:   5    -0.162088418614E+01   -0.65728E-07   -0.66524E-07  1202   0.241E-03    0.605E+00
DAV:   6    -0.109780753976E+02   -0.93572E+01   -0.23561E+00  1063   0.401E+00    0.502E+00
DAV:   7    -0.109515981892E+02    0.26477E-01   -0.20865E-01  1187   0.209E+00    0.693E+00
DAV:   8    -0.111158733826E+02   -0.16428E+00   -0.47713E-01  1082   0.372E+00    0.404E+00
DAV:   9    -0.114945019587E+02   -0.37863E+00   -0.35860E-01  1114   0.319E+00    0.160E+00
DAV:  10    -0.115090509318E+02   -0.14549E-01   -0.92855E-03  1421   0.281E-01    0.152E+00
DAV:  11    -0.115053243001E+02    0.37266E-02   -0.15791E-03  1141   0.182E-01    0.150E+00
DAV:  12    -0.115838272878E+02   -0.78503E-01   -0.20676E-02  1136   0.746E-01    0.998E-01
DAV:  13    -0.116152589561E+02   -0.31432E-01   -0.13188E-02  1152   0.581E-01    0.959E-02
DAV:  14    -0.116145448716E+02    0.71408E-03   -0.10107E-04   956   0.510E-02    0.170E-01
DAV:  15    -0.116152195958E+02   -0.67472E-03   -0.12846E-03  1071   0.157E-01    0.704E-02
DAV:  16    -0.116148220313E+02    0.39756E-03   -0.47061E-04  1032   0.103E-01    0.113E-01
DAV:  17    -0.116152972661E+02   -0.47523E-03   -0.24017E-04   967   0.755E-02    0.537E-02
DAV:  18    -0.116153573831E+02   -0.60117E-04   -0.58618E-06   518   0.130E-02
   1 F= -.11615357E+02 E0= -.11615229E+02  d E =-.383807E-03  mag=     0.0289
