PROCAR lm decomposed
# of k-points:   28         # of bands:   9         # of ions:   1

 k-point    1 :    0.08333333 0.08333333 0.08333333     weight = 0.00925926

band   1 # energy   -2.23641697 # occ.  1.00000000
 
ion      s     py     pz     px    dxy    dyz    dz2    dxz    dx2    tot
  1  0.784  0.006  0.006  0.006  0.000  0.000  0.000  0.000  0.000  0.804
 
band   2 # energy    5.69432586 # occ.  0.00000000
 
ion      s     py     pz     px    dxy    dyz    dz2    dxz    dx2    tot
  1  0.000  0.003  0.003  0.003  0.323  0.323  0.000  0.323  0.000  0.978
 
band   3 # energy    6.04205471 # occ.  0.00000000
 
ion      s     py     pz     px    dxy    dyz    dz2    dxz    dx2    tot
  1  0.000  0.000  0.001  0.001  0.521  0.394  0.003  0.067  0.001  0.987
 
band   4 # energy    6.04205471 # occ.  0.00000000
 
ion      s     py     pz     px    dxy    dyz    dz2    dxz    dx2    tot
  1  0.000  0.001  0.000  0.001  0.133  0.260  0.001  0.588  0.003  0.987
 
band   5 # energy    8.65127182 # occ.  0.00000000
 
ion      s     py     pz     px    dxy    dyz    dz2    dxz    dx2    tot
  1  0.000  0.000  0.000  0.000  0.001  0.002  0.322  0.001  0.643  0.968
 
band   6 # energy    8.65127182 # occ.  0.00000000
 
ion      s     py     pz     px    dxy    dyz    dz2    dxz    dx2    tot
  1  0.000  0.000  0.000  0.000  0.002  0.000  0.643  0.002  0.322  0.968
 
band   7 # energy   18.37987543 # occ.  0.00000000
 
ion      s     py     pz     px    dxy    dyz    dz2    dxz    dx2    tot
  1  0.000  0.000  0.000  0.000  0.008  0.008  0.000  0.008  0.000  0.026
 
band   8 # energy   18.85698802 # occ.  0.00000000
 
ion      s     py     pz     px    dxy    dyz    dz2    dxz    dx2    tot
  1 43.803  0.000  0.000  0.000  0.000  0.000  0.000  0.000  0.000 43.803
 
band   9 # energy   21.29135429 # occ.  0.00000000
 
ion      s     py     pz     px    dxy    dyz    dz2    dxz    dx2    tot
  1  0.064  0.035  0.035  0.035  0.005  0.005  0.000  0.005  0.000  0.184
 

 k-point    2 :    0.25000000 0.08333333 0.08333333     weight = 0.02777778

band   1 # energy   -0.97332275 # occ.  1.00000000
 
ion      s     py     pz     px    dxy    dyz    dz2    dxz    dx2    tot
  1  0.701  0.048  0.048  0.004  0.003  0.018  0.000  0.003  0.001  0.828
 
band   2 # energy    4.88036833 # occ.  1.00000000
 
ion      s     py     pz     px    dxy    dyz    dz2    dxz    dx2    tot
  1  0.001  0.007  0.007  0.042  0.428  0.037  0.000  0.428  0.000  0.949
 
band   3 # energy    6.29901471 # occ.  0.00000000
 
ion      s     py     pz     px    dxy    dyz    dz2    dxz    dx2    tot
  1  0.000  0.014  0.014  0.001  0.020  0.696  0.049  0.020  0.146  0.959
 
band   4 # energy    6.54115553 # occ.  0.00000000
 
ion      s     py     pz     px    dxy    dyz    dz2    dxz    dx2    tot
  1  0.000  0.000  0.000  0.000  0.439  0.000  0.066  0.439  0.022  0.967
 
band   5 # energy    7.92470711 # occ.  0.00000000
 
ion      s     py     pz     px    dxy    dyz    dz2    dxz    dx2    tot
  1  0.000  0.001  0.001  0.000  0.044  0.000  0.637  0.044  0.212  0.940
 
band   6 # energy    9.11624624 # occ.  0.00000000
 
ion      s     py     pz     px    dxy    dyz    dz2    dxz    dx2    tot
  1  0.004  0.005  0.005  0.000  0.004  0.182  0.187  0.004  0.562  0.952
 
band   7 # energy   18.85095352 # occ.  0.00000000
 
ion      s     py     pz     px    dxy    dyz    dz2    dxz    dx2    tot
  1 41.988  0.001  0.001  0.000  0.000  0.001  0.000  0.000  0.001 41.993
 
band   8 # energy   19.11155602 # occ.  0.00000000
 
ion      s     py     pz     px    dxy    dyz    dz2    dxz    dx2    tot
  1  1.891  0.029  0.029  0.013  0.000  0.031  0.006  0.000  0.019  2.019
 
band   9 # energy   20.79759624 # occ.  0.00000000
 
ion      s     py     pz     px    dxy    dyz    dz2    dxz    dx2    tot
  1  0.036  0.010  0.010  0.004  0.075  0.029  0.001  0.075  0.003  0.243
 

 k-point    3 :    0.41666667 0.08333333 0.08333333     weight = 0.02777778

band   1 # energy    0.87411765 # occ.  1.00000000
 
ion      s     py     pz     px    dxy    dyz    dz2    dxz    dx2    tot
  1  0.460  0.046  0.046  0.003  0.106  0.137  0.000  0.106  0.001  0.905
 
band   2 # energy    4.88723493 # occ.  1.00000000
 
ion      s     py     pz     px    dxy    dyz    dz2    dxz    dx2    tot
  1  0.031  0.120  0.120  0.147  0.179  0.045  0.011  0.179  0.033  0.863
 
band   3 # energy    5.71528697 # occ.  0.00000000
 
ion      s     py     pz     px    dxy    dyz    dz2    dxz    dx2    tot
  1  0.003  0.001  0.001  0.011  0.087  0.295  0.117  0.087  0.351  0.953
 
band   4 # energy    6.12564519 # occ.  0.00000000
 
ion      s     py     pz     px    dxy    dyz    dz2    dxz    dx2    tot
  1  0.000  0.000  0.000  0.000  0.194  0.000  0.427  0.194  0.142  0.958
 
band   5 # energy    9.40899304 # occ.  0.00000000
 
ion      s     py     pz     px    dxy    dyz    dz2    dxz    dx2    tot
  1  0.000  0.006  0.006  0.000  0.282  0.000  0.270  0.282  0.090  0.935
 
band   6 # energy   10.79926676 # occ.  0.00000000
 
ion      s     py     pz     px    dxy    dyz    dz2    dxz    dx2    tot
  1  0.011  0.020  0.020  0.001  0.031  0.416  0.107  0.031  0.321  0.958
 
band   7 # energy   16.40822773 # occ.  0.00000000
 
ion      s     py     pz     px    dxy    dyz    dz2    dxz    dx2    tot
  1  0.210  0.041  0.041  0.034  0.060  0.114  0.004  0.060  0.013  0.576
 
band   8 # energy   18.85835704 # occ.  0.00000000
 
ion      s     py     pz     px    dxy    dyz    dz2    dxz    dx2    tot
  1 43.252  0.000  0.000  0.000  0.000  0.000  0.000  0.000  0.000 43.253
 
band   9 # energy   19.35465283 # occ.  0.00000000
 
ion      s     py     pz     px    dxy    dyz    dz2    dxz    dx2    tot
  1  0.804  0.059  0.059  0.032  0.067  0.023  0.002  0.067  0.005  1.120
 

 k-point    4 :   -0.41666667 0.08333333 0.08333333     weight = 0.02777778

band   1 # energy    1.22963001 # occ.  1.00000000
 
ion      s     py     pz     px    dxy    dyz    dz2    dxz    dx2    tot
  1  0.334  0.000  0.000  0.019  0.186  0.216  0.000  0.186  0.001  0.943
 
band   2 # energy    5.18245669 # occ.  1.00000005
 
ion      s     py     pz     px    dxy    dyz    dz2    dxz    dx2    tot
  1  0.001  0.083  0.083  0.046  0.040  0.054  0.133  0.040  0.398  0.877
 
band   3 # energy    5.92427192 # occ.  0.00000000
 
ion      s     py     pz     px    dxy    dyz    dz2    dxz    dx2    tot
  1  0.000  0.003  0.003  0.000  0.187  0.000  0.439  0.187  0.146  0.966
 
band   4 # energy    5.93827376 # occ.  0.00000000
 
ion      s     py     pz     px    dxy    dyz    dz2    dxz    dx2    tot
  1  0.005  0.144  0.144  0.177  0.033  0.276  0.018  0.033  0.055  0.886
 
band   5 # energy   11.01257969 # occ.  0.00000000
 
ion      s     py     pz     px    dxy    dyz    dz2    dxz    dx2    tot
  1  0.000  0.000  0.000  0.000  0.300  0.000  0.273  0.300  0.091  0.965
 
band   6 # energy   11.17748851 # occ.  0.00000000
 
ion      s     py     pz     px    dxy    dyz    dz2    dxz    dx2    tot
  1  0.000  0.022  0.022  0.049  0.098  0.314  0.085  0.098  0.254  0.941
 
band   7 # energy   14.82696987 # occ.  0.00000000
 
ion      s     py     pz     px    dxy    dyz    dz2    dxz    dx2    tot
  1  0.475  0.003  0.003  0.004  0.165  0.128  0.000  0.165  0.000  0.945
 
band   8 # energy   18.01480180 # occ.  0.00000000
 
ion      s     py     pz     px    dxy    dyz    dz2    dxz    dx2    tot
  1  0.003  0.012  0.012  0.023  0.000  0.024  0.004  0.000  0.011  0.091
 
band   9 # energy   18.86236244 # occ.  0.00000000
 
ion      s     py     pz     px    dxy    dyz    dz2    dxz    dx2    tot
  1 43.980  0.000  0.000  0.000  0.000  0.000  0.000  0.000  0.000 43.981
 

 k-point    5 :   -0.25000000 0.08333333 0.08333333     weight = 0.02777778

band   1 # energy    0.37421355 # occ.  1.00000000
 
ion      s     py     pz     px    dxy    dyz    dz2    dxz    dx2    tot
  1  0.556  0.020  0.020  0.089  0.062  0.055  0.002  0.062  0.006  0.873
 
band   2 # energy    4.57461138 # occ.  1.00000000
 
ion      s     py     pz     px    dxy    dyz    dz2    dxz    dx2    tot
  1  0.018  0.081  0.081  0.053  0.102  0.452  0.004  0.102  0.013  0.907
 
band   3 # energy    5.90113207 # occ.  0.00000000
 
ion      s     py     pz     px    dxy    dyz    dz2    dxz    dx2    tot
  1  0.003  0.001  0.001  0.000  0.100  0.228  0.129  0.100  0.388  0.950
 
band   4 # energy    6.38484155 # occ.  0.00000000
 
ion      s     py     pz     px    dxy    dyz    dz2    dxz    dx2    tot
  1  0.000  0.008  0.008  0.000  0.273  0.000  0.298  0.273  0.099  0.959
 
band   5 # energy    8.99873765 # occ.  0.00000000
 
ion      s     py     pz     px    dxy    dyz    dz2    dxz    dx2    tot
  1  0.007  0.005  0.005  0.037  0.161  0.175  0.095  0.161  0.285  0.931
 
band   6 # energy    9.94055211 # occ.  0.00000000
 
ion      s     py     pz     px    dxy    dyz    dz2    dxz    dx2    tot
  1  0.000  0.005  0.005  0.000  0.195  0.000  0.414  0.195  0.138  0.952
 
band   7 # energy   17.29996642 # occ.  0.00000000
 
ion      s     py     pz     px    dxy    dyz    dz2    dxz    dx2    tot
  1  0.104  0.038  0.038  0.032  0.058  0.016  0.004  0.058  0.012  0.358
 
band   8 # energy   18.86148146 # occ.  0.00000000
 
ion      s     py     pz     px    dxy    dyz    dz2    dxz    dx2    tot
  1 43.777  0.000  0.000  0.000  0.000  0.000  0.000  0.000  0.000 43.777
 
band   9 # energy   20.63624184 # occ.  0.00000000
 
ion      s     py     pz     px    dxy    dyz    dz2    dxz    dx2    tot
  1  0.256  0.064  0.064  0.078  0.079  0.121  0.002  0.079  0.007  0.749
 

 k-point    6 :   -0.08333333 0.08333333 0.08333333     weight = 0.02777778

band   1 # energy   -1.57293323 # occ.  1.00000000
 
ion      s     py     pz     px    dxy    dyz    dz2    dxz    dx2    tot
  1  0.742  0.006  0.006  0.054  0.002  0.000  0.001  0.002  0.002  0.815
 
band   2 # energy    5.12491605 # occ.  1.00000000
 
ion      s     py     pz     px    dxy    dyz    dz2    dxz    dx2    tot
  1  0.000  0.007  0.007  0.001  0.059  0.827  0.000  0.059  0.000  0.960
 
band   3 # energy    6.36221867 # occ.  0.00000000
 
ion      s     py     pz     px    dxy    dyz    dz2    dxz    dx2    tot
  1  0.000  0.006  0.006  0.003  0.396  0.129  0.010  0.396  0.029  0.975
 
band   4 # energy    6.39744238 # occ.  0.00000000
 
ion      s     py     pz     px    dxy    dyz    dz2    dxz    dx2    tot
  1  0.000  0.009  0.009  0.000  0.462  0.000  0.023  0.462  0.008  0.973
 
band   5 # energy    7.91515403 # occ.  0.00000000
 
ion      s     py     pz     px    dxy    dyz    dz2    dxz    dx2    tot
  1  0.003  0.000  0.000  0.003  0.017  0.005  0.224  0.017  0.672  0.942
 
band   6 # energy    8.96324247 # occ.  0.00000000
 
ion      s     py     pz     px    dxy    dyz    dz2    dxz    dx2    tot
  1  0.000  0.000  0.000  0.000  0.014  0.000  0.702  0.014  0.234  0.966
 
band   7 # energy   18.85707970 # occ.  0.00000000
 
ion      s     py     pz     px    dxy    dyz    dz2    dxz    dx2    tot
  1 43.722  0.000  0.000  0.000  0.000  0.000  0.000  0.000  0.000 43.722
 
band   8 # energy   19.61575180 # occ.  0.00000000
 
ion      s     py     pz     px    dxy    dyz    dz2    dxz    dx2    tot
  1  0.024  0.002  0.002  0.002  0.002  0.056  0.001  0.002  0.002  0.093
 
band   9 # energy   20.47013034 # occ.  0.00000000
 
ion      s     py     pz     px    dxy    dyz    dz2    dxz    dx2    tot
  1  0.140  0.023  0.023  0.034  0.020  0.017  0.008  0.020  0.024  0.308
 

 k-point    7 :    0.25000000 0.25000000 0.08333333     weight = 0.02777778

band   1 # energy   -0.38664348 # occ.  1.00000000
 
ion      s     py     pz     px    dxy    dyz    dz2    dxz    dx2    tot
  1  0.648  0.005  0.133  0.005  0.001  0.005  0.033  0.005  0.000  0.834
 
band   2 # energy    4.25138800 # occ.  1.00000000
 
ion      s     py     pz     px    dxy    dyz    dz2    dxz    dx2    tot
  1  0.000  0.007  0.001  0.007  0.905  0.017  0.000  0.017  0.000  0.955
 
band   3 # energy    6.33037407 # occ.  0.00000000
 
ion      s     py     pz     px    dxy    dyz    dz2    dxz    dx2    tot
  1  0.013  0.006  0.007  0.006  0.017  0.124  0.628  0.124  0.000  0.926
 
band   4 # energy    7.09640333 # occ.  0.00000000
 
ion      s     py     pz     px    dxy    dyz    dz2    dxz    dx2    tot
  1  0.000  0.022  0.000  0.022  0.000  0.416  0.000  0.416  0.080  0.956
 
band   5 # energy    7.60952197 # occ.  0.00000000
 
ion      s     py     pz     px    dxy    dyz    dz2    dxz    dx2    tot
  1  0.009  0.016  0.020  0.016  0.029  0.304  0.245  0.304  0.000  0.944
 
band   6 # energy    9.53385037 # occ.  0.00000000
 
ion      s     py     pz     px    dxy    dyz    dz2    dxz    dx2    tot
  1  0.000  0.001  0.000  0.001  0.000  0.039  0.000  0.039  0.882  0.963
 
band   7 # energy   18.85682826 # occ.  0.00000000
 
ion      s     py     pz     px    dxy    dyz    dz2    dxz    dx2    tot
  1 43.629  0.000  0.000  0.000  0.000  0.000  0.000  0.000  0.000 43.629
 
band   8 # energy   20.25016252 # occ.  0.00000000
 
ion      s     py     pz     px    dxy    dyz    dz2    dxz    dx2    tot
  1  0.228  0.040  0.023  0.040  0.000  0.030  0.089  0.030  0.000  0.479
 
band   9 # energy   21.91322069 # occ.  0.00000000
 
ion      s     py     pz     px    dxy    dyz    dz2    dxz    dx2    tot
  1  0.009  0.009  0.003  0.009  0.181  0.019  0.000  0.019  0.000  0.249
 

 k-point    8 :    0.41666667 0.25000000 0.08333333     weight = 0.05555556

band   1 # energy    1.35881044 # occ.  1.00000000
 
ion      s     py     pz     px    dxy    dyz    dz2    dxz    dx2    tot
  1  0.441  0.031  0.170  0.001  0.023  0.051  0.135  0.010  0.000  0.861
 
band   2 # energy    3.71285744 # occ.  1.00000000
 
ion      s     py     pz     px    dxy    dyz    dz2    dxz    dx2    tot
  1  0.002  0.015  0.006  0.061  0.783  0.006  0.022  0.052  0.000  0.948
 
band   3 # energy    5.15127737 # occ.  1.00000000
 
ion      s     py     pz     px    dxy    dyz    dz2    dxz    dx2    tot
  1  0.044  0.015  0.037  0.000  0.036  0.232  0.508  0.008  0.033  0.912
 
band   4 # energy    7.66312332 # occ.  0.00000000
 
ion      s     py     pz     px    dxy    dyz    dz2    dxz    dx2    tot
  1  0.004  0.021  0.026  0.016  0.016  0.138  0.077  0.257  0.379  0.933
 
band   5 # energy    8.97031951 # occ.  0.00000000
 
ion      s     py     pz     px    dxy    dyz    dz2    dxz    dx2    tot
  1  0.007  0.011  0.044  0.038  0.067  0.040  0.098  0.515  0.106  0.925
 
band   6 # energy   11.07742468 # occ.  0.00000000
 
ion      s     py     pz     px    dxy    dyz    dz2    dxz    dx2    tot
  1  0.022  0.022  0.028  0.000  0.001  0.423  0.040  0.009  0.423  0.967
 
band   7 # energy   17.97566103 # occ.  0.00000000
 
ion      s     py     pz     px    dxy    dyz    dz2    dxz    dx2    tot
  1  0.228  0.169  0.089  0.044  0.014  0.123  0.010  0.043  0.026  0.747
 
band   8 # energy   18.86786569 # occ.  0.00000000
 
ion      s     py     pz     px    dxy    dyz    dz2    dxz    dx2    tot
  1 43.853  0.002  0.000  0.001  0.000  0.001  0.000  0.001  0.000 43.858
 
band   9 # energy   21.19907017 # occ.  0.00000000
 
ion      s     py     pz     px    dxy    dyz    dz2    dxz    dx2    tot
  1  0.003  0.052  0.000  0.468  0.071  0.016  0.009  0.208  0.016  0.843
 

 k-point    9 :   -0.41666667 0.25000000 0.08333333     weight = 0.05555556

band   1 # energy    2.39596131 # occ.  1.00000000
 
ion      s     py     pz     px    dxy    dyz    dz2    dxz    dx2    tot
  1  0.229  0.000  0.066  0.023  0.327  0.155  0.049  0.086  0.000  0.935
 
band   2 # energy    3.86336731 # occ.  1.00000000
 
ion      s     py     pz     px    dxy    dyz    dz2    dxz    dx2    tot
  1  0.001  0.115  0.009  0.064  0.007  0.042  0.536  0.012  0.059  0.843
 
band   3 # energy    5.18333669 # occ.  1.00000006
 
ion      s     py     pz     px    dxy    dyz    dz2    dxz    dx2    tot
  1  0.013  0.034  0.158  0.085  0.337  0.256  0.022  0.011  0.010  0.926
 
band   4 # energy    7.09037989 # occ.  0.00000000
 
ion      s     py     pz     px    dxy    dyz    dz2    dxz    dx2    tot
  1  0.001  0.007  0.022  0.018  0.006  0.031  0.068  0.205  0.571  0.930
 
band   5 # energy   10.60739731 # occ.  0.00000000
 
ion      s     py     pz     px    dxy    dyz    dz2    dxz    dx2    tot
  1  0.033  0.003  0.005  0.002  0.073  0.173  0.028  0.436  0.181  0.935
 
band   6 # energy   12.90400965 # occ.  0.00000000
 
ion      s     py     pz     px    dxy    dyz    dz2    dxz    dx2    tot
  1  0.001  0.057  0.176  0.115  0.135  0.193  0.168  0.002  0.060  0.908
 
band   7 # energy   14.04428742 # occ.  0.00000000
 
ion      s     py     pz     px    dxy    dyz    dz2    dxz    dx2    tot
  1  0.500  0.003  0.000  0.005  0.058  0.113  0.019  0.201  0.024  0.924
 
band   8 # energy   18.86116707 # occ.  0.00000000
 
ion      s     py     pz     px    dxy    dyz    dz2    dxz    dx2    tot
  1 43.895  0.000  0.000  0.000  0.000  0.000  0.000  0.000  0.000 43.896
 
band   9 # energy   20.16922566 # occ.  0.00000000
 
ion      s     py     pz     px    dxy    dyz    dz2    dxz    dx2    tot
  1  0.037  0.016  0.135  0.001  0.007  0.066  0.203  0.015  0.004  0.484
 

 k-point   10 :   -0.25000000 0.25000000 0.08333333     weight = 0.05555556

band   1 # energy    2.06047241 # occ.  1.00000000
 
ion      s     py     pz     px    dxy    dyz    dz2    dxz    dx2    tot
  1  0.378  0.065  0.002  0.144  0.184  0.050  0.016  0.025  0.024  0.888
 
band   2 # energy    4.19044505 # occ.  1.00000000
 
ion      s     py     pz     px    dxy    dyz    dz2    dxz    dx2    tot
  1  0.004  0.051  0.123  0.026  0.018  0.414  0.113  0.119  0.035  0.903
 
band   3 # energy    4.62407018 # occ.  1.00000000
 
ion      s     py     pz     px    dxy    dyz    dz2    dxz    dx2    tot
  1  0.016  0.016  0.024  0.001  0.238  0.162  0.364  0.023  0.071  0.915
 
band   4 # energy    7.22250243 # occ.  0.00000000
 
ion      s     py     pz     px    dxy    dyz    dz2    dxz    dx2    tot
  1  0.001  0.002  0.002  0.046  0.013  0.032  0.078  0.108  0.643  0.925
 
band   5 # energy    8.98788147 # occ.  0.00000000
 
ion      s     py     pz     px    dxy    dyz    dz2    dxz    dx2    tot
  1  0.000  0.000  0.016  0.015  0.000  0.211  0.006  0.558  0.121  0.927
 
band   6 # energy   12.14421324 # occ.  0.00000000
 
ion      s     py     pz     px    dxy    dyz    dz2    dxz    dx2    tot
  1  0.106  0.020  0.003  0.041  0.512  0.002  0.293  0.001  0.000  0.977
 
band   7 # energy   16.64120375 # occ.  0.00000000
 
ion      s     py     pz     px    dxy    dyz    dz2    dxz    dx2    tot
  1  0.234  0.135  0.030  0.118  0.042  0.025  0.120  0.039  0.002  0.745
 
band   8 # energy   18.86411292 # occ.  0.00000000
 
ion      s     py     pz     px    dxy    dyz    dz2    dxz    dx2    tot
  1 43.978  0.000  0.000  0.000  0.000  0.000  0.000  0.000  0.000 43.979
 
band   9 # energy   20.55176753 # occ.  0.00000000
 
ion      s     py     pz     px    dxy    dyz    dz2    dxz    dx2    tot
  1  0.002  0.005  0.347  0.001  0.009  0.166  0.055  0.170  0.004  0.759
 

 k-point   11 :   -0.08333333 0.25000000 0.08333333     weight = 0.05555556

band   1 # energy    0.11116776 # occ.  1.00000000
 
ion      s     py     pz     px    dxy    dyz    dz2    dxz    dx2    tot
  1  0.609  0.039  0.002  0.120  0.043  0.007  0.008  0.008  0.011  0.847
 
band   2 # energy    4.33394040 # occ.  1.00000000
 
ion      s     py     pz     px    dxy    dyz    dz2    dxz    dx2    tot
  1  0.002  0.011  0.058  0.007  0.013  0.699  0.002  0.154  0.001  0.947
 
band   3 # energy    5.88632520 # occ.  0.00000000
 
ion      s     py     pz     px    dxy    dyz    dz2    dxz    dx2    tot
  1  0.004  0.023  0.000  0.001  0.367  0.037  0.312  0.004  0.183  0.931
 
band   4 # energy    6.94761469 # occ.  0.00000000
 
ion      s     py     pz     px    dxy    dyz    dz2    dxz    dx2    tot
  1  0.001  0.005  0.011  0.005  0.099  0.086  0.046  0.433  0.270  0.957
 
band   5 # energy    7.93571897 # occ.  0.00000000
 
ion      s     py     pz     px    dxy    dyz    dz2    dxz    dx2    tot
  1  0.005  0.003  0.008  0.024  0.074  0.102  0.001  0.292  0.430  0.940
 
band   6 # energy   10.00648813 # occ.  0.00000000
 
ion      s     py     pz     px    dxy    dyz    dz2    dxz    dx2    tot
  1  0.009  0.015  0.000  0.011  0.312  0.001  0.568  0.010  0.032  0.959
 
band   7 # energy   18.76028035 # occ.  0.00000000
 
ion      s     py     pz     px    dxy    dyz    dz2    dxz    dx2    tot
  1 10.849  0.049  0.015  0.030  0.063  0.002  0.035  0.010  0.007 11.060
 
band   8 # energy   18.89746323 # occ.  0.00000000
 
ion      s     py     pz     px    dxy    dyz    dz2    dxz    dx2    tot
  1 33.060  0.018  0.006  0.009  0.024  0.001  0.014  0.004  0.003 33.138
 
band   9 # energy   21.89509952 # occ.  0.00000000
 
ion      s     py     pz     px    dxy    dyz    dz2    dxz    dx2    tot
  1  0.076  0.047  0.050  0.041  0.038  0.159  0.002  0.093  0.006  0.512
 

 k-point   12 :    0.41666667 0.41666667 0.08333333     weight = 0.02777778

band   1 # energy    1.48852771 # occ.  1.00000000
 
ion      s     py     pz     px    dxy    dyz    dz2    dxz    dx2    tot
  1  0.224  0.004  0.080  0.004  0.005  0.001  0.543  0.001  0.000  0.862
 
band   2 # energy    2.78489021 # occ.  1.00000000
 
ion      s     py     pz     px    dxy    dyz    dz2    dxz    dx2    tot
  1  0.000  0.007  0.000  0.007  0.957  0.002  0.004  0.002  0.000  0.978
 
band   3 # energy    6.21072269 # occ.  0.00000000
 
ion      s     py     pz     px    dxy    dyz    dz2    dxz    dx2    tot
  1  0.143  0.001  0.388  0.001  0.002  0.057  0.248  0.057  0.000  0.899
 
band   4 # energy    9.34617828 # occ.  0.00000000
 
ion      s     py     pz     px    dxy    dyz    dz2    dxz    dx2    tot
  1  0.000  0.034  0.000  0.034  0.000  0.253  0.000  0.253  0.353  0.929
 
band   5 # energy   10.35263702 # occ.  0.00000000
 
ion      s     py     pz     px    dxy    dyz    dz2    dxz    dx2    tot
  1  0.011  0.043  0.071  0.043  0.007  0.358  0.032  0.358  0.000  0.924
 
band   6 # energy   10.95080672 # occ.  0.00000000
 
ion      s     py     pz     px    dxy    dyz    dz2    dxz    dx2    tot
  1  0.000  0.005  0.000  0.005  0.000  0.178  0.000  0.178  0.600  0.967
 
band   7 # energy   17.43516995 # occ.  0.00000000
 
ion      s     py     pz     px    dxy    dyz    dz2    dxz    dx2    tot
  1  0.147  0.182  0.064  0.182  0.009  0.076  0.009  0.076  0.000  0.746
 
band   8 # energy   18.82791225 # occ.  0.00000000
 
ion      s     py     pz     px    dxy    dyz    dz2    dxz    dx2    tot
  1  0.000  0.291  0.000  0.291  0.000  0.083  0.000  0.083  0.022  0.769
 
band   9 # energy   18.85866000 # occ.  0.00000000
 
ion      s     py     pz     px    dxy    dyz    dz2    dxz    dx2    tot
  1 43.465  0.002  0.000  0.002  0.000  0.001  0.000  0.001  0.000 43.471
 

 k-point   13 :   -0.41666667 0.41666667 0.08333333     weight = 0.05555556

band   1 # energy    1.98423738 # occ.  1.00000000
 
ion      s     py     pz     px    dxy    dyz    dz2    dxz    dx2    tot
  1  0.092  0.034  0.008  0.001  0.032  0.001  0.694  0.000  0.004  0.866
 
band   2 # energy    2.91057337 # occ.  1.00000000
 
ion      s     py     pz     px    dxy    dyz    dz2    dxz    dx2    tot
  1  0.000  0.013  0.000  0.060  0.872  0.001  0.020  0.002  0.000  0.968
 
band   3 # energy    6.23641768 # occ.  0.00000000
 
ion      s     py     pz     px    dxy    dyz    dz2    dxz    dx2    tot
  1  0.033  0.001  0.444  0.000  0.003  0.366  0.018  0.028  0.008  0.902
 
band   4 # energy    9.15422847 # occ.  0.00000000
 
ion      s     py     pz     px    dxy    dyz    dz2    dxz    dx2    tot
  1  0.031  0.053  0.025  0.006  0.000  0.001  0.007  0.022  0.762  0.908
 
band   5 # energy   11.25464658 # occ.  0.00000000
 
ion      s     py     pz     px    dxy    dyz    dz2    dxz    dx2    tot
  1  0.010  0.001  0.001  0.015  0.006  0.124  0.000  0.773  0.021  0.952
 
band   6 # energy   13.33118244 # occ.  0.00000000
 
ion      s     py     pz     px    dxy    dyz    dz2    dxz    dx2    tot
  1  0.027  0.006  0.299  0.013  0.002  0.489  0.024  0.096  0.007  0.963
 
band   7 # energy   14.38471179 # occ.  0.00000000
 
ion      s     py     pz     px    dxy    dyz    dz2    dxz    dx2    tot
  1  0.418  0.088  0.019  0.129  0.033  0.001  0.017  0.026  0.089  0.821
 
band   8 # energy   17.31266411 # occ.  0.00000000
 
ion      s     py     pz     px    dxy    dyz    dz2    dxz    dx2    tot
  1  0.069  0.023  0.022  0.495  0.040  0.002  0.049  0.032  0.068  0.800
 
band   9 # energy   18.85631687 # occ.  0.00000000
 
ion      s     py     pz     px    dxy    dyz    dz2    dxz    dx2    tot
  1 42.836  0.008  0.000  0.001  0.000  0.000  0.004  0.000  0.002 42.851
 

 k-point   14 :   -0.25000000 0.41666667 0.08333333     weight = 0.05555556

band   1 # energy    3.00788158 # occ.  1.00000000
 
ion      s     py     pz     px    dxy    dyz    dz2    dxz    dx2    tot
  1  0.112  0.004  0.017  0.018  0.426  0.023  0.303  0.012  0.005  0.921
 
band   2 # energy    3.47599782 # occ.  1.00000000
 
ion      s     py     pz     px    dxy    dyz    dz2    dxz    dx2    tot
  1  0.032  0.128  0.001  0.120  0.156  0.025  0.342  0.010  0.043  0.859
 
band   3 # energy    4.94498587 # occ.  1.00000000
 
ion      s     py     pz     px    dxy    dyz    dz2    dxz    dx2    tot
  1  0.001  0.008  0.256  0.019  0.078  0.462  0.003  0.093  0.001  0.921
 
band   4 # energy    7.73206481 # occ.  0.00000000
 
ion      s     py     pz     px    dxy    dyz    dz2    dxz    dx2    tot
  1  0.024  0.008  0.007  0.039  0.006  0.005  0.044  0.049  0.728  0.909
 
band   5 # energy   10.26531326 # occ.  0.00000000
 
ion      s     py     pz     px    dxy    dyz    dz2    dxz    dx2    tot
  1  0.022  0.000  0.009  0.000  0.019  0.242  0.002  0.605  0.035  0.934
 
band   6 # energy   12.53751115 # occ.  0.00000000
 
ion      s     py     pz     px    dxy    dyz    dz2    dxz    dx2    tot
  1  0.427  0.017  0.016  0.079  0.242  0.001  0.014  0.024  0.050  0.870
 
band   7 # energy   15.65639036 # occ.  0.00000000
 
ion      s     py     pz     px    dxy    dyz    dz2    dxz    dx2    tot
  1  0.105  0.037  0.249  0.074  0.014  0.180  0.153  0.143  0.001  0.956
 
band   8 # energy   18.40319249 # occ.  0.00000000
 
ion      s     py     pz     px    dxy    dyz    dz2    dxz    dx2    tot
  1  0.339  0.052  0.242  0.137  0.026  0.094  0.224  0.082  0.008  1.204
 
band   9 # energy   18.86778719 # occ.  0.00000000
 
ion      s     py     pz     px    dxy    dyz    dz2    dxz    dx2    tot
  1 43.706  0.001  0.002  0.002  0.000  0.001  0.004  0.001  0.000 43.717
 

 k-point   15 :   -0.08333333 0.41666667 0.08333333     weight = 0.05555556

band   1 # energy    1.57686013 # occ.  1.00000000
 
ion      s     py     pz     px    dxy    dyz    dz2    dxz    dx2    tot
  1  0.345  0.012  0.003  0.066  0.184  0.185  0.003  0.120  0.008  0.925
 
band   2 # energy    4.62331467 # occ.  1.00000000
 
ion      s     py     pz     px    dxy    dyz    dz2    dxz    dx2    tot
  1  0.005  0.129  0.085  0.062  0.064  0.022  0.299  0.029  0.150  0.845
 
band   3 # energy    5.35684139 # occ.  0.92934796
 
ion      s     py     pz     px    dxy    dyz    dz2    dxz    dx2    tot
  1  0.023  0.026  0.092  0.069  0.163  0.392  0.126  0.016  0.033  0.939
 
band   4 # energy    6.42224483 # occ.  0.00000000
 
ion      s     py     pz     px    dxy    dyz    dz2    dxz    dx2    tot
  1  0.000  0.003  0.004  0.015  0.047  0.048  0.145  0.242  0.441  0.947
 
band   5 # energy   10.18079577 # occ.  0.00000000
 
ion      s     py     pz     px    dxy    dyz    dz2    dxz    dx2    tot
  1  0.000  0.002  0.012  0.033  0.005  0.177  0.012  0.410  0.282  0.933
 
band   6 # energy   11.74733592 # occ.  0.00000000
 
ion      s     py     pz     px    dxy    dyz    dz2    dxz    dx2    tot
  1  0.032  0.027  0.021  0.051  0.443  0.033  0.339  0.012  0.002  0.960
 
band   7 # energy   15.34385241 # occ.  0.00000000
 
ion      s     py     pz     px    dxy    dyz    dz2    dxz    dx2    tot
  1  0.375  0.045  0.033  0.042  0.104  0.087  0.026  0.136  0.001  0.848
 
band   8 # energy   18.86203572 # occ.  0.00000000
 
ion      s     py     pz     px    dxy    dyz    dz2    dxz    dx2    tot
  1 43.846  0.000  0.000  0.000  0.000  0.000  0.000  0.000  0.000 43.847
 
band   9 # energy   19.26218336 # occ.  0.00000000
 
ion      s     py     pz     px    dxy    dyz    dz2    dxz    dx2    tot
  1  0.139  0.010  0.013  0.041  0.008  0.041  0.029  0.008  0.022  0.310
 

 k-point   16 :   -0.41666667-0.41666667 0.08333333     weight = 0.02777778

band   1 # energy    1.44840372 # occ.  1.00000000
 
ion      s     py     pz     px    dxy    dyz    dz2    dxz    dx2    tot
  1  0.122  0.004  0.008  0.004  0.004  0.000  0.726  0.000  0.000  0.868
 
band   2 # energy    2.45547508 # occ.  1.00000000
 
ion      s     py     pz     px    dxy    dyz    dz2    dxz    dx2    tot
  1  0.000  0.007  0.000  0.007  0.969  0.000  0.003  0.000  0.000  0.986
 
band   3 # energy    7.43499219 # occ.  0.00000000
 
ion      s     py     pz     px    dxy    dyz    dz2    dxz    dx2    tot
  1  0.036  0.000  0.671  0.000  0.000  0.074  0.028  0.074  0.000  0.886
 
band   4 # energy   10.37958434 # occ.  0.00000000
 
ion      s     py     pz     px    dxy    dyz    dz2    dxz    dx2    tot
  1  0.000  0.020  0.000  0.020  0.000  0.061  0.000  0.061  0.779  0.941
 
band   5 # energy   11.45101898 # occ.  0.00000000
 
ion      s     py     pz     px    dxy    dyz    dz2    dxz    dx2    tot
  1  0.000  0.002  0.000  0.002  0.000  0.408  0.000  0.408  0.145  0.965
 
band   6 # energy   11.94877815 # occ.  0.00000000
 
ion      s     py     pz     px    dxy    dyz    dz2    dxz    dx2    tot
  1  0.002  0.016  0.131  0.016  0.001  0.389  0.007  0.389  0.000  0.952
 