<?xml version="1.0" encoding="ISO-8859-1"?>
<modeling>
 <generator>
  <i name="program" type="string">vasp </i>
  <i name="version" type="string">5.2.12  </i>
  <i name="subversion" type="string">11Nov11 complex                                                      parallel </i>
  <i name="platform" type="string">LinuxIFC </i>
  <i name="date" type="string">2012 10 17 </i>
  <i name="time" type="string">11:06:58 </i>
 </generator>
 <incar>
  <i type="int" name="ISTART">     0</i>
  <i type="string" name="PREC">accurate</i>
  <i type="int" name="ISPIN">     2</i>
  <i name="ENCUT">    200.00000000</i>
  <v name="MAGMOM">      6.00000000</v>
  <i type="logical" name="LREAL"> F  </i>
  <i type="int" name="ISMEAR">     1</i>
  <i name="SIGMA">      0.05000000</i>
  <i type="logical" name="LORBIT"> F  </i>
 </incar>
 <kpoints>
  <generation param="Monkhorst-Pack">
   <v type="int" name="divisions">       6        6        6 </v>
   <v name="usershift">      0.00000000       0.00000000       0.00000000 </v>
   <v name="genvec1">      0.16666667       0.00000000       0.00000000 </v>
   <v name="genvec2">      0.00000000       0.16666667       0.00000000 </v>
   <v name="genvec3">      0.00000000       0.00000000       0.16666667 </v>
   <v name="shift">      0.50000000       0.50000000       0.50000000 </v>
  </generation>
  <varray name="kpointlist" >
   <v>       0.08333333       0.08333333       0.08333333 </v>
   <v>       0.25000000       0.08333333       0.08333333 </v>
   <v>       0.41666667       0.08333333       0.08333333 </v>
   <v>      -0.41666667       0.08333333       0.08333333 </v>
   <v>      -0.25000000       0.08333333       0.08333333 </v>
   <v>      -0.08333333       0.08333333       0.08333333 </v>
   <v>       0.25000000       0.25000000       0.08333333 </v>
   <v>       0.41666667       0.25000000       0.08333333 </v>
   <v>      -0.41666667       0.25000000       0.08333333 </v>
   <v>      -0.25000000       0.25000000       0.08333333 </v>
   <v>      -0.08333333       0.25000000       0.08333333 </v>
   <v>       0.41666667       0.41666667       0.08333333 </v>
   <v>      -0.41666667       0.41666667       0.08333333 </v>
   <v>      -0.25000000       0.41666667       0.08333333 </v>
   <v>      -0.08333333       0.41666667       0.08333333 </v>
   <v>      -0.41666667      -0.41666667       0.08333333 </v>
   <v>      -0.25000000      -0.41666667       0.08333333 </v>
   <v>      -0.25000000      -0.25000000       0.08333333 </v>
   <v>       0.25000000       0.25000000       0.25000000 </v>
   <v>       0.41666667       0.25000000       0.25000000 </v>
   <v>      -0.41666667       0.25000000       0.25000000 </v>
   <v>      -0.25000000       0.25000000       0.25000000 </v>
   <v>       0.41666667       0.41666667       0.25000000 </v>
   <v>      -0.41666667       0.41666667       0.25000000 </v>
   <v>      -0.25000000       0.41666667       0.25000000 </v>
   <v>      -0.41666667      -0.41666667       0.25000000 </v>
   <v>       0.41666667       0.41666667       0.41666667 </v>
   <v>      -0.41666667       0.41666667       0.41666667 </v>
  </varray>
  <varray name="weights" >
   <v>       0.00925926 </v>
   <v>       0.02777778 </v>
   <v>       0.02777778 </v>
   <v>       0.02777778 </v>
   <v>       0.02777778 </v>
   <v>       0.02777778 </v>
   <v>       0.02777778 </v>
   <v>       0.05555556 </v>
   <v>       0.05555556 </v>
   <v>       0.05555556 </v>
   <v>       0.05555556 </v>
   <v>       0.02777778 </v>
   <v>       0.05555556 </v>
   <v>       0.05555556 </v>
   <v>       0.05555556 </v>
   <v>       0.02777778 </v>
   <v>       0.05555556 </v>
   <v>       0.02777778 </v>
   <v>       0.00925926 </v>
   <v>       0.02777778 </v>
   <v>       0.02777778 </v>
   <v>       0.02777778 </v>
   <v>       0.02777778 </v>
   <v>       0.05555556 </v>
   <v>       0.05555556 </v>
   <v>       0.02777778 </v>
   <v>       0.00925926 </v>
   <v>       0.02777778 </v>
  </varray>
 </kpoints>
 <parameters>
  <separator name="general" >
   <i type="string" name="SYSTEM">unknown system</i>
   <i type="logical" name="LCOMPAT"> F  </i>
  </separator>
  <separator name="electronic" >
   <i type="string" name="PREC">accura</i>
   <i name="ENMAX">    200.00000000</i>
   <i name="ENAUG">    332.07500000</i>
   <i name="EDIFF">      0.00010000</i>
   <i type="int" name="IALGO">    38</i>
   <i type="int" name="IWAVPR">    10</i>
   <i type="int" name="NBANDS">     9</i>
   <i name="NELECT">      5.00000000</i>
   <i type="int" name="TURBO">     0</i>
   <i type="int" name="IRESTART">     0</i>
   <i type="int" name="NREBOOT">     0</i>
   <i type="int" name="NMIN">     0</i>
   <i name="EREF">      0.00000000</i>
   <separator name="electronic smearing" >
    <i type="int" name="ISMEAR">     1</i>
    <i name="SIGMA">      0.05000000</i>
    <i name="KSPACING">      0.50000000</i>
    <i type="logical" name="KGAMMA"> T  </i>
   </separator>
   <separator name="electronic projectors" >
    <i type="logical" name="LREAL"> F  </i>
    <v name="ROPT">      0.00000000</v>
    <i type="int" name="LMAXPAW">  -100</i>
    <i type="int" name="LMAXMIX">     2</i>
    <i type="logical" name="NLSPLINE"> F  </i>
   </separator>
   <separator name="electronic startup" >
    <i type="int" name="ISTART">     0</i>
    <i type="int" name="ICHARG">     2</i>
    <i type="int" name="INIWAV">     1</i>
   </separator>
   <separator name="electronic spin" >
    <i type="int" name="ISPIN">     2</i>
    <i type="logical" name="LNONCOLLINEAR"> F  </i>
    <v name="MAGMOM">      6.00000000</v>
    <i name="NUPDOWN">     -1.00000000</i>
    <i type="logical" name="LSORBIT"> F  </i>
    <v name="SAXIS">      0.00000000      0.00000000      1.00000000</v>
    <i type="logical" name="LSPIRAL"> F  </i>
    <v name="QSPIRAL">      0.00000000      0.00000000      0.00000000</v>
    <i type="logical" name="LZEROZ"> F  </i>
   </separator>
   <separator name="electronic exchange-correlation" >
    <i type="logical" name="LASPH"> F  </i>
    <i type="logical" name="LMETAGGA"> F  </i>
   </separator>
   <separator name="electronic convergence" >
    <i type="int" name="NELM">    60</i>
    <i type="int" name="NELMDL">    -5</i>
    <i type="int" name="NELMIN">     2</i>
    <i name="ENINI">    200.00000000</i>
    <separator name="electronic convergence detail" >
     <i type="logical" name="LDIAG"> T  </i>
     <i type="logical" name="LSUBROT"> T  </i>
     <i name="WEIMIN">      0.00000000</i>
     <i name="EBREAK">      0.00000278</i>
     <i name="DEPER">      0.30000000</i>
     <i type="int" name="NRMM">     4</i>
     <i name="TIME">      0.40000000</i>
    </separator>
   </separator>
   <separator name="electronic mixer" >
    <i name="AMIX">      0.40000000</i>
    <i name="BMIX">      1.00000000</i>
    <i name="AMIN">      0.10000000</i>
    <i name="AMIX_MAG">      1.60000000</i>
    <i name="BMIX_MAG">      1.00000000</i>
    <separator name="electronic mixer details" >
     <i type="int" name="IMIX">     4</i>
     <i type="int" name="MAXMIX">   -45</i>
     <i name="WC">    100.00000000</i>
     <i type="int" name="INIMIX">     1</i>
     <i type="int" name="MIXPRE">     1</i>
     <i type="int" name="MREMOVE">     5</i>
    </separator>
   </separator>
   <separator name="electronic dipolcorrection" >
    <i type="logical" name="LDIPOL"> F  </i>
    <i type="logical" name="LMONO"> F  </i>
    <i type="int" name="IDIPOL">     0</i>
    <i name="EPSILON">      1.00000000</i>
    <v name="DIPOL">   -100.00000000   -100.00000000   -100.00000000</v>
    <i name="EFIELD">      0.00000000</i>
   </separator>
  </separator>
  <separator name="grids" >
   <i type="int" name="NGX">    14</i>
   <i type="int" name="NGY">    14</i>
   <i type="int" name="NGZ">    14</i>
   <i type="int" name="NGXF">    28</i>
   <i type="int" name="NGYF">    28</i>
   <i type="int" name="NGZF">    28</i>
   <i type="logical" name="ADDGRID"> F  </i>
  </separator>
  <separator name="ionic" >
   <i type="int" name="NSW">     0</i>
   <i type="int" name="IBRION">    -1</i>
   <i type="int" name="ISIF">     2</i>
   <i name="PSTRESS">      0.00000000</i>
   <i name="EDIFFG">      0.00100000</i>
   <i type="int" name="NFREE">     0</i>
   <i name="POTIM">      0.50000000</i>
   <i name="SMASS">     -3.00000000</i>
   <i name="SCALEE">      1.00000000</i>
  </separator>
  <separator name="ionic md" >
   <i name="TEBEG">      0.00010000</i>
   <i name="TEEND">      0.00010000</i>
   <i type="int" name="NBLOCK">     1</i>
   <i type="int" name="KBLOCK">     1</i>
   <i type="int" name="NPACO">   256</i>
   <i name="APACO">     16.00000000</i>
  </separator>
  <separator name="symmetry" >
   <i type="int" name="ISYM">     2</i>
   <i name="SYMPREC">      0.00001000</i>
  </separator>
  <separator name="dos" >
   <i type="logical" name="LORBIT"> F  </i>
   <v name="RWIGS">     -1.00000000</v>
   <i type="int" name="NEDOS">   301</i>
   <i name="EMIN">     10.00000000</i>
   <i name="EMAX">    -10.00000000</i>
   <i name="EFERMI">      0.00000000</i>
  </separator>
  <separator name="writing" >
   <i type="int" name="NWRITE">     2</i>
   <i type="logical" name="LWAVE"> T  </i>
   <i type="logical" name="LCHARG"> T  </i>
   <i type="logical" name="LPARD"> F  </i>
   <i type="logical" name="LVTOT"> F  </i>
   <i type="logical" name="LVHAR"> F  </i>
   <i type="logical" name="LELF"> F  </i>
   <i type="logical" name="LOPTICS"> F  </i>
   <v name="STM">      0.00000000      0.00000000      0.00000000      0.00000000      0.00000000      0.00000000      0.00000000</v>
  </separator>
  <separator name="performance" >
   <i type="int" name="NPAR">     1</i>
   <i type="int" name="NSIM">     4</i>
   <i type="int" name="NBLK">    -1</i>
   <i type="logical" name="LPLANE"> T  </i>
   <i type="logical" name="LSCALAPACK"> F  </i>
   <i type="logical" name="LSCAAWARE"> F  </i>
   <i type="logical" name="LSCALU"> F  </i>
   <i type="logical" name="LASYNC"> F  </i>
   <i type="logical" name="LORBITALREAL"> F  </i>
  </separator>
  <separator name="miscellaneous" >
   <i type="int" name="IDIOT">     3</i>
   <i type="logical" name="LMUSIC"> F  </i>
   <v name="POMASS">    180.94800000</v>
   <v name="DARWINR">      0.00000000</v>
   <v name="DARWINV">      1.00000000</v>
   <i type="logical" name="LCORR"> T  </i>
  </separator>
  <i type="logical" name="GGA_COMPAT"> T  </i>
  <i type="logical" name="LBERRY"> F  </i>
  <i type="int" name="ICORELEVEL">     0</i>
  <i type="logical" name="LDAU"> F  </i>
  <i type="int" name="I_CONSTRAINED_M">     0</i>
  <separator name="electronic exchange-correlation" >
   <i type="string" name="GGA">--</i>
   <i type="int" name="VOSKOWN">     0</i>
   <i type="logical" name="LHFCALC"> F  </i>
   <i type="string" name="PRECFOCK"></i>
   <i type="logical" name="LHFONE"> F  </i>
   <i type="logical" name="LRHFCALC"> F  </i>
   <i type="logical" name="LTHOMAS"> F  </i>
   <i type="logical" name="LMODELHF"> F  </i>
   <i name="ENCUT4O">     -1.00000000</i>
   <i type="int" name="EXXOEP">     0</i>
   <i type="int" name="FOURORBIT">     0</i>
   <i name="AEXX">      0.00000000</i>
   <i name="HFALPHA">      0.00000000</i>
   <i name="ALDAX">      1.00000000</i>
   <i name="AGGAX">      1.00000000</i>
   <i name="ALDAC">      1.00000000</i>
   <i name="AGGAC">      1.00000000</i>
   <i type="int" name="NKREDX">     1</i>
   <i type="int" name="NKREDY">     1</i>
   <i type="int" name="NKREDZ">     1</i>
   <i type="logical" name="SHIFTRED"> F  </i>
   <i type="logical" name="ODDONLY"> F  </i>
   <i type="logical" name="EVENONLY"> F  </i>
   <i type="int" name="LMAXFOCK">     0</i>
   <i type="int" name="NMAXFOCKAE">     0</i>
   <i type="logical" name="LFOCKAEDFT"> F  </i>
   <i name="HFSCREEN">      0.00000000</i>
   <i name="HFSCREENC">      0.00000000</i>
  </separator>
  <separator name="vdW DFT" >
   <i type="logical" name="LUSE_VDW"> F  </i>
   <i name="Zab_VDW">     -0.84910000</i>
   <i name="PARAM1">      0.12340000</i>
   <i name="PARAM2">      1.00000000</i>
   <i name="PARAM3">      0.00000000</i>
  </separator>
  <separator name="model GW" >
   <i type="int" name="MODEL_GW">     0</i>
   <i name="MODEL_EPS0">     11.67817245</i>
   <i name="MODEL_ALPHA">      1.00000000</i>
  </separator>
  <separator name="linear response parameters" >
   <i type="logical" name="LEPSILON"> F  </i>
   <i type="logical" name="LRPA"> F  </i>
   <i type="logical" name="LNABLA"> F  </i>
   <i type="logical" name="LVEL"> F  </i>
   <i type="int" name="KINTER">     0</i>
   <i name="CSHIFT">      0.10000000</i>
   <i name="OMEGAMAX">     -1.00000000</i>
  </separator>
  <separator name="orbital magnetization" >
   <i type="logical" name="NUCIND"> F  </i>
   <v name="MAGPOS">      0.00000000      0.00000000      0.00000000</v>
   <i type="logical" name="LNICSALL"> T  </i>
   <i type="logical" name="ORBITALMAG"> F  </i>
   <i type="logical" name="LMAGBLOCH"> F  </i>
   <i type="logical" name="LCHIMAG"> F  </i>
   <i type="logical" name="LGAUGE"> T  </i>
   <i type="int" name="MAGATOM">     0</i>
   <v name="MAGDIPOL">      0.00000000      0.00000000      0.00000000</v>
   <v name="AVECCONST">      0.00000000      0.00000000      0.00000000</v>
  </separator>
  <separator name="response functions" >
   <i type="logical" name="LADDER"> F  </i>
   <i type="logical" name="LHARTREE"> T  </i>
   <i type="int" name="IBSE">     0</i>
   <i type="logical" name="LTCTE"> F  </i>
   <i type="logical" name="LTETE"> F  </i>
   <i type="logical" name="LFXCEPS"> F  </i>
   <i type="logical" name="L2ORDER"> F  </i>
   <i type="logical" name="LUSEW"> F  </i>
   <i name="ENCUTGW">     -2.00000000</i>
   <i name="ENCUTGWSOFT">     -2.00000000</i>
   <i name="ENCUTLF">     -1.00000000</i>
   <i type="int" name="LMAXMP2">    -1</i>
   <i name="SCISSOR">      0.00000000</i>
   <i type="int" name="NOMEGA">     0</i>
   <i type="int" name="NOMEGAR">     0</i>
   <i type="int" name="NBANDSGW">    -1</i>
   <i type="int" name="NBANDSO">    -1</i>
   <i type="int" name="NBANDSV">    -1</i>
   <i name="OPTEMAX">      0.00000000</i>
   <i type="int" name="NELM">     1</i>
   <i type="int" name="DIM">     3</i>
   <i type="int" name="ANTIRES">     0</i>
   <i name="OMEGAMAX">    -30.00000000</i>
   <i name="OMEGATL">   -200.00000000</i>
   <i type="int" name="OMEGAGRID">     0</i>
   <i name="CSHIFT">     -0.10000000</i>
   <i type="logical" name="SELFENERGY"> F  </i>
   <i type="logical" name="LSPECTRAL"> F  </i>
   <i type="logical" name="ODDONLYGW"> F  </i>
   <i type="logical" name="EVENONLYGW"> F  </i>
   <i type="int" name="NKREDLFX">     1</i>
   <i type="int" name="NKREDLFY">     1</i>
   <i type="int" name="NKREDLFZ">     1</i>
   <i type="int" name="MAXMEM">  1800</i>
   <i type="int" name="TELESCOPE">     0</i>
  </separator>
 </parameters>
 <atominfo>
  <atoms>       1 </atoms>
  <types>       1 </types>
  <array name="atoms" >
   <dimension dim="1">ion</dimension>
   <field type="string">element</field>
   <field type="int">atomtype</field>
   <set>
    <rc><c>Ta</c><c>   1</c></rc>
   </set>
  </array>
  <array name="atomtypes" >
   <dimension dim="1">type</dimension>
   <field type="int">atomspertype</field>
   <field type="string">element</field>
   <field>mass</field>
   <field>valence</field>
   <field type="string">pseudopotential</field>
   <set>
    <rc><c>   1</c><c>Ta</c><c>    180.94800000</c><c>      5.00000000</c><c>  PAW_PBE Ta 17Jan2003                  </c></rc>
   </set>
  </array>
 </atominfo>
 <structure name="initialpos" >
  <crystal>
   <varray name="basis" >
    <v>       0.00000000       2.13500000       2.13500000 </v>
    <v>       2.13500000       0.00000000       2.13500000 </v>
    <v>       2.13500000       2.13500000       0.00000000 </v>
   </varray>
   <i name="volume">     19.46362075 </i>
   <varray name="rec_basis" >
    <v>      -0.23419204       0.23419204       0.23419204 </v>
    <v>       0.23419204      -0.23419204       0.23419204 </v>
    <v>       0.23419204       0.23419204      -0.23419204 </v>
   </varray>
  </crystal>
  <varray name="positions" >
   <v>       0.00000000       0.00000000       0.00000000 </v>
  </varray>
 </structure>
 <calculation>
  <scstep>
   <time name="dav">    0.65    0.65</time>
   <time name="total">    0.75    0.76</time>
   <energy>
    <i name="alphaZ">     28.49149740 </i>
    <i name="ewald">   -193.27001770 </i>
    <i name="hartreedc">     -2.97429397 </i>
    <i name="XCdc">    -60.68044105 </i>
    <i name="pawpsdc">    143.51874798 </i>
    <i name="pawaedc">    -69.33493833 </i>
    <i name="eentropy">     -0.00012705 </i>
    <i name="bandstr">     26.52473029 </i>
    <i name="atom">    130.57950032 </i>
    <i name="e_fr_energy">      2.85465787 </i>
    <i name="e_wo_entrp">      2.85478493 </i>
    <i name="e_0_energy">      2.85470023 </i>
   </energy>
  </scstep>
  <scstep>
   <time name="dav">    0.64    0.64</time>
   <time name="total">    0.65    0.65</time>
   <energy>
    <i name="e_fr_energy">     -1.55531484 </i>
    <i name="e_wo_entrp">     -1.55508551 </i>
    <i name="e_0_energy">     -1.55523840 </i>
   </energy>
  </scstep>
  <scstep>
   <time name="dav">    0.67    0.67</time>
   <time name="total">    0.68    0.70</time>
   <energy>
    <i name="e_fr_energy">     -1.62082422 </i>
    <i name="e_wo_entrp">     -1.62042862 </i>
    <i name="e_0_energy">     -1.62069236 </i>
   </energy>
  </scstep>
  <scstep>
   <time name="dav">    0.69    0.69</time>
   <time name="total">    0.70    0.72</time>
   <energy>
    <i name="e_fr_energy">     -1.62088412 </i>
    <i name="e_wo_entrp">     -1.62048823 </i>
    <i name="e_0_energy">     -1.62075216 </i>
   </energy>
  </scstep>
  <scstep>
   <time name="dav">    0.64    0.65</time>
   <time name="total">    0.70    0.71</time>
   <energy>
    <i name="e_fr_energy">     -1.62088419 </i>
    <i name="e_wo_entrp">     -1.62048829 </i>
    <i name="e_0_energy">     -1.62075222 </i>
   </energy>
  </scstep>
  <scstep>
   <time name="dav">    0.57    0.57</time>
   <time name="total">    0.71    0.72</time>
   <energy>
    <i name="e_fr_energy">    -10.97807540 </i>
    <i name="e_wo_entrp">    -10.97763960 </i>
    <i name="e_0_energy">    -10.97793013 </i>
   </energy>
  </scstep>
  <scstep>
   <time name="dav">    0.62    0.62</time>
   <time name="total">    0.76    0.77</time>
   <energy>
    <i name="e_fr_energy">    -10.95159819 </i>
    <i name="e_wo_entrp">    -10.95144037 </i>
    <i name="e_0_energy">    -10.95154558 </i>
   </energy>
  </scstep>
  <scstep>
   <time name="dav">    0.57    0.57</time>
   <time name="total">    0.71    0.73</time>
   <energy>
    <i name="e_fr_energy">    -11.11587338 </i>
    <i name="e_wo_entrp">    -11.11595746 </i>
    <i name="e_0_energy">    -11.11590141 </i>
   </energy>
  </scstep>
  <scstep>
   <time name="dav">    0.59    0.59</time>
   <time name="total">    0.73    0.75</time>
   <energy>
    <i name="e_fr_energy">    -11.49450196 </i>
    <i name="e_wo_entrp">    -11.49451002 </i>
    <i name="e_0_energy">    -11.49450464 </i>
   </energy>
  </scstep>
  <scstep>
   <time name="dav">    0.72    0.72</time>
   <time name="total">    0.86    0.88</time>
   <energy>
    <i name="e_fr_energy">    -11.50905093 </i>
    <i name="e_wo_entrp">    -11.50899092 </i>
    <i name="e_0_energy">    -11.50903093 </i>
   </energy>
  </scstep>
  <scstep>
   <time name="dav">    0.61    0.61</time>
   <time name="total">    0.75    0.76</time>
   <energy>
    <i name="e_fr_energy">    -11.50532430 </i>
    <i name="e_wo_entrp">    -11.50518839 </i>
    <i name="e_0_energy">    -11.50527900 </i>
   </energy>
  </scstep>
  <scstep>
   <time name="dav">    0.60    0.60</time>
   <time name="total">    0.75    0.77</time>
   <energy>
    <i name="e_fr_energy">    -11.58382729 </i>
    <i name="e_wo_entrp">    -11.58398579 </i>
    <i name="e_0_energy">    -11.58388012 </i>
   </energy>
  </scstep>
  <scstep>
   <time name="dav">    0.60    0.60</time>
   <time name="total">    0.74    0.76</time>
   <energy>
    <i name="e_fr_energy">    -11.61525896 </i>
    <i name="e_wo_entrp">    -11.61501345 </i>
    <i name="e_0_energy">    -11.61517712 </i>
   </energy>
  </scstep>
  <scstep>
   <time name="dav">    0.52    0.52</time>
   <time name="total">    0.66    0.68</time>
   <energy>
    <i name="e_fr_energy">    -11.61454487 </i>
    <i name="e_wo_entrp">    -11.61468122 </i>
    <i name="e_0_energy">    -11.61459032 </i>
   </energy>
  </scstep>
  <scstep>
   <time name="dav">    0.56    0.56</time>
   <time name="total">    0.70    0.72</time>
   <energy>
    <i name="e_fr_energy">    -11.61521960 </i>
    <i name="e_wo_entrp">    -11.61490830 </i>
    <i name="e_0_energy">    -11.61511583 </i>
   </energy>
  </scstep>
  <scstep>
   <time name="dav">    0.54    0.55</time>
   <time name="total">    0.68    0.70</time>
   <energy>
    <i name="e_fr_energy">    -11.61482203 </i>
    <i name="e_wo_entrp">    -11.61479007 </i>
    <i name="e_0_energy">    -11.61481138 </i>
   </energy>
  </scstep>
  <scstep>
   <time name="dav">    0.51    0.51</time>
   <time name="total">    0.65    0.84</time>
   <energy>
    <i name="e_fr_energy">    -11.61529727 </i>
    <i name="e_wo_entrp">    -11.61497911 </i>
    <i name="e_0_energy">    -11.61519121 </i>
   </energy>
  </scstep>
  <scstep>
   <time name="dav">    0.34    0.34</time>
   <time name="total">    0.44    0.72</time>
   <energy>
    <i name="alphaZ">     28.49149740 </i>
    <i name="ewald">   -193.27001770 </i>
    <i name="hartreedc">     -0.76643823 </i>
    <i name="XCdc">    -66.08615259 </i>
    <i name="pawpsdc">    181.56333889 </i>
    <i name="pawaedc">   -108.09669783 </i>
    <i name="eentropy">     -0.00038381 </i>
    <i name="bandstr">     15.96999616 </i>
    <i name="atom">    130.57950032 </i>
    <i name="e_fr_energy">    -11.61535738 </i>
    <i name="e_wo_entrp">    -11.61497358 </i>
    <i name="e_0_energy">    -11.61522945 </i>
   </energy>
  </scstep>
  <parameters_embedded>
   <separator name="dft+d2" >
    <i type="logical" name="LVDW"> F  </i>
   </separator>
  </parameters_embedded>
  <structure>
   <crystal>
    <varray name="basis" >
     <v>       0.00000000       2.13500000       2.13500000 </v>
     <v>       2.13500000       0.00000000       2.13500000 </v>
     <v>       2.13500000       2.13500000       0.00000000 </v>
    </varray>
    <i name="volume">     19.46362075 </i>
    <varray name="rec_basis" >
     <v>      -0.23419204       0.23419204       0.23419204 </v>
     <v>       0.23419204      -0.23419204       0.23419204 </v>
     <v>       0.23419204       0.23419204      -0.23419204 </v>
    </varray>
   </crystal>
   <varray name="positions" >
    <v>       0.00000000       0.00000000       0.00000000 </v>
   </varray>
  </structure>
  <varray name="forces" >
   <v>       0.00000000       0.00000000       0.00000000 </v>
  </varray>
  <varray name="stress" >
   <v>    -105.33900620       0.00000000       0.00000000 </v>
   <v>       0.00000000    -105.33900620       0.00000000 </v>
   <v>       0.00000000       0.00000000    -105.33900620 </v>
  </varray>
  <energy>
   <i name="e_fr_energy">    -11.61535738 </i>
   <i name="e_wo_entrp">    -11.61522945 </i>
   <i name="e_0_energy">     -0.00038381 </i>
  </energy>
  <time name="totalsc">   13.19   14.21</time>
  <eigenvalues>
   <array>
    <dimension dim="1">band</dimension>
    <dimension dim="2">kpoint</dimension>
    <dimension dim="3">spin</dimension>
    <field>eigene</field>
    <field>occ</field>
    <set>
     <set comment="spin 1">
      <set comment="kpoint 1">
       <r>   -2.2364    1.0000 </r>
       <r>    5.6943    0.0000 </r>
       <r>    6.0421    0.0000 </r>
       <r>    6.0421    0.0000 </r>
       <r>    8.6513    0.0000 </r>
       <r>    8.6513    0.0000 </r>
       <r>   18.3799    0.0000 </r>
       <r>   18.8570    0.0000 </r>
       <r>   21.2914    0.0000 </r>
      </set>
      <set comment="kpoint 2">
       <r>   -0.9733    1.0000 </r>
       <r>    4.8804    1.0000 </r>
       <r>    6.2990    0.0000 </r>
       <r>    6.5412    0.0000 </r>
       <r>    7.9247    0.0000 </r>
       <r>    9.1162    0.0000 </r>
       <r>   18.8510    0.0000 </r>
       <r>   19.1116    0.0000 </r>
       <r>   20.7976    0.0000 </r>
      </set>
      <set comment="kpoint 3">
       <r>    0.8741    1.0000 </r>
       <r>    4.8872    1.0000 </r>
       <r>    5.7153    0.0000 </r>
       <r>    6.1256    0.0000 </r>
       <r>    9.4090    0.0000 </r>
       <r>   10.7993    0.0000 </r>
       <r>   16.4082    0.0000 </r>
       <r>   18.8584    0.0000 </r>
       <r>   19.3547    0.0000 </r>
      </set>
      <set comment="kpoint 4">
       <r>    1.2296    1.0000 </r>
       <r>    5.1825    1.0000 </r>
       <r>    5.9243    0.0000 </r>
       <r>    5.9383    0.0000 </r>
       <r>   11.0126    0.0000 </r>
       <r>   11.1775    0.0000 </r>
       <r>   14.8270    0.0000 </r>
       <r>   18.0148    0.0000 </r>
       <r>   18.8624    0.0000 </r>
      </set>
      <set comment="kpoint 5">
       <r>    0.3742    1.0000 </r>
       <r>    4.5746    1.0000 </r>
       <r>    5.9011    0.0000 </r>
       <r>    6.3848    0.0000 </r>
       <r>    8.9987    0.0000 </r>
       <r>    9.9406    0.0000 </r>
       <r>   17.3000    0.0000 </r>
       <r>   18.8615    0.0000 </r>
       <r>   20.6362    0.0000 </r>
      </set>
      <set comment="kpoint 6">
       <r>   -1.5729    1.0000 </r>
       <r>    5.1249    1.0000 </r>
       <r>    6.3622    0.0000 </r>
       <r>    6.3974    0.0000 </r>
       <r>    7.9152    0.0000 </r>
       <r>    8.9632    0.0000 </r>
       <r>   18.8571    0.0000 </r>
       <r>   19.6158    0.0000 </r>
       <r>   20.4701    0.0000 </r>
      </set>
      <set comment="kpoint 7">
       <r>   -0.3866    1.0000 </r>
       <r>    4.2514    1.0000 </r>
       <r>    6.3304    0.0000 </r>
       <r>    7.0964    0.0000 </r>
       <r>    7.6095    0.0000 </r>
       <r>    9.5339    0.0000 </r>
       <r>   18.8568    0.0000 </r>
       <r>   20.2502    0.0000 </r>
       <r>   21.9132    0.0000 </r>
      </set>
      <set comment="kpoint 8">
       <r>    1.3588    1.0000 </r>
       <r>    3.7129    1.0000 </r>
       <r>    5.1513    1.0000 </r>
       <r>    7.6631    0.0000 </r>
       <r>    8.9703    0.0000 </r>
       <r>   11.0774    0.0000 </r>
       <r>   17.9757    0.0000 </r>
       <r>   18.8679    0.0000 </r>
       <r>   21.1991    0.0000 </r>
      </set>
      <set comment="kpoint 9">
       <r>    2.3960    1.0000 </r>
       <r>    3.8634    1.0000 </r>
       <r>    5.1833    1.0000 </r>
       <r>    7.0904    0.0000 </r>
       <r>   10.6074    0.0000 </r>
       <r>   12.9040    0.0000 </r>
       <r>   14.0443    0.0000 </r>
       <r>   18.8612    0.0000 </r>
       <r>   20.1692    0.0000 </r>
      </set>
      <set comment="kpoint 10">
       <r>    2.0605    1.0000 </r>
       <r>    4.1904    1.0000 </r>
       <r>    4.6241    1.0000 </r>
       <r>    7.2225    0.0000 </r>
       <r>    8.9879    0.0000 </r>
       <r>   12.1442    0.0000 </r>
       <r>   16.6412    0.0000 </r>
       <r>   18.8641    0.0000 </r>
       <r>   20.5518    0.0000 </r>
      </set>
      <set comment="kpoint 11">
       <r>    0.1112    1.0000 </r>
       <r>    4.3339    1.0000 </r>
       <r>    5.8863    0.0000 </r>
       <r>    6.9476    0.0000 </r>
       <r>    7.9357    0.0000 </r>
       <r>   10.0065    0.0000 </r>
       <r>   18.7603    0.0000 </r>
       <r>   18.8975    0.0000 </r>
       <r>   21.8951    0.0000 </r>
      </set>
      <set comment="kpoint 12">
       <r>    1.4885    1.0000 </r>
       <r>    2.7849    1.0000 </r>
       <r>    6.2107    0.0000 </r>
       <r>    9.3462    0.0000 </r>
       <r>   10.3526    0.0000 </r>
       <r>   10.9508    0.0000 </r>
       <r>   17.4352    0.0000 </r>
       <r>   18.8279    0.0000 </r>
       <r>   18.8587    0.0000 </r>
      </set>
      <set comment="kpoint 13">
       <r>    1.9842    1.0000 </r>
       <r>    2.9106    1.0000 </r>
       <r>    6.2364    0.0000 </r>
       <r>    9.1542    0.0000 </r>
       <r>   11.2546    0.0000 </r>
       <r>   13.3312    0.0000 </r>
       <r>   14.3847    0.0000 </r>
       <r>   17.3127    0.0000 </r>
       <r>   18.8563    0.0000 </r>
      </set>
      <set comment="kpoint 14">
       <r>    3.0079    1.0000 </r>
       <r>    3.4760    1.0000 </r>
       <r>    4.9450    1.0000 </r>
       <r>    7.7321    0.0000 </r>
       <r>   10.2653    0.0000 </r>
       <r>   12.5375    0.0000 </r>
       <r>   15.6564    0.0000 </r>
       <r>   18.4032    0.0000 </r>
       <r>   18.8678    0.0000 </r>
      </set>
      <set comment="kpoint 15">
       <r>    1.5769    1.0000 </r>
       <r>    4.6233    1.0000 </r>
       <r>    5.3568    0.9293 </r>
       <r>    6.4222    0.0000 </r>
       <r>   10.1808    0.0000 </r>
       <r>   11.7473    0.0000 </r>
       <r>   15.3439    0.0000 </r>
       <r>   18.8620    0.0000 </r>
       <r>   19.2622    0.0000 </r>
      </set>
      <set comment="kpoint 16">
       <r>    1.4484    1.0000 </r>
       <r>    2.4555    1.0000 </r>
       <r>    7.4350    0.0000 </r>
       <r>   10.3796    0.0000 </r>
       <r>   11.4510    0.0000 </r>
       <r>   11.9488    0.0000 </r>
       <r>   15.3733    0.0000 </r>
       <r>   17.0524    0.0000 </r>
       <r>   18.1581    0.0000 </r>
      </set>
      <set comment="kpoint 17">
       <r>    2.0232    1.0000 </r>
       <r>    3.1901    1.0000 </r>
       <r>    5.2941    1.0117 </r>
       <r>    8.5945    0.0000 </r>
       <r>   10.3426    0.0000 </r>
       <r>   12.0808    0.0000 </r>
       <r>   15.9744    0.0000 </r>
       <r>   18.8557    0.0000 </r>
       <r>   18.9748    0.0000 </r>
      </set>
      <set comment="kpoint 18">
       <r>    0.9014    1.0000 </r>
       <r>    3.4114    1.0000 </r>
       <r>    5.6993    0.0000 </r>
       <r>    8.1148    0.0000 </r>
       <r>    8.7485    0.0000 </r>
       <r>   10.2442    0.0000 </r>
       <r>   18.8535    0.0000 </r>
       <r>   19.8134    0.0000 </r>
       <r>   21.2653    0.0000 </r>
      </set>
      <set comment="kpoint 19">
       <r>   -0.4945    1.0000 </r>
       <r>    4.8003    1.0000 </r>
       <r>    6.3036    0.0000 </r>
       <r>    6.3036    0.0000 </r>
       <r>    8.8175    0.0000 </r>
       <r>    8.8175    0.0000 </r>
       <r>   17.7801    0.0000 </r>
       <r>   18.8612    0.0000 </r>
       <r>   21.2008    0.0000 </r>
      </set>
      <set comment="kpoint 20">
       <r>    0.9962    1.0000 </r>
       <r>    4.3671    1.0000 </r>
       <r>    5.3911    0.4455 </r>
       <r>    6.8379    0.0000 </r>
       <r>    8.1260    0.0000 </r>
       <r>   11.1512    0.0000 </r>
       <r>   17.8428    0.0000 </r>
       <r>   18.8660    0.0000 </r>
       <r>   20.9876    0.0000 </r>
      </set>
      <set comment="kpoint 21">
       <r>    2.6685    1.0000 </r>
       <r>    3.9576    1.0000 </r>
       <r>    4.7697    1.0000 </r>
       <r>    7.2482    0.0000 </r>
       <r>    9.4367    0.0000 </r>
       <r>   12.2880    0.0000 </r>
       <r>   16.2064    0.0000 </r>
       <r>   18.8609    0.0000 </r>
       <r>   19.2442    0.0000 </r>
      </set>
      <set comment="kpoint 22">
       <r>    2.1852    1.0000 </r>
       <r>    3.5383    1.0000 </r>
       <r>    5.2061    1.0000 </r>
       <r>    7.6521    0.0000 </r>
       <r>   11.1792    0.0000 </r>
       <r>   12.1239    0.0000 </r>
       <r>   14.5356    0.0000 </r>
       <r>   18.8606    0.0000 </r>
       <r>   20.3825    0.0000 </r>
      </set>
      <set comment="kpoint 23">
       <r>    1.4181    1.0000 </r>
       <r>    4.1267    1.0000 </r>
       <r>    5.2320    1.0000 </r>
       <r>    6.8462    0.0000 </r>
       <r>   10.2042    0.0000 </r>
       <r>   10.8869    0.0000 </r>
       <r>   16.4651    0.0000 </r>
       <r>   18.8630    0.0000 </r>
       <r>   20.0892    0.0000 </r>
      </set>
      <set comment="kpoint 24">
       <r>    2.8764    1.0000 </r>
       <r>    3.7052    1.0000 </r>
       <r>    4.4103    1.0000 </r>
       <r>    7.8386    0.0000 </r>
       <r>   10.1515    0.0000 </r>
       <r>   12.7953    0.0000 </r>
       <r>   15.5694    0.0000 </r>
       <r>   18.6780    0.0000 </r>
       <r>   18.8682    0.0000 </r>
      </set>
      <set comment="kpoint 25">
       <r>    2.7846    1.0000 </r>
       <r>    3.6938    1.0000 </r>
       <r>    4.8688    1.0000 </r>
       <r>    7.7876    0.0000 </r>
       <r>   11.1687    0.0000 </r>
       <r>   13.9977    0.0000 </r>
       <r>   14.7514    0.0000 </r>
       <r>   17.0544    0.0000 </r>
       <r>   18.8636    0.0000 </r>
      </set>
      <set comment="kpoint 26">
       <r>    2.3441    1.0000 </r>
       <r>    3.2461    1.0000 </r>
       <r>    5.7320    0.0000 </r>
       <r>    8.5318    0.0000 </r>
       <r>   10.7676    0.0000 </r>
       <r>   12.6649    0.0000 </r>
       <r>   14.6731    0.0000 </r>
       <r>   18.6303    0.0000 </r>
       <r>   18.8840    0.0000 </r>
      </set>
      <set comment="kpoint 27">
       <r>    0.8978    1.0000 </r>
       <r>    5.5782    0.0000 </r>
       <r>    5.8084    0.0000 </r>
       <r>    5.8084    0.0000 </r>
       <r>   10.5694    0.0000 </r>
       <r>   10.5694    0.0000 </r>
       <r>   15.5274    0.0000 </r>
       <r>   18.0430    0.0000 </r>
       <r>   18.8650    0.0000 </r>
      </set>
      <set comment="kpoint 28">
       <r>    1.8905    1.0000 </r>
       <r>    4.4274    1.0000 </r>
       <r>    5.5315   -0.0002 </r>
       <r>    6.4832    0.0000 </r>
       <r>   10.4250    0.0000 </r>
       <r>   12.2244    0.0000 </r>
       <r>   14.5881    0.0000 </r>
       <r>   18.8616    0.0000 </r>
       <r>   19.4334    0.0000 </r>
      </set>
     </set>
     <set comment="spin 2">
      <set comment="kpoint 1">
       <r>   -2.2010    1.0000 </r>
       <r>    5.7288    0.0000 </r>
       <r>    6.0765    0.0000 </r>
       <r>    6.0765    0.0000 </r>
       <r>    8.6826    0.0000 </r>
       <r>    8.6826    0.0000 </r>
       <r>   18.4130    0.0000 </r>
       <r>   18.8733    0.0000 </r>
       <r>   21.3239    0.0000 </r>
      </set>
      <set comment="kpoint 2">
       <r>   -0.9381    1.0000 </r>
       <r>    4.9147    1.0000 </r>
       <r>    6.3329    0.0000 </r>
       <r>    6.5752    0.0000 </r>
       <r>    7.9566    0.0000 </r>
       <r>    9.1474    0.0000 </r>
       <r>   18.8677    0.0000 </r>
       <r>   19.1418    0.0000 </r>
       <r>   20.8294    0.0000 </r>
      </set>
      <set comment="kpoint 3">
       <r>    0.9096    1.0000 </r>
       <r>    4.9202    1.0000 </r>
       <r>    5.7488    0.0000 </r>
       <r>    6.1590    0.0000 </r>
       <r>    9.4403    0.0000 </r>
       <r>   10.8292    0.0000 </r>
       <r>   16.4388    0.0000 </r>
       <r>   18.8749    0.0000 </r>
       <r>   19.3866    0.0000 </r>
      </set>
      <set comment="kpoint 4">
       <r>    1.2654    1.0000 </r>
       <r>    5.2149    1.0000 </r>
       <r>    5.9576    0.0000 </r>
       <r>    5.9714    0.0000 </r>
       <r>   11.0419    0.0000 </r>
       <r>   11.2072    0.0000 </r>
       <r>   14.8586    0.0000 </r>
       <r>   18.0462    0.0000 </r>
       <r>   18.8787    0.0000 </r>
      </set>
      <set comment="kpoint 5">
       <r>    0.4095    1.0000 </r>
       <r>    4.6083    1.0000 </r>
       <r>    5.9345    0.0000 </r>
       <r>    6.4184    0.0000 </r>
       <r>    9.0306    0.0000 </r>
       <r>    9.9711    0.0000 </r>
       <r>   17.3302    0.0000 </r>
       <r>   18.8779    0.0000 </r>
       <r>   20.6677    0.0000 </r>
      </set>
      <set comment="kpoint 6">
       <r>   -1.5377    1.0000 </r>
       <r>    5.1594    1.0000 </r>
       <r>    6.3964    0.0000 </r>
       <r>    6.4316    0.0000 </r>
       <r>    7.9470    0.0000 </r>
       <r>    8.9943    0.0000 </r>
       <r>   18.8734    0.0000 </r>
       <r>   19.6485    0.0000 </r>
       <r>   20.5007    0.0000 </r>
      </set>
      <set comment="kpoint 7">
       <r>   -0.3517    1.0000 </r>
       <r>    4.2859    1.0000 </r>
       <r>    6.3633    0.0000 </r>
       <r>    7.1301    0.0000 </r>
       <r>    7.6426    0.0000 </r>
       <r>    9.5644    0.0000 </r>
       <r>   18.8732    0.0000 </r>
       <r>   20.2796    0.0000 </r>
       <r>   21.9450    0.0000 </r>
      </set>
      <set comment="kpoint 8">
       <r>    1.3932    1.0000 </r>
       <r>    3.7471    1.0000 </r>
       <r>    5.1847    1.0000 </r>
       <r>    7.6958    0.0000 </r>
       <r>    9.0026    0.0000 </r>
       <r>   11.1073    0.0000 </r>
       <r>   18.0079    0.0000 </r>
       <r>   18.8844    0.0000 </r>
       <r>   21.2321    0.0000 </r>
      </set>
      <set comment="kpoint 9">
       <r>    2.4311    1.0000 </r>
       <r>    3.8954    1.0000 </r>
       <r>    5.2172    1.0000 </r>
       <r>    7.1230    0.0000 </r>
       <r>   10.6380    0.0000 </r>
       <r>   12.9346    0.0000 </r>
       <r>   14.0772    0.0000 </r>
       <r>   18.8775    0.0000 </r>
       <r>   20.1987    0.0000 </r>
      </set>
      <set comment="kpoint 10">
       <r>    2.0952    1.0000 </r>
       <r>    4.2238    1.0000 </r>
       <r>    4.6576    1.0000 </r>
       <r>    7.2549    0.0000 </r>
       <r>    9.0201    0.0000 </r>
       <r>   12.1739    0.0000 </r>
       <r>   16.6745    0.0000 </r>
       <r>   18.8805    0.0000 </r>
       <r>   20.4704    0.0000 </r>
      </set>
      <set comment="kpoint 11">
       <r>    0.1462    1.0000 </r>
       <r>    4.3682    1.0000 </r>
       <r>    5.9196    0.0000 </r>
       <r>    6.9809    0.0000 </r>
       <r>    7.9683    0.0000 </r>
       <r>   10.0371    0.0000 </r>
       <r>   18.7858    0.0000 </r>
       <r>   18.9181    0.0000 </r>
       <r>   21.9265    0.0000 </r>
      </set>
      <set comment="kpoint 12">
       <r>    1.5218    1.0000 </r>
       <r>    2.8195    1.0000 </r>
       <r>    6.2448    0.0000 </r>
       <r>    9.3778    0.0000 </r>
       <r>   10.3845    0.0000 </r>
       <r>   10.9801    0.0000 </r>
       <r>   17.4697    0.0000 </r>
       <r>   18.8628    0.0000 </r>
       <r>   18.8751    0.0000 </r>
      </set>
      <set comment="kpoint 13">
       <r>    2.0170    1.0000 </r>
       <r>    2.9449    1.0000 </r>
       <r>    6.2703    0.0000 </r>
       <r>    9.1855    0.0000 </r>
       <r>   11.2846    0.0000 </r>
       <r>   13.3619    0.0000 </r>
       <r>   14.4200    0.0000 </r>
       <r>   17.3474    0.0000 </r>
       <r>   18.8729    0.0000 </r>
      </set>
      <set comment="kpoint 14">
       <r>    3.0421    1.0000 </r>
       <r>    3.5085    1.0000 </r>
       <r>    4.9789    1.0000 </r>
       <r>    7.7641    0.0000 </r>
       <r>   10.2965    0.0000 </r>
       <r>   12.5717    0.0000 </r>
       <r>   15.6870    0.0000 </r>
       <r>   18.4335    0.0000 </r>
       <r>   18.8844    0.0000 </r>
      </set>
      <set comment="kpoint 15">
       <r>    1.6123    1.0000 </r>
       <r>    4.6555    1.0000 </r>
       <r>    5.3908    0.4514 </r>
       <r>    6.4553    0.0000 </r>
       <r>   10.2115    0.0000 </r>
       <r>   11.7768    0.0000 </r>
       <r>   15.3759    0.0000 </r>
       <r>   18.8784    0.0000 </r>
       <r>   19.2933    0.0000 </r>
      </set>
      <set comment="kpoint 16">
       <r>    1.4813    1.0000 </r>
       <r>    2.4901    1.0000 </r>
       <r>    7.4692    0.0000 </r>
       <r>   10.4094    0.0000 </r>
       <r>   11.4803    0.0000 </r>
       <r>   11.9790    0.0000 </r>
       <r>   15.4095    0.0000 </r>
       <r>   17.0887    0.0000 </r>
       <r>   18.2213    0.0000 </r>
      </set>
      <set comment="kpoint 17">
       <r>    2.0565    1.0000 </r>
       <r>    3.2243    1.0000 </r>
       <r>    5.3282    1.0353 </r>
       <r>    8.6263    0.0000 </r>
       <r>   10.3738    0.0000 </r>
       <r>   12.1108    0.0000 </r>
       <r>   16.0089    0.0000 </r>
       <r>   18.8728    0.0000 </r>
       <r>   19.0086    0.0000 </r>
      </set>
      <set comment="kpoint 18">
       <r>    0.9357    1.0000 </r>
       <r>    3.4460    1.0000 </r>
       <r>    5.7327    0.0000 </r>
       <r>    8.1476    0.0000 </r>
       <r>    8.7813    0.0000 </r>
       <r>   10.2740    0.0000 </r>
       <r>   18.8699    0.0000 </r>
       <r>   19.8454    0.0000 </r>
       <r>   21.2990    0.0000 </r>
      </set>
      <set comment="kpoint 19">
       <r>   -0.4593    1.0000 </r>
       <r>    4.8343    1.0000 </r>
       <r>    6.3373    0.0000 </r>
       <r>    6.3373    0.0000 </r>
       <r>    8.8490    0.0000 </r>
       <r>    8.8490    0.0000 </r>
       <r>   17.8107    0.0000 </r>
       <r>   18.8776    0.0000 </r>
       <r>   21.2316    0.0000 </r>
      </set>
      <set comment="kpoint 20">
       <r>    1.0312    1.0000 </r>
       <r>    4.4012    1.0000 </r>
       <r>    5.4243    0.0309 </r>
       <r>    6.8705    0.0000 </r>
       <r>    8.1586    0.0000 </r>
       <r>   11.1811    0.0000 </r>
       <r>   17.8736    0.0000 </r>
       <r>   18.8825    0.0000 </r>
       <r>   21.0206    0.0000 </r>
      </set>
      <set comment="kpoint 21">
       <r>    2.7036    1.0000 </r>
       <r>    3.9896    1.0000 </r>
       <r>    4.8037    1.0000 </r>
       <r>    7.2804    0.0000 </r>
       <r>    9.4684    0.0000 </r>
       <r>   12.3200    0.0000 </r>
       <r>   16.2378    0.0000 </r>
       <r>   18.8773    0.0000 </r>
       <r>   19.2748    0.0000 </r>
      </set>
      <set comment="kpoint 22">
       <r>    2.2195    1.0000 </r>
       <r>    3.5712    1.0000 </r>
       <r>    5.2403    1.0001 </r>
       <r>    7.6845    0.0000 </r>
       <r>   11.2084    0.0000 </r>
       <r>   12.1556    0.0000 </r>
       <r>   14.5692    0.0000 </r>
       <r>   18.8769    0.0000 </r>
       <r>   20.3904    0.0000 </r>
      </set>
      <set comment="kpoint 23">
       <r>    1.4531    1.0000 </r>
       <r>    4.1598    1.0000 </r>
       <r>    5.2657    1.0015 </r>
       <r>    6.8793    0.0000 </r>
       <r>   10.2359    0.0000 </r>
       <r>   10.9164    0.0000 </r>
       <r>   16.4969    0.0000 </r>
       <r>   18.8794    0.0000 </r>
       <r>   20.1202    0.0000 </r>
      </set>
      <set comment="kpoint 24">
       <r>    2.9097    1.0000 </r>
       <r>    3.7386    1.0000 </r>
       <r>    4.4445    1.0000 </r>
       <r>    7.8706    0.0000 </r>
       <r>   10.1829    0.0000 </r>
       <r>   12.8269    0.0000 </r>
       <r>   15.6022    0.0000 </r>
       <r>   18.7101    0.0000 </r>
       <r>   18.8852    0.0000 </r>
      </set>
      <set comment="kpoint 25">
       <r>    2.8168    1.0000 </r>
       <r>    3.7279    1.0000 </r>
       <r>    4.9028    1.0000 </r>
       <r>    7.8203    0.0000 </r>
       <r>   11.1990    0.0000 </r>
       <r>   14.0311    0.0000 </r>
       <r>   14.7841    0.0000 </r>
       <r>   17.0875    0.0000 </r>
       <r>   18.8800    0.0000 </r>
      </set>
      <set comment="kpoint 26">
       <r>    2.3775    1.0000 </r>
       <r>    3.2796    1.0000 </r>
       <r>    5.7658    0.0000 </r>
       <r>    8.5633    0.0000 </r>
       <r>   10.7979    0.0000 </r>
       <r>   12.7009    0.0000 </r>
       <r>   14.7033    0.0000 </r>
       <r>   18.6579    0.0000 </r>
       <r>   18.9017    0.0000 </r>
      </set>
      <set comment="kpoint 27">
       <r>    0.9335    1.0000 </r>
       <r>    5.6105    0.0000 </r>
       <r>    5.8419    0.0000 </r>
       <r>    5.8419    0.0000 </r>
       <r>   10.5994    0.0000 </r>
       <r>   10.5994    0.0000 </r>
       <r>   15.5582    0.0000 </r>
       <r>   18.0747    0.0000 </r>
       <r>   18.8814    0.0000 </r>
      </set>
      <set comment="kpoint 28">
       <r>    1.9260    1.0000 </r>
       <r>    4.4594    1.0000 </r>
       <r>    5.5651    0.0000 </r>
       <r>    6.5162    0.0000 </r>
       <r>   10.4552    0.0000 </r>
       <r>   12.2548    0.0000 </r>
       <r>   14.6201    0.0000 </r>
       <r>   18.8780    0.0000 </r>
       <r>   19.4637    0.0000 </r>
      </set>
     </set>
    </set>
   </array>
  </eigenvalues>
  <separator name="orbital magnetization" >
   <v name="MAGDIPOLOUT">      0.00000000      0.00000000      0.00000000</v>
  </separator>
  <dos>
   <i name="efermi">      5.38790692 </i>
   <total>
    <array>
     <dimension dim="1">gridpoints</dimension>
     <dimension dim="2">spin</dimension>
     <field>energy</field>
     <field>total</field>
     <field>integrated</field>
     <set>
      <set comment="spin 1">
       <r>    -3.4455     0.0000     0.0000 </r>
       <r>    -3.3568     0.0000     0.0000 </r>
       <r>    -3.2682     0.0000     0.0000 </r>
       <r>    -3.1795     0.0000     0.0000 </r>
       <r>    -3.0908     0.0000     0.0000 </r>
       <r>    -3.0022     0.0000     0.0000 </r>
       <r>    -2.9135     0.0000     0.0000 </r>
       <r>    -2.8248     0.0000     0.0000 </r>
       <r>    -2.7362     0.0000     0.0000 </r>
       <r>    -2.6475     0.0000     0.0000 </r>
       <r>    -2.5588     0.0000     0.0000 </r>
       <r>    -2.4702     0.0000     0.0000 </r>
       <r>    -2.3815     0.0000     0.0000 </r>
       <r>    -2.2928    -0.0035    -0.0003 </r>
       <r>    -2.2042     0.1016     0.0087 </r>
       <r>    -2.1155     0.0065     0.0093 </r>
       <r>    -2.0268    -0.0002     0.0093 </r>
       <r>    -1.9382     0.0000     0.0093 </r>
       <r>    -1.8495     0.0000     0.0093 </r>
       <r>    -1.7608     0.0000     0.0093 </r>
       <r>    -1.6722    -0.0026     0.0090 </r>
       <r>    -1.5835     0.1045     0.0183 </r>
       <r>    -1.4949     0.2192     0.0377 </r>
       <r>    -1.4062    -0.0078     0.0370 </r>
       <r>    -1.3175     0.0000     0.0370 </r>
       <r>    -1.2289     0.0000     0.0370 </r>
       <r>    -1.1402     0.0000     0.0370 </r>
       <r>    -1.0515    -0.0077     0.0364 </r>
       <r>    -0.9629     0.2185     0.0557 </r>
       <r>    -0.8742     0.1052     0.0650 </r>
       <r>    -0.7855    -0.0026     0.0648 </r>
       <r>    -0.6969     0.0000     0.0648 </r>
       <r>    -0.6082    -0.0003     0.0648 </r>
       <r>    -0.5195     0.0137     0.0660 </r>
       <r>    -0.4309     0.0920     0.0742 </r>
       <r>    -0.3422     0.3153     0.1021 </r>
       <r>    -0.2535    -0.0028     0.1019 </r>
       <r>    -0.1649    -0.0002     0.1019 </r>
       <r>    -0.0762     0.0000     0.1019 </r>
       <r>     0.0125    -0.0054     0.1014 </r>
       <r>     0.1011     0.2145     0.1204 </r>
       <r>     0.1898     0.4328     0.1588 </r>
       <r>     0.2784    -0.0185     0.1571 </r>
       <r>     0.3671     0.1227     0.1680 </r>
       <r>     0.4558     0.2007     0.1858 </r>
       <r>     0.5444    -0.0068     0.1852 </r>
       <r>     0.6331     0.0000     0.1852 </r>
       <r>     0.7218     0.0000     0.1852 </r>
       <r>     0.8104    -0.0170     0.1837 </r>
       <r>     0.8991     0.4855     0.2267 </r>
       <r>     0.9878     0.3832     0.2607 </r>
       <r>     1.0764     0.1998     0.2784 </r>
       <r>     1.1651    -0.0180     0.2768 </r>
       <r>     1.2538     0.2769     0.3014 </r>
       <r>     1.3424     0.1876     0.3180 </r>
       <r>     1.4311     0.7880     0.3879 </r>
       <r>     1.5198     0.6069     0.4417 </r>
       <r>     1.6084     0.6168     0.4964 </r>
       <r>     1.6971     0.0422     0.5001 </r>
       <r>     1.7858    -0.0029     0.4998 </r>
       <r>     1.8744     0.0754     0.5065 </r>
       <r>     1.9631     0.3306     0.5358 </r>
       <r>     2.0517     1.3465     0.6552 </r>
       <r>     2.1404     0.4549     0.6956 </r>
       <r>     2.2291     0.3021     0.7223 </r>
       <r>     2.3177     0.0194     0.7241 </r>
       <r>     2.4064     0.7178     0.7877 </r>
       <r>     2.4951     0.5161     0.8335 </r>
       <r>     2.5837    -0.0072     0.8328 </r>
       <r>     2.6724     0.1799     0.8488 </r>
       <r>     2.7611     0.2777     0.8734 </r>
       <r>     2.8497     0.8820     0.9516 </r>
       <r>     2.9384     1.1114     1.0502 </r>
       <r>     3.0271     0.5634     1.1001 </r>
       <r>     3.1157     0.1090     1.1098 </r>
       <r>     3.2044     0.4739     1.1518 </r>
       <r>     3.2931     0.4899     1.1952 </r>
       <r>     3.3817     0.0101     1.1961 </r>
       <r>     3.4704     0.5490     1.2448 </r>
       <r>     3.5591     0.6411     1.3017 </r>
       <r>     3.6477    -0.0074     1.3010 </r>
       <r>     3.7364     1.7966     1.4603 </r>
       <r>     3.8250     0.1498     1.4736 </r>
       <r>     3.9137     0.6250     1.5290 </r>
       <r>     4.0024     0.3025     1.5558 </r>
       <r>     4.0910     0.0031     1.5561 </r>
       <r>     4.1797     0.5093     1.6013 </r>
       <r>     4.2684     0.6569     1.6595 </r>
       <r>     4.3570     0.6894     1.7206 </r>
       <r>     4.4457     1.1911     1.8262 </r>
       <r>     4.5344     0.0664     1.8321 </r>
       <r>     4.6230     0.9463     1.9160 </r>
       <r>     4.7117     0.6415     1.9729 </r>
       <r>     4.8004     0.3015     1.9996 </r>
       <r>     4.8890     0.9677     2.0854 </r>
       <r>     4.9777     0.9948     2.1736 </r>
       <r>     5.0664     0.0018     2.1738 </r>
       <r>     5.1550     0.7412     2.2395 </r>
       <r>     5.2437     1.7088     2.3910 </r>
       <r>     5.3324     0.7715     2.4594 </r>
       <r>     5.4210     0.8712     2.5367 </r>
       <r>     5.5097     0.0534     2.5414 </r>
       <r>     5.5983     0.3551     2.5729 </r>
       <r>     5.6870     0.1728     2.5882 </r>
       <r>     5.7757     0.9177     2.6696 </r>
       <r>     5.8643     0.2752     2.6940 </r>
       <r>     5.9530     1.3833     2.8166 </r>
       <r>     6.0417     0.1836     2.8329 </r>
       <r>     6.1303     0.2833     2.8580 </r>
       <r>     6.2190     0.4708     2.8998 </r>
       <r>     6.3077     0.9756     2.9863 </r>
       <r>     6.3963     1.2195     3.0944 </r>
       <r>     6.4850     1.0005     3.1831 </r>
       <r>     6.5737     0.4270     3.2210 </r>
       <r>     6.6623     0.0144     3.2223 </r>
       <r>     6.7510    -0.0092     3.2215 </r>
       <r>     6.8397     0.2943     3.2475 </r>
       <r>     6.9283     0.4766     3.2898 </r>
       <r>     7.0170     0.4855     3.3329 </r>
       <r>     7.1057     0.6759     3.3928 </r>
       <r>     7.1943     0.3270     3.4218 </r>
       <r>     7.2830     0.8914     3.5008 </r>
       <r>     7.3717    -0.0197     3.4991 </r>
       <r>     7.4603     0.2842     3.5243 </r>
       <r>     7.5490     0.0256     3.5265 </r>
       <r>     7.6376     0.4514     3.5666 </r>
       <r>     7.7263     1.0758     3.6619 </r>
       <r>     7.8150     1.0269     3.7530 </r>
       <r>     7.9036     0.8076     3.8246 </r>
       <r>     7.9923     1.0776     3.9201 </r>
       <r>     8.0810    -0.0274     3.9177 </r>
       <r>     8.1696     0.6269     3.9733 </r>
       <r>     8.2583    -0.0119     3.9722 </r>
       <r>     8.3470    -0.0002     3.9722 </r>
       <r>     8.4356    -0.0032     3.9719 </r>
       <r>     8.5243     0.1003     3.9808 </r>
       <r>     8.6130     0.7224     4.0449 </r>
       <r>     8.7016     0.3317     4.0743 </r>
       <r>     8.7903     0.3326     4.1038 </r>
       <r>     8.8790     0.1770     4.1195 </r>
       <r>     8.9676     0.6133     4.1739 </r>
       <r>     9.0563     1.3061     4.2897 </r>
       <r>     9.1450     0.4718     4.3315 </r>
       <r>     9.2336     0.4530     4.3717 </r>
       <r>     9.3223     0.0239     4.3738 </r>
       <r>     9.4109     0.4905     4.4173 </r>
       <r>     9.4996     0.4407     4.4563 </r>
       <r>     9.5883     0.2936     4.4824 </r>
       <r>     9.6769    -0.0100     4.4815 </r>
       <r>     9.7656    -0.0001     4.4815 </r>
       <r>     9.8543    -0.0055     4.4810 </r>
       <r>     9.9429     0.1528     4.4945 </r>
       <r>    10.0316     0.7151     4.5579 </r>
       <r>    10.1203     0.0939     4.5663 </r>
       <r>    10.2089     1.3694     4.6877 </r>
       <r>    10.2976     1.0733     4.7829 </r>
       <r>    10.3863     1.1736     4.8869 </r>
       <r>    10.4749     0.4493     4.9268 </r>
       <r>    10.5636     0.0703     4.9330 </r>
       <r>    10.6523     0.7661     5.0009 </r>
       <r>    10.7409     0.0141     5.0022 </r>
       <r>    10.8296     0.5779     5.0534 </r>
       <r>    10.9183     0.3316     5.0828 </r>
       <r>    11.0069     0.4375     5.1216 </r>
       <r>    11.0956     0.6524     5.1794 </r>
       <r>    11.1842     1.2939     5.2942 </r>
       <r>    11.2729     0.9465     5.3781 </r>
       <r>    11.3616     0.1204     5.3888 </r>
       <r>    11.4502     0.1541     5.4024 </r>
       <r>    11.5389     0.1658     5.4171 </r>
       <r>    11.6276    -0.0062     5.4166 </r>
       <r>    11.7162     0.0452     5.4206 </r>
       <r>    11.8049     0.6041     5.4741 </r>
       <r>    11.8936    -0.0318     5.4713 </r>
       <r>    11.9822     0.3018     5.4981 </r>
       <r>    12.0709     0.2047     5.5162 </r>
       <r>    12.1596     1.2176     5.6242 </r>
       <r>    12.2482     0.4420     5.6634 </r>
       <r>    12.3369     0.3585     5.6952 </r>
       <r>    12.4256    -0.0102     5.6943 </r>
       <r>    12.5142     0.0956     5.7027 </r>
       <r>    12.6029     0.5436     5.7509 </r>
       <r>    12.6916     0.2636     5.7743 </r>
       <r>    12.7802     0.2000     5.7920 </r>
       <r>    12.8689     0.5084     5.8371 </r>
       <r>    12.9575     0.6033     5.8906 </r>
       <r>    13.0462    -0.0193     5.8889 </r>
       <r>    13.1349    -0.0001     5.8889 </r>
       <r>    13.2235    -0.0030     5.8886 </r>
       <r>    13.3122     0.1302     5.9002 </r>
       <r>    13.4009     0.5194     5.9462 </r>
       <r>    13.4895    -0.0200     5.9444 </r>
       <r>    13.5782     0.0000     5.9444 </r>
       <r>    13.6669     0.0000     5.9444 </r>
       <r>    13.7555     0.0000     5.9444 </r>
       <r>    13.8442     0.0000     5.9444 </r>
       <r>    13.9329    -0.0240     5.9423 </r>
       <r>    14.0215     0.6586     6.0007 </r>
       <r>    14.1102     0.6421     6.0576 </r>
       <r>    14.1989    -0.0235     6.0556 </r>
       <r>    14.2875    -0.0060     6.0550 </r>
       <r>    14.3762     0.2303     6.0754 </r>
       <r>    14.4649     0.4064     6.1115 </r>
       <r>    14.5535     0.2539     6.1340 </r>
       <r>    14.6422     0.4000     6.1695 </r>
       <r>    14.7308     0.4039     6.2053 </r>
       <r>    14.8195     0.6427     6.2623 </r>
       <r>    14.9082     0.1818     6.2784 </r>
       <r>    14.9968    -0.0069     6.2778 </r>
       <r>    15.0855     0.0000     6.2778 </r>
       <r>    15.1742     0.0000     6.2778 </r>
       <r>    15.2628    -0.0151     6.2764 </r>
       <r>    15.3515     0.4608     6.3173 </r>
       <r>    15.4402     0.5088     6.3624 </r>
       <r>    15.5288     0.0440     6.3663 </r>
       <r>    15.6175     0.6968     6.4281 </r>
       <r>    15.7062     0.6178     6.4829 </r>
       <r>    15.7948    -0.0155     6.4815 </r>
       <r>    15.8835    -0.0088     6.4807 </r>
       <r>    15.9722     0.2987     6.5072 </r>
       <r>    16.0608     0.3473     6.5380 </r>
       <r>    16.1495    -0.0215     6.5361 </r>
       <r>    16.2382     0.3037     6.5630 </r>
       <r>    16.3268     0.0139     6.5642 </r>
       <r>    16.4155     0.1934     6.5814 </r>
       <r>    16.5042     0.4378     6.6202 </r>
       <r>    16.5928    -0.0114     6.6192 </r>
       <r>    16.6815     0.6344     6.6755 </r>
       <r>    16.7701     0.0059     6.6760 </r>
       <r>    16.8588    -0.0005     6.6759 </r>
       <r>    16.9475    -0.0049     6.6755 </r>
       <r>    17.0361     0.2137     6.6944 </r>
       <r>    17.1248     0.7602     6.7618 </r>
       <r>    17.2135    -0.0397     6.7583 </r>
       <r>    17.3021     0.3830     6.7923 </r>
       <r>    17.3908     0.5846     6.8441 </r>
       <r>    17.4795     0.2991     6.8706 </r>
       <r>    17.5681    -0.0026     6.8704 </r>
       <r>    17.6568    -0.0003     6.8704 </r>
       <r>    17.7455     0.0017     6.8705 </r>
       <r>    17.8341     0.2175     6.8898 </r>
       <r>    17.9228     0.1829     6.9060 </r>
       <r>    18.0115     0.7666     6.9740 </r>
       <r>    18.1001     0.2927     6.9999 </r>
       <r>    18.1888     0.2911     7.0257 </r>
       <r>    18.2775     0.0222     7.0277 </r>
       <r>    18.3661     0.0463     7.0318 </r>
       <r>    18.4548     0.7061     7.0944 </r>
       <r>    18.5434    -0.0260     7.0921 </r>
       <r>    18.6321     0.1623     7.1065 </r>
       <r>    18.7208     0.7927     7.1768 </r>
       <r>    18.8094     0.4142     7.2135 </r>
       <r>    18.8981    10.7539     8.1670 </r>
       <r>    18.9868     1.1862     8.2722 </r>
       <r>    19.0754     0.1826     8.2884 </r>
       <r>    19.1641     0.2947     8.3145 </r>
       <r>    19.2528     0.4182     8.3516 </r>
       <r>    19.3414     0.6283     8.4073 </r>
       <r>    19.4301     0.3583     8.4390 </r>
       <r>    19.5188     0.1680     8.4539 </r>
       <r>    19.6074     0.1105     8.4637 </r>
       <r>    19.6961     0.2065     8.4821 </r>
       <r>    19.7848     0.0225     8.4840 </r>
       <r>    19.8734     0.2954     8.5102 </r>
       <r>    19.9621    -0.0113     8.5092 </r>
       <r>    20.0508     0.0047     8.5096 </r>
       <r>    20.1394     0.3669     8.5422 </r>
       <r>    20.2281     0.6419     8.5991 </r>
       <r>    20.3167     0.2399     8.6204 </r>
       <r>    20.4054     0.2541     8.6429 </r>
       <r>    20.4941     0.3075     8.6702 </r>
       <r>    20.5827     0.6382     8.7267 </r>
       <r>    20.6714     0.3553     8.7583 </r>
       <r>    20.7601     0.0192     8.7600 </r>
       <r>    20.8487     0.3139     8.7878 </r>
       <r>    20.9374    -0.0164     8.7863 </r>
       <r>    21.0261     0.3155     8.8143 </r>
       <r>    21.1147    -0.0078     8.8136 </r>
       <r>    21.2034     0.4165     8.8505 </r>
       <r>    21.2921     0.6692     8.9099 </r>
       <r>    21.3807     0.0790     8.9169 </r>
       <r>    21.4694    -0.0024     8.9167 </r>
       <r>    21.5581     0.0000     8.9167 </r>
       <r>    21.6467     0.0000     8.9167 </r>
       <r>    21.7354     0.0000     8.9167 </r>
       <r>    21.8241    -0.0241     8.9145 </r>
       <r>    21.9127     0.6660     8.9736 </r>
       <r>    22.0014     0.3062     9.0007 </r>
       <r>    22.0900    -0.0082     9.0000 </r>
       <r>    22.1787     0.0000     9.0000 </r>
       <r>    22.2674     0.0000     9.0000 </r>
       <r>    22.3560     0.0000     9.0000 </r>
       <r>    22.4447     0.0000     9.0000 </r>
       <r>    22.5334     0.0000     9.0000 </r>
       <r>    22.6220     0.0000     9.0000 </r>
       <r>    22.7107     0.0000     9.0000 </r>
       <r>    22.7994     0.0000     9.0000 </r>
       <r>    22.8880     0.0000     9.0000 </r>
       <r>    22.9767     0.0000     9.0000 </r>
       <r>    23.0654     0.0000     9.0000 </r>
       <r>    23.1540     0.0000     9.0000 </r>
      </set>
      <set comment="spin 2">
       <r>    -3.4455     0.0000     0.0000 </r>
       <r>    -3.3568     0.0000     0.0000 </r>
       <r>    -3.2682     0.0000     0.0000 </r>
       <r>    -3.1795     0.0000     0.0000 </r>
       <r>    -3.0908     0.0000     0.0000 </r>
       <r>    -3.0022     0.0000     0.0000 </r>
       <r>    -2.9135     0.0000     0.0000 </r>
       <r>    -2.8248     0.0000     0.0000 </r>
       <r>    -2.7362     0.0000     0.0000 </r>
       <r>    -2.6475     0.0000     0.0000 </r>
       <r>    -2.5588     0.0000     0.0000 </r>
       <r>    -2.4702     0.0000     0.0000 </r>
       <r>    -2.3815     0.0000     0.0000 </r>
       <r>    -2.2928    -0.0014    -0.0001 </r>
       <r>    -2.2042     0.0480     0.0041 </r>
       <r>    -2.1155     0.0597     0.0094 </r>
       <r>    -2.0268    -0.0019     0.0093 </r>
       <r>    -1.9382     0.0000     0.0093 </r>
       <r>    -1.8495     0.0000     0.0093 </r>
       <r>    -1.7608     0.0000     0.0093 </r>
       <r>    -1.6722    -0.0001     0.0092 </r>
       <r>    -1.5835    -0.0043     0.0089 </r>
       <r>    -1.4949     0.3187     0.0371 </r>
       <r>    -1.4062    -0.0008     0.0371 </r>
       <r>    -1.3175    -0.0002     0.0370 </r>
       <r>    -1.2289     0.0000     0.0370 </r>
       <r>    -1.1402     0.0000     0.0370 </r>
       <r>    -1.0515    -0.0010     0.0370 </r>
       <r>    -0.9629     0.0426     0.0407 </r>
       <r>    -0.8742     0.2827     0.0658 </r>
       <r>    -0.7855    -0.0110     0.0648 </r>
       <r>    -0.6969     0.0000     0.0648 </r>
       <r>    -0.6082     0.0000     0.0648 </r>
       <r>    -0.5195    -0.0037     0.0645 </r>
       <r>    -0.4309     0.0908     0.0725 </r>
       <r>    -0.3422     0.2236     0.0924 </r>
       <r>    -0.2535     0.1099     0.1021 </r>
       <r>    -0.1649    -0.0028     0.1019 </r>
       <r>    -0.0762     0.0000     0.1019 </r>
       <r>     0.0125    -0.0003     0.1018 </r>
       <r>     0.1011    -0.0069     0.1012 </r>
       <r>     0.1898     0.6378     0.1578 </r>
       <r>     0.2784    -0.0038     0.1574 </r>
       <r>     0.3671    -0.0005     0.1574 </r>
       <r>     0.4558     0.3186     0.1856 </r>
       <r>     0.5444    -0.0048     0.1852 </r>
       <r>     0.6331    -0.0001     0.1852 </r>
       <r>     0.7218     0.0000     0.1852 </r>
       <r>     0.8104    -0.0031     0.1849 </r>
       <r>     0.8991     0.1192     0.1955 </r>
       <r>     0.9878     0.6333     0.2516 </r>
       <r>     1.0764     0.2988     0.2781 </r>
       <r>     1.1651    -0.0062     0.2776 </r>
       <r>     1.2538     0.0990     0.2864 </r>
       <r>     1.3424     0.2066     0.3047 </r>
       <r>     1.4311     0.6622     0.3634 </r>
       <r>     1.5198     0.7442     0.4294 </r>
       <r>     1.6084     0.4481     0.4691 </r>
       <r>     1.6971     0.3602     0.5010 </r>
       <r>     1.7858    -0.0118     0.5000 </r>
       <r>     1.8744    -0.0088     0.4992 </r>
       <r>     1.9631     0.2865     0.5246 </r>
       <r>     2.0517     0.8954     0.6040 </r>
       <r>     2.1404     1.0332     0.6956 </r>
       <r>     2.2291     0.1935     0.7128 </r>
       <r>     2.3177     0.0965     0.7213 </r>
       <r>     2.4064     0.3728     0.7544 </r>
       <r>     2.4951     0.7826     0.8238 </r>
       <r>     2.5837     0.1111     0.8336 </r>
       <r>     2.6724     0.0185     0.8353 </r>
       <r>     2.7611     0.2705     0.8592 </r>
       <r>     2.8497     0.8730     0.9366 </r>
       <r>     2.9384     0.8990     1.0164 </r>
       <r>     3.0271     0.6182     1.0712 </r>
       <r>     3.1157     0.4658     1.1125 </r>
       <r>     3.2044     0.0954     1.1209 </r>
       <r>     3.2931     0.7615     1.1884 </r>
       <r>     3.3817     0.0583     1.1936 </r>
       <r>     3.4704     0.2903     1.2194 </r>
       <r>     3.5591     0.7704     1.2877 </r>
       <r>     3.6477     0.1820     1.3038 </r>
       <r>     3.7364     0.9129     1.3848 </r>
       <r>     3.8250     0.9993     1.4734 </r>
       <r>     3.9137     0.4726     1.5153 </r>
       <r>     4.0024     0.3662     1.5477 </r>
       <r>     4.0910     0.0800     1.5548 </r>
       <r>     4.1797     0.2548     1.5774 </r>
       <r>     4.2684     0.7652     1.6453 </r>
       <r>     4.3570     0.4341     1.6838 </r>
       <r>     4.4457     1.1786     1.7883 </r>
       <r>     4.5344     0.5155     1.8340 </r>
       <r>     4.6230     0.2885     1.8595 </r>
       <r>     4.7117     1.3096     1.9757 </r>
       <r>     4.8004     0.1000     1.9845 </r>
       <r>     4.8890     0.5125     2.0300 </r>
       <r>     4.9777     1.3597     2.1505 </r>
       <r>     5.0664     0.2916     2.1764 </r>
       <r>     5.1550     0.1402     2.1888 </r>
       <r>     5.2437     1.8764     2.3552 </r>
       <r>     5.3324     0.8329     2.4290 </r>
       <r>     5.4210     1.0031     2.5180 </r>
       <r>     5.5097     0.2108     2.5367 </r>
       <r>     5.5983     0.3319     2.5661 </r>
       <r>     5.6870     0.0704     2.5723 </r>
       <r>     5.7757     0.9196     2.6539 </r>
       <r>     5.8643     0.2880     2.6794 </r>
       <r>     5.9530     1.1060     2.7775 </r>
       <r>     6.0417     0.5520     2.8264 </r>
       <r>     6.1303     0.2171     2.8457 </r>
       <r>     6.2190     0.3091     2.8731 </r>
       <r>     6.3077     0.9457     2.9569 </r>
       <r>     6.3963     0.9985     3.0454 </r>
       <r>     6.4850     1.3581     3.1659 </r>
       <r>     6.5737     0.4833     3.2087 </r>
       <r>     6.6623     0.1577     3.2227 </r>
       <r>     6.7510    -0.0061     3.2221 </r>
       <r>     6.8397     0.0271     3.2245 </r>
       <r>     6.9283     0.5998     3.2777 </r>
       <r>     7.0170     0.6023     3.3311 </r>
       <r>     7.1057     0.2094     3.3497 </r>
       <r>     7.1943     0.7578     3.4169 </r>
       <r>     7.2830     0.7333     3.4819 </r>
       <r>     7.3717     0.2068     3.5002 </r>
       <r>     7.4603     0.1078     3.5098 </r>
       <r>     7.5490     0.2061     3.5281 </r>
       <r>     7.6376     0.0991     3.5369 </r>
       <r>     7.7263     1.1156     3.6358 </r>
       <r>     7.8150     0.9161     3.7170 </r>
       <r>     7.9036     0.9442     3.8007 </r>
       <r>     7.9923     1.2136     3.9083 </r>
       <r>     8.0810     0.0782     3.9153 </r>
       <r>     8.1696     0.4912     3.9588 </r>
       <r>     8.2583     0.1551     3.9726 </r>
       <r>     8.3470    -0.0037     3.9722 </r>
       <r>     8.4356    -0.0003     3.9722 </r>
       <r>     8.5243     0.0007     3.9723 </r>
       <r>     8.6130     0.4912     4.0158 </r>
       <r>     8.7016     0.6249     4.0712 </r>
       <r>     8.7903     0.2294     4.0916 </r>
       <r>     8.8790     0.3093     4.1190 </r>
       <r>     8.9676     0.0468     4.1231 </r>
       <r>     9.0563     1.8161     4.2842 </r>
       <r>     9.1450     0.1823     4.3003 </r>
       <r>     9.2336     0.8084     4.3720 </r>
       <r>     9.3223    -0.0293     4.3694 </r>
       <r>     9.4109     0.3234     4.3981 </r>
       <r>     9.4996     0.6062     4.4518 </r>
       <r>     9.5883     0.2904     4.4776 </r>
       <r>     9.6769     0.0450     4.4816 </r>
       <r>     9.7656    -0.0010     4.4815 </r>
       <r>     9.8543    -0.0007     4.4814 </r>
       <r>     9.9429     0.0241     4.4836 </r>
       <r>    10.0316     0.5566     4.5329 </r>
       <r>    10.1203     0.3411     4.5632 </r>
       <r>    10.2089     0.8699     4.6403 </r>
       <r>    10.2976     1.3089     4.7563 </r>
       <r>    10.3863     1.0013     4.8451 </r>
       <r>    10.4749     0.8704     4.9223 </r>
       <r>    10.5636     0.0321     4.9251 </r>
       <r>    10.6523     0.6823     4.9856 </r>
       <r>    10.7409     0.1506     4.9990 </r>
       <r>    10.8296     0.4578     5.0396 </r>
       <r>    10.9183     0.3406     5.0698 </r>
       <r>    11.0069     0.4436     5.1091 </r>
       <r>    11.0956     0.5280     5.1559 </r>
       <r>    11.1842     0.8752     5.2335 </r>
       <r>    11.2729     1.3625     5.3543 </r>
       <r>    11.3616     0.4056     5.3903 </r>
       <r>    11.4502     0.0091     5.3911 </r>
       <r>    11.5389     0.2995     5.4176 </r>
       <r>    11.6276    -0.0110     5.4167 </r>
       <r>    11.7162    -0.0222     5.4147 </r>
       <r>    11.8049     0.5874     5.4668 </r>
       <r>    11.8936     0.0572     5.4718 </r>
       <r>    11.9822     0.1772     5.4876 </r>
       <r>    12.0709     0.1410     5.5001 </r>
       <r>    12.1596     0.9825     5.5872 </r>
       <r>    12.2482     0.7178     5.6508 </r>
       <r>    12.3369     0.4260     5.6886 </r>
       <r>    12.4256     0.0676     5.6946 </r>
       <r>    12.5142    -0.0233     5.6925 </r>
       <r>    12.6029     0.6017     5.7459 </r>
       <r>    12.6916     0.1552     5.7596 </r>
       <r>    12.7802     0.2015     5.7775 </r>
       <r>    12.8689     0.6079     5.8314 </r>
       <r>    12.9575     0.5526     5.8804 </r>
       <r>    13.0462     0.0981     5.8891 </r>
       <r>    13.1349    -0.0022     5.8889 </r>
       <r>    13.2235    -0.0002     5.8889 </r>
       <r>    13.3122    -0.0151     5.8875 </r>
       <r>    13.4009     0.6323     5.9436 </r>
       <r>    13.4895     0.0101     5.9445 </r>
       <r>    13.5782    -0.0006     5.9444 </r>
       <r>    13.6669     0.0000     5.9444 </r>
       <r>    13.7555     0.0000     5.9444 </r>
       <r>    13.8442     0.0000     5.9444 </r>
       <r>    13.9329    -0.0057     5.9439 </r>
       <r>    14.0215     0.1987     5.9616 </r>
       <r>    14.1102     1.0410     6.0538 </r>
       <r>    14.1989     0.0202     6.0556 </r>
       <r>    14.2875    -0.0013     6.0555 </r>
       <r>    14.3762    -0.0041     6.0552 </r>
       <r>    14.4649     0.6359     6.1115 </r>
       <r>    14.5535     0.0629     6.1171 </r>
       <r>    14.6422     0.5057     6.1620 </r>
       <r>    14.7308     0.3159     6.1900 </r>
       <r>    14.8195     0.6590     6.2484 </r>
       <r>    14.9082     0.3398     6.2785 </r>
       <r>    14.9968    -0.0083     6.2778 </r>
       <r>    15.0855    -0.0001     6.2778 </r>
       <r>    15.1742     0.0000     6.2778 </r>
       <r>    15.2628    -0.0020     6.2776 </r>
       <r>    15.3515     0.0765     6.2844 </r>
       <r>    15.4402     0.8639     6.3610 </r>
       <r>    15.5288    -0.0072     6.3603 </r>
       <r>    15.6175     0.5641     6.4104 </r>
       <r>    15.7062     0.6804     6.4707 </r>
       <r>    15.7948     0.1247     6.4817 </r>
       <r>    15.8835    -0.0036     6.4814 </r>
       <r>    15.9722     0.0185     6.4831 </r>
       <r>    16.0608     0.6267     6.5386 </r>
       <r>    16.1495    -0.0227     6.5366 </r>
       <r>    16.2382     0.1634     6.5511 </r>
       <r>    16.3268     0.1583     6.5651 </r>
       <r>    16.4155     0.0363     6.5684 </r>
       <r>    16.5042     0.4790     6.6108 </r>
       <r>    16.5928     0.0974     6.6195 </r>
       <r>    16.6815     0.3972     6.6547 </r>
       <r>    16.7701     0.2462     6.6765 </r>
       <r>    16.8588    -0.0066     6.6759 </r>
       <r>    16.9475    -0.0002     6.6759 </r>
       <r>    17.0361    -0.0265     6.6736 </r>
       <r>    17.1248     0.9405     6.7569 </r>
       <r>    17.2135     0.0260     6.7593 </r>
       <r>    17.3021     0.0230     6.7613 </r>
       <r>    17.3908     0.9238     6.8432 </r>
       <r>    17.4795     0.2007     6.8610 </r>
       <r>    17.5681     0.1084     6.8706 </r>
       <r>    17.6568    -0.0028     6.8704 </r>
       <r>    17.7455    -0.0039     6.8700 </r>
       <r>    17.8341     0.0969     6.8786 </r>
       <r>    17.9228     0.3204     6.9070 </r>
       <r>    18.0115     0.3647     6.9394 </r>
       <r>    18.1001     0.6881     7.0004 </r>
       <r>    18.1888     0.0145     7.0017 </r>
       <r>    18.2775     0.3050     7.0287 </r>
       <r>    18.3661    -0.0332     7.0258 </r>
       <r>    18.4548     0.6452     7.0830 </r>
       <r>    18.5434     0.1102     7.0927 </r>
       <r>    18.6321     0.0208     7.0946 </r>
       <r>    18.7208     0.7030     7.1569 </r>
       <r>    18.8094     0.4166     7.1939 </r>
       <r>    18.8981     9.0872     7.9996 </r>
       <r>    18.9868     2.7921     8.2471 </r>
       <r>    19.0754     0.4606     8.2880 </r>
       <r>    19.1641     0.2506     8.3102 </r>
       <r>    19.2528     0.1089     8.3198 </r>
       <r>    19.3414     0.9025     8.3999 </r>
       <r>    19.4301     0.3117     8.4275 </r>
       <r>    19.5188     0.3057     8.4546 </r>
       <r>    19.6074    -0.0087     8.4538 </r>
       <r>    19.6961     0.3178     8.4820 </r>
       <r>    19.7848    -0.0170     8.4805 </r>
       <r>    19.8734     0.2934     8.5065 </r>
       <r>    19.9621     0.0315     8.5093 </r>
       <r>    20.0508    -0.0109     8.5084 </r>
       <r>    20.1394     0.2387     8.5295 </r>
       <r>    20.2281     0.6506     8.5872 </r>
       <r>    20.3167     0.3581     8.6190 </r>
       <r>    20.4054     0.2234     8.6388 </r>
       <r>    20.4941     0.7655     8.7066 </r>
       <r>    20.5827     0.2831     8.7317 </r>
       <r>    20.6714     0.1731     8.7471 </r>
       <r>    20.7601     0.1312     8.7587 </r>
       <r>    20.8487     0.2574     8.7815 </r>
       <r>    20.9374     0.0571     8.7866 </r>
       <r>    21.0261     0.1904     8.8035 </r>
       <r>    21.1147     0.1297     8.8150 </r>
       <r>    21.2034     0.0626     8.8205 </r>
       <r>    21.2921     0.8196     8.8932 </r>
       <r>    21.3807     0.2750     8.9176 </r>
       <r>    21.4694    -0.0103     8.9167 </r>
       <r>    21.5581     0.0000     8.9167 </r>
       <r>    21.6467     0.0000     8.9167 </r>
       <r>    21.7354     0.0000     8.9167 </r>
       <r>    21.8241    -0.0048     8.9162 </r>
       <r>    21.9127     0.1966     8.9337 </r>
       <r>    22.0014     0.7761     9.0025 </r>
       <r>    22.0900    -0.0280     9.0000 </r>
       <r>    22.1787    -0.0001     9.0000 </r>
       <r>    22.2674     0.0000     9.0000 </r>
       <r>    22.3560     0.0000     9.0000 </r>
       <r>    22.4447     0.0000     9.0000 </r>
       <r>    22.5334     0.0000     9.0000 </r>
       <r>    22.6220     0.0000     9.0000 </r>
       <r>    22.7107     0.0000     9.0000 </r>
       <r>    22.7994     0.0000     9.0000 </r>
       <r>    22.8880     0.0000     9.0000 </r>
       <r>    22.9767     0.0000     9.0000 </r>
       <r>    23.0654     0.0000     9.0000 </r>
       <r>    23.1540     0.0000     9.0000 </r>
      </set>
     </set>
    </array>
   </total>
   <partial>
    <array>
     <dimension dim="1">gridpoints</dimension>
     <dimension dim="2">spin</dimension>
     <dimension dim="3">ion</dimension>
     <field>energy</field>
     <field>  s</field>
     <field> py</field>
     <field> pz</field>
     <field> px</field>
     <field>dxy</field>
     <field>dyz</field>
     <field>dz2</field>
     <field>dxz</field>
     <field>dx2</field>
     <set>
      <set comment="ion 1">
       <set comment="spin 1">
        <r>    -3.4455     0.0000     0.0000     0.0000     0.0000     0.0000     0.0000     0.0000     0.0000     0.0000 </r>
        <r>    -3.3568     0.0000     0.0000     0.0000     0.0000     0.0000     0.0000     0.0000     0.0000     0.0000 </r>
        <r>    -3.2682     0.0000     0.0000     0.0000     0.0000     0.0000     0.0000     0.0000     0.0000     0.0000 </r>
        <r>    -3.1795     0.0000     0.0000     0.0000     0.0000     0.0000     0.0000     0.0000     0.0000     0.0000 </r>
        <r>    -3.0908     0.0000     0.0000     0.0000     0.0000     0.0000     0.0000     0.0000     0.0000     0.0000 </r>
        <r>    -3.0022     0.0000     0.0000     0.0000     0.0000     0.0000     0.0000     0.0000     0.0000     0.0000 </r>
        <r>    -2.9135     0.0000     0.0000     0.0000     0.0000     0.0000     0.0000     0.0000     0.0000     0.0000 </r>
        <r>    -2.8248     0.0000     0.0000     0.0000     0.0000     0.0000     0.0000     0.0000     0.0000     0.0000 </r>
        <r>    -2.7362     0.0000     0.0000     0.0000     0.0000     0.0000     0.0000     0.0000     0.0000     0.0000 </r>
        <r>    -2.6475     0.0000     0.0000     0.0000     0.0000     0.0000     0.0000     0.0000     0.0000     0.0000 </r>
        <r>    -2.5588     0.0000     0.0000     0.0000     0.0000     0.0000     0.0000     0.0000     0.0000     0.0000 </r>
        <r>    -2.4702     0.0000     0.0000     0.0000     0.0000     0.0000     0.0000     0.0000     0.0000     0.0000 </r>
        <r>    -2.3815     0.0000     0.0000     0.0000     0.0000     0.0000     0.0000     0.0000     0.0000     0.0000 </r>
        <r>    -2.2928    -0.0028     0.0000     0.0000     0.0000     0.0000     0.0000     0.0000     0.0000     0.0000 </r>
        <r>    -2.2042     0.0797     0.0006     0.0006     0.0006     0.0000     0.0000     0.0000     0.0000     0.0000 </r>
        <r>    -2.1155     0.0051     0.0000     0.0000     0.0000     0.0000     0.0000     0.0000     0.0000     0.0000 </r>
        <r>    -2.0268    -0.0001     0.0000     0.0000     0.0000     0.0000     0.0000     0.0000     0.0000     0.0000 </r>
        <r>    -1.9382     0.0000     0.0000     0.0000     0.0000     0.0000     0.0000     0.0000     0.0000     0.0000 </r>
        <r>    -1.8495     0.0000     0.0000     0.0000     0.0000     0.0000     0.0000     0.0000     0.0000     0.0000 </r>
        <r>    -1.7608     0.0000     0.0000     0.0000     0.0000     0.0000     0.0000     0.0000     0.0000     0.0000 </r>
        <r>    -1.6722    -0.0020     0.0000     0.0000    -0.0001     0.0000     0.0000     0.0000     0.0000     0.0000 </r>
        <r>    -1.5835     0.0776     0.0006     0.0006     0.0057     0.0002     0.0000     0.0001     0.0002     0.0002 </r>
        <r>    -1.4949     0.1627     0.0012     0.0012     0.0119     0.0004     0.0001     0.0002     0.0004     0.0005 </r>
        <r>    -1.4062    -0.0058     0.0000     0.0000    -0.0004     0.0000     0.0000     0.0000     0.0000     0.0000 </r>
        <r>    -1.3175     0.0000     0.0000     0.0000     0.0000     0.0000     0.0000     0.0000     0.0000     0.0000 </r>
        <r>    -1.2289     0.0000     0.0000     0.0000     0.0000     0.0000     0.0000     0.0000     0.0000     0.0000 </r>
        <r>    -1.1402     0.0000     0.0000     0.0000     0.0000     0.0000     0.0000     0.0000     0.0000     0.0000 </r>
        <r>    -1.0515    -0.0054    -0.0004    -0.0004     0.0000     0.0000    -0.0001     0.0000     0.0000     0.0000 </r>
        <r>    -0.9629     0.1532     0.0105     0.0105     0.0010     0.0007     0.0038     0.0001     0.0007     0.0003 </r>
        <r>    -0.8742     0.0737     0.0051     0.0051     0.0005     0.0003     0.0018     0.0001     0.0003     0.0002 </r>
        <r>    -0.7855    -0.0019    -0.0001    -0.0001     0.0000     0.0000     0.0000     0.0000     0.0000     0.0000 </r>
        <r>    -0.6969     0.0000     0.0000     0.0000     0.0000     0.0000     0.0000     0.0000     0.0000     0.0000 </r>
        <r>    -0.6082    -0.0002     0.0000     0.0000     0.0000     0.0000     0.0000     0.0000     0.0000     0.0000 </r>
        <r>    -0.5195     0.0089     0.0005     0.0005     0.0005     0.0004     0.0004     0.0000     0.0004     0.0000 </r>
        <r>    -0.4309     0.0602     0.0035     0.0032     0.0035     0.0025     0.0025    -0.0001     0.0025     0.0000 </r>
        <r>    -0.3422     0.2043     0.0013     0.0423     0.0013     0.0002     0.0014     0.0107     0.0014     0.0000 </r>
        <r>    -0.2535    -0.0018     0.0000    -0.0004     0.0000     0.0000     0.0000    -0.0001     0.0000     0.0000 </r>
        <r>    -0.1649    -0.0001     0.0000     0.0000     0.0000     0.0000     0.0000     0.0000     0.0000     0.0000 </r>
        <r>    -0.0762     0.0000     0.0000     0.0000     0.0000     0.0000     0.0000     0.0000     0.0000     0.0000 </r>
        <r>     0.0125    -0.0033    -0.0002     0.0000    -0.0007    -0.0002     0.0000     0.0000     0.0000    -0.0001 </r>
[...]
        <r>  0.0004 </r>
       </set>
       <set comment="band 3">
        <r>  0.0014 </r>
       </set>
       <set comment="band 4">
        <r>  0.0000 </r>
       </set>
       <set comment="band 5">
        <r>  0.0000 </r>
       </set>
       <set comment="band 6">
        <r>  0.0957 </r>
       </set>
       <set comment="band 7">
        <r>  0.4190 </r>
       </set>
       <set comment="band 8">
        <r> 43.9452 </r>
       </set>
       <set comment="band 9">
        <r>  0.0005 </r>
       </set>
      </set>
     </set>
     <set comment="spin2">
      <set comment="kpoint 1">
       <set comment="band 1">
        <r>  0.7836 </r>
       </set>
       <set comment="band 2">
        <r>  0.0001 </r>
       </set>
       <set comment="band 3">
        <r>  0.0000 </r>
       </set>
       <set comment="band 4">
        <r>  0.0000 </r>
       </set>
       <set comment="band 5">
        <r>  0.0000 </r>
       </set>
       <set comment="band 6">
        <r>  0.0000 </r>
       </set>
       <set comment="band 7">
        <r>  0.0002 </r>
       </set>
       <set comment="band 8">
        <r> 43.8029 </r>
       </set>
       <set comment="band 9">
        <r>  0.0638 </r>
       </set>
      </set>
      <set comment="kpoint 2">
       <set comment="band 1">
        <r>  0.7006 </r>
       </set>
       <set comment="band 2">
        <r>  0.0011 </r>
       </set>
       <set comment="band 3">
        <r>  0.0000 </r>
       </set>
       <set comment="band 4">
        <r>  0.0000 </r>
       </set>
       <set comment="band 5">
        <r>  0.0000 </r>
       </set>
       <set comment="band 6">
        <r>  0.0037 </r>
       </set>
       <set comment="band 7">
        <r> 42.1324 </r>
       </set>
       <set comment="band 8">
        <r>  1.7465 </r>
       </set>
       <set comment="band 9">
        <r>  0.0355 </r>
       </set>
      </set>
      <set comment="kpoint 3">
       <set comment="band 1">
        <r>  0.4601 </r>
       </set>
       <set comment="band 2">
        <r>  0.0311 </r>
       </set>
       <set comment="band 3">
        <r>  0.0034 </r>
       </set>
       <set comment="band 4">
        <r>  0.0000 </r>
       </set>
       <set comment="band 5">
        <r>  0.0000 </r>
       </set>
       <set comment="band 6">
        <r>  0.0112 </r>
       </set>
       <set comment="band 7">
        <r>  0.2089 </r>
       </set>
       <set comment="band 8">
        <r> 43.2823 </r>
       </set>
       <set comment="band 9">
        <r>  0.7739 </r>
       </set>
      </set>
      <set comment="kpoint 4">
       <set comment="band 1">
        <r>  0.3335 </r>
       </set>
       <set comment="band 2">
        <r>  0.0006 </r>
       </set>
       <set comment="band 3">
        <r>  0.0000 </r>
       </set>
       <set comment="band 4">
        <r>  0.0050 </r>
       </set>
       <set comment="band 5">
        <r>  0.0000 </r>
       </set>
       <set comment="band 6">
        <r>  0.0000 </r>
       </set>
       <set comment="band 7">
        <r>  0.4740 </r>
       </set>
       <set comment="band 8">
        <r>  0.0032 </r>
       </set>
       <set comment="band 9">
        <r> 43.9809 </r>
       </set>
      </set>
      <set comment="kpoint 5">
       <set comment="band 1">
        <r>  0.5558 </r>
       </set>
       <set comment="band 2">
        <r>  0.0180 </r>
       </set>
       <set comment="band 3">
        <r>  0.0032 </r>
       </set>
       <set comment="band 4">
        <r>  0.0000 </r>
       </set>
       <set comment="band 5">
        <r>  0.0073 </r>
       </set>
       <set comment="band 6">
        <r>  0.0000 </r>
       </set>
       <set comment="band 7">
        <r>  0.1041 </r>
       </set>
       <set comment="band 8">
        <r> 43.7778 </r>
       </set>
       <set comment="band 9">
        <r>  0.2545 </r>
       </set>
      </set>
      <set comment="kpoint 6">
       <set comment="band 1">
        <r>  0.7419 </r>
       </set>
       <set comment="band 2">
        <r>  0.0001 </r>
       </set>
       <set comment="band 3">
        <r>  0.0000 </r>
       </set>
       <set comment="band 4">
        <r>  0.0000 </r>
       </set>
       <set comment="band 5">
        <r>  0.0030 </r>
       </set>
       <set comment="band 6">
        <r>  0.0000 </r>
       </set>
       <set comment="band 7">
        <r> 43.7229 </r>
       </set>
       <set comment="band 8">
        <r>  0.0237 </r>
       </set>
       <set comment="band 9">
        <r>  0.1394 </r>
       </set>
      </set>
      <set comment="kpoint 7">
       <set comment="band 1">
        <r>  0.6477 </r>
       </set>
       <set comment="band 2">
        <r>  0.0002 </r>
       </set>
       <set comment="band 3">
        <r>  0.0133 </r>
       </set>
       <set comment="band 4">
        <r>  0.0000 </r>
       </set>
       <set comment="band 5">
        <r>  0.0094 </r>
       </set>
       <set comment="band 6">
        <r>  0.0000 </r>
       </set>
       <set comment="band 7">
        <r> 43.6297 </r>
       </set>
       <set comment="band 8">
        <r>  0.2271 </r>
       </set>
       <set comment="band 9">
        <r>  0.0090 </r>
       </set>
      </set>
      <set comment="kpoint 8">
       <set comment="band 1">
        <r>  0.4405 </r>
       </set>
       <set comment="band 2">
        <r>  0.0023 </r>
       </set>
       <set comment="band 3">
        <r>  0.0437 </r>
       </set>
       <set comment="band 4">
        <r>  0.0036 </r>
       </set>
       <set comment="band 5">
        <r>  0.0070 </r>
       </set>
       <set comment="band 6">
        <r>  0.0218 </r>
       </set>
       <set comment="band 7">
        <r>  0.2356 </r>
       </set>
       <set comment="band 8">
        <r> 43.8452 </r>
       </set>
       <set comment="band 9">
        <r>  0.0007 </r>
       </set>
      </set>
      <set comment="kpoint 9">
       <set comment="band 1">
        <r>  0.2285 </r>
       </set>
       <set comment="band 2">
        <r>  0.0007 </r>
       </set>
       <set comment="band 3">
        <r>  0.0135 </r>
       </set>
       <set comment="band 4">
        <r>  0.0011 </r>
       </set>
       <set comment="band 5">
        <r>  0.0329 </r>
       </set>
       <set comment="band 6">
        <r>  0.0014 </r>
       </set>
       <set comment="band 7">
        <r>  0.4990 </r>
       </set>
       <set comment="band 8">
        <r> 43.8958 </r>
       </set>
       <set comment="band 9">
        <r>  0.0368 </r>
       </set>
      </set>
      <set comment="kpoint 10">
       <set comment="band 1">
        <r>  0.3780 </r>
       </set>
       <set comment="band 2">
        <r>  0.0036 </r>
       </set>
       <set comment="band 3">
        <r>  0.0156 </r>
       </set>
       <set comment="band 4">
        <r>  0.0008 </r>
       </set>
       <set comment="band 5">
        <r>  0.0001 </r>
       </set>
       <set comment="band 6">
        <r>  0.1058 </r>
       </set>
       <set comment="band 7">
        <r>  0.2330 </r>
       </set>
       <set comment="band 8">
        <r> 43.9794 </r>
       </set>
       <set comment="band 9">
        <r>  0.0107 </r>
       </set>
      </set>
      <set comment="kpoint 11">
       <set comment="band 1">
        <r>  0.6090 </r>
       </set>
       <set comment="band 2">
        <r>  0.0023 </r>
       </set>
       <set comment="band 3">
        <r>  0.0037 </r>
       </set>
       <set comment="band 4">
        <r>  0.0011 </r>
       </set>
       <set comment="band 5">
        <r>  0.0055 </r>
       </set>
       <set comment="band 6">
        <r>  0.0091 </r>
       </set>
       <set comment="band 7">
        <r> 12.6526 </r>
       </set>
       <set comment="band 8">
        <r> 31.2555 </r>
       </set>
       <set comment="band 9">
        <r>  0.0760 </r>
       </set>
      </set>
      <set comment="kpoint 12">
       <set comment="band 1">
        <r>  0.2241 </r>
       </set>
       <set comment="band 2">
        <r>  0.0001 </r>
       </set>
       <set comment="band 3">
        <r>  0.1431 </r>
       </set>
       <set comment="band 4">
        <r>  0.0000 </r>
       </set>
       <set comment="band 5">
        <r>  0.0113 </r>
       </set>
       <set comment="band 6">
        <r>  0.0000 </r>
       </set>
       <set comment="band 7">
        <r>  0.1475 </r>
       </set>
       <set comment="band 8">
        <r>  0.0000 </r>
       </set>
       <set comment="band 9">
        <r> 43.4742 </r>
       </set>
      </set>
      <set comment="kpoint 13">
       <set comment="band 1">
        <r>  0.0922 </r>
       </set>
       <set comment="band 2">
        <r>  0.0002 </r>
       </set>
       <set comment="band 3">
        <r>  0.0330 </r>
       </set>
       <set comment="band 4">
        <r>  0.0305 </r>
       </set>
       <set comment="band 5">
        <r>  0.0099 </r>
       </set>
       <set comment="band 6">
        <r>  0.0271 </r>
       </set>
       <set comment="band 7">
        <r>  0.4172 </r>
       </set>
       <set comment="band 8">
        <r>  0.0694 </r>
       </set>
       <set comment="band 9">
        <r> 42.8889 </r>
       </set>
      </set>
      <set comment="kpoint 14">
       <set comment="band 1">
        <r>  0.1116 </r>
       </set>
       <set comment="band 2">
        <r>  0.0324 </r>
       </set>
       <set comment="band 3">
        <r>  0.0013 </r>
       </set>
       <set comment="band 4">
        <r>  0.0236 </r>
       </set>
       <set comment="band 5">
        <r>  0.0219 </r>
       </set>
       <set comment="band 6">
        <r>  0.4260 </r>
       </set>
       <set comment="band 7">
        <r>  0.1051 </r>
       </set>
       <set comment="band 8">
        <r>  0.3687 </r>
       </set>
       <set comment="band 9">
        <r> 43.6759 </r>
       </set>
      </set>
      <set comment="kpoint 15">
       <set comment="band 1">
        <r>  0.3444 </r>
       </set>
       <set comment="band 2">
        <r>  0.0050 </r>
       </set>
       <set comment="band 3">
        <r>  0.0234 </r>
       </set>
       <set comment="band 4">
        <r>  0.0003 </r>
       </set>
       <set comment="band 5">
        <r>  0.0000 </r>
       </set>
       <set comment="band 6">
        <r>  0.0319 </r>
       </set>
       <set comment="band 7">
        <r>  0.3734 </r>
       </set>
       <set comment="band 8">
        <r> 43.8535 </r>
       </set>
       <set comment="band 9">
        <r>  0.1328 </r>
       </set>
      </set>
      <set comment="kpoint 16">
       <set comment="band 1">
        <r>  0.1223 </r>
       </set>
       <set comment="band 2">
        <r>  0.0000 </r>
       </set>
       <set comment="band 3">
        <r>  0.0363 </r>
       </set>
       <set comment="band 4">
        <r>  0.0000 </r>
       </set>
       <set comment="band 5">
        <r>  0.0000 </r>
       </set>
       <set comment="band 6">
        <r>  0.0023 </r>
       </set>
       <set comment="band 7">
        <r>  0.2919 </r>
       </set>
       <set comment="band 8">
        <r>  0.0000 </r>
       </set>
       <set comment="band 9">
        <r>  3.8457 </r>
       </set>
      </set>
      <set comment="kpoint 17">
       <set comment="band 1">
        <r>  0.1991 </r>
       </set>
       <set comment="band 2">
        <r>  0.0001 </r>
       </set>
       <set comment="band 3">
        <r>  0.1142 </r>
       </set>
       <set comment="band 4">
        <r>  0.0003 </r>
       </set>
       <set comment="band 5">
        <r>  0.0000 </r>
       </set>
       <set comment="band 6">
        <r>  0.0546 </r>
       </set>
       <set comment="band 7">
        <r>  0.2933 </r>
       </set>
       <set comment="band 8">
        <r> 41.9997 </r>
       </set>
       <set comment="band 9">
        <r>  1.8756 </r>
       </set>
      </set>
      <set comment="kpoint 18">
       <set comment="band 1">
        <r>  0.4630 </r>
       </set>
       <set comment="band 2">
        <r>  0.0002 </r>
       </set>
       <set comment="band 3">
        <r>  0.0799 </r>
       </set>
       <set comment="band 4">
        <r>  0.0000 </r>
       </set>
       <set comment="band 5">
        <r>  0.0106 </r>
       </set>
       <set comment="band 6">
        <r>  0.0000 </r>
       </set>
       <set comment="band 7">
        <r> 43.2593 </r>
       </set>
       <set comment="band 8">
        <r>  0.5926 </r>
       </set>
       <set comment="band 9">
        <r>  0.0000 </r>
       </set>
      </set>
      <set comment="kpoint 19">
       <set comment="band 1">
        <r>  0.6535 </r>
       </set>
       <set comment="band 2">
        <r>  0.0091 </r>
       </set>
       <set comment="band 3">
        <r>  0.0000 </r>
       </set>
       <set comment="band 4">
        <r>  0.0000 </r>
       </set>
       <set comment="band 5">
        <r>  0.0000 </r>
       </set>
       <set comment="band 6">
        <r>  0.0000 </r>
       </set>
       <set comment="band 7">
        <r>  0.0643 </r>
       </set>
       <set comment="band 8">
        <r> 43.8029 </r>
       </set>
       <set comment="band 9">
        <r>  0.1195 </r>
       </set>
      </set>
      <set comment="kpoint 20">
       <set comment="band 1">
        <r>  0.5222 </r>
       </set>
       <set comment="band 2">
        <r>  0.0064 </r>
       </set>
       <set comment="band 3">
        <r>  0.0013 </r>
       </set>
       <set comment="band 4">
        <r>  0.0000 </r>
       </set>
       <set comment="band 5">
        <r>  0.0000 </r>
       </set>
       <set comment="band 6">
        <r>  0.0342 </r>
       </set>
       <set comment="band 7">
        <r>  0.1822 </r>
       </set>
       <set comment="band 8">
        <r> 43.8728 </r>
       </set>
       <set comment="band 9">
        <r>  0.1141 </r>
       </set>
      </set>
      <set comment="kpoint 21">
       <set comment="band 1">
        <r>  0.2640 </r>
       </set>
       <set comment="band 2">
        <r>  0.0004 </r>
       </set>
       <set comment="band 3">
        <r>  0.0049 </r>
       </set>
       <set comment="band 4">
        <r>  0.0000 </r>
       </set>
       <set comment="band 5">
        <r>  0.0000 </r>
       </set>
       <set comment="band 6">
        <r>  0.3105 </r>
       </set>
       <set comment="band 7">
        <r>  0.1830 </r>
       </set>
       <set comment="band 8">
        <r> 43.7239 </r>
       </set>
       <set comment="band 9">
        <r>  0.2614 </r>
       </set>
      </set>
      <set comment="kpoint 22">
       <set comment="band 1">
        <r>  0.2075 </r>
       </set>
       <set comment="band 2">
        <r>  0.0000 </r>
       </set>
       <set comment="band 3">
        <r>  0.0771 </r>
       </set>
       <set comment="band 4">
        <r>  0.0000 </r>
       </set>
       <set comment="band 5">
        <r>  0.0000 </r>
       </set>
       <set comment="band 6">
        <r>  0.0014 </r>
       </set>
       <set comment="band 7">
        <r>  0.4427 </r>
       </set>
       <set comment="band 8">
        <r> 43.8327 </r>
       </set>
       <set comment="band 9">
        <r>  0.1450 </r>
       </set>
      </set>
      <set comment="kpoint 23">
       <set comment="band 1">
        <r>  0.4006 </r>
       </set>
       <set comment="band 2">
        <r>  0.0117 </r>
       </set>
       <set comment="band 3">
        <r>  0.0358 </r>
       </set>
       <set comment="band 4">
        <r>  0.0000 </r>
       </set>
       <set comment="band 5">
        <r>  0.0170 </r>
       </set>
       <set comment="band 6">
        <r>  0.0000 </r>
       </set>
       <set comment="band 7">
        <r>  0.2498 </r>
       </set>
       <set comment="band 8">
        <r> 43.9059 </r>
       </set>
       <set comment="band 9">
        <r>  0.1020 </r>
       </set>
      </set>
      <set comment="kpoint 24">
       <set comment="band 1">
        <r>  0.1546 </r>
       </set>
       <set comment="band 2">
        <r>  0.0220 </r>
       </set>
       <set comment="band 3">
        <r>  0.0579 </r>
       </set>
       <set comment="band 4">
        <r>  0.0093 </r>
       </set>
       <set comment="band 5">
        <r>  0.0120 </r>
       </set>
       <set comment="band 6">
        <r>  0.2518 </r>
       </set>
       <set comment="band 7">
        <r>  0.2305 </r>
       </set>
       <set comment="band 8">
        <r>  1.3526 </r>
       </set>
       <set comment="band 9">
        <r> 42.6305 </r>
       </set>
      </set>
      <set comment="kpoint 25">
       <set comment="band 1">
        <r>  0.0254 </r>
       </set>
       <set comment="band 2">
        <r>  0.0179 </r>
       </set>
       <set comment="band 3">
        <r>  0.0275 </r>
       </set>
       <set comment="band 4">
        <r>  0.1205 </r>
       </set>
       <set comment="band 5">
        <r>  0.0170 </r>
       </set>
       <set comment="band 6">
        <r>  0.4489 </r>
       </set>
       <set comment="band 7">
        <r>  0.0233 </r>
       </set>
       <set comment="band 8">
        <r>  0.0896 </r>
       </set>
       <set comment="band 9">
        <r> 43.9967 </r>
       </set>
      </set>
      <set comment="kpoint 26">
       <set comment="band 1">
        <r>  0.0938 </r>
       </set>
       <set comment="band 2">
        <r>  0.0052 </r>
       </set>
       <set comment="band 3">
        <r>  0.0210 </r>
       </set>
       <set comment="band 4">
        <r>  0.0000 </r>
       </set>
       <set comment="band 5">
        <r>  0.0000 </r>
       </set>
       <set comment="band 6">
        <r>  0.4646 </r>
       </set>
       <set comment="band 7">
        <r>  0.0753 </r>
       </set>
       <set comment="band 8">
        <r>  3.2283 </r>
       </set>
       <set comment="band 9">
        <r> 40.8869 </r>
       </set>
      </set>
      <set comment="kpoint 27">
       <set comment="band 1">
        <r>  0.3933 </r>
       </set>
       <set comment="band 2">
        <r>  0.0301 </r>
       </set>
       <set comment="band 3">
        <r>  0.0000 </r>
       </set>
       <set comment="band 4">
        <r>  0.0000 </r>
       </set>
       <set comment="band 5">
        <r>  0.0000 </r>
       </set>
       <set comment="band 6">
        <r>  0.0000 </r>
       </set>
       <set comment="band 7">
        <r>  0.3331 </r>
       </set>
       <set comment="band 8">
        <r>  0.0581 </r>
       </set>
       <set comment="band 9">
        <r> 43.9994 </r>
       </set>
      </set>
      <set comment="kpoint 28">
       <set comment="band 1">
        <r>  0.2853 </r>
       </set>
       <set comment="band 2">
        <r>  0.0004 </r>
       </set>
       <set comment="band 3">
        <r>  0.0014 </r>
       </set>
       <set comment="band 4">
        <r>  0.0000 </r>
       </set>
       <set comment="band 5">
        <r>  0.0000 </r>
       </set>
       <set comment="band 6">
        <r>  0.0953 </r>
       </set>
       <set comment="band 7">
        <r>  0.4182 </r>
       </set>
       <set comment="band 8">
        <r> 43.9460 </r>
       </set>
       <set comment="band 9">
        <r>  0.0005 </r>
       </set>
      </set>
     </set>
    </set>
   </array>
  </projected>
 </calculation>
 <structure name="finalpos" >
  <crystal>
   <varray name="basis" >
    <v>       0.00000000       2.13500000       2.13500000 </v>
    <v>       2.13500000       0.00000000       2.13500000 </v>
    <v>       2.13500000       2.13500000       0.00000000 </v>
   </varray>
   <i name="volume">     19.46362075 </i>
   <varray name="rec_basis" >
    <v>      -0.23419204       0.23419204       0.23419204 </v>
    <v>       0.23419204      -0.23419204       0.23419204 </v>
    <v>       0.23419204       0.23419204      -0.23419204 </v>
   </varray>
  </crystal>
  <varray name="positions" >
   <v>       0.00000000       0.00000000       0.00000000 </v>
  </varray>
 </structure>
</modeling>
