   1   1   0   0
  0.1813235E+02  0.2866544E-09  0.2866544E-09  0.2866544E-09  0.5000000E-15
  1.000000000000000E-004
  CAR 
 unknown system                          
     18.32666802     -2.90750380  301      6.38969069      1.00000000
     -2.908  0.0000E+00  0.0000E+00
     -2.837  0.0000E+00  0.0000E+00
     -2.766  0.0000E+00  0.0000E+00
     -2.695  0.0000E+00  0.0000E+00
     -2.624  0.0000E+00  0.0000E+00
     -2.554  0.0000E+00  0.0000E+00
     -2.483  0.0000E+00  0.0000E+00
     -2.412 -0.2104E-38 -0.1489E-39
     -2.341 -0.8574E-28 -0.6069E-29
     -2.270 -0.6149E-19 -0.4352E-20
     -2.200 -0.7357E-12 -0.5207E-13
     -2.129 -0.1484E-06 -0.1050E-07
     -2.058 -0.4283E-03 -0.3032E-04
     -1.987 -0.1529E-02 -0.1385E-03
     -1.917  0.1508E+00  0.1054E-01
     -1.846  0.2235E-01  0.1212E-01
     -1.775 -0.1684E-02  0.1200E-01
     -1.704 -0.3359E-05  0.1200E-01
     -1.633 -0.1601E-02  0.1189E-01
     -1.563  0.1761E-01  0.1313E-01
     -1.492  0.2075E+00  0.2782E-01
     -1.421  0.3428E-02  0.2806E-01
     -1.350 -0.8644E-03  0.2800E-01
     -1.280 -0.1168E-03  0.2799E-01
     -1.209 -0.1944E-01  0.2662E-01
     -1.138  0.3257E+00  0.4967E-01
     -1.067  0.3945E+00  0.7759E-01
     -0.996 -0.2229E-01  0.7602E-01
     -0.926 -0.2121E-03  0.7600E-01
     -0.855 -0.1807E-07  0.7600E-01
     -0.784 -0.2364E-13  0.7600E-01
     -0.713 -0.2229E-16  0.7600E-01
     -0.643 -0.9488E-10  0.7600E-01
     -0.572 -0.6695E-05  0.7600E-01
     -0.501 -0.6207E-02  0.7556E-01
     -0.430  0.7340E-01  0.8076E-01
     -0.359  0.7011E+00  0.1304E+00
     -0.289  0.8652E-01  0.1365E+00
     -0.218 -0.7120E-02  0.1360E+00
     -0.147 -0.2691E-02  0.1358E+00
     -0.076  0.1141E-01  0.1366E+00
     -0.006  0.6231E+00  0.1807E+00
      0.065  0.5099E-01  0.1843E+00
      0.136 -0.1105E-01  0.1836E+00
      0.207  0.8206E-01  0.1894E+00
      0.278  0.6079E+00  0.2324E+00
      0.348 -0.3588E-02  0.2321E+00
      0.419 -0.1853E-02  0.2320E+00
      0.490 -0.6823E-06  0.2320E+00
      0.561 -0.3582E-11  0.2320E+00
      0.632 -0.3539E-13  0.2320E+00
      0.702 -0.2436E-07  0.2320E+00
      0.773 -0.2574E-03  0.2320E+00
      0.844 -0.2612E-01  0.2301E+00
      0.915  0.4373E+00  0.2611E+00
      0.985  0.9067E+00  0.3253E+00
      1.056  0.4731E+00  0.3588E+00
      1.127  0.2600E+00  0.3772E+00
      1.198 -0.1630E-01  0.3760E+00
      1.269 -0.6807E-02  0.3755E+00
      1.339  0.4804E-01  0.3789E+00
      1.410  0.1261E+01  0.4681E+00
      1.481  0.6852E+00  0.5166E+00
      1.552  0.5257E-01  0.5204E+00
      1.622 -0.5191E-02  0.5200E+00
      1.693 -0.8017E-04  0.5200E+00
      1.764 -0.2075E-01  0.5185E+00
      1.835  0.3099E+00  0.5405E+00
      1.906  0.1070E+01  0.6162E+00
      1.976  0.1272E-01  0.6171E+00
      2.047  0.3724E+00  0.6434E+00
      2.118  0.8910E-01  0.6497E+00
      2.189  0.6253E+00  0.6940E+00
      2.259  0.1427E+01  0.7950E+00
      2.330  0.1961E+01  0.9338E+00
      2.401  0.5417E+00  0.9722E+00
      2.472  0.4533E+00  0.1004E+01
      2.543  0.2917E+00  0.1025E+01
      2.613  0.1080E+01  0.1101E+01
      2.684 -0.4629E-01  0.1098E+01
      2.755  0.4670E+00  0.1131E+01
      2.826  0.1251E+01  0.1220E+01
      2.897  0.1043E-01  0.1220E+01
      2.967 -0.1840E-01  0.1219E+01
      3.038  0.1104E+00  0.1227E+01
      3.109  0.2152E+01  0.1379E+01
      3.180  0.2337E+00  0.1396E+01
      3.250  0.3223E+00  0.1419E+01
      3.321  0.1545E+01  0.1528E+01
      3.392  0.1250E+01  0.1616E+01
      3.463  0.1005E+01  0.1688E+01
      3.534  0.4134E+00  0.1717E+01
      3.604  0.8456E+00  0.1777E+01
      3.675  0.7705E+00  0.1831E+01
      3.746  0.7669E+00  0.1885E+01
      3.817  0.4075E+00  0.1914E+01
      3.887  0.9321E-01  0.1921E+01
      3.958  0.9533E+00  0.1988E+01
      4.029  0.1417E+01  0.2089E+01
      4.100 -0.8482E-01  0.2083E+01
      4.171  0.3465E+00  0.2107E+01
      4.241  0.3723E+00  0.2134E+01
      4.312 -0.2171E-01  0.2132E+01
      4.383 -0.2465E-01  0.2130E+01
      4.454  0.3992E+00  0.2159E+01
      4.524  0.9104E+00  0.2223E+01
      4.595  0.6096E+00  0.2266E+01
      4.666  0.3600E+00  0.2292E+01
      4.737  0.4810E+00  0.2326E+01
      4.808 -0.7418E-01  0.2320E+01
      4.878  0.1012E+01  0.2392E+01
      4.949  0.1525E+01  0.2500E+01
      5.020  0.1253E+01  0.2589E+01
      5.091  0.6537E+00  0.2635E+01
      5.161  0.1684E+01  0.2754E+01
      5.232  0.1586E+01  0.2866E+01
      5.303  0.2803E+01  0.3065E+01
      5.374  0.2464E+01  0.3239E+01
      5.445  0.1021E+01  0.3311E+01
      5.515  0.3235E+01  0.3540E+01
      5.586  0.1998E+01  0.3682E+01
      5.657  0.1279E+01  0.3772E+01
      5.728  0.1562E+01  0.3883E+01
      5.799  0.2881E+01  0.4087E+01
      5.869  0.1296E+01  0.4179E+01
      5.940  0.4026E+00  0.4207E+01
      6.011  0.1175E+01  0.4290E+01
      6.082  0.1828E+01  0.4420E+01
      6.152  0.3568E+01  0.4672E+01
      6.223  0.1666E+01  0.4790E+01
      6.294  0.7276E+00  0.4842E+01
      6.365  0.1644E+01  0.4958E+01
      6.436  0.1526E+01  0.5066E+01
      6.506  0.8100E+00  0.5123E+01
      6.577  0.1207E+01  0.5209E+01
      6.648  0.9964E+00  0.5279E+01
      6.719  0.1005E+01  0.5350E+01
      6.789  0.4900E+00  0.5385E+01
      6.860  0.1577E+01  0.5497E+01
      6.931  0.6274E+00  0.5541E+01
      7.002  0.3571E+00  0.5566E+01
      7.073  0.5653E+00  0.5606E+01
      7.143  0.8574E-01  0.5612E+01
      7.214 -0.1416E-01  0.5611E+01
      7.285  0.9441E-01  0.5618E+01
      7.356  0.7072E+00  0.5668E+01
      7.426  0.2338E+00  0.5685E+01
      7.497  0.1748E-01  0.5686E+01
      7.568  0.3089E+00  0.5708E+01
      7.639 -0.8605E-02  0.5707E+01
      7.710  0.2542E+00  0.5725E+01
      7.780  0.7369E-01  0.5730E+01
      7.851  0.5904E+00  0.5772E+01
      7.922  0.2945E+00  0.5793E+01
      7.993  0.2864E-01  0.5795E+01
      8.063  0.1199E+00  0.5804E+01
      8.134  0.1642E+00  0.5815E+01
      8.205  0.7347E+00  0.5867E+01
      8.276  0.1422E+01  0.5968E+01
      8.347  0.6623E+00  0.6015E+01
      8.417 -0.7706E-01  0.6009E+01
      8.488  0.9374E+00  0.6076E+01
      8.559  0.1319E+01  0.6169E+01
      8.630  0.5286E+00  0.6206E+01
      8.701 -0.3437E-01  0.6204E+01
      8.771 -0.5378E-02  0.6204E+01
      8.842  0.1346E+00  0.6213E+01
      8.913  0.2909E-01  0.6215E+01
      8.984  0.2178E+00  0.6231E+01
      9.054  0.4717E+00  0.6264E+01
      9.125  0.1155E+01  0.6346E+01
      9.196  0.2874E+00  0.6366E+01
      9.267  0.1090E+01  0.6443E+01
      9.338  0.1945E+00  0.6457E+01
      9.408 -0.1454E-01  0.6456E+01
      9.479 -0.3643E-04  0.6456E+01
      9.550 -0.1068E-07  0.6456E+01
      9.621 -0.1415E-03  0.6456E+01
      9.691 -0.2046E-01  0.6455E+01
      9.762  0.3474E+00  0.6479E+01
      9.833  0.3471E+00  0.6504E+01
      9.904  0.4037E+00  0.6532E+01
      9.975  0.1633E+01  0.6648E+01
     10.045  0.7117E+00  0.6698E+01
     10.116  0.1429E+00  0.6708E+01
     10.187  0.7257E+00  0.6760E+01
     10.258  0.9162E+00  0.6825E+01
     10.328  0.9969E-01  0.6832E+01
     10.399  0.6057E+00  0.6874E+01
     10.470  0.8199E+00  0.6933E+01
     10.541  0.1019E+00  0.6940E+01
     10.612  0.1308E+00  0.6949E+01
     10.682  0.1352E+01  0.7045E+01
     10.753  0.1959E+01  0.7183E+01
     10.824  0.2155E+01  0.7336E+01
     10.895  0.1498E+01  0.7442E+01
     10.965  0.4043E+00  0.7471E+01
     11.036  0.9912E+00  0.7541E+01
     11.107  0.7417E+00  0.7593E+01
     11.178  0.7076E+00  0.7643E+01
     11.249  0.7277E+00  0.7695E+01
     11.319  0.8163E+00  0.7753E+01
     11.390  0.1728E+00  0.7765E+01
     11.461 -0.2620E-01  0.7763E+01
     11.532  0.5796E+00  0.7804E+01
     11.603  0.5397E-02  0.7804E+01
     11.673  0.2086E+01  0.7952E+01
     11.744  0.1636E+01  0.8068E+01
     11.815  0.2099E+01  0.8216E+01
     11.886  0.1340E+01  0.8311E+01
     11.956  0.4287E+00  0.8342E+01
     12.027  0.4336E+00  0.8372E+01
     12.098  0.2844E+00  0.8392E+01
     12.169  0.1089E+01  0.8469E+01
     12.240  0.7456E-02  0.8470E+01
     12.310  0.1285E+01  0.8561E+01
     12.381  0.9281E+00  0.8627E+01
     12.452  0.1679E+01  0.8746E+01
     12.523  0.2406E+01  0.8916E+01
     12.593  0.1595E+01  0.9029E+01
     12.664  0.1677E+01  0.9147E+01
     12.735  0.3136E+01  0.9369E+01
     12.806  0.2004E+01  0.9511E+01
     12.877  0.7624E+00  0.9565E+01
     12.947  0.2996E+01  0.9777E+01
     13.018  0.7753E+00  0.9832E+01
     13.089  0.4233E+00  0.9862E+01
     13.160  0.1020E+01  0.9934E+01
     13.230  0.1810E+01  0.1006E+02
     13.301  0.3103E+01  0.1028E+02
     13.372  0.3564E+00  0.1031E+02
     13.443  0.8327E+00  0.1037E+02
     13.514  0.1608E+01  0.1048E+02
     13.584  0.4450E+00  0.1051E+02
     13.655  0.1145E+01  0.1059E+02
     13.726  0.9788E+00  0.1066E+02
     13.797  0.9543E-01  0.1067E+02
     13.867 -0.9286E-02  0.1067E+02
     13.938 -0.6074E-02  0.1067E+02
     14.009  0.2780E+00  0.1069E+02
     14.080  0.3196E+00  0.1071E+02
     14.151  0.4503E+00  0.1074E+02
     14.221 -0.2361E-01  0.1074E+02
     14.292 -0.3552E-03  0.1074E+02
     14.363 -0.4143E-07  0.1074E+02
     14.434 -0.2415E-12  0.1074E+02
     14.505 -0.7604E-07  0.1074E+02
     14.575 -0.5147E-03  0.1074E+02
     14.646 -0.2420E-01  0.1074E+02
     14.717  0.4382E+00  0.1077E+02
     14.788  0.1335E+01  0.1086E+02
     14.858  0.7790E+00  0.1092E+02
     14.929  0.5718E+00  0.1096E+02
     15.000  0.4215E+00  0.1099E+02
     15.071 -0.3160E-01  0.1099E+02
     15.142  0.2423E+01  0.1116E+02
     15.212  0.5051E+00  0.1119E+02
     15.283 -0.2338E-01  0.1119E+02
     15.354  0.1221E+01  0.1128E+02
     15.425  0.6694E+00  0.1133E+02
     15.495  0.1880E+00  0.1134E+02
     15.566  0.6018E+00  0.1138E+02
     15.637  0.7354E+00  0.1143E+02
     15.708  0.6599E+00  0.1148E+02
     15.779  0.6297E-01  0.1149E+02
     15.849  0.6064E+00  0.1153E+02
     15.920 -0.3667E-02  0.1153E+02
     15.991 -0.1848E-02  0.1153E+02
     16.062 -0.4002E-05  0.1153E+02
     16.132 -0.4344E-02  0.1153E+02
     16.203  0.4141E-01  0.1153E+02
     16.274  0.6346E+00  0.1158E+02
     16.345  0.6380E+00  0.1162E+02
     16.416  0.5157E-01  0.1162E+02
     16.486 -0.1817E-01  0.1162E+02
     16.557  0.1751E+00  0.1164E+02
     16.628  0.1209E+01  0.1172E+02
     16.699 -0.1335E-01  0.1172E+02
     16.769 -0.3397E-01  0.1172E+02
     16.840  0.1152E+01  0.1180E+02
     16.911  0.2564E+00  0.1182E+02
     16.982  0.1637E+00  0.1183E+02
     17.053  0.5757E+00  0.1187E+02
     17.123  0.1414E+01  0.1197E+02
     17.194  0.9817E-01  0.1198E+02
     17.265 -0.1321E-01  0.1198E+02
     17.336  0.4470E-01  0.1198E+02
     17.407  0.3017E+00  0.1200E+02
     17.477 -0.3057E-02  0.1200E+02
     17.548 -0.8566E-03  0.1200E+02
     17.619 -0.2967E-06  0.1200E+02
     17.690 -0.1471E-11  0.1200E+02
     17.760  0.0000E+00  0.1200E+02
     17.831  0.0000E+00  0.1200E+02
     17.902  0.0000E+00  0.1200E+02
     17.973  0.0000E+00  0.1200E+02
     18.044  0.0000E+00  0.1200E+02
     18.114  0.0000E+00  0.1200E+02
     18.185  0.0000E+00  0.1200E+02
     18.256  0.0000E+00  0.1200E+02
     18.327  0.0000E+00  0.1200E+02
