    1    1    1    1
  0.1813235E+02  0.2866544E-09  0.2866544E-09  0.2866544E-09  0.5000000E-15
  1.000000000000000E-004
  CAR 
 unknown system                          
    5   44    6
 
  0.5000000E-01  0.5000000E-01  0.5000000E-01  0.8000000E-02
   1       -1.531624
   2        6.785827
   3        6.785827
   4        8.124754
   5       11.101966
   6       11.101966
 
  0.1500000E+00  0.5000000E-01  0.5000000E-01  0.2400000E-01
   1       -0.403007
   2        6.122901
   3        6.251376
   4       10.696013
   5       10.999124
   6       11.661795
 
  0.2500000E+00  0.5000000E-01  0.5000000E-01  0.2400000E-01
   1        1.048132
   2        5.486460
   3        6.170151
   4       11.292973
   5       12.400236
   6       12.792022
 
  0.3500000E+00  0.5000000E-01  0.5000000E-01  0.2400000E-01
   1        1.868878
   2        4.884461
   3        6.372171
   4       11.822167
   5       12.664065
   6       15.406173
 
  0.4500000E+00  0.5000000E-01  0.5000000E-01  0.1200000E-01
   1        2.010617
   2        4.868779
   3        7.059604
   4       11.793685
   5       13.985957
   6       17.361478
 
 -0.5000000E-01  0.5000000E-01  0.5000000E-01  0.6000000E-02
   1       -1.942314
   2        7.695993
   3        7.696000
   4        7.830073
   5       11.081254
   6       11.676051
 
  0.1500000E+00  0.1500000E+00  0.5000000E-01  0.2400000E-01
   1        0.909927
   2        5.677196
   3        5.837326
   4       11.228938
   5       12.516692
   6       12.654983
 
  0.2500000E+00  0.1500000E+00  0.5000000E-01  0.4800000E-01
   1        2.303077
   2        5.484987
   3        5.763863
   4       11.672459
   5       13.277447
   6       14.777695
 
  0.3500000E+00  0.1500000E+00  0.5000000E-01  0.4800000E-01
   1        2.766744
   2        5.153136
   3        6.324919
   4       11.670510
   5       12.674086
   6       16.583139
 
 -0.1500000E+00  0.1500000E+00  0.5000000E-01  0.2400000E-01
   1       -1.135116
   2        6.584475
   3        6.846639
   4        8.484631
   5        9.980765
   6       11.874886
 
  0.2500000E+00  0.2500000E+00  0.5000000E-01  0.2400000E-01
   1        3.425874
   2        5.174567
   3        5.597509
   4       12.125591
   5       12.268856
   6       15.805254
 
  0.3500000E+00  0.2500000E+00  0.5000000E-01  0.2400000E-01
   1        3.973931
   2        5.306185
   3        5.843927
   4       12.585311
   5       13.258155
   6       14.935528
 
 -0.2500000E+00  0.2500000E+00  0.5000000E-01  0.2400000E-01
   1        0.233557
   2        6.054686
   3        6.705068
   4       10.217630
   5       10.828321
   6       12.569878
 
 -0.1500000E+00  0.2500000E+00  0.5000000E-01  0.2400000E-01
   1       -0.036849
   2        6.667614
   3        6.868949
   4        9.893294
   5       10.799465
   6       13.191282
 
 -0.3500000E+00  0.3500000E+00  0.5000000E-01  0.2400000E-01
   1        1.451002
   2        4.987708
   3        6.190860
   4       11.032329
   5       12.299093
   6       13.616713
 
 -0.2500000E+00  0.3500000E+00  0.5000000E-01  0.4800000E-01
   1        1.375504
   2        5.762199
   3        6.098791
   4        9.956121
   5       12.451046
   6       13.463288
 
 -0.4500000E+00  0.4500000E+00  0.5000000E-01  0.2400000E-01
   1        1.841988
   2        4.862117
   3        6.817087
   4       11.162662
   5       13.143536
   6       16.235801
 
 -0.3500000E+00  0.4500000E+00  0.5000000E-01  0.4800000E-01
   1        2.261485
   2        5.305404
   3        6.122928
   4       10.698211
   5       12.911582
   6       15.323822
 
 -0.2500000E+00  0.4500000E+00  0.5000000E-01  0.2400000E-01
   1        2.551164
   2        5.307039
   3        6.083593
   4        9.763252
   5       12.507824
   6       14.704917
 
 -0.4500000E+00 -0.4500000E+00  0.5000000E-01  0.2400000E-01
   1        2.412326
   2        5.407151
   3        6.381704
   4       10.448725
   5       12.689557
   6       17.094522
 
 -0.3500000E+00 -0.4500000E+00  0.5000000E-01  0.4800000E-01
   1        3.294869
   2        5.282831
   3        5.959460
   4       10.796278
   5       12.727508
   6       16.819062
 
 -0.3500000E+00 -0.3500000E+00  0.5000000E-01  0.8000000E-02
   1        3.941314
   2        5.252454
   3        5.252467
   4       11.778342
   5       11.778368
   6       14.888145
 
  0.1500000E+00  0.1500000E+00  0.1500000E+00  0.8000000E-02
   1        2.356145
   2        5.686084
   3        5.686084
   4       12.751441
   5       12.751441
   6       14.858912
 
  0.2500000E+00  0.1500000E+00  0.1500000E+00  0.2400000E-01
   1        3.593349
   2        5.333436
   3        5.440363
   4       12.882793
   5       12.923287
   6       15.610475
 
  0.3500000E+00  0.1500000E+00  0.1500000E+00  0.1200000E-01
   1        3.811138
   2        5.111650
   3        6.192334
   4       12.322093
   5       12.525326
   6       14.788725
 
 -0.1500000E+00  0.1500000E+00  0.1500000E+00  0.6000000E-02
   1       -0.359809
   2        7.367277
   3        7.367286
   4        8.007504
   5        8.825653
   6       13.726139
 
  0.2500000E+00  0.2500000E+00  0.1500000E+00  0.2400000E-01
   1        4.575634
   2        5.057225
   3        5.483087
   4       12.480271
   5       13.031994
   6       13.645861
 
 -0.2500000E+00  0.2500000E+00  0.1500000E+00  0.2400000E-01
   1        0.951632
   2        6.571296
   3        6.997826
   4        8.265007
   5       10.626049
   6       14.087892
 
 -0.3500000E+00  0.3500000E+00  0.1500000E+00  0.2400000E-01
   1        2.184193
   2        5.640755
   3        6.557540
   4        9.253349
   5       13.267230
   6       13.689311
 
 -0.2500000E+00  0.3500000E+00  0.1500000E+00  0.2400000E-01
   1        2.196873
   2        5.551670
   3        7.309104
   4        8.552886
   5       12.382989
   6       12.772578
 
 -0.4500000E+00  0.4500000E+00  0.1500000E+00  0.2400000E-01
   1        2.572926
   2        5.518369
   3        5.730397
   4        9.220178
   5       12.939838
   6       15.659597
 
 -0.3500000E+00  0.4500000E+00  0.1500000E+00  0.4800000E-01
   1        3.085155
   2        4.946522
   3        6.443964
   4        9.101367
   5       11.797735
   6       15.109877
 
 -0.4500000E+00 -0.4500000E+00  0.1500000E+00  0.2400000E-01
   1        3.365981
   2        5.185918
   3        6.033826
   4        8.995273
   5       13.244557
   6       17.036253
 
 -0.3500000E+00 -0.4500000E+00  0.1500000E+00  0.2400000E-01
   1        4.171562
   2        4.497201
   3        5.563796
   4       10.902208
   5       11.965845
   6       16.314033
 
  0.2500000E+00  0.2500000E+00  0.2500000E+00  0.2000000E-02
   1        5.115596
   2        5.115596
   3        5.115596
   4       12.285047
   5       12.285047
   6       12.472096
 
 -0.2500000E+00  0.2500000E+00  0.2500000E+00  0.6000000E-02
   1        2.056327
   2        5.449798
   3        7.526933
   4        7.526946
   5       10.419091
   6       11.785477
 
 -0.3500000E+00  0.3500000E+00  0.2500000E+00  0.2400000E-01
   1        3.058151
   2        4.677564
   3        8.466079
   4        8.551242
   5       11.509841
   6       13.146926
 
 -0.4500000E+00  0.4500000E+00  0.2500000E+00  0.2400000E-01
   1        3.536145
   2        4.450141
   3        8.171810
   4        8.281978
   5       13.511345
   6       15.527317
 
 -0.3500000E+00  0.4500000E+00  0.2500000E+00  0.2400000E-01
   1        3.714297
   2        3.974113
   3        8.233860
   4       10.375023
   5       12.108810
   6       15.114726
 
 -0.4500000E+00 -0.4500000E+00  0.2500000E+00  0.2400000E-01
   1        3.657247
   2        3.952792
   3        7.843187
   4       10.844482
   5       13.215273
   6       17.090624
 
 -0.3500000E+00  0.3500000E+00  0.3500000E+00  0.6000000E-02
   1        3.469332
   2        3.778379
   3       10.110544
   4       10.110547
   5       11.322493
   6       13.568440
 
 -0.4500000E+00  0.4500000E+00  0.3500000E+00  0.2400000E-01
   1        3.250866
   2        3.382987
   3       10.171231
   4       10.689231
   5       13.388546
   6       15.132552
 
 -0.4500000E+00 -0.4500000E+00  0.3500000E+00  0.8000000E-02
   1        3.083876
   2        3.083878
   3       10.256543
   4       12.938928
   5       12.938928
   6       16.950945
 
 -0.4500000E+00  0.4500000E+00  0.4500000E+00  0.6000000E-02
   1        2.775939
   2        2.815889
   3       12.823225
   4       12.823228
   5       13.449476
   6       15.137148
