       N       E                     dE             d eps       ncg     rms          rms(c)
DAV:   1    -0.162290175067E+02   -0.16229E+02   -0.72341E+02   786   0.120E+02
DAV:   2    -0.167012461709E+02   -0.47223E+00   -0.42441E+00   624   0.126E+01
DAV:   3    -0.167022320159E+02   -0.98584E-03   -0.98565E-03   636   0.527E-01
DAV:   4    -0.167022331174E+02   -0.11015E-05   -0.11018E-05   564   0.126E-02
DAV:   5    -0.167022331216E+02   -0.41794E-08   -0.37981E-08   366   0.503E-04    0.528E+00
DAV:   6    -0.157524543758E+02    0.94978E+00   -0.37435E-01   594   0.445E+00    0.304E+00
DAV:   7    -0.152255273163E+02    0.52693E+00   -0.73110E-01   624   0.611E+00    0.286E-01
DAV:   8    -0.152244655398E+02    0.10618E-02   -0.34245E-03   684   0.372E-01    0.940E-02
DAV:   9    -0.152245619563E+02   -0.96417E-04   -0.28501E-04   570   0.105E-01
   1 F= -.15224562E+02 E0= -.15224577E+02  d E =0.439420E-04
