 vasp.5.2.12 11Nov11 complex                                                    
  
 executed on             LinuxIFC date 2012.10.14  15:48:53
 running on    1 nodes
 distr:  one band on    1 nodes,    1 groups


--------------------------------------------------------------------------------------------------------


 INCAR:
 POTCAR:    PAW_PBE Ta 17Jan2003                  
 POTCAR:    PAW_PBE Ta 17Jan2003                  
   VRHFIN =Ta:  6s5d                                                            
   LEXCH  = PE                                                                  
   EATOM  =   130.6506 eV,    9.6025 Ry                                         
                                                                                
   TITEL  = PAW_PBE Ta 17Jan2003                                                
   LULTRA =        F    use ultrasoft PP ?                                      
   IUNSCR =        1    unscreen: 0-lin 1-nonlin 2-no                           
   RPACOR =    2.330    partial core radius                                     
   POMASS =  180.948; ZVAL   =    5.000    mass and valenz                      
   RCORE  =    2.900    outmost cutoff radius                                   
   RWIGS  =    2.840; RWIGS  =    1.503    wigner-seitz radius (au A)           
   ENMAX  =  223.667; ENMIN  =  167.750 eV                                      
   RCLOC  =    2.205    cutoff for local pot                                    
   LCOR   =        T    correct aug charges                                     
   LPAW   =        T    paw PP                                                  
   EAUG   =  332.075                                                            
   DEXC   =    -.049                                                            
   RMAX   =    3.083    core radius for proj-oper                               
   RAUG   =    1.300    factor for augmentation sphere                          
   RDEP   =    3.060    radius for radial grids                                 
   QCUT   =   -4.055; QGAM   =    8.109    optimization parameters              
                                                                                
   Description                                                                  
     l     E      TYP  RCUT    TYP  RCUT                                        
     2   .000     23  2.500                                                     
     2   .000     23  2.500                                                     
     0   .000     23  2.500                                                     
     0   .000     23  2.500                                                     
     1   .000     23  2.900                                                     
     1  2.000     23  2.900                                                     
     3   .000      7   .000                                                     
  local pseudopotential read in
  partial core-charges read in
  atomic valenz-charges read in
  non local Contribution for L=           2  read in
    real space projection operators read in
  non local Contribution for L=           2  read in
    real space projection operators read in
  non local Contribution for L=           0  read in
    real space projection operators read in
  non local Contribution for L=           0  read in
    real space projection operators read in
  non local Contribution for L=           1  read in
    real space projection operators read in
  non local Contribution for L=           1  read in
    real space projection operators read in
    PAW grid and wavefunctions read in
 
   number of l-projection  operators is LMAX  =           6
   number of lm-projection operators is LMMAX =          18
 
  PAW_PBE Ta 17Jan2003                  :
 energy of atom  1       EATOM= -130.6506
 kinetic energy error for atom=    7.6465 (will be added to EATOM!!)
 
 
 POSCAR: Ta                                      
  positions in cartesian coordinates
  No initial velocities read in
 exchange correlation table for  LEXCH =        8
   RHO(1)=    0.500       N(1)  =     2000
   RHO(2)=  100.500       N(2)  =     4000
 


--------------------------------------------------------------------------------------------------------


 ion  position               nearest neighbor table
   1  0.000  0.000  0.000-
 
  LATTYP: Found a body centered cubic cell.
 ALAT       =     3.3100000000
  
  Lattice vectors:
  
 A1 = (   2.8665440865,   0.0000000000,   0.0000000000)
 A2 = (  -0.9555146955,   2.7026036829,   0.0000000000)
 A3 = (  -0.9555146955,  -1.3513018414,   2.3405234457)
 Subroutine PRICEL returns:
 Original cell was already a primitive cell.
 

Analysis of symmetry for initial positions (statically):

 Routine SETGRP: Setting up the symmetry group for a 
 body centered cubic supercell.


 Subroutine GETGRP returns: Found 48 space group operations
 (whereof 48 operations were pure point group operations)
 out of a pool of 48 trial point group operations.


The static configuration has the point symmetry O_h .

Analysis of symmetry for dynamics (positions and initial velocities):

 Subroutine DYNSYM returns: Found 48 space group operations
 (whereof 48 operations were pure point group operations)
 out of a pool of 48 trial space group operations
 (whereof 48 operations were pure point group operations)
 and found also     1 'primitive' translations


The dynamic configuration has the point symmetry O_h .
 
 
 KPOINTS: KPOINTS created by Atomic Simulation Env

Automatic generation of k-mesh.
 
 Subroutine IBZKPT returns following result:
 ===========================================
 
 Found     44 irreducible k-points:
 
 Following reciprocal coordinates:
            Coordinates               Weight
  0.050000  0.050000  0.050000      8.000000
  0.150000  0.050000  0.050000     24.000000
  0.250000  0.050000  0.050000     24.000000
  0.350000  0.050000  0.050000     24.000000
  0.450000  0.050000  0.050000     12.000000
 -0.050000  0.050000  0.050000      6.000000
  0.150000  0.150000  0.050000     24.000000
  0.250000  0.150000  0.050000     48.000000
  0.350000  0.150000  0.050000     48.000000
 -0.150000  0.150000  0.050000     24.000000
  0.250000  0.250000  0.050000     24.000000
  0.350000  0.250000  0.050000     24.000000
 -0.250000  0.250000  0.050000     24.000000
 -0.150000  0.250000  0.050000     24.000000
 -0.350000  0.350000  0.050000     24.000000
 -0.250000  0.350000  0.050000     48.000000
 -0.450000  0.450000  0.050000     24.000000
 -0.350000  0.450000  0.050000     48.000000
 -0.250000  0.450000  0.050000     24.000000
 -0.450000 -0.450000  0.050000     24.000000
 -0.350000 -0.450000  0.050000     48.000000
 -0.350000 -0.350000  0.050000      8.000000
  0.150000  0.150000  0.150000      8.000000
  0.250000  0.150000  0.150000     24.000000
  0.350000  0.150000  0.150000     12.000000
 -0.150000  0.150000  0.150000      6.000000
  0.250000  0.250000  0.150000     24.000000
 -0.250000  0.250000  0.150000     24.000000
 -0.350000  0.350000  0.150000     24.000000
 -0.250000  0.350000  0.150000     24.000000
 -0.450000  0.450000  0.150000     24.000000
 -0.350000  0.450000  0.150000     48.000000
 -0.450000 -0.450000  0.150000     24.000000
 -0.350000 -0.450000  0.150000     24.000000
  0.250000  0.250000  0.250000      2.000000
 -0.250000  0.250000  0.250000      6.000000
 -0.350000  0.350000  0.250000     24.000000
 -0.450000  0.450000  0.250000     24.000000
 -0.350000  0.450000  0.250000     24.000000
 -0.450000 -0.450000  0.250000     24.000000
 -0.350000  0.350000  0.350000      6.000000
 -0.450000  0.450000  0.350000     24.000000
 -0.450000 -0.450000  0.350000      8.000000
 -0.450000  0.450000  0.450000      6.000000
 
 Following cartesian coordinates:
            Coordinates               Weight
  0.017443  0.024668  0.042725      8.000000
  0.052328  0.037001  0.064088     24.000000
  0.087213  0.049335  0.085451     24.000000
  0.122098  0.061669  0.106814     24.000000
  0.156983  0.074003  0.128176     12.000000
 -0.017443  0.012334  0.021363      6.000000
  0.052328  0.074003  0.085451     24.000000
  0.087213  0.086336  0.106814     48.000000
  0.122098  0.098670  0.128176     48.000000
 -0.052328  0.037001  0.021363     24.000000
  0.087213  0.123338  0.128176     24.000000
  0.122098  0.135672  0.149539     24.000000
 -0.087213  0.061669  0.021363     24.000000
 -0.052328  0.074003  0.042725     24.000000
 -0.122098  0.086336  0.021363     24.000000
 -0.087213  0.098670  0.042725     48.000000
 -0.156983  0.111004  0.021363     24.000000
 -0.122098  0.123338  0.042725     48.000000
 -0.087213  0.135672  0.064088     24.000000
 -0.156983 -0.222008 -0.170902     24.000000
 -0.122098 -0.209674 -0.149539     48.000000
 -0.122098 -0.172673 -0.128176      8.000000
  0.052328  0.074003  0.128176      8.000000
  0.087213  0.086336  0.149539     24.000000
  0.122098  0.098670  0.170902     12.000000
 -0.052328  0.037001  0.064088      6.000000
  0.087213  0.123338  0.170902     24.000000
 -0.087213  0.061669  0.064088     24.000000
 -0.122098  0.086336  0.064088     24.000000
 -0.087213  0.098670  0.085451     24.000000
 -0.156983  0.111004  0.064088     24.000000
 -0.122098  0.123338  0.085451     48.000000
 -0.156983 -0.222008 -0.128176     24.000000
 -0.122098 -0.209674 -0.106814     24.000000
  0.087213  0.123338  0.213627      2.000000
 -0.087213  0.061669  0.106814      6.000000
 -0.122098  0.086336  0.106814     24.000000
 -0.156983  0.111004  0.106814     24.000000
 -0.122098  0.123338  0.128176     24.000000
 -0.156983 -0.222008 -0.085451     24.000000
 -0.122098  0.086336  0.149539      6.000000
 -0.156983  0.111004  0.149539     24.000000
 -0.156983 -0.222008 -0.042725      8.000000
 -0.156983  0.111004  0.192265      6.000000
 


--------------------------------------------------------------------------------------------------------




 Dimension of arrays:
   k-points           NKPTS =     44   k-points in BZ     NKDIM =     44   number of bands    NBANDS=      6
   number of dos      NEDOS =    301   number of ions     NIONS =      1
   non local maximal  LDIM  =      6   non local SUM 2l+1 LMDIM =     18
   total plane-waves  NPLWV =   1000
   max r-space proj   IRMAX =      1   max aug-charges    IRDMAX=   3953
   dimension x,y,z NGX =    10 NGY =   10 NGZ =   10
   dimension x,y,z NGXF=    20 NGYF=   20 NGZF=   20
   support grid    NGXF=    20 NGYF=   20 NGZF=   20
   ions per type =               1
 NGX,Y,Z   is equivalent  to a cutoff of   5.80,  5.80,  5.80 a.u.
 NGXF,Y,Z  is equivalent  to a cutoff of  11.60, 11.60, 11.60 a.u.


 I would recommend the setting:
   dimension x,y,z NGX =     9 NGY =    9 NGZ =    9
 SYSTEM =  unknown system                          
 POSCAR =  Ta                                      

 Startparameter for this run:
   NWRITE =      2    write-flag & timer
   PREC   = accura    normal or accurate (medium, high low for compatibility)
   ISTART =      0    job   : 0-new  1-cont  2-samecut
   ICHARG =      2    charge: 1-file 2-atom 10-const
   ISPIN  =      1    spin polarized calculation?
   LNONCOLLINEAR =      F non collinear calculations
   LSORBIT =      F    spin-orbit coupling
   INIWAV =      1    electr: 0-lowe 1-rand  2-diag
   LASPH  =      F    aspherical Exc in radial PAW
   METAGGA=      F    non-selfconsistent MetaGGA calc.

 Electronic Relaxation 1
   ENCUT  =  100.0 eV   7.35 Ry    2.71 a.u.   2.34  2.34  2.34*2*pi/ulx,y,z
   ENINI  =  100.0     initial cutoff
   ENAUG  =  332.1 eV  augmentation charge cutoff
   NELM   =     60;   NELMIN=  2; NELMDL= -5     # of ELM steps 
   EDIFF  = 0.1E-03   stopping-criterion for ELM
   LREAL  =      F    real-space projection
   NLSPLINE    = F    spline interpolate recip. space projectors
   LCOMPAT=      F    compatible to vasp.4.4
   GGA_COMPAT  = T    GGA compatible to vasp.4.4-vasp.4.6
   LMAXPAW     = -100 max onsite density
   LMAXMIX     =    2 max onsite mixed and CHGCAR
   VOSKOWN=      0    Vosko Wilk Nusair interpolation
   ROPT   =    0.00000
 Ionic relaxation
   EDIFFG = 0.1E-02   stopping-criterion for IOM
   NSW    =      0    number of steps for IOM
   NBLOCK =      1;   KBLOCK =      1    inner block; outer block 
   IBRION =     -1    ionic relax: 0-MD 1-quasi-New 2-CG
   NFREE  =      0    steps in history (QN), initial steepest desc. (CG)
   ISIF   =      2    stress and relaxation
   IWAVPR =     10    prediction:  0-non 1-charg 2-wave 3-comb
   ISYM   =      2    0-nonsym 1-usesym 2-fastsym
   LCORR  =      T    Harris-Foulkes like correction to forces

   POTIM  = 0.5000    time-step for ionic-motion
   TEIN   =    0.0    initial temperature
   TEBEG  =    0.0;   TEEND  =   0.0 temperature during run
   SMASS  =  -3.00    Nose mass-parameter (am)
   estimated Nose-frequenzy (Omega)   =  0.10E-29 period in steps =****** mass=  -0.188E-27a.u.
   SCALEE = 1.0000    scale energy and forces
   NPACO  =    256;   APACO  = 16.0  distance and # of slots for P.C.
   PSTRESS=    0.0 pullay stress

  Mass of Ions in am
   POMASS = 180.95
  Ionic Valenz
   ZVAL   =   5.00
  Atomic Wigner-Seitz radii
   RWIGS  =  -1.00
  virtual crystal weights 
   VCA    =   1.00
   NELECT =       5.0000    total number of electrons
   NUPDOWN=      -1.0000    fix difference up-down

 DOS related values:
   EMIN   =  10.00;   EMAX   =-10.00  energy-range for DOS
   EFERMI =   0.00
   ISMEAR =     1;   SIGMA  =   0.05  broadening in eV -4-tet -1-fermi 0-gaus

 Electronic relaxation 2 (details)
   IALGO  =     38    algorithm
   LDIAG  =      T    sub-space diagonalisation (order eigenvalues)
   LSUBROT=      T    optimize rotation matrix (better conditioning)
   TURBO    =      0    0=normal 1=particle mesh
   IRESTART =      0    0=no restart 2=restart with 2 vectors
   NREBOOT  =      0    no. of reboots
   NMIN     =      0    reboot dimension
   EREF     =   0.00    reference energy to select bands
   IMIX   =      4    mixing-type and parameters
     AMIX     =   0.40;   BMIX     =  1.00
     AMIX_MAG =   1.60;   BMIX_MAG =  1.00
     AMIN     =   0.10
     WC   =   100.;   INIMIX=   1;  MIXPRE=   1

 Intra band minimization:
   WEIMIN = 0.0000     energy-eigenvalue tresh-hold
   EBREAK =  0.42E-05  absolut break condition
   DEPER  =   0.30     relativ break condition  

   TIME   =   0.40     timestep for ELM

  volume/ion in A,a.u.               =      18.13       122.36
  Fermi-wavevector in a.u.,A,eV,Ry     =   1.065566  2.013627 15.448462  1.135430
  Thomas-Fermi vector in A             =   2.201121
 
 Write flags
   LWAVE  =      T    write WAVECAR
   LCHARG =      T    write CHGCAR
   LVTOT  =      F    write LOCPOT, total local potential
   LVHAR  =      F    write LOCPOT, Hartree potential only
   LELF   =      F    write electronic localiz. function (ELF)
   LORBIT =      0    0 simple, 1 ext, 2 COOP (PROOUT)


 Dipole corrections
   LMONO  =      F    monopole corrections only (constant potential shift)
   LDIPOL =      F    correct potential (dipole corrections)
   IDIPOL =      0    1-x, 2-y, 3-z, 4-all directions 
   EPSILON=  1.0000000 bulk dielectric constant

 Exchange correlation treatment:
   GGA     =    --    GGA type
   LEXCH   =     8    internal setting for exchange type
   VOSKOWN=      0    Vosko Wilk Nusair interpolation
   LHFCALC =     F    Hartree Fock is set to
   LHFONE  =     F    Hartree Fock one center treatment
   AEXX    =    0.0000 exact exchange contribution

 Linear response parameters
   LEPSILON=     F    determine dielectric tensor
   LRPA    =     F    only Hartree local field effects (RPA)
   LNABLA  =     F    use nabla operator in PAW spheres
   LVEL    =     F    velocity operator in full k-point grid
   LINTERFAST=   F  fast interpolation
   KINTER  =     0    interpolate to denser k-point grid
   CSHIFT  =0.1000    complex shift for real part using Kramers Kronig
   OMEGAMAX=  -1.0    maximum frequency
   RTIME   =    0.100 relaxation time in fs

 Orbital magnetization related:
   ORBITALMAG=     F  switch on orbital magnetization
   LCHIMAG   =     F  perturbation theory with respect to B field
   DQ        =  0.001000  dq finite difference perturbation B field



--------------------------------------------------------------------------------------------------------


 Static calculation
 charge density and potential will be updated during run
 non-spin polarized calculation
 Variant of blocked Davidson
 Davidson routine will perform the subspace rotation
 perform sub-space diagonalisation
    after iterative eigenvector-optimisation
 modified Broyden-mixing scheme, WC =      100.0
 initial mixing is a Kerker type mixing with AMIX =  0.4000 and BMIX =      1.0000
 Hartree-type preconditioning will be used
 using additional bands            3
 reciprocal scheme for non local part
 use partial core corrections
 calculate Harris-corrections to forces 
   (improved forces if not selfconsistent)
 use gradient corrections 
 use of overlap-Matrix (Vanderbilt PP)
 Methfessel and Paxton  Order N= 1 SIGMA  =   0.05


--------------------------------------------------------------------------------------------------------


  energy-cutoff  :      100.00
  volume of cell :       18.13
      direct lattice vectors                 reciprocal lattice vectors
     2.866544087  0.000000000  0.000000000     0.348852126  0.123337852  0.213627426
    -0.955514696  2.702603683  0.000000000     0.000000000  0.370013556  0.213627426
    -0.955514696 -1.351301841  2.340523446     0.000000000  0.000000000  0.427254853

  length of vectors
     2.866544087  2.866544087  2.866544087     0.427254853  0.427254853  0.427254853


 
 k-points in units of 2pi/SCALE and weight: KPOINTS created by Atomic Simulation Env
   0.01744261  0.02466757  0.04272549       0.008
   0.05232782  0.03700136  0.06408823       0.024
   0.08721303  0.04933514  0.08545097       0.024
   0.12209824  0.06166893  0.10681371       0.024
   0.15698346  0.07400271  0.12817646       0.012
  -0.01744261  0.01233379  0.02136274       0.006
   0.05232782  0.07400271  0.08545097       0.024
   0.08721303  0.08633650  0.10681371       0.048
   0.12209824  0.09867028  0.12817646       0.048
  -0.05232782  0.03700136  0.02136274       0.024
   0.08721303  0.12333785  0.12817646       0.024
   0.12209824  0.13567164  0.14953920       0.024
  -0.08721303  0.06166893  0.02136274       0.024
  -0.05232782  0.07400271  0.04272549       0.024
  -0.12209824  0.08633650  0.02136274       0.024
  -0.08721303  0.09867028  0.04272549       0.048
  -0.15698346  0.11100407  0.02136274       0.024
  -0.12209824  0.12333785  0.04272549       0.048
  -0.08721303  0.13567164  0.06408823       0.024
  -0.15698346 -0.22200813 -0.17090194       0.024
  -0.12209824 -0.20967435 -0.14953920       0.048
  -0.12209824 -0.17267299 -0.12817646       0.008
   0.05232782  0.07400271  0.12817646       0.008
   0.08721303  0.08633650  0.14953920       0.024
   0.12209824  0.09867028  0.17090194       0.012
  -0.05232782  0.03700136  0.06408823       0.006
   0.08721303  0.12333785  0.17090194       0.024
  -0.08721303  0.06166893  0.06408823       0.024
  -0.12209824  0.08633650  0.06408823       0.024
  -0.08721303  0.09867028  0.08545097       0.024
  -0.15698346  0.11100407  0.06408823       0.024
  -0.12209824  0.12333785  0.08545097       0.048
  -0.15698346 -0.22200813 -0.12817646       0.024
  -0.12209824 -0.20967435 -0.10681371       0.024
   0.08721303  0.12333785  0.21362743       0.002
  -0.08721303  0.06166893  0.10681371       0.006
  -0.12209824  0.08633650  0.10681371       0.024
  -0.15698346  0.11100407  0.10681371       0.024
  -0.12209824  0.12333785  0.12817646       0.024
  -0.15698346 -0.22200813 -0.08545097       0.024
  -0.12209824  0.08633650  0.14953920       0.006
  -0.15698346  0.11100407  0.14953920       0.024
  -0.15698346 -0.22200813 -0.04272549       0.008
  -0.15698346  0.11100407  0.19226468       0.006
 
 k-points in reciprocal lattice and weights: KPOINTS created by Atomic Simulation Env
   0.05000000  0.05000000  0.05000000       0.008
   0.15000000  0.05000000  0.05000000       0.024
   0.25000000  0.05000000  0.05000000       0.024
   0.35000000  0.05000000  0.05000000       0.024
   0.45000000  0.05000000  0.05000000       0.012
  -0.05000000  0.05000000  0.05000000       0.006
   0.15000000  0.15000000  0.05000000       0.024
   0.25000000  0.15000000  0.05000000       0.048
   0.35000000  0.15000000  0.05000000       0.048
  -0.15000000  0.15000000  0.05000000       0.024
   0.25000000  0.25000000  0.05000000       0.024
   0.35000000  0.25000000  0.05000000       0.024
  -0.25000000  0.25000000  0.05000000       0.024
  -0.15000000  0.25000000  0.05000000       0.024
  -0.35000000  0.35000000  0.05000000       0.024
  -0.25000000  0.35000000  0.05000000       0.048
  -0.45000000  0.45000000  0.05000000       0.024
  -0.35000000  0.45000000  0.05000000       0.048
  -0.25000000  0.45000000  0.05000000       0.024
  -0.45000000 -0.45000000  0.05000000       0.024
  -0.35000000 -0.45000000  0.05000000       0.048
  -0.35000000 -0.35000000  0.05000000       0.008
   0.15000000  0.15000000  0.15000000       0.008
   0.25000000  0.15000000  0.15000000       0.024
   0.35000000  0.15000000  0.15000000       0.012
  -0.15000000  0.15000000  0.15000000       0.006
   0.25000000  0.25000000  0.15000000       0.024
  -0.25000000  0.25000000  0.15000000       0.024
  -0.35000000  0.35000000  0.15000000       0.024
  -0.25000000  0.35000000  0.15000000       0.024
  -0.45000000  0.45000000  0.15000000       0.024
  -0.35000000  0.45000000  0.15000000       0.048
  -0.45000000 -0.45000000  0.15000000       0.024
  -0.35000000 -0.45000000  0.15000000       0.024
   0.25000000  0.25000000  0.25000000       0.002
  -0.25000000  0.25000000  0.25000000       0.006
  -0.35000000  0.35000000  0.25000000       0.024
  -0.45000000  0.45000000  0.25000000       0.024
  -0.35000000  0.45000000  0.25000000       0.024
  -0.45000000 -0.45000000  0.25000000       0.024
  -0.35000000  0.35000000  0.35000000       0.006
  -0.45000000  0.45000000  0.35000000       0.024
  -0.45000000 -0.45000000  0.35000000       0.008
  -0.45000000  0.45000000  0.45000000       0.006
 
 position of ions in fractional coordinates (direct lattice) 
   0.00000000  0.00000000  0.00000000
 
 position of ions in cartesian coordinates  (Angst):
   0.00000000  0.00000000  0.00000000
 


--------------------------------------------------------------------------------------------------------


 k-point  1 :  0.05000.05000.0500  plane waves:      46
 k-point  2 :  0.15000.05000.0500  plane waves:      43
 k-point  3 :  0.25000.05000.0500  plane waves:      41
 k-point  4 :  0.35000.05000.0500  plane waves:      42
 k-point  5 :  0.45000.05000.0500  plane waves:      40
 k-point  6 :  -.05000.05000.0500  plane waves:      43
 k-point  7 :  0.15000.15000.0500  plane waves:      41
 k-point  8 :  0.25000.15000.0500  plane waves:      39
 k-point  9 :  0.35000.15000.0500  plane waves:      41
 k-point 10 :  -.15000.15000.0500  plane waves:      46
 k-point 11 :  0.25000.25000.0500  plane waves:      41
 k-point 12 :  0.35000.25000.0500  plane waves:      38
 k-point 13 :  -.25000.25000.0500  plane waves:      42
 k-point 14 :  -.15000.25000.0500  plane waves:      40
 k-point 15 :  -.35000.35000.0500  plane waves:      43
 k-point 16 :  -.25000.35000.0500  plane waves:      41
 k-point 17 :  -.45000.45000.0500  plane waves:      42
 k-point 18 :  -.35000.45000.0500  plane waves:      41
 k-point 19 :  -.25000.45000.0500  plane waves:      42
 k-point 20 :  -.4500-.45000.0500  plane waves:      42
 k-point 21 :  -.3500-.45000.0500  plane waves:      40
 k-point 22 :  -.3500-.35000.0500  plane waves:      41
 k-point 23 :  0.15000.15000.1500  plane waves:      37
 k-point 24 :  0.25000.15000.1500  plane waves:      39
 k-point 25 :  0.35000.15000.1500  plane waves:      40
 k-point 26 :  -.15000.15000.1500  plane waves:      43
 k-point 27 :  0.25000.25000.1500  plane waves:      41
 k-point 28 :  -.25000.25000.1500  plane waves:      41
 k-point 29 :  -.35000.35000.1500  plane waves:      40
 k-point 30 :  -.25000.35000.1500  plane waves:      41
 k-point 31 :  -.45000.45000.1500  plane waves:      44
 k-point 32 :  -.35000.45000.1500  plane waves:      43
 k-point 33 :  -.4500-.45000.1500  plane waves:      42
 k-point 34 :  -.3500-.45000.1500  plane waves:      41
 k-point 35 :  0.25000.25000.2500  plane waves:      44
 k-point 36 :  -.25000.25000.2500  plane waves:      47
 k-point 37 :  -.35000.35000.2500  plane waves:      41
 k-point 38 :  -.45000.45000.2500  plane waves:      40
 k-point 39 :  -.35000.45000.2500  plane waves:      38
 k-point 40 :  -.4500-.45000.2500  plane waves:      38
 k-point 41 :  -.35000.35000.3500  plane waves:      38
 k-point 42 :  -.45000.45000.3500  plane waves:      38
 k-point 43 :  -.4500-.45000.3500  plane waves:      38
 k-point 44 :  -.45000.45000.4500  plane waves:      38

 maximum and minimum number of plane-waves per node :        47       37

 maximum number of plane-waves:        47
 maximum index in each direction: 
   IXMAX=    2   IYMAX=    2   IZMAX=    2
   IXMIN=   -2   IYMIN=   -2   IZMIN=   -2

 NGX is ok and might be reduce to  10
 NGY is ok and might be reduce to  10
 NGZ is ok and might be reduce to  10

 serial   3D FFT for wavefunctions
 parallel 3D FFT for charge:
    minimum data exchange during FFTs selected (reduces bandwidth)


 total amount of memory used by VASP on root node    31334. kBytes
========================================================================

   base      :      30000. kBytes
   nonl-proj :        298. kBytes
   fftplans  :        296. kBytes
   grid      :        451. kBytes
   one-center:         15. kBytes
   wavefun   :        274. kBytes
 
 Broyden mixing: mesh for mixing (old mesh)
   NGX =  5   NGY =  5   NGZ =  5
  (NGX  = 20   NGY  = 20   NGZ  = 20)
  gives a total of    125 points

 initial charge density was supplied:
 charge density of overlapping atoms calculated
 number of electron       5.0000000 magnetization 
 keeping initial charge density in first step


--------------------------------------------------------------------------------------------------------


 Maximum index for augmentation-charges         3695 (set IRDMAX)


--------------------------------------------------------------------------------------------------------


 First call to EWALD:  gamma=   0.675
 Maximum number of real-space cells 3x 3x 3
 Maximum number of reciprocal cells 3x 3x 3

    FEWALD:  cpu time    0.00: real time    0.00


----------------------------------------- Iteration    1(   1)  ---------------------------------------


    POTLOK:  cpu time    0.01: real time    0.01
    SETDIJ:  cpu time    0.01: real time    0.01
     EDDAV:  cpu time    0.14: real time    0.14
       DOS:  cpu time    0.00: real time    0.00
    --------------------------------------------
      LOOP:  cpu time    0.16: real time    0.16

 eigenvalue-minimisations  :   786
 total energy-change (2. order) :-0.1622902E+02  (-0.7234120E+02)
 number of electron       5.0000000 magnetization 
 augmentation part        5.0000000 magnetization 

 Free energy of the ion-electron system (eV)
  ---------------------------------------------------
  alpha Z        PSCENC =        30.58334069
  Ewald energy   TEWEN  =      -197.90100875
  -1/2 Hartree   DENC   =        -2.50452612
  -exchange  EXHF       =         0.00000000
  -V(xc)+E(xc)   XCENC  =       -66.68582966
  PAW double counting   =       148.27821850      -73.99089003
  entropy T*S    EENTRO =         0.00012805
  eigenvalues    EBANDS =        22.98744846
  atomic energy  EATOM  =       123.00410135
  ---------------------------------------------------
  free energy    TOTEN  =       -16.22901751 eV

  energy without entropy =      -16.22914556  energy(sigma->0) =      -16.22906019


--------------------------------------------------------------------------------------------------------




----------------------------------------- Iteration    1(   2)  ---------------------------------------


     EDDAV:  cpu time    0.13: real time    0.13
       DOS:  cpu time    0.00: real time    0.00
    --------------------------------------------
      LOOP:  cpu time    0.13: real time    0.18

 eigenvalue-minimisations  :   624
 total energy-change (2. order) :-0.4722287E+00  (-0.4244076E+00)
 number of electron       5.0000000 magnetization 
 augmentation part        5.0000000 magnetization 

 Free energy of the ion-electron system (eV)
  ---------------------------------------------------
  alpha Z        PSCENC =        30.58334069
  Ewald energy   TEWEN  =      -197.90100875
  -1/2 Hartree   DENC   =        -2.50452612
  -exchange  EXHF       =         0.00000000
  -V(xc)+E(xc)   XCENC  =       -66.68582966
  PAW double counting   =       148.27821850      -73.99089003
  entropy T*S    EENTRO =        -0.00001948
  eigenvalues    EBANDS =        22.51536732
  atomic energy  EATOM  =       123.00410135
  ---------------------------------------------------
  free energy    TOTEN  =       -16.70124617 eV

  energy without entropy =      -16.70122670  energy(sigma->0) =      -16.70123968


--------------------------------------------------------------------------------------------------------




----------------------------------------- Iteration    1(   3)  ---------------------------------------


     EDDAV:  cpu time    0.11: real time    0.11
       DOS:  cpu time    0.00: real time    0.00
    --------------------------------------------
      LOOP:  cpu time    0.12: real time    0.14

 eigenvalue-minimisations  :   636
 total energy-change (2. order) :-0.9858450E-03  (-0.9856515E-03)
 number of electron       5.0000000 magnetization 
 augmentation part        5.0000000 magnetization 

 Free energy of the ion-electron system (eV)
  ---------------------------------------------------
  alpha Z        PSCENC =        30.58334069
  Ewald energy   TEWEN  =      -197.90100875
  -1/2 Hartree   DENC   =        -2.50452612
  -exchange  EXHF       =         0.00000000
  -V(xc)+E(xc)   XCENC  =       -66.68582966
  PAW double counting   =       148.27821850      -73.99089003
  entropy T*S    EENTRO =        -0.00000892
  eigenvalues    EBANDS =        22.51437092
  atomic energy  EATOM  =       123.00410135
  ---------------------------------------------------
  free energy    TOTEN  =       -16.70223202 eV

  energy without entropy =      -16.70222309  energy(sigma->0) =      -16.70222904


--------------------------------------------------------------------------------------------------------




----------------------------------------- Iteration    1(   4)  ---------------------------------------


     EDDAV:  cpu time    0.10: real time    0.12
       DOS:  cpu time    0.00: real time    0.00
    --------------------------------------------
      LOOP:  cpu time    0.10: real time    0.15

 eigenvalue-minimisations  :   564
 total energy-change (2. order) :-0.1101538E-05  (-0.1101801E-05)
 number of electron       5.0000000 magnetization 
 augmentation part        5.0000000 magnetization 

 Free energy of the ion-electron system (eV)
  ---------------------------------------------------
  alpha Z        PSCENC =        30.58334069
  Ewald energy   TEWEN  =      -197.90100875
  -1/2 Hartree   DENC   =        -2.50452612
  -exchange  EXHF       =         0.00000000
  -V(xc)+E(xc)   XCENC  =       -66.68582966
  PAW double counting   =       148.27821850      -73.99089003
  entropy T*S    EENTRO =        -0.00000889
  eigenvalues    EBANDS =        22.51436978
  atomic energy  EATOM  =       123.00410135
  ---------------------------------------------------
  free energy    TOTEN  =       -16.70223312 eV

  energy without entropy =      -16.70222423  energy(sigma->0) =      -16.70223016


--------------------------------------------------------------------------------------------------------




----------------------------------------- Iteration    1(   5)  ---------------------------------------


     EDDAV:  cpu time    0.07: real time    0.13
       DOS:  cpu time    0.00: real time    0.03
    CHARGE:  cpu time    0.01: real time    0.01
    MIXING:  cpu time    0.00: real time    0.00
    --------------------------------------------
      LOOP:  cpu time    0.08: real time    0.23

 eigenvalue-minimisations  :   366
 total energy-change (2. order) :-0.4179412E-08  (-0.3798090E-08)
 number of electron       4.9999992 magnetization 
 augmentation part        0.2247603 magnetization 

 Broyden mixing:
  rms(total) = 0.52797E+00    rms(broyden)= 0.52405E+00
  rms(prec ) = 0.22741E+01
  weight for this iteration     100.00

 Free energy of the ion-electron system (eV)
  ---------------------------------------------------
  alpha Z        PSCENC =        30.58334069
  Ewald energy   TEWEN  =      -197.90100875
  -1/2 Hartree   DENC   =        -2.50452612
  -exchange  EXHF       =         0.00000000
  -V(xc)+E(xc)   XCENC  =       -66.68582966
  PAW double counting   =       148.27821850      -73.99089003
  entropy T*S    EENTRO =        -0.00000889
  eigenvalues    EBANDS =        22.51436978
  atomic energy  EATOM  =       123.00410135
  ---------------------------------------------------
  free energy    TOTEN  =       -16.70223312 eV

  energy without entropy =      -16.70222423  energy(sigma->0) =      -16.70223016


--------------------------------------------------------------------------------------------------------




----------------------------------------- Iteration    1(   6)  ---------------------------------------


    POTLOK:  cpu time    0.01: real time    0.01
    SETDIJ:  cpu time    0.01: real time    0.01
     EDDAV:  cpu time    0.11: real time    0.11
       DOS:  cpu time    0.00: real time    0.00
    CHARGE:  cpu time    0.01: real time    0.01
    MIXING:  cpu time    0.00: real time    0.00
    --------------------------------------------
      LOOP:  cpu time    0.13: real time    0.23

 eigenvalue-minimisations  :   594
 total energy-change (2. order) : 0.9497787E+00  (-0.3743456E-01)
 number of electron       4.9999991 magnetization 
 augmentation part        0.2412039 magnetization 

 Broyden mixing:
  rms(total) = 0.30352E+00    rms(broyden)= 0.30309E+00
  rms(prec ) = 0.13053E+01
  weight for this iteration     100.00

 eigenvalues of (default mixing * dielectric matrix)
  average eigenvalue GAMMA=   2.3332
  2.3332

 Free energy of the ion-electron system (eV)
  ---------------------------------------------------
  alpha Z        PSCENC =        30.58334069
  Ewald energy   TEWEN  =      -197.90100875
  -1/2 Hartree   DENC   =        -0.91819304
  -exchange  EXHF       =         0.00000000
  -V(xc)+E(xc)   XCENC  =       -66.13207747
  PAW double counting   =       163.86708820      -90.02729227
  entropy T*S    EENTRO =        -0.00013431
  eigenvalues    EBANDS =        21.77172122
  atomic energy  EATOM  =       123.00410135
  ---------------------------------------------------
  free energy    TOTEN  =       -15.75245438 eV

  energy without entropy =      -15.75232007  energy(sigma->0) =      -15.75240961


--------------------------------------------------------------------------------------------------------




----------------------------------------- Iteration    1(   7)  ---------------------------------------


    POTLOK:  cpu time    0.01: real time    0.01
    SETDIJ:  cpu time    0.01: real time    0.01
     EDDAV:  cpu time    0.11: real time    0.24
       DOS:  cpu time    0.00: real time    0.00
    CHARGE:  cpu time    0.01: real time    0.01
    MIXING:  cpu time    0.00: real time    0.00
    --------------------------------------------
      LOOP:  cpu time    0.14: real time    0.29

 eigenvalue-minimisations  :   624
 total energy-change (2. order) : 0.5269271E+00  (-0.7311005E-01)
 number of electron       4.9999991 magnetization 
 augmentation part        0.2624167 magnetization 

 Broyden mixing:
  rms(total) = 0.28608E-01    rms(broyden)= 0.27942E-01
  rms(prec ) = 0.86990E-01
  weight for this iteration     100.00

 eigenvalues of (default mixing * dielectric matrix)
  average eigenvalue GAMMA=   2.1010
  1.7075  2.4945

 Free energy of the ion-electron system (eV)
  ---------------------------------------------------
  alpha Z        PSCENC =        30.58334069
  Ewald energy   TEWEN  =      -197.90100875
  -1/2 Hartree   DENC   =        -0.07524477
  -exchange  EXHF       =         0.00000000
  -V(xc)+E(xc)   XCENC  =       -65.24139221
  PAW double counting   =       193.23053517     -119.76173084
  entropy T*S    EENTRO =        -0.00001691
  eigenvalues    EBANDS =        20.93588895
  atomic energy  EATOM  =       123.00410135
  ---------------------------------------------------
  free energy    TOTEN  =       -15.22552732 eV

  energy without entropy =      -15.22551041  energy(sigma->0) =      -15.22552168


--------------------------------------------------------------------------------------------------------




----------------------------------------- Iteration    1(   8)  ---------------------------------------


    POTLOK:  cpu time    0.01: real time    0.01
    SETDIJ:  cpu time    0.01: real time    0.01
     EDDAV:  cpu time    0.12: real time    0.12
       DOS:  cpu time    0.00: real time    0.04
    CHARGE:  cpu time    0.01: real time    0.01
    MIXING:  cpu time    0.00: real time    0.00
    --------------------------------------------
      LOOP:  cpu time    0.14: real time    0.64

 eigenvalue-minimisations  :   684
 total energy-change (2. order) : 0.1061777E-02  (-0.3424484E-03)
 number of electron       4.9999991 magnetization 
 augmentation part        0.2644132 magnetization 

 Broyden mixing:
  rms(total) = 0.93960E-02    rms(broyden)= 0.92997E-02
  rms(prec ) = 0.32376E-01
  weight for this iteration     100.00

 eigenvalues of (default mixing * dielectric matrix)
  average eigenvalue GAMMA=   2.0227
  1.0445  2.5118  2.5118

 Free energy of the ion-electron system (eV)
  ---------------------------------------------------
  alpha Z        PSCENC =        30.58334069
  Ewald energy   TEWEN  =      -197.90100875
  -1/2 Hartree   DENC   =        -0.09478200
  -exchange  EXHF       =         0.00000000
  -V(xc)+E(xc)   XCENC  =       -65.18739992
  PAW double counting   =       198.04591961     -124.61935597
  entropy T*S    EENTRO =         0.00004998
  eigenvalues    EBANDS =        20.94466947
  atomic energy  EATOM  =       123.00410135
  ---------------------------------------------------
  free energy    TOTEN  =       -15.22446554 eV

  energy without entropy =      -15.22451552  energy(sigma->0) =      -15.22448220


--------------------------------------------------------------------------------------------------------




----------------------------------------- Iteration    1(   9)  ---------------------------------------


    POTLOK:  cpu time    0.01: real time    0.01
    SETDIJ:  cpu time    0.01: real time    0.01
     EDDAV:  cpu time    0.10: real time    0.10
       DOS:  cpu time    0.00: real time    0.00
    --------------------------------------------
      LOOP:  cpu time    0.12: real time    0.18

 eigenvalue-minimisations  :   570
 total energy-change (2. order) :-0.9641653E-04  (-0.2850115E-04)
 number of electron       4.9999991 magnetization 
 augmentation part        0.2644132 magnetization 

 Free energy of the ion-electron system (eV)
  ---------------------------------------------------
  alpha Z        PSCENC =        30.58334069
  Ewald energy   TEWEN  =      -197.90100875
  -1/2 Hartree   DENC   =        -0.10821754
  -exchange  EXHF       =         0.00000000
  -V(xc)+E(xc)   XCENC  =       -65.19717067
  PAW double counting   =       199.46068054     -126.04341536
  entropy T*S    EENTRO =         0.00004394
  eigenvalues    EBANDS =        20.97708383
  atomic energy  EATOM  =       123.00410135
  ---------------------------------------------------
  free energy    TOTEN  =       -15.22456196 eV

  energy without entropy =      -15.22460590  energy(sigma->0) =      -15.22457660


--------------------------------------------------------------------------------------------------------




 average (electrostatic) potential at core
  the test charge radii are     1.2538
  (the norm of the test charge is              1.0000)
       1 -37.0568
 
 
 
 E-fermi :   6.3897     XC(G=0): -12.5468     alpha+bet :-13.5035


 k-point   1 :       0.0500    0.0500    0.0500
  band No.  band energies     occupation 
      1      -1.5316      2.00000
      2       6.7858      0.00000
      3       6.7858      0.00000
      4       8.1248      0.00000
      5      11.1020      0.00000
      6      11.1020      0.00000

 k-point   2 :       0.1500    0.0500    0.0500
  band No.  band energies     occupation 
      1      -0.4030      2.00000
      2       6.1229      2.00000
      3       6.2514      2.00065
      4      10.6960      0.00000
      5      10.9991      0.00000
      6      11.6618      0.00000

 k-point   3 :       0.2500    0.0500    0.0500
  band No.  band energies     occupation 
      1       1.0481      2.00000
      2       5.4865      2.00000
      3       6.1702      2.00000
      4      11.2930      0.00000
      5      12.4002      0.00000
      6      12.7920      0.00000

 k-point   4 :       0.3500    0.0500    0.0500
  band No.  band energies     occupation 
      1       1.8689      2.00000
      2       4.8845      2.00000
      3       6.3722      1.55462
      4      11.8222      0.00000
      5      12.6641      0.00000
      6      15.4062      0.00000

 k-point   5 :       0.4500    0.0500    0.0500
  band No.  band energies     occupation 
      1       2.0106      2.00000
      2       4.8688      2.00000
      3       7.0596      0.00000
      4      11.7937      0.00000
      5      13.9860      0.00000
      6      17.3615      0.00000

 k-point   6 :      -0.0500    0.0500    0.0500
  band No.  band energies     occupation 
      1      -1.9423      2.00000
      2       7.6960      0.00000
      3       7.6960      0.00000
      4       7.8301      0.00000
      5      11.0813      0.00000
      6      11.6761      0.00000

 k-point   7 :       0.1500    0.1500    0.0500
  band No.  band energies     occupation 
      1       0.9099      2.00000
      2       5.6772      2.00000
      3       5.8373      2.00000
      4      11.2289      0.00000
      5      12.5167      0.00000
      6      12.6550      0.00000

 k-point   8 :       0.2500    0.1500    0.0500
  band No.  band energies     occupation 
      1       2.3031      2.00000
      2       5.4850      2.00000
      3       5.7639      2.00000
      4      11.6725      0.00000
      5      13.2774      0.00000
      6      14.7777      0.00000

 k-point   9 :       0.3500    0.1500    0.0500
  band No.  band energies     occupation 
      1       2.7667      2.00000
      2       5.1531      2.00000
      3       6.3249      2.06952
      4      11.6705      0.00000
      5      12.6741      0.00000
      6      16.5831      0.00000

 k-point  10 :      -0.1500    0.1500    0.0500
  band No.  band energies     occupation 
      1      -1.1351      2.00000
      2       6.5845      0.00000
      3       6.8466      0.00000
      4       8.4846      0.00000
      5       9.9808      0.00000
      6      11.8749      0.00000

 k-point  11 :       0.2500    0.2500    0.0500
  band No.  band energies     occupation 
      1       3.4259      2.00000
      2       5.1746      2.00000
      3       5.5975      2.00000
      4      12.1256      0.00000
      5      12.2689      0.00000
      6      15.8053      0.00000

 k-point  12 :       0.3500    0.2500    0.0500
  band No.  band energies     occupation 
      1       3.9739      2.00000
      2       5.3062      2.00000
      3       5.8439      2.00000
      4      12.5853      0.00000
      5      13.2582      0.00000
      6      14.9355      0.00000

 k-point  13 :      -0.2500    0.2500    0.0500
  band No.  band energies     occupation 
      1       0.2336      2.00000
      2       6.0547      2.00000
      3       6.7051      0.00000
      4      10.2176      0.00000
      5      10.8283      0.00000
      6      12.5699      0.00000

 k-point  14 :      -0.1500    0.2500    0.0500
  band No.  band energies     occupation 
      1      -0.0368      2.00000
      2       6.6676      0.00000
      3       6.8689      0.00000
      4       9.8933      0.00000
      5      10.7995      0.00000
      6      13.1913      0.00000

 k-point  15 :      -0.3500    0.3500    0.0500
  band No.  band energies     occupation 
      1       1.4510      2.00000
      2       4.9877      2.00000
      3       6.1909      2.00000
      4      11.0323      0.00000
      5      12.2991      0.00000
      6      13.6167      0.00000

 k-point  16 :      -0.2500    0.3500    0.0500
  band No.  band energies     occupation 
      1       1.3755      2.00000
      2       5.7622      2.00000
      3       6.0988      2.00000
      4       9.9561      0.00000
      5      12.4510      0.00000
      6      13.4633      0.00000

 k-point  17 :      -0.4500    0.4500    0.0500
  band No.  band energies     occupation 
      1       1.8420      2.00000
      2       4.8621      2.00000
      3       6.8171      0.00000
      4      11.1627      0.00000
      5      13.1435      0.00000
      6      16.2358      0.00000

 k-point  18 :      -0.3500    0.4500    0.0500
  band No.  band energies     occupation 
      1       2.2615      2.00000
      2       5.3054      2.00000
      3       6.1229      2.00000
      4      10.6982      0.00000
      5      12.9116      0.00000
      6      15.3238      0.00000

 k-point  19 :      -0.2500    0.4500    0.0500
  band No.  band energies     occupation 
      1       2.5512      2.00000
      2       5.3070      2.00000
      3       6.0836      2.00000
      4       9.7633      0.00000
      5      12.5078      0.00000
      6      14.7049      0.00000

 k-point  20 :      -0.4500   -0.4500    0.0500
  band No.  band energies     occupation 
      1       2.4123      2.00000
      2       5.4072      2.00000
      3       6.3817      1.26655
      4      10.4487      0.00000
      5      12.6896      0.00000
      6      17.0945      0.00000

 k-point  21 :      -0.3500   -0.4500    0.0500
  band No.  band energies     occupation 
      1       3.2949      2.00000
      2       5.2828      2.00000
      3       5.9595      2.00000
      4      10.7963      0.00000
      5      12.7275      0.00000
      6      16.8191      0.00000

 k-point  22 :      -0.3500   -0.3500    0.0500
  band No.  band energies     occupation 
      1       3.9413      2.00000
      2       5.2525      2.00000
      3       5.2525      2.00000
      4      11.7783      0.00000
      5      11.7784      0.00000
      6      14.8881      0.00000

 k-point  23 :       0.1500    0.1500    0.1500
  band No.  band energies     occupation 
      1       2.3561      2.00000
      2       5.6861      2.00000
      3       5.6861      2.00000
      4      12.7514      0.00000
      5      12.7514      0.00000
      6      14.8589      0.00000

 k-point  24 :       0.2500    0.1500    0.1500
  band No.  band energies     occupation 
      1       3.5933      2.00000
      2       5.3334      2.00000
      3       5.4404      2.00000
      4      12.8828      0.00000
      5      12.9233      0.00000
      6      15.6105      0.00000

 k-point  25 :       0.3500    0.1500    0.1500
  band No.  band energies     occupation 
      1       3.8111      2.00000
      2       5.1116      2.00000
      3       6.1923      2.00000
      4      12.3221      0.00000
      5      12.5253      0.00000
      6      14.7887      0.00000

 k-point  26 :      -0.1500    0.1500    0.1500
  band No.  band energies     occupation 
      1      -0.3598      2.00000
      2       7.3673      0.00000
      3       7.3673      0.00000
      4       8.0075      0.00000
      5       8.8257      0.00000
      6      13.7261      0.00000

 k-point  27 :       0.2500    0.2500    0.1500
  band No.  band energies     occupation 
      1       4.5756      2.00000
      2       5.0572      2.00000
      3       5.4831      2.00000
      4      12.4803      0.00000
      5      13.0320      0.00000
      6      13.6459      0.00000

 k-point  28 :      -0.2500    0.2500    0.1500
  band No.  band energies     occupation 
      1       0.9516      2.00000
      2       6.5713      0.00000
      3       6.9978      0.00000
      4       8.2650      0.00000
      5      10.6260      0.00000
      6      14.0879      0.00000

 k-point  29 :      -0.3500    0.3500    0.1500
  band No.  band energies     occupation 
      1       2.1842      2.00000
      2       5.6408      2.00000
      3       6.5575     -0.00002
      4       9.2533      0.00000
      5      13.2672      0.00000
      6      13.6893      0.00000

 k-point  30 :      -0.2500    0.3500    0.1500
  band No.  band energies     occupation 
      1       2.1969      2.00000
      2       5.5517      2.00000
      3       7.3091      0.00000
      4       8.5529      0.00000
      5      12.3830      0.00000
      6      12.7726      0.00000

 k-point  31 :      -0.4500    0.4500    0.1500
  band No.  band energies     occupation 
      1       2.5729      2.00000
      2       5.5184      2.00000
      3       5.7304      2.00000
      4       9.2202      0.00000
      5      12.9398      0.00000
      6      15.6596      0.00000

 k-point  32 :      -0.3500    0.4500    0.1500
  band No.  band energies     occupation 
      1       3.0852      2.00000
      2       4.9465      2.00000
      3       6.4440     -0.06375
      4       9.1014      0.00000
      5      11.7977      0.00000
      6      15.1099      0.00000

 k-point  33 :      -0.4500   -0.4500    0.1500
  band No.  band energies     occupation 
      1       3.3660      2.00000
      2       5.1859      2.00000
      3       6.0338      2.00000
      4       8.9953      0.00000
      5      13.2446      0.00000
      6      17.0363      0.00000

 k-point  34 :      -0.3500   -0.4500    0.1500
  band No.  band energies     occupation 
      1       4.1716      2.00000
      2       4.4972      2.00000
      3       5.5638      2.00000
      4      10.9022      0.00000
      5      11.9658      0.00000
      6      16.3140      0.00000

 k-point  35 :       0.2500    0.2500    0.2500
  band No.  band energies     occupation 
      1       5.1156      2.00000
      2       5.1156      2.00000
      3       5.1156      2.00000
      4      12.2850      0.00000
      5      12.2850      0.00000
      6      12.4721      0.00000

 k-point  36 :      -0.2500    0.2500    0.2500
  band No.  band energies     occupation 
      1       2.0563      2.00000
      2       5.4498      2.00000
      3       7.5269      0.00000
      4       7.5269      0.00000
      5      10.4191      0.00000
      6      11.7855      0.00000

 k-point  37 :      -0.3500    0.3500    0.2500
  band No.  band energies     occupation 
      1       3.0582      2.00000
      2       4.6776      2.00000
      3       8.4661      0.00000
      4       8.5512      0.00000
      5      11.5098      0.00000
      6      13.1469      0.00000

 k-point  38 :      -0.4500    0.4500    0.2500
  band No.  band energies     occupation 
      1       3.5361      2.00000
      2       4.4501      2.00000
      3       8.1718      0.00000
      4       8.2820      0.00000
      5      13.5113      0.00000
      6      15.5273      0.00000

 k-point  39 :      -0.3500    0.4500    0.2500
  band No.  band energies     occupation 
      1       3.7143      2.00000
      2       3.9741      2.00000
      3       8.2339      0.00000
      4      10.3750      0.00000
      5      12.1088      0.00000
      6      15.1147      0.00000

 k-point  40 :      -0.4500   -0.4500    0.2500
  band No.  band energies     occupation 
      1       3.6572      2.00000
      2       3.9528      2.00000
      3       7.8432      0.00000
      4      10.8445      0.00000
      5      13.2153      0.00000
      6      17.0906      0.00000

 k-point  41 :      -0.3500    0.3500    0.3500
  band No.  band energies     occupation 
      1       3.4693      2.00000
      2       3.7784      2.00000
      3      10.1105      0.00000
      4      10.1105      0.00000
      5      11.3225      0.00000
      6      13.5684      0.00000

 k-point  42 :      -0.4500    0.4500    0.3500
  band No.  band energies     occupation 
      1       3.2509      2.00000
      2       3.3830      2.00000
      3      10.1712      0.00000
      4      10.6892      0.00000
      5      13.3885      0.00000
      6      15.1326      0.00000

 k-point  43 :      -0.4500   -0.4500    0.3500
  band No.  band energies     occupation 
      1       3.0839      2.00000
      2       3.0839      2.00000
      3      10.2565      0.00000
      4      12.9389      0.00000
      5      12.9389      0.00000
      6      16.9509      0.00000

 k-point  44 :      -0.4500    0.4500    0.4500
  band No.  band energies     occupation 
      1       2.7759      2.00000
      2       2.8159      2.00000
      3      12.8232      0.00000
      4      12.8232      0.00000
      5      13.4495      0.00000
      6      15.1371      0.00000


--------------------------------------------------------------------------------------------------------


 soft charge-density along one line, spin component           1
         0         1         2         3         4         5         6         7         8         9
 total charge-density along one line
 
 pseudopotential strength for first ion, spin component:           1
 -6.778   0.000   0.001   0.000   0.001   0.066   0.000   0.000
  0.000  -6.776   0.000   0.002   0.000   0.000   0.066   0.000
  0.001   0.000  -6.776   0.000  -0.001   0.000   0.000   0.066
  0.000   0.002   0.000  -6.778   0.000   0.000   0.000   0.000
  0.001   0.000  -0.001   0.000  -6.775   0.000   0.000   0.000
  0.066   0.000   0.000   0.000   0.000   0.069   0.000   0.000
  0.000   0.066   0.000   0.000   0.000   0.000   0.069   0.000
  0.000   0.000   0.066   0.000   0.000   0.000   0.000   0.069
  0.000   0.000   0.000   0.066   0.000   0.000   0.000   0.000
  0.000   0.000   0.000   0.000   0.066   0.000   0.000   0.000
  0.000   0.000   0.000   0.000   0.000   0.000   0.000   0.000
  0.000   0.000   0.000   0.000   0.000   0.000   0.000   0.000
  0.000   0.000   0.000   0.000   0.000   0.000   0.000   0.000
  0.000   0.000   0.000   0.000   0.000   0.000   0.000   0.000
  0.000   0.000   0.000   0.000   0.000   0.000   0.000   0.000
  0.000   0.000   0.000   0.000   0.000   0.000   0.000   0.000
  0.000   0.000   0.000   0.000   0.000   0.000   0.000   0.000
  0.000   0.000   0.000   0.000   0.000   0.000   0.000   0.000
 total augmentation occupancy for first ion, spin component:           1
  0.472   0.000   0.061   0.000   0.035  -0.796   0.000  -0.046   0.000  -0.027   0.000   0.000   0.000   0.000   0.000   0.000
  0.000   0.522   0.000   0.071   0.000   0.000  -0.834   0.000  -0.053   0.000   0.000   0.000   0.000   0.000   0.000   0.000
  0.061   0.000   0.534   0.000  -0.022  -0.046   0.000  -0.843   0.000   0.016   0.000   0.000   0.000   0.000   0.000   0.000
  0.000   0.071   0.000   0.472   0.000   0.000  -0.053   0.000  -0.796   0.000   0.000   0.000   0.000   0.000   0.000   0.000
  0.035   0.000  -0.022   0.000   0.559  -0.027   0.000   0.016   0.000  -0.862   0.000   0.000   0.000   0.000   0.000   0.000
 -0.796   0.000  -0.046   0.000  -0.027   1.425   0.000   0.016   0.000   0.009   0.000   0.000   0.000   0.000   0.000   0.000
  0.000  -0.834   0.000  -0.053   0.000   0.000   1.438   0.000   0.018   0.000   0.000   0.000   0.000   0.000   0.000   0.000
 -0.046   0.000  -0.843   0.000   0.016   0.016   0.000   1.441   0.000  -0.005   0.000   0.000   0.000   0.000   0.000   0.000
  0.000  -0.053   0.000  -0.796   0.000   0.000   0.018   0.000   1.425   0.000   0.000   0.000   0.000   0.000   0.000   0.000
 -0.027   0.000   0.016   0.000  -0.862   0.009   0.000  -0.005   0.000   1.447   0.000   0.000   0.000   0.000   0.000   0.000
  0.000   0.000   0.000   0.000   0.000   0.000   0.000   0.000   0.000   0.000   1.513  -0.509   0.000   0.000   0.000   0.000
  0.000   0.000   0.000   0.000   0.000   0.000   0.000   0.000   0.000   0.000  -0.509   0.959   0.000   0.000   0.000   0.000
  0.000   0.000   0.000   0.000   0.000   0.000   0.000   0.000   0.000   0.000   0.000   0.000   0.401   0.000   0.000   0.004
  0.000   0.000   0.000   0.000   0.000   0.000   0.000   0.000   0.000   0.000   0.000   0.000   0.000   0.401   0.000   0.000
  0.000   0.000   0.000   0.000   0.000   0.000   0.000   0.000   0.000   0.000   0.000   0.000   0.000   0.000   0.401   0.000
  0.000   0.000   0.000   0.000   0.000   0.000   0.000   0.000   0.000   0.000   0.000   0.000   0.004   0.000   0.000   0.011
  0.000   0.000   0.000   0.000   0.000   0.000   0.000   0.000   0.000   0.000   0.000   0.000   0.000   0.004   0.000   0.000
  0.000   0.000   0.000   0.000   0.000   0.000   0.000   0.000   0.000   0.000   0.000   0.000   0.000   0.000   0.004   0.000


------------------------ aborting loop because EDIFF is reached ----------------------------------------


    CHARGE:  cpu time    0.01: real time    0.01
    FORLOC:  cpu time    0.00: real time    0.00
    FORNL :  cpu time    0.02: real time    0.02
    STRESS:  cpu time    0.04: real time    0.08
    FORCOR:  cpu time    0.01: real time    0.01
    FORHAR:  cpu time    0.00: real time    0.03
    MIXING:  cpu time    0.00: real time    0.00

  FORCE on cell =-STRESS in cart. coord.  units (eV):
  Direction    XX          YY          ZZ          XY          YZ          ZX
  --------------------------------------------------------------------------------------
  Alpha Z    30.58334    30.58334    30.58334
  Ewald     -65.96700   -65.96700   -65.96700     0.00000     0.00000     0.00000
  Hartree     0.03602     0.03602     0.03602     0.00000     0.00000     0.00000
  E(xc)     -22.53322   -22.53321   -22.53319     0.00001     0.00002     0.00001
  Local      -0.71656    -0.71656    -0.71656     0.00000     0.00000     0.00000
  n-local    -5.31493    -6.43436    -3.33714     1.30159    -2.21530    -1.30817
  augment     2.16083     2.16082     2.16081     0.00000    -0.00001    -0.00001
  Kinetic    54.41507    54.17512    49.92020     0.30507     2.23364     1.37707
  Fock        0.00000     0.00000     0.00000     0.00000     0.00000     0.00000
  -------------------------------------------------------------------------------------
  Total      -8.62859    -8.62859    -8.62859     0.00000     0.00000     0.00000
  in kB    -762.42416  -762.42416  -762.42416     0.00000     0.00000     0.00000
  external pressure =     -762.42 kB  Pullay stress =        0.00 kB


 VOLUME and BASIS-vectors are now :
 -----------------------------------------------------------------------------
  energy-cutoff  :      100.00
  volume of cell :       18.13
      direct lattice vectors                 reciprocal lattice vectors
     2.866544087  0.000000000  0.000000000     0.348852126  0.123337852  0.213627426
    -0.955514696  2.702603683  0.000000000     0.000000000  0.370013556  0.213627426
    -0.955514696 -1.351301841  2.340523446     0.000000000  0.000000000  0.427254853

  length of vectors
     2.866544087  2.866544087  2.866544087     0.427254853  0.427254853  0.427254853


 FORCES acting on ions
    electron-ion (+dipol)            ewald-force                    non-local-force                 convergence-correction
 -----------------------------------------------------------------------------------------------
   0.235E-14 -.520E-15 -.285E-14   -.279E-15 -.214E-15 0.640E-15   -.132E-22 0.926E-22 0.000E+00   0.406E-15 0.237E-15 0.330E-15
 -----------------------------------------------------------------------------------------------
   0.235E-14 -.520E-15 -.285E-14   -.279E-15 -.214E-15 0.640E-15   -.132E-22 0.926E-22 0.000E+00   0.406E-15 0.237E-15 0.330E-15
 
 
 POSITION                                       TOTAL-FORCE (eV/Angst)
 -----------------------------------------------------------------------------------
      0.00000      0.00000      0.00000         0.000000      0.000000      0.000000
 -----------------------------------------------------------------------------------
    total drift:                                0.000000      0.000000      0.000000


--------------------------------------------------------------------------------------------------------



  FREE ENERGIE OF THE ION-ELECTRON SYSTEM (eV)
  ---------------------------------------------------
  free  energy   TOTEN  =       -15.224562 eV

  energy  without entropy=      -15.224606  energy(sigma->0) =      -15.224577
 


--------------------------------------------------------------------------------------------------------


    POTLOK:  cpu time    0.01: real time    0.02


--------------------------------------------------------------------------------------------------------


 writing wavefunctions
     LOOP+:  cpu time    1.26: real time    3.29
    4ORBIT:  cpu time    0.00: real time    0.00

 total amount of memory used by VASP on root node    31334. kBytes
========================================================================

   base      :      30000. kBytes
   nonl-proj :        298. kBytes
   fftplans  :        296. kBytes
   grid      :        451. kBytes
   one-center:         15. kBytes
   wavefun   :        274. kBytes
 
  
  
 General timing and accounting informations for this job:
 ========================================================
  
                  Total CPU time used (sec):        1.470
                            User time (sec):        1.423
                          System time (sec):        0.047
                         Elapsed time (sec):        3.845
  
                   Maximum memory used (kb):           0.
                   Average memory used (kb):           0.
  
                          Minor page faults:         4215
                          Major page faults:            0
                 Voluntary context switches:          224
