<?xml version="1.0" encoding="ISO-8859-1"?>
<modeling>
 <generator>
  <i name="program" type="string">vasp </i>
  <i name="version" type="string">5.2.12  </i>
  <i name="subversion" type="string">11Nov11 complex                                                      parallel </i>
  <i name="platform" type="string">LinuxIFC </i>
  <i name="date" type="string">2012 10 14 </i>
  <i name="time" type="string">15:48:53 </i>
 </generator>
 <incar>
  <i type="string" name="PREC">accurate</i>
  <i name="ENCUT">    100.00000000</i>
  <i type="logical" name="LREAL"> F  </i>
  <i type="int" name="ISMEAR">     1</i>
  <i name="SIGMA">      0.05000000</i>
 </incar>
 <kpoints>
  <generation param="Monkhorst-Pack">
   <v type="int" name="divisions">      10       10       10 </v>
   <v name="usershift">      0.00000000       0.00000000       0.00000000 </v>
   <v name="genvec1">      0.10000000       0.00000000       0.00000000 </v>
   <v name="genvec2">      0.00000000       0.10000000       0.00000000 </v>
   <v name="genvec3">      0.00000000       0.00000000       0.10000000 </v>
   <v name="shift">      0.50000000       0.50000000       0.50000000 </v>
  </generation>
  <varray name="kpointlist" >
   <v>       0.05000000       0.05000000       0.05000000 </v>
   <v>       0.15000000       0.05000000       0.05000000 </v>
   <v>       0.25000000       0.05000000       0.05000000 </v>
   <v>       0.35000000       0.05000000       0.05000000 </v>
   <v>       0.45000000       0.05000000       0.05000000 </v>
   <v>      -0.05000000       0.05000000       0.05000000 </v>
   <v>       0.15000000       0.15000000       0.05000000 </v>
   <v>       0.25000000       0.15000000       0.05000000 </v>
   <v>       0.35000000       0.15000000       0.05000000 </v>
   <v>      -0.15000000       0.15000000       0.05000000 </v>
   <v>       0.25000000       0.25000000       0.05000000 </v>
   <v>       0.35000000       0.25000000       0.05000000 </v>
   <v>      -0.25000000       0.25000000       0.05000000 </v>
   <v>      -0.15000000       0.25000000       0.05000000 </v>
   <v>      -0.35000000       0.35000000       0.05000000 </v>
   <v>      -0.25000000       0.35000000       0.05000000 </v>
   <v>      -0.45000000       0.45000000       0.05000000 </v>
   <v>      -0.35000000       0.45000000       0.05000000 </v>
   <v>      -0.25000000       0.45000000       0.05000000 </v>
   <v>      -0.45000000      -0.45000000       0.05000000 </v>
   <v>      -0.35000000      -0.45000000       0.05000000 </v>
   <v>      -0.35000000      -0.35000000       0.05000000 </v>
   <v>       0.15000000       0.15000000       0.15000000 </v>
   <v>       0.25000000       0.15000000       0.15000000 </v>
   <v>       0.35000000       0.15000000       0.15000000 </v>
   <v>      -0.15000000       0.15000000       0.15000000 </v>
   <v>       0.25000000       0.25000000       0.15000000 </v>
   <v>      -0.25000000       0.25000000       0.15000000 </v>
   <v>      -0.35000000       0.35000000       0.15000000 </v>
   <v>      -0.25000000       0.35000000       0.15000000 </v>
   <v>      -0.45000000       0.45000000       0.15000000 </v>
   <v>      -0.35000000       0.45000000       0.15000000 </v>
   <v>      -0.45000000      -0.45000000       0.15000000 </v>
   <v>      -0.35000000      -0.45000000       0.15000000 </v>
   <v>       0.25000000       0.25000000       0.25000000 </v>
   <v>      -0.25000000       0.25000000       0.25000000 </v>
   <v>      -0.35000000       0.35000000       0.25000000 </v>
   <v>      -0.45000000       0.45000000       0.25000000 </v>
   <v>      -0.35000000       0.45000000       0.25000000 </v>
   <v>      -0.45000000      -0.45000000       0.25000000 </v>
   <v>      -0.35000000       0.35000000       0.35000000 </v>
   <v>      -0.45000000       0.45000000       0.35000000 </v>
   <v>      -0.45000000      -0.45000000       0.35000000 </v>
   <v>      -0.45000000       0.45000000       0.45000000 </v>
  </varray>
  <varray name="weights" >
   <v>       0.00800000 </v>
   <v>       0.02400000 </v>
   <v>       0.02400000 </v>
   <v>       0.02400000 </v>
   <v>       0.01200000 </v>
   <v>       0.00600000 </v>
   <v>       0.02400000 </v>
   <v>       0.04800000 </v>
   <v>       0.04800000 </v>
   <v>       0.02400000 </v>
   <v>       0.02400000 </v>
   <v>       0.02400000 </v>
   <v>       0.02400000 </v>
   <v>       0.02400000 </v>
   <v>       0.02400000 </v>
   <v>       0.04800000 </v>
   <v>       0.02400000 </v>
   <v>       0.04800000 </v>
   <v>       0.02400000 </v>
   <v>       0.02400000 </v>
   <v>       0.04800000 </v>
   <v>       0.00800000 </v>
   <v>       0.00800000 </v>
   <v>       0.02400000 </v>
   <v>       0.01200000 </v>
   <v>       0.00600000 </v>
   <v>       0.02400000 </v>
   <v>       0.02400000 </v>
   <v>       0.02400000 </v>
   <v>       0.02400000 </v>
   <v>       0.02400000 </v>
   <v>       0.04800000 </v>
   <v>       0.02400000 </v>
   <v>       0.02400000 </v>
   <v>       0.00200000 </v>
   <v>       0.00600000 </v>
   <v>       0.02400000 </v>
   <v>       0.02400000 </v>
   <v>       0.02400000 </v>
   <v>       0.02400000 </v>
   <v>       0.00600000 </v>
   <v>       0.02400000 </v>
   <v>       0.00800000 </v>
   <v>       0.00600000 </v>
  </varray>
 </kpoints>
 <parameters>
  <separator name="general" >
   <i type="string" name="SYSTEM">unknown system</i>
   <i type="logical" name="LCOMPAT"> F  </i>
  </separator>
  <separator name="electronic" >
   <i type="string" name="PREC">accura</i>
   <i name="ENMAX">    100.00000000</i>
   <i name="ENAUG">    332.07500000</i>
   <i name="EDIFF">      0.00010000</i>
   <i type="int" name="IALGO">    38</i>
   <i type="int" name="IWAVPR">    10</i>
   <i type="int" name="NBANDS">     6</i>
   <i name="NELECT">      5.00000000</i>
   <i type="int" name="TURBO">     0</i>
   <i type="int" name="IRESTART">     0</i>
   <i type="int" name="NREBOOT">     0</i>
   <i type="int" name="NMIN">     0</i>
   <i name="EREF">      0.00000000</i>
   <separator name="electronic smearing" >
    <i type="int" name="ISMEAR">     1</i>
    <i name="SIGMA">      0.05000000</i>
    <i name="KSPACING">      0.50000000</i>
    <i type="logical" name="KGAMMA"> T  </i>
   </separator>
   <separator name="electronic projectors" >
    <i type="logical" name="LREAL"> F  </i>
    <v name="ROPT">      0.00000000</v>
    <i type="int" name="LMAXPAW">  -100</i>
    <i type="int" name="LMAXMIX">     2</i>
    <i type="logical" name="NLSPLINE"> F  </i>
   </separator>
   <separator name="electronic startup" >
    <i type="int" name="ISTART">     0</i>
    <i type="int" name="ICHARG">     2</i>
    <i type="int" name="INIWAV">     1</i>
   </separator>
   <separator name="electronic spin" >
    <i type="int" name="ISPIN">     1</i>
    <i type="logical" name="LNONCOLLINEAR"> F  </i>
    <v name="MAGMOM">      1.00000000</v>
    <i name="NUPDOWN">     -1.00000000</i>
    <i type="logical" name="LSORBIT"> F  </i>
    <v name="SAXIS">      0.00000000      0.00000000      1.00000000</v>
    <i type="logical" name="LSPIRAL"> F  </i>
    <v name="QSPIRAL">      0.00000000      0.00000000      0.00000000</v>
    <i type="logical" name="LZEROZ"> F  </i>
   </separator>
   <separator name="electronic exchange-correlation" >
    <i type="logical" name="LASPH"> F  </i>
    <i type="logical" name="LMETAGGA"> F  </i>
   </separator>
   <separator name="electronic convergence" >
    <i type="int" name="NELM">    60</i>
    <i type="int" name="NELMDL">    -5</i>
    <i type="int" name="NELMIN">     2</i>
    <i name="ENINI">    100.00000000</i>
    <separator name="electronic convergence detail" >
     <i type="logical" name="LDIAG"> T  </i>
     <i type="logical" name="LSUBROT"> T  </i>
     <i name="WEIMIN">      0.00000000</i>
     <i name="EBREAK">      0.00000417</i>
     <i name="DEPER">      0.30000000</i>
     <i type="int" name="NRMM">     4</i>
     <i name="TIME">      0.40000000</i>
    </separator>
   </separator>
   <separator name="electronic mixer" >
    <i name="AMIX">      0.40000000</i>
    <i name="BMIX">      1.00000000</i>
    <i name="AMIN">      0.10000000</i>
    <i name="AMIX_MAG">      1.60000000</i>
    <i name="BMIX_MAG">      1.00000000</i>
    <separator name="electronic mixer details" >
     <i type="int" name="IMIX">     4</i>
     <i type="int" name="MAXMIX">   -45</i>
     <i name="WC">    100.00000000</i>
     <i type="int" name="INIMIX">     1</i>
     <i type="int" name="MIXPRE">     1</i>
     <i type="int" name="MREMOVE">     5</i>
    </separator>
   </separator>
   <separator name="electronic dipolcorrection" >
    <i type="logical" name="LDIPOL"> F  </i>
    <i type="logical" name="LMONO"> F  </i>
    <i type="int" name="IDIPOL">     0</i>
    <i name="EPSILON">      1.00000000</i>
    <v name="DIPOL">   -100.00000000   -100.00000000   -100.00000000</v>
    <i name="EFIELD">      0.00000000</i>
   </separator>
  </separator>
  <separator name="grids" >
   <i type="int" name="NGX">    10</i>
   <i type="int" name="NGY">    10</i>
   <i type="int" name="NGZ">    10</i>
   <i type="int" name="NGXF">    20</i>
   <i type="int" name="NGYF">    20</i>
   <i type="int" name="NGZF">    20</i>
   <i type="logical" name="ADDGRID"> F  </i>
  </separator>
  <separator name="ionic" >
   <i type="int" name="NSW">     0</i>
   <i type="int" name="IBRION">    -1</i>
   <i type="int" name="ISIF">     2</i>
   <i name="PSTRESS">      0.00000000</i>
   <i name="EDIFFG">      0.00100000</i>
   <i type="int" name="NFREE">     0</i>
   <i name="POTIM">      0.50000000</i>
   <i name="SMASS">     -3.00000000</i>
   <i name="SCALEE">      1.00000000</i>
  </separator>
  <separator name="ionic md" >
   <i name="TEBEG">      0.00010000</i>
   <i name="TEEND">      0.00010000</i>
   <i type="int" name="NBLOCK">     1</i>
   <i type="int" name="KBLOCK">     1</i>
   <i type="int" name="NPACO">   256</i>
   <i name="APACO">     16.00000000</i>
  </separator>
  <separator name="symmetry" >
   <i type="int" name="ISYM">     2</i>
   <i name="SYMPREC">      0.00001000</i>
  </separator>
  <separator name="dos" >
   <i type="logical" name="LORBIT"> F  </i>
   <v name="RWIGS">     -1.00000000</v>
   <i type="int" name="NEDOS">   301</i>
   <i name="EMIN">     10.00000000</i>
   <i name="EMAX">    -10.00000000</i>
   <i name="EFERMI">      0.00000000</i>
  </separator>
  <separator name="writing" >
   <i type="int" name="NWRITE">     2</i>
   <i type="logical" name="LWAVE"> T  </i>
   <i type="logical" name="LCHARG"> T  </i>
   <i type="logical" name="LPARD"> F  </i>
   <i type="logical" name="LVTOT"> F  </i>
   <i type="logical" name="LVHAR"> F  </i>
   <i type="logical" name="LELF"> F  </i>
   <i type="logical" name="LOPTICS"> F  </i>
   <v name="STM">      0.00000000      0.00000000      0.00000000      0.00000000      0.00000000      0.00000000      0.00000000</v>
  </separator>
  <separator name="performance" >
   <i type="int" name="NPAR">     1</i>
   <i type="int" name="NSIM">     4</i>
   <i type="int" name="NBLK">    -1</i>
   <i type="logical" name="LPLANE"> T  </i>
   <i type="logical" name="LSCALAPACK"> F  </i>
   <i type="logical" name="LSCAAWARE"> F  </i>
   <i type="logical" name="LSCALU"> F  </i>
   <i type="logical" name="LASYNC"> F  </i>
   <i type="logical" name="LORBITALREAL"> F  </i>
  </separator>
  <separator name="miscellaneous" >
   <i type="int" name="IDIOT">     3</i>
   <i type="logical" name="LMUSIC"> F  </i>
   <v name="POMASS">    180.94800000</v>
   <v name="DARWINR">      0.00000000</v>
   <v name="DARWINV">      1.00000000</v>
   <i type="logical" name="LCORR"> T  </i>
  </separator>
  <i type="logical" name="GGA_COMPAT"> T  </i>
  <i type="logical" name="LBERRY"> F  </i>
  <i type="int" name="ICORELEVEL">     0</i>
  <i type="logical" name="LDAU"> F  </i>
  <i type="int" name="I_CONSTRAINED_M">     0</i>
  <separator name="electronic exchange-correlation" >
   <i type="string" name="GGA">--</i>
   <i type="int" name="VOSKOWN">     0</i>
   <i type="logical" name="LHFCALC"> F  </i>
   <i type="string" name="PRECFOCK"></i>
   <i type="logical" name="LHFONE"> F  </i>
   <i type="logical" name="LRHFCALC"> F  </i>
   <i type="logical" name="LTHOMAS"> F  </i>
   <i type="logical" name="LMODELHF"> F  </i>
   <i name="ENCUT4O">     -1.00000000</i>
   <i type="int" name="EXXOEP">     0</i>
   <i type="int" name="FOURORBIT">     0</i>
   <i name="AEXX">      0.00000000</i>
   <i name="HFALPHA">      0.00000000</i>
   <i name="ALDAX">      1.00000000</i>
   <i name="AGGAX">      1.00000000</i>
   <i name="ALDAC">      1.00000000</i>
   <i name="AGGAC">      1.00000000</i>
   <i type="int" name="NKREDX">     1</i>
   <i type="int" name="NKREDY">     1</i>
   <i type="int" name="NKREDZ">     1</i>
   <i type="logical" name="SHIFTRED"> F  </i>
   <i type="logical" name="ODDONLY"> F  </i>
   <i type="logical" name="EVENONLY"> F  </i>
   <i type="int" name="LMAXFOCK">     0</i>
   <i type="int" name="NMAXFOCKAE">     0</i>
   <i type="logical" name="LFOCKAEDFT"> F  </i>
   <i name="HFSCREEN">      0.00000000</i>
   <i name="HFSCREENC">      0.00000000</i>
  </separator>
  <separator name="vdW DFT" >
   <i type="logical" name="LUSE_VDW"> F  </i>
   <i name="Zab_VDW">     -0.84910000</i>
   <i name="PARAM1">      0.12340000</i>
   <i name="PARAM2">      1.00000000</i>
   <i name="PARAM3">      0.00000000</i>
  </separator>
  <separator name="model GW" >
   <i type="int" name="MODEL_GW">     0</i>
   <i name="MODEL_EPS0">     10.87940730</i>
   <i name="MODEL_ALPHA">      1.00000000</i>
  </separator>
  <separator name="linear response parameters" >
   <i type="logical" name="LEPSILON"> F  </i>
   <i type="logical" name="LRPA"> F  </i>
   <i type="logical" name="LNABLA"> F  </i>
   <i type="logical" name="LVEL"> F  </i>
   <i type="int" name="KINTER">     0</i>
   <i name="CSHIFT">      0.10000000</i>
   <i name="OMEGAMAX">     -1.00000000</i>
  </separator>
  <separator name="orbital magnetization" >
   <i type="logical" name="NUCIND"> F  </i>
   <v name="MAGPOS">      0.00000000      0.00000000      0.00000000</v>
   <i type="logical" name="LNICSALL"> T  </i>
   <i type="logical" name="ORBITALMAG"> F  </i>
   <i type="logical" name="LMAGBLOCH"> F  </i>
   <i type="logical" name="LCHIMAG"> F  </i>
   <i type="logical" name="LGAUGE"> T  </i>
   <i type="int" name="MAGATOM">     0</i>
   <v name="MAGDIPOL">      0.00000000      0.00000000      0.00000000</v>
   <v name="AVECCONST">      0.00000000      0.00000000      0.00000000</v>
  </separator>
  <separator name="response functions" >
   <i type="logical" name="LADDER"> F  </i>
   <i type="logical" name="LHARTREE"> T  </i>
   <i type="int" name="IBSE">     0</i>
   <i type="logical" name="LTCTE"> F  </i>
   <i type="logical" name="LTETE"> F  </i>
   <i type="logical" name="LFXCEPS"> F  </i>
   <i type="logical" name="L2ORDER"> F  </i>
   <i type="logical" name="LUSEW"> F  </i>
   <i name="ENCUTGW">     -2.00000000</i>
   <i name="ENCUTGWSOFT">     -2.00000000</i>
   <i name="ENCUTLF">     -1.00000000</i>
   <i type="int" name="LMAXMP2">    -1</i>
   <i name="SCISSOR">      0.00000000</i>
   <i type="int" name="NOMEGA">     0</i>
   <i type="int" name="NOMEGAR">     0</i>
   <i type="int" name="NBANDSGW">    -1</i>
   <i type="int" name="NBANDSO">    -1</i>
   <i type="int" name="NBANDSV">    -1</i>
   <i name="OPTEMAX">      0.00000000</i>
   <i type="int" name="NELM">     1</i>
   <i type="int" name="DIM">     3</i>
   <i type="int" name="ANTIRES">     0</i>
   <i name="OMEGAMAX">    -30.00000000</i>
   <i name="OMEGATL">   -200.00000000</i>
   <i type="int" name="OMEGAGRID">     0</i>
   <i name="CSHIFT">     -0.10000000</i>
   <i type="logical" name="SELFENERGY"> F  </i>
   <i type="logical" name="LSPECTRAL"> F  </i>
   <i type="logical" name="ODDONLYGW"> F  </i>
   <i type="logical" name="EVENONLYGW"> F  </i>
   <i type="int" name="NKREDLFX">     1</i>
   <i type="int" name="NKREDLFY">     1</i>
   <i type="int" name="NKREDLFZ">     1</i>
   <i type="int" name="MAXMEM">  1800</i>
   <i type="int" name="TELESCOPE">     0</i>
  </separator>
 </parameters>
 <atominfo>
  <atoms>       1 </atoms>
  <types>       1 </types>
  <array name="atoms" >
   <dimension dim="1">ion</dimension>
   <field type="string">element</field>
   <field type="int">atomtype</field>
   <set>
    <rc><c>Ta</c><c>   1</c></rc>
   </set>
  </array>
  <array name="atomtypes" >
   <dimension dim="1">type</dimension>
   <field type="int">atomspertype</field>
   <field type="string">element</field>
   <field>mass</field>
   <field>valence</field>
   <field type="string">pseudopotential</field>
   <set>
    <rc><c>   1</c><c>Ta</c><c>    180.94800000</c><c>      5.00000000</c><c>  PAW_PBE Ta 17Jan2003                  </c></rc>
   </set>
  </array>
 </atominfo>
 <structure name="initialpos" >
  <crystal>
   <varray name="basis" >
    <v>       2.86654409       0.00000000       0.00000000 </v>
    <v>      -0.95551470       2.70260368       0.00000000 </v>
    <v>      -0.95551470      -1.35130184       2.34052345 </v>
   </varray>
   <i name="volume">     18.13234550 </i>
   <varray name="rec_basis" >
    <v>       0.34885213       0.12333785       0.21362743 </v>
    <v>       0.00000000       0.37001356       0.21362743 </v>
    <v>       0.00000000       0.00000000       0.42725485 </v>
   </varray>
  </crystal>
  <varray name="positions" >
   <v>       0.00000000       0.00000000       0.00000000 </v>
  </varray>
 </structure>
 <calculation>
  <scstep>
   <time name="dav">    0.14    0.14</time>
   <time name="total">    0.16    0.16</time>
   <energy>
    <i name="alphaZ">     30.58334069 </i>
    <i name="ewald">   -197.90100875 </i>
    <i name="hartreedc">     -2.50452612 </i>
    <i name="XCdc">    -66.68582966 </i>
    <i name="pawpsdc">    148.27821850 </i>
    <i name="pawaedc">    -73.99089003 </i>
    <i name="eentropy">      0.00012805 </i>
    <i name="bandstr">     22.98744846 </i>
    <i name="atom">    123.00410135 </i>
    <i name="e_fr_energy">    -16.22901751 </i>
    <i name="e_wo_entrp">    -16.22914556 </i>
    <i name="e_0_energy">    -16.22906019 </i>
   </energy>
  </scstep>
  <scstep>
   <time name="dav">    0.13    0.13</time>
   <time name="total">    0.13    0.18</time>
   <energy>
    <i name="e_fr_energy">    -16.70124617 </i>
    <i name="e_wo_entrp">    -16.70122670 </i>
    <i name="e_0_energy">    -16.70123968 </i>
   </energy>
  </scstep>
  <scstep>
   <time name="dav">    0.11    0.11</time>
   <time name="total">    0.12    0.14</time>
   <energy>
    <i name="e_fr_energy">    -16.70223202 </i>
    <i name="e_wo_entrp">    -16.70222309 </i>
    <i name="e_0_energy">    -16.70222904 </i>
   </energy>
  </scstep>
  <scstep>
   <time name="dav">    0.10    0.12</time>
   <time name="total">    0.10    0.15</time>
   <energy>
    <i name="e_fr_energy">    -16.70223312 </i>
    <i name="e_wo_entrp">    -16.70222423 </i>
    <i name="e_0_energy">    -16.70223016 </i>
   </energy>
  </scstep>
  <scstep>
   <time name="dav">    0.07    0.13</time>
   <time name="total">    0.08    0.23</time>
   <energy>
    <i name="e_fr_energy">    -16.70223312 </i>
    <i name="e_wo_entrp">    -16.70222423 </i>
    <i name="e_0_energy">    -16.70223016 </i>
   </energy>
  </scstep>
  <scstep>
   <time name="dav">    0.11    0.11</time>
   <time name="total">    0.13    0.23</time>
   <energy>
    <i name="e_fr_energy">    -15.75245438 </i>
    <i name="e_wo_entrp">    -15.75232007 </i>
    <i name="e_0_energy">    -15.75240961 </i>
   </energy>
  </scstep>
  <scstep>
   <time name="dav">    0.11    0.24</time>
   <time name="total">    0.14    0.29</time>
   <energy>
    <i name="e_fr_energy">    -15.22552732 </i>
    <i name="e_wo_entrp">    -15.22551041 </i>
    <i name="e_0_energy">    -15.22552168 </i>
   </energy>
  </scstep>
  <scstep>
   <time name="dav">    0.12    0.12</time>
   <time name="total">    0.14    0.64</time>
   <energy>
    <i name="e_fr_energy">    -15.22446554 </i>
    <i name="e_wo_entrp">    -15.22451552 </i>
    <i name="e_0_energy">    -15.22448220 </i>
   </energy>
  </scstep>
  <scstep>
   <time name="dav">    0.10    0.10</time>
   <time name="total">    0.12    0.18</time>
   <energy>
    <i name="alphaZ">     30.58334069 </i>
    <i name="ewald">   -197.90100875 </i>
    <i name="hartreedc">     -0.10821754 </i>
    <i name="XCdc">    -65.19717067 </i>
    <i name="pawpsdc">    199.46068054 </i>
    <i name="pawaedc">   -126.04341536 </i>
    <i name="eentropy">      0.00004394 </i>
    <i name="bandstr">     20.97708383 </i>
    <i name="atom">    123.00410135 </i>
    <i name="e_fr_energy">    -15.22456196 </i>
    <i name="e_wo_entrp">    -15.22460590 </i>
    <i name="e_0_energy">    -15.22457660 </i>
   </energy>
  </scstep>
  <parameters_embedded>
   <separator name="dft+d2" >
    <i type="logical" name="LVDW"> F  </i>
   </separator>
  </parameters_embedded>
  <structure>
   <crystal>
    <varray name="basis" >
     <v>       2.86654409       0.00000000       0.00000000 </v>
     <v>      -0.95551470       2.70260368       0.00000000 </v>
     <v>      -0.95551470      -1.35130184       2.34052345 </v>
    </varray>
    <i name="volume">     18.13234550 </i>
    <varray name="rec_basis" >
     <v>       0.34885213       0.12333785       0.21362743 </v>
     <v>       0.00000000       0.37001356       0.21362743 </v>
     <v>       0.00000000       0.00000000       0.42725485 </v>
    </varray>
   </crystal>
   <varray name="positions" >
    <v>       0.00000000       0.00000000       0.00000000 </v>
   </varray>
  </structure>
  <varray name="forces" >
   <v>       0.00000000       0.00000000       0.00000000 </v>
  </varray>
  <varray name="stress" >
   <v>    -762.42416232       0.00000000       0.00000000 </v>
   <v>       0.00000000    -762.42416232       0.00000000 </v>
   <v>       0.00000000       0.00000000    -762.42416232 </v>
  </varray>
  <energy>
   <i name="e_fr_energy">    -15.22456196 </i>
   <i name="e_wo_entrp">    -15.22457660 </i>
   <i name="e_0_energy">      0.00004394 </i>
  </energy>
  <time name="totalsc">    1.26    3.29</time>
  <eigenvalues>
   <array>
    <dimension dim="1">band</dimension>
    <dimension dim="2">kpoint</dimension>
    <dimension dim="3">spin</dimension>
    <field>eigene</field>
    <field>occ</field>
    <set>
     <set comment="spin 1">
      <set comment="kpoint 1">
       <r>   -1.5316    1.0000 </r>
       <r>    6.7858    0.0000 </r>
       <r>    6.7858    0.0000 </r>
       <r>    8.1248    0.0000 </r>
       <r>   11.1020    0.0000 </r>
       <r>   11.1020    0.0000 </r>
      </set>
      <set comment="kpoint 2">
       <r>   -0.4030    1.0000 </r>
       <r>    6.1229    1.0000 </r>
       <r>    6.2514    1.0003 </r>
       <r>   10.6960    0.0000 </r>
       <r>   10.9991    0.0000 </r>
       <r>   11.6618    0.0000 </r>
      </set>
      <set comment="kpoint 3">
       <r>    1.0481    1.0000 </r>
       <r>    5.4865    1.0000 </r>
       <r>    6.1702    1.0000 </r>
       <r>   11.2930    0.0000 </r>
       <r>   12.4002    0.0000 </r>
       <r>   12.7920    0.0000 </r>
      </set>
      <set comment="kpoint 4">
       <r>    1.8689    1.0000 </r>
       <r>    4.8845    1.0000 </r>
       <r>    6.3722    0.7773 </r>
       <r>   11.8222    0.0000 </r>
       <r>   12.6641    0.0000 </r>
       <r>   15.4062    0.0000 </r>
      </set>
      <set comment="kpoint 5">
       <r>    2.0106    1.0000 </r>
       <r>    4.8688    1.0000 </r>
       <r>    7.0596    0.0000 </r>
       <r>   11.7937    0.0000 </r>
       <r>   13.9860    0.0000 </r>
       <r>   17.3615    0.0000 </r>
      </set>
      <set comment="kpoint 6">
       <r>   -1.9423    1.0000 </r>
       <r>    7.6960    0.0000 </r>
       <r>    7.6960    0.0000 </r>
       <r>    7.8301    0.0000 </r>
       <r>   11.0813    0.0000 </r>
       <r>   11.6761    0.0000 </r>
      </set>
      <set comment="kpoint 7">
       <r>    0.9099    1.0000 </r>
       <r>    5.6772    1.0000 </r>
       <r>    5.8373    1.0000 </r>
       <r>   11.2289    0.0000 </r>
       <r>   12.5167    0.0000 </r>
       <r>   12.6550    0.0000 </r>
      </set>
      <set comment="kpoint 8">
       <r>    2.3031    1.0000 </r>
       <r>    5.4850    1.0000 </r>
       <r>    5.7639    1.0000 </r>
       <r>   11.6725    0.0000 </r>
       <r>   13.2774    0.0000 </r>
       <r>   14.7777    0.0000 </r>
      </set>
      <set comment="kpoint 9">
       <r>    2.7667    1.0000 </r>
       <r>    5.1531    1.0000 </r>
       <r>    6.3249    1.0348 </r>
       <r>   11.6705    0.0000 </r>
       <r>   12.6741    0.0000 </r>
       <r>   16.5831    0.0000 </r>
      </set>
      <set comment="kpoint 10">
       <r>   -1.1351    1.0000 </r>
       <r>    6.5845    0.0000 </r>
       <r>    6.8466    0.0000 </r>
       <r>    8.4846    0.0000 </r>
       <r>    9.9808    0.0000 </r>
       <r>   11.8749    0.0000 </r>
      </set>
      <set comment="kpoint 11">
       <r>    3.4259    1.0000 </r>
       <r>    5.1746    1.0000 </r>
       <r>    5.5975    1.0000 </r>
       <r>   12.1256    0.0000 </r>
       <r>   12.2689    0.0000 </r>
       <r>   15.8053    0.0000 </r>
      </set>
      <set comment="kpoint 12">
       <r>    3.9739    1.0000 </r>
       <r>    5.3062    1.0000 </r>
       <r>    5.8439    1.0000 </r>
       <r>   12.5853    0.0000 </r>
       <r>   13.2582    0.0000 </r>
       <r>   14.9355    0.0000 </r>
      </set>
      <set comment="kpoint 13">
       <r>    0.2336    1.0000 </r>
       <r>    6.0547    1.0000 </r>
       <r>    6.7051    0.0000 </r>
       <r>   10.2176    0.0000 </r>
       <r>   10.8283    0.0000 </r>
       <r>   12.5699    0.0000 </r>
      </set>
      <set comment="kpoint 14">
       <r>   -0.0368    1.0000 </r>
       <r>    6.6676    0.0000 </r>
       <r>    6.8689    0.0000 </r>
       <r>    9.8933    0.0000 </r>
       <r>   10.7995    0.0000 </r>
       <r>   13.1913    0.0000 </r>
      </set>
      <set comment="kpoint 15">
       <r>    1.4510    1.0000 </r>
       <r>    4.9877    1.0000 </r>
       <r>    6.1909    1.0000 </r>
       <r>   11.0323    0.0000 </r>
       <r>   12.2991    0.0000 </r>
       <r>   13.6167    0.0000 </r>
      </set>
      <set comment="kpoint 16">
       <r>    1.3755    1.0000 </r>
       <r>    5.7622    1.0000 </r>
       <r>    6.0988    1.0000 </r>
       <r>    9.9561    0.0000 </r>
       <r>   12.4510    0.0000 </r>
       <r>   13.4633    0.0000 </r>
      </set>
      <set comment="kpoint 17">
       <r>    1.8420    1.0000 </r>
       <r>    4.8621    1.0000 </r>
       <r>    6.8171    0.0000 </r>
       <r>   11.1627    0.0000 </r>
       <r>   13.1435    0.0000 </r>
       <r>   16.2358    0.0000 </r>
      </set>
      <set comment="kpoint 18">
       <r>    2.2615    1.0000 </r>
       <r>    5.3054    1.0000 </r>
       <r>    6.1229    1.0000 </r>
       <r>   10.6982    0.0000 </r>
       <r>   12.9116    0.0000 </r>
       <r>   15.3238    0.0000 </r>
      </set>
      <set comment="kpoint 19">
       <r>    2.5512    1.0000 </r>
       <r>    5.3070    1.0000 </r>
       <r>    6.0836    1.0000 </r>
       <r>    9.7633    0.0000 </r>
       <r>   12.5078    0.0000 </r>
       <r>   14.7049    0.0000 </r>
      </set>
      <set comment="kpoint 20">
       <r>    2.4123    1.0000 </r>
       <r>    5.4072    1.0000 </r>
       <r>    6.3817    0.6333 </r>
       <r>   10.4487    0.0000 </r>
       <r>   12.6896    0.0000 </r>
       <r>   17.0945    0.0000 </r>
      </set>
      <set comment="kpoint 21">
       <r>    3.2949    1.0000 </r>
       <r>    5.2828    1.0000 </r>
       <r>    5.9595    1.0000 </r>
       <r>   10.7963    0.0000 </r>
       <r>   12.7275    0.0000 </r>
       <r>   16.8191    0.0000 </r>
      </set>
      <set comment="kpoint 22">
       <r>    3.9413    1.0000 </r>
       <r>    5.2525    1.0000 </r>
       <r>    5.2525    1.0000 </r>
       <r>   11.7783    0.0000 </r>
       <r>   11.7784    0.0000 </r>
       <r>   14.8881    0.0000 </r>
      </set>
      <set comment="kpoint 23">
       <r>    2.3561    1.0000 </r>
       <r>    5.6861    1.0000 </r>
       <r>    5.6861    1.0000 </r>
       <r>   12.7514    0.0000 </r>
       <r>   12.7514    0.0000 </r>
       <r>   14.8589    0.0000 </r>
      </set>
      <set comment="kpoint 24">
       <r>    3.5933    1.0000 </r>
       <r>    5.3334    1.0000 </r>
       <r>    5.4404    1.0000 </r>
       <r>   12.8828    0.0000 </r>
       <r>   12.9233    0.0000 </r>
       <r>   15.6105    0.0000 </r>
      </set>
      <set comment="kpoint 25">
       <r>    3.8111    1.0000 </r>
       <r>    5.1116    1.0000 </r>
       <r>    6.1923    1.0000 </r>
       <r>   12.3221    0.0000 </r>
       <r>   12.5253    0.0000 </r>
       <r>   14.7887    0.0000 </r>
      </set>
      <set comment="kpoint 26">
       <r>   -0.3598    1.0000 </r>
       <r>    7.3673    0.0000 </r>
       <r>    7.3673    0.0000 </r>
       <r>    8.0075    0.0000 </r>
       <r>    8.8257    0.0000 </r>
       <r>   13.7261    0.0000 </r>
      </set>
      <set comment="kpoint 27">
       <r>    4.5756    1.0000 </r>
       <r>    5.0572    1.0000 </r>
       <r>    5.4831    1.0000 </r>
       <r>   12.4803    0.0000 </r>
       <r>   13.0320    0.0000 </r>
       <r>   13.6459    0.0000 </r>
      </set>
      <set comment="kpoint 28">
       <r>    0.9516    1.0000 </r>
       <r>    6.5713    0.0000 </r>
       <r>    6.9978    0.0000 </r>
       <r>    8.2650    0.0000 </r>
       <r>   10.6260    0.0000 </r>
       <r>   14.0879    0.0000 </r>
      </set>
      <set comment="kpoint 29">
       <r>    2.1842    1.0000 </r>
       <r>    5.6408    1.0000 </r>
       <r>    6.5575    0.0000 </r>
       <r>    9.2533    0.0000 </r>
       <r>   13.2672    0.0000 </r>
       <r>   13.6893    0.0000 </r>
      </set>
      <set comment="kpoint 30">
       <r>    2.1969    1.0000 </r>
       <r>    5.5517    1.0000 </r>
       <r>    7.3091    0.0000 </r>
       <r>    8.5529    0.0000 </r>
       <r>   12.3830    0.0000 </r>
       <r>   12.7726    0.0000 </r>
      </set>
      <set comment="kpoint 31">
       <r>    2.5729    1.0000 </r>
       <r>    5.5184    1.0000 </r>
       <r>    5.7304    1.0000 </r>
       <r>    9.2202    0.0000 </r>
       <r>   12.9398    0.0000 </r>
       <r>   15.6596    0.0000 </r>
      </set>
      <set comment="kpoint 32">
       <r>    3.0852    1.0000 </r>
       <r>    4.9465    1.0000 </r>
       <r>    6.4440   -0.0319 </r>
       <r>    9.1014    0.0000 </r>
       <r>   11.7977    0.0000 </r>
       <r>   15.1099    0.0000 </r>
      </set>
      <set comment="kpoint 33">
       <r>    3.3660    1.0000 </r>
       <r>    5.1859    1.0000 </r>
       <r>    6.0338    1.0000 </r>
       <r>    8.9953    0.0000 </r>
       <r>   13.2446    0.0000 </r>
       <r>   17.0363    0.0000 </r>
      </set>
      <set comment="kpoint 34">
       <r>    4.1716    1.0000 </r>
       <r>    4.4972    1.0000 </r>
       <r>    5.5638    1.0000 </r>
       <r>   10.9022    0.0000 </r>
       <r>   11.9658    0.0000 </r>
       <r>   16.3140    0.0000 </r>
      </set>
      <set comment="kpoint 35">
       <r>    5.1156    1.0000 </r>
       <r>    5.1156    1.0000 </r>
       <r>    5.1156    1.0000 </r>
       <r>   12.2850    0.0000 </r>
       <r>   12.2850    0.0000 </r>
       <r>   12.4721    0.0000 </r>
      </set>
      <set comment="kpoint 36">
       <r>    2.0563    1.0000 </r>
       <r>    5.4498    1.0000 </r>
       <r>    7.5269    0.0000 </r>
       <r>    7.5269    0.0000 </r>
       <r>   10.4191    0.0000 </r>
       <r>   11.7855    0.0000 </r>
      </set>
      <set comment="kpoint 37">
       <r>    3.0582    1.0000 </r>
       <r>    4.6776    1.0000 </r>
       <r>    8.4661    0.0000 </r>
       <r>    8.5512    0.0000 </r>
       <r>   11.5098    0.0000 </r>
       <r>   13.1469    0.0000 </r>
      </set>
      <set comment="kpoint 38">
       <r>    3.5361    1.0000 </r>
       <r>    4.4501    1.0000 </r>
       <r>    8.1718    0.0000 </r>
       <r>    8.2820    0.0000 </r>
       <r>   13.5113    0.0000 </r>
       <r>   15.5273    0.0000 </r>
      </set>
      <set comment="kpoint 39">
       <r>    3.7143    1.0000 </r>
       <r>    3.9741    1.0000 </r>
       <r>    8.2339    0.0000 </r>
       <r>   10.3750    0.0000 </r>
       <r>   12.1088    0.0000 </r>
       <r>   15.1147    0.0000 </r>
      </set>
      <set comment="kpoint 40">
       <r>    3.6572    1.0000 </r>
       <r>    3.9528    1.0000 </r>
       <r>    7.8432    0.0000 </r>
       <r>   10.8445    0.0000 </r>
       <r>   13.2153    0.0000 </r>
       <r>   17.0906    0.0000 </r>
      </set>
      <set comment="kpoint 41">
       <r>    3.4693    1.0000 </r>
       <r>    3.7784    1.0000 </r>
       <r>   10.1105    0.0000 </r>
       <r>   10.1105    0.0000 </r>
       <r>   11.3225    0.0000 </r>
       <r>   13.5684    0.0000 </r>
      </set>
      <set comment="kpoint 42">
       <r>    3.2509    1.0000 </r>
       <r>    3.3830    1.0000 </r>
       <r>   10.1712    0.0000 </r>
       <r>   10.6892    0.0000 </r>
       <r>   13.3885    0.0000 </r>
       <r>   15.1326    0.0000 </r>
      </set>
      <set comment="kpoint 43">
       <r>    3.0839    1.0000 </r>
       <r>    3.0839    1.0000 </r>
       <r>   10.2565    0.0000 </r>
       <r>   12.9389    0.0000 </r>
       <r>   12.9389    0.0000 </r>
       <r>   16.9509    0.0000 </r>
      </set>
      <set comment="kpoint 44">
       <r>    2.7759    1.0000 </r>
       <r>    2.8159    1.0000 </r>
       <r>   12.8232    0.0000 </r>
       <r>   12.8232    0.0000 </r>
       <r>   13.4495    0.0000 </r>
       <r>   15.1371    0.0000 </r>
      </set>
     </set>
    </set>
   </array>
  </eigenvalues>
  <separator name="orbital magnetization" >
   <v name="MAGDIPOLOUT">      0.00000000      0.00000000      0.00000000</v>
  </separator>
  <dos>
   <i name="efermi">      6.38969069 </i>
   <total>
    <array>
     <dimension dim="1">gridpoints</dimension>
     <dimension dim="2">spin</dimension>
     <field>energy</field>
     <field>total</field>
     <field>integrated</field>
     <set>
      <set comment="spin 1">
       <r>    -2.9075     0.0000     0.0000 </r>
       <r>    -2.8367     0.0000     0.0000 </r>
       <r>    -2.7659     0.0000     0.0000 </r>
       <r>    -2.6952     0.0000     0.0000 </r>
       <r>    -2.6244     0.0000     0.0000 </r>
       <r>    -2.5536     0.0000     0.0000 </r>
       <r>    -2.4828     0.0000     0.0000 </r>
       <r>    -2.4120     0.0000     0.0000 </r>
       <r>    -2.3413     0.0000     0.0000 </r>
       <r>    -2.2705     0.0000     0.0000 </r>
       <r>    -2.1997     0.0000     0.0000 </r>
       <r>    -2.1289     0.0000     0.0000 </r>
       <r>    -2.0581    -0.0004     0.0000 </r>
       <r>    -1.9874    -0.0015    -0.0001 </r>
       <r>    -1.9166     0.1508     0.0105 </r>
       <r>    -1.8458     0.0224     0.0121 </r>
       <r>    -1.7750    -0.0017     0.0120 </r>
       <r>    -1.7042     0.0000     0.0120 </r>
       <r>    -1.6335    -0.0016     0.0119 </r>
       <r>    -1.5627     0.0176     0.0131 </r>
       <r>    -1.4919     0.2075     0.0278 </r>
       <r>    -1.4211     0.0034     0.0281 </r>
       <r>    -1.3503    -0.0009     0.0280 </r>
       <r>    -1.2796    -0.0001     0.0280 </r>
       <r>    -1.2088    -0.0194     0.0266 </r>
       <r>    -1.1380     0.3257     0.0497 </r>
       <r>    -1.0672     0.3945     0.0776 </r>
       <r>    -0.9964    -0.0223     0.0760 </r>
       <r>    -0.9256    -0.0002     0.0760 </r>
       <r>    -0.8549     0.0000     0.0760 </r>
       <r>    -0.7841     0.0000     0.0760 </r>
       <r>    -0.7133     0.0000     0.0760 </r>
       <r>    -0.6425     0.0000     0.0760 </r>
       <r>    -0.5717     0.0000     0.0760 </r>
       <r>    -0.5010    -0.0062     0.0756 </r>
       <r>    -0.4302     0.0734     0.0808 </r>
       <r>    -0.3594     0.7011     0.1304 </r>
       <r>    -0.2886     0.0865     0.1365 </r>
       <r>    -0.2178    -0.0071     0.1360 </r>
       <r>    -0.1471    -0.0027     0.1358 </r>
       <r>    -0.0763     0.0114     0.1366 </r>
       <r>    -0.0055     0.6231     0.1807 </r>
       <r>     0.0653     0.0510     0.1843 </r>
       <r>     0.1361    -0.0111     0.1836 </r>
       <r>     0.2068     0.0821     0.1894 </r>
       <r>     0.2776     0.6079     0.2324 </r>
       <r>     0.3484    -0.0036     0.2321 </r>
       <r>     0.4192    -0.0019     0.2320 </r>
       <r>     0.4900     0.0000     0.2320 </r>
       <r>     0.5607     0.0000     0.2320 </r>
       <r>     0.6315     0.0000     0.2320 </r>
       <r>     0.7023     0.0000     0.2320 </r>
       <r>     0.7731    -0.0003     0.2320 </r>
       <r>     0.8439    -0.0261     0.2301 </r>
       <r>     0.9146     0.4373     0.2611 </r>
       <r>     0.9854     0.9067     0.3253 </r>
       <r>     1.0562     0.4731     0.3588 </r>
       <r>     1.1270     0.2600     0.3772 </r>
       <r>     1.1978    -0.0163     0.3760 </r>
       <r>     1.2685    -0.0068     0.3755 </r>
       <r>     1.3393     0.0480     0.3789 </r>
       <r>     1.4101     1.2606     0.4681 </r>
       <r>     1.4809     0.6852     0.5166 </r>
       <r>     1.5517     0.0526     0.5204 </r>
       <r>     1.6225    -0.0052     0.5200 </r>
       <r>     1.6932    -0.0001     0.5200 </r>
       <r>     1.7640    -0.0207     0.5185 </r>
       <r>     1.8348     0.3099     0.5405 </r>
       <r>     1.9056     1.0695     0.6162 </r>
       <r>     1.9764     0.0127     0.6171 </r>
       <r>     2.0471     0.3724     0.6434 </r>
       <r>     2.1179     0.0891     0.6497 </r>
       <r>     2.1887     0.6253     0.6940 </r>
       <r>     2.2595     1.4269     0.7950 </r>
       <r>     2.3303     1.9613     0.9338 </r>
       <r>     2.4010     0.5417     0.9722 </r>
       <r>     2.4718     0.4533     1.0042 </r>
       <r>     2.5426     0.2917     1.0249 </r>
       <r>     2.6134     1.0799     1.1013 </r>
       <r>     2.6842    -0.0463     1.0980 </r>
       <r>     2.7549     0.4670     1.1311 </r>
       <r>     2.8257     1.2506     1.2196 </r>
       <r>     2.8965     0.0104     1.2204 </r>
       <r>     2.9673    -0.0184     1.2191 </r>
       <r>     3.0381     0.1104     1.2269 </r>
       <r>     3.1088     2.1523     1.3792 </r>
       <r>     3.1796     0.2337     1.3958 </r>
       <r>     3.2504     0.3223     1.4186 </r>
       <r>     3.3212     1.5448     1.5279 </r>
       <r>     3.3920     1.2498     1.6164 </r>
       <r>     3.4627     1.0051     1.6875 </r>
       <r>     3.5335     0.4134     1.7168 </r>
       <r>     3.6043     0.8456     1.7766 </r>
       <r>     3.6751     0.7705     1.8312 </r>
       <r>     3.7459     0.7669     1.8854 </r>
       <r>     3.8167     0.4075     1.9143 </r>
       <r>     3.8874     0.0932     1.9209 </r>
       <r>     3.9582     0.9533     1.9884 </r>
       <r>     4.0290     1.4171     2.0887 </r>
       <r>     4.0998    -0.0848     2.0827 </r>
       <r>     4.1706     0.3465     2.1072 </r>
       <r>     4.2413     0.3723     2.1335 </r>
       <r>     4.3121    -0.0217     2.1320 </r>
       <r>     4.3829    -0.0247     2.1303 </r>
       <r>     4.4537     0.3992     2.1585 </r>
       <r>     4.5245     0.9104     2.2229 </r>
       <r>     4.5952     0.6096     2.2661 </r>
       <r>     4.6660     0.3600     2.2916 </r>
       <r>     4.7368     0.4810     2.3256 </r>
       <r>     4.8076    -0.0742     2.3204 </r>
       <r>     4.8784     1.0118     2.3920 </r>
       <r>     4.9491     1.5246     2.4999 </r>
       <r>     5.0199     1.2530     2.5886 </r>
       <r>     5.0907     0.6537     2.6349 </r>
       <r>     5.1615     1.6844     2.7541 </r>
       <r>     5.2323     1.5864     2.8664 </r>
       <r>     5.3030     2.8035     3.0648 </r>
       <r>     5.3738     2.4640     3.2392 </r>
       <r>     5.4446     1.0205     3.3114 </r>
       <r>     5.5154     3.2347     3.5404 </r>
       <r>     5.5862     1.9980     3.6818 </r>
       <r>     5.6569     1.2789     3.7723 </r>
       <r>     5.7277     1.5619     3.8829 </r>
       <r>     5.7985     2.8815     4.0868 </r>
       <r>     5.8693     1.2961     4.1786 </r>
       <r>     5.9401     0.4026     4.2071 </r>
       <r>     6.0108     1.1747     4.2902 </r>
       <r>     6.0816     1.8280     4.4196 </r>
       <r>     6.1524     3.5684     4.6722 </r>
       <r>     6.2232     1.6655     4.7901 </r>
       <r>     6.2940     0.7276     4.8416 </r>
       <r>     6.3648     1.6442     4.9579 </r>
       <r>     6.4355     1.5264     5.0660 </r>
       <r>     6.5063     0.8100     5.1233 </r>
       <r>     6.5771     1.2065     5.2087 </r>
       <r>     6.6479     0.9964     5.2792 </r>
       <r>     6.7187     1.0053     5.3504 </r>
       <r>     6.7894     0.4900     5.3851 </r>
       <r>     6.8602     1.5774     5.4967 </r>
       <r>     6.9310     0.6274     5.5411 </r>
       <r>     7.0018     0.3571     5.5664 </r>
       <r>     7.0726     0.5653     5.6064 </r>
       <r>     7.1433     0.0857     5.6125 </r>
       <r>     7.2141    -0.0142     5.6115 </r>
       <r>     7.2849     0.0944     5.6182 </r>
       <r>     7.3557     0.7072     5.6682 </r>
       <r>     7.4265     0.2338     5.6848 </r>
       <r>     7.4972     0.0175     5.6860 </r>
       <r>     7.5680     0.3089     5.7079 </r>
       <r>     7.6388    -0.0086     5.7073 </r>
       <r>     7.7096     0.2542     5.7253 </r>
       <r>     7.7804     0.0737     5.7305 </r>
       <r>     7.8511     0.5904     5.7723 </r>
       <r>     7.9219     0.2945     5.7931 </r>
       <r>     7.9927     0.0286     5.7951 </r>
       <r>     8.0635     0.1199     5.8036 </r>
       <r>     8.1343     0.1642     5.8152 </r>
       <r>     8.2050     0.7347     5.8672 </r>
       <r>     8.2758     1.4218     5.9679 </r>
       <r>     8.3466     0.6623     6.0148 </r>
       <r>     8.4174    -0.0771     6.0093 </r>
       <r>     8.4882     0.9374     6.0757 </r>
       <r>     8.5589     1.3190     6.1690 </r>
       <r>     8.6297     0.5286     6.2064 </r>
       <r>     8.7005    -0.0344     6.2040 </r>
       <r>     8.7713    -0.0054     6.2036 </r>
       <r>     8.8421     0.1346     6.2131 </r>
       <r>     8.9129     0.0291     6.2152 </r>
       <r>     8.9836     0.2178     6.2306 </r>
       <r>     9.0544     0.4717     6.2640 </r>
       <r>     9.1252     1.1548     6.3457 </r>
       <r>     9.1960     0.2874     6.3661 </r>
       <r>     9.2668     1.0905     6.4433 </r>
       <r>     9.3375     0.1945     6.4570 </r>
       <r>     9.4083    -0.0145     6.4560 </r>
       <r>     9.4791     0.0000     6.4560 </r>
       <r>     9.5499     0.0000     6.4560 </r>
       <r>     9.6207    -0.0001     6.4560 </r>
       <r>     9.6914    -0.0205     6.4545 </r>
       <r>     9.7622     0.3474     6.4791 </r>
       <r>     9.8330     0.3471     6.5037 </r>
       <r>     9.9038     0.4037     6.5323 </r>
       <r>     9.9746     1.6331     6.6479 </r>
       <r>    10.0453     0.7117     6.6982 </r>
       <r>    10.1161     0.1429     6.7083 </r>
       <r>    10.1869     0.7257     6.7597 </r>
       <r>    10.2577     0.9162     6.8246 </r>
       <r>    10.3285     0.0997     6.8316 </r>
       <r>    10.3992     0.6057     6.8745 </r>
       <r>    10.4700     0.8199     6.9325 </r>
       <r>    10.5408     0.1019     6.9397 </r>
       <r>    10.6116     0.1308     6.9490 </r>
       <r>    10.6824     1.3519     7.0447 </r>
       <r>    10.7531     1.9591     7.1834 </r>
       <r>    10.8239     2.1546     7.3359 </r>
       <r>    10.8947     1.4982     7.4419 </r>
       <r>    10.9655     0.4043     7.4705 </r>
       <r>    11.0363     0.9912     7.5407 </r>
       <r>    11.1070     0.7417     7.5932 </r>
       <r>    11.1778     0.7076     7.6433 </r>
       <r>    11.2486     0.7277     7.6948 </r>
       <r>    11.3194     0.8163     7.7525 </r>
       <r>    11.3902     0.1728     7.7648 </r>
       <r>    11.4610    -0.0262     7.7629 </r>
       <r>    11.5317     0.5796     7.8039 </r>
       <r>    11.6025     0.0054     7.8043 </r>
       <r>    11.6733     2.0864     7.9520 </r>
       <r>    11.7441     1.6360     8.0678 </r>
       <r>    11.8149     2.0992     8.2164 </r>
       <r>    11.8856     1.3398     8.3112 </r>
       <r>    11.9564     0.4287     8.3416 </r>
       <r>    12.0272     0.4336     8.3722 </r>
       <r>    12.0980     0.2844     8.3924 </r>
       <r>    12.1688     1.0893     8.4695 </r>
       <r>    12.2395     0.0075     8.4700 </r>
       <r>    12.3103     1.2847     8.5609 </r>
       <r>    12.3811     0.9281     8.6266 </r>
       <r>    12.4519     1.6794     8.7455 </r>
       <r>    12.5227     2.4056     8.9158 </r>
       <r>    12.5934     1.5952     9.0287 </r>
       <r>    12.6642     1.6774     9.1474 </r>
       <r>    12.7350     3.1357     9.3694 </r>
       <r>    12.8058     2.0042     9.5112 </r>
       <r>    12.8766     0.7624     9.5652 </r>
       <r>    12.9473     2.9958     9.7772 </r>
       <r>    13.0181     0.7753     9.8321 </r>
       <r>    13.0889     0.4233     9.8621 </r>
       <r>    13.1597     1.0203     9.9343 </r>
       <r>    13.2305     1.8104    10.0624 </r>
       <r>    13.3012     3.1032    10.2821 </r>
       <r>    13.3720     0.3564    10.3073 </r>
       <r>    13.4428     0.8327    10.3662 </r>
       <r>    13.5136     1.6080    10.4800 </r>
       <r>    13.5844     0.4450    10.5115 </r>
       <r>    13.6552     1.1450    10.5926 </r>
       <r>    13.7259     0.9788    10.6619 </r>
       <r>    13.7967     0.0954    10.6686 </r>
       <r>    13.8675    -0.0093    10.6680 </r>
       <r>    13.9383    -0.0061    10.6675 </r>
       <r>    14.0091     0.2780    10.6872 </r>
       <r>    14.0798     0.3196    10.7098 </r>
       <r>    14.1506     0.4503    10.7417 </r>
       <r>    14.2214    -0.0236    10.7400 </r>
       <r>    14.2922    -0.0004    10.7400 </r>
       <r>    14.3630     0.0000    10.7400 </r>
       <r>    14.4337     0.0000    10.7400 </r>
       <r>    14.5045     0.0000    10.7400 </r>
       <r>    14.5753    -0.0005    10.7400 </r>
       <r>    14.6461    -0.0242    10.7383 </r>
       <r>    14.7169     0.4382    10.7693 </r>
       <r>    14.7876     1.3346    10.8637 </r>
       <r>    14.8584     0.7790    10.9189 </r>
       <r>    14.9292     0.5718    10.9593 </r>
       <r>    15.0000     0.4215    10.9892 </r>
       <r>    15.0708    -0.0316    10.9869 </r>
       <r>    15.1415     2.4231    11.1585 </r>
       <r>    15.2123     0.5051    11.1942 </r>
       <r>    15.2831    -0.0234    11.1926 </r>
       <r>    15.3539     1.2209    11.2790 </r>
       <r>    15.4247     0.6694    11.3263 </r>
       <r>    15.4954     0.1880    11.3397 </r>
       <r>    15.5662     0.6018    11.3823 </r>
       <r>    15.6370     0.7354    11.4343 </r>
       <r>    15.7078     0.6599    11.4810 </r>
       <r>    15.7786     0.0630    11.4855 </r>
       <r>    15.8493     0.6064    11.5284 </r>
       <r>    15.9201    -0.0037    11.5281 </r>
       <r>    15.9909    -0.0018    11.5280 </r>
       <r>    16.0617     0.0000    11.5280 </r>
       <r>    16.1325    -0.0043    11.5277 </r>
       <r>    16.2033     0.0414    11.5306 </r>
       <r>    16.2740     0.6346    11.5755 </r>
       <r>    16.3448     0.6380    11.6207 </r>
       <r>    16.4156     0.0516    11.6243 </r>
       <r>    16.4864    -0.0182    11.6231 </r>
       <r>    16.5572     0.1751    11.6355 </r>
       <r>    16.6279     1.2090    11.7210 </r>
       <r>    16.6987    -0.0133    11.7201 </r>
       <r>    16.7695    -0.0340    11.7177 </r>
       <r>    16.8403     1.1519    11.7992 </r>
       <r>    16.9111     0.2564    11.8174 </r>
       <r>    16.9818     0.1637    11.8289 </r>
       <r>    17.0526     0.5757    11.8697 </r>
       <r>    17.1234     1.4136    11.9697 </r>
       <r>    17.1942     0.0982    11.9767 </r>
       <r>    17.2650    -0.0132    11.9758 </r>
       <r>    17.3357     0.0447    11.9789 </r>
       <r>    17.4065     0.3017    12.0003 </r>
       <r>    17.4773    -0.0031    12.0001 </r>
       <r>    17.5481    -0.0009    12.0000 </r>
       <r>    17.6189     0.0000    12.0000 </r>
       <r>    17.6896     0.0000    12.0000 </r>
       <r>    17.7604     0.0000    12.0000 </r>
       <r>    17.8312     0.0000    12.0000 </r>
       <r>    17.9020     0.0000    12.0000 </r>
       <r>    17.9728     0.0000    12.0000 </r>
       <r>    18.0435     0.0000    12.0000 </r>
       <r>    18.1143     0.0000    12.0000 </r>
       <r>    18.1851     0.0000    12.0000 </r>
       <r>    18.2559     0.0000    12.0000 </r>
       <r>    18.3267     0.0000    12.0000 </r>
      </set>
     </set>
    </array>
   </total>
  </dos>
 </calculation>
 <structure name="finalpos" >
  <crystal>
   <varray name="basis" >
    <v>       2.86654409       0.00000000       0.00000000 </v>
    <v>      -0.95551470       2.70260368       0.00000000 </v>
    <v>      -0.95551470      -1.35130184       2.34052345 </v>
   </varray>
   <i name="volume">     18.13234550 </i>
   <varray name="rec_basis" >
    <v>       0.34885213       0.12333785       0.21362743 </v>
    <v>       0.00000000       0.37001356       0.21362743 </v>
    <v>       0.00000000       0.00000000       0.42725485 </v>
   </varray>
  </crystal>
  <varray name="positions" >
   <v>       0.00000000       0.00000000       0.00000000 </v>
  </varray>
 </structure>
</modeling>
