   1   1   1   0
  0.1786834E+02  0.2934493E-09  0.2934493E-09  0.2934493E-09  0.5000000E-15
  1.000000000000000E-004
  CAR 
 unknown system                          
     24.94531641     -3.10371305  301      6.14087419      1.00000000
     -3.104  0.0000E+00  0.0000E+00  0.0000E+00  0.0000E+00
     -3.010  0.0000E+00  0.0000E+00  0.0000E+00  0.0000E+00
     -2.917  0.0000E+00  0.0000E+00  0.0000E+00  0.0000E+00
     -2.823  0.0000E+00  0.0000E+00  0.0000E+00  0.0000E+00
     -2.730  0.0000E+00  0.0000E+00  0.0000E+00  0.0000E+00
     -2.636  0.0000E+00  0.0000E+00  0.0000E+00  0.0000E+00
     -2.543  0.0000E+00  0.0000E+00  0.0000E+00  0.0000E+00
     -2.449  0.0000E+00  0.0000E+00  0.0000E+00  0.0000E+00
     -2.356  0.0000E+00  0.0000E+00  0.0000E+00  0.0000E+00
     -2.262 -0.5508E-33 -0.8379E-36 -0.5150E-34 -0.7834E-37
     -2.169 -0.1579E-20 -0.9644E-23 -0.1476E-21 -0.9016E-24
     -2.075 -0.3684E-11 -0.9163E-13 -0.3445E-12 -0.8567E-14
     -1.982 -0.6591E-05 -0.6900E-06 -0.6162E-06 -0.6451E-07
     -1.888 -0.3486E-02 -0.2473E-02 -0.3265E-03 -0.2313E-03
     -1.795  0.9784E-01  0.7673E-01  0.8821E-02  0.6942E-02
     -1.701  0.4777E-02  0.2520E-01  0.9268E-02  0.9299E-02
     -1.608 -0.9149E-04 -0.4223E-03  0.9259E-02  0.9259E-02
     -1.514 -0.3849E-09 -0.7941E-08  0.9259E-02  0.9259E-02
     -1.421 -0.8824E-18 -0.8797E-16  0.9259E-02  0.9259E-02
     -1.327 -0.4459E-09 -0.1524E-10  0.9259E-02  0.9259E-02
     -1.234 -0.1640E-03 -0.2391E-04  0.9244E-02  0.9257E-02
     -1.140  0.3949E-02 -0.1028E-01  0.9613E-02  0.8296E-02
     -1.047  0.3027E+00  0.2968E+00  0.3791E-01  0.3605E-01
     -0.953 -0.9351E-02  0.1079E-01  0.3704E-01  0.3706E-01
     -0.860 -0.3648E-04 -0.2352E-03  0.3704E-01  0.3704E-01
     -0.766 -0.3132E-10 -0.8654E-09  0.3704E-01  0.3704E-01
     -0.673 -0.1306E-08 -0.4912E-10  0.3704E-01  0.3704E-01
     -0.579 -0.2931E-03 -0.4735E-04  0.3701E-01  0.3703E-01
     -0.486  0.1595E-01 -0.8327E-02  0.3850E-01  0.3625E-01
     -0.392  0.2920E+00  0.3052E+00  0.6580E-01  0.6479E-01
     -0.299 -0.1050E-01  0.4294E-03  0.6482E-01  0.6483E-01
     -0.205 -0.1821E-04 -0.1297E-03  0.6481E-01  0.6481E-01
     -0.112 -0.7264E-05 -0.7731E-06  0.6481E-01  0.6481E-01
     -0.018 -0.3460E-02 -0.2552E-02  0.6449E-01  0.6458E-01
      0.075  0.9647E-01  0.7755E-01  0.7351E-01  0.7183E-01
      0.169  0.1080E+00  0.5530E-01  0.8361E-01  0.7700E-01
      0.262  0.2009E+00  0.2760E+00  0.1024E+00  0.1028E+00
      0.356 -0.5762E-02 -0.1016E-01  0.1019E+00  0.1019E+00
      0.449 -0.9206E-06 -0.9204E-05  0.1019E+00  0.1019E+00
      0.543 -0.1436E-04 -0.1363E-05  0.1019E+00  0.1019E+00
      0.636 -0.1964E-01 -0.1039E-01  0.1000E+00  0.1009E+00
      0.730  0.5394E+00  0.3797E+00  0.1504E+00  0.1364E+00
      0.823  0.7389E-01  0.2290E+00  0.1574E+00  0.1578E+00
      0.917  0.9312E-01  0.2002E-01  0.1661E+00  0.1597E+00
      1.010  0.2108E+00  0.2834E+00  0.1858E+00  0.1862E+00
      1.104 -0.6295E-02 -0.1042E-01  0.1852E+00  0.1852E+00
      1.197 -0.1274E-03 -0.3264E-04  0.1852E+00  0.1852E+00
      1.291  0.4064E-02 -0.3328E-02  0.1856E+00  0.1849E+00
      1.384  0.2437E+00  0.1644E+00  0.2083E+00  0.2002E+00
      1.478  0.3283E+00  0.3378E+00  0.2390E+00  0.2318E+00
      1.571  0.1034E+00  0.1889E+00  0.2487E+00  0.2495E+00
      1.665  0.5185E+00  0.3750E+00  0.2972E+00  0.2845E+00
      1.758  0.3230E+00  0.3999E+00  0.3274E+00  0.3219E+00
      1.852  0.6644E-01  0.1148E+00  0.3336E+00  0.3327E+00
      1.945  0.4432E+00  0.3094E+00  0.3750E+00  0.3616E+00
      2.039  0.8016E+00  0.8967E+00  0.4500E+00  0.4454E+00
      2.132  0.5562E+00  0.5825E+00  0.5020E+00  0.4999E+00
      2.226 -0.2415E-01  0.1802E-03  0.4997E+00  0.4999E+00
      2.319  0.1667E+00  0.6275E-01  0.5153E+00  0.5058E+00
      2.413  0.7115E+00  0.7702E+00  0.5818E+00  0.5778E+00
      2.506  0.5303E+00  0.4551E+00  0.6314E+00  0.6204E+00
      2.600  0.6868E-01  0.1907E+00  0.6378E+00  0.6382E+00
      2.693  0.5740E+00  0.3486E+00  0.6915E+00  0.6708E+00
      2.787  0.6913E+00  0.8808E+00  0.7561E+00  0.7531E+00
      2.880  0.3084E+00  0.2667E+00  0.7850E+00  0.7781E+00
      2.974  0.5375E+00  0.6046E+00  0.8352E+00  0.8346E+00
      3.067 -0.2173E-01 -0.1376E-01  0.8332E+00  0.8333E+00
      3.161  0.7976E-01  0.5246E-03  0.8406E+00  0.8334E+00
      3.254  0.9141E+00  0.9021E+00  0.9261E+00  0.9177E+00
      3.348  0.3916E+00  0.3537E+00  0.9627E+00  0.9508E+00
      3.441  0.8492E+00  0.7724E+00  0.1042E+01  0.1023E+01
      3.535  0.7624E+00  0.9677E+00  0.1113E+01  0.1113E+01
      3.628 -0.7114E-02 -0.4375E-01  0.1113E+01  0.1109E+01
      3.722  0.5878E+00  0.5958E+00  0.1168E+01  0.1165E+01
      3.815  0.2769E+00  0.2581E+00  0.1194E+01  0.1189E+01
      3.909  0.3112E+00  0.3266E+00  0.1223E+01  0.1220E+01
      4.002 -0.2542E-01  0.1670E-01  0.1220E+01  0.1221E+01
      4.096  0.6547E+00  0.4295E+00  0.1281E+01  0.1261E+01
      4.189  0.2199E+00  0.4469E+00  0.1302E+01  0.1303E+01
      4.283  0.1568E+01  0.1191E+01  0.1449E+01  0.1415E+01
      4.376  0.2540E+00  0.6111E+00  0.1472E+01  0.1472E+01
      4.470  0.6005E+00  0.5725E+00  0.1529E+01  0.1525E+01
      4.563  0.2916E+00  0.3035E+00  0.1556E+01  0.1554E+01
      4.657 -0.3319E-02  0.2077E-01  0.1555E+01  0.1556E+01
      4.750  0.4285E-01 -0.1321E-01  0.1559E+01  0.1554E+01
      4.844  0.1064E+01  0.9851E+00  0.1659E+01  0.1646E+01
      4.937  0.5489E+00  0.5350E+00  0.1710E+01  0.1696E+01
      5.031  0.4549E+00  0.4794E+00  0.1753E+01  0.1741E+01
      5.124  0.8636E+00  0.9246E+00  0.1834E+01  0.1828E+01
      5.217  0.3312E+00  0.2480E+00  0.1865E+01  0.1851E+01
      5.311  0.9398E+00  0.9184E+00  0.1952E+01  0.1937E+01
      5.404  0.2083E+00  0.3859E+00  0.1972E+01  0.1973E+01
      5.498  0.3260E+00  0.1471E+00  0.2002E+01  0.1987E+01
      5.591  0.4349E+00  0.5490E+00  0.2043E+01  0.2038E+01
      5.685  0.7964E+00  0.6600E+00  0.2117E+01  0.2100E+01
      5.778  0.9363E+00  0.1021E+01  0.2205E+01  0.2195E+01
      5.872  0.6648E+00  0.7075E+00  0.2267E+01  0.2261E+01
      5.965  0.8141E+00  0.6716E+00  0.2343E+01  0.2324E+01
      6.059  0.7479E+00  0.8910E+00  0.2413E+01  0.2407E+01
      6.152  0.1197E+01  0.1045E+01  0.2525E+01  0.2505E+01
      6.246  0.1302E+00  0.3507E+00  0.2537E+01  0.2538E+01
      6.339 -0.2223E-01 -0.2199E-01  0.2535E+01  0.2536E+01
      6.433  0.6271E+00  0.4519E+00  0.2594E+01  0.2578E+01
      6.526  0.5494E+00  0.6652E+00  0.2645E+01  0.2640E+01
      6.620  0.8055E+00  0.5665E+00  0.2721E+01  0.2693E+01
      6.713  0.8285E+00  0.1122E+01  0.2798E+01  0.2798E+01
      6.807  0.8029E-01  0.3593E-01  0.2805E+01  0.2801E+01
      6.900  0.5993E+00  0.5147E+00  0.2862E+01  0.2850E+01
      6.994  0.8518E-01  0.2220E+00  0.2869E+01  0.2870E+01
      7.087  0.3586E+00  0.2138E+00  0.2903E+01  0.2890E+01
      7.181  0.1330E+01  0.1044E+01  0.3027E+01  0.2988E+01
      7.274  0.1653E+01  0.2029E+01  0.3182E+01  0.3178E+01
      7.368  0.3985E+00  0.3872E+00  0.3219E+01  0.3214E+01
      7.461  0.3383E-01  0.9151E-01  0.3222E+01  0.3222E+01
      7.555 -0.8819E-03 -0.1925E-02  0.3222E+01  0.3222E+01
      7.648  0.3075E-02 -0.1712E-01  0.3222E+01  0.3221E+01
      7.742  0.5861E+00  0.5802E+00  0.3277E+01  0.3275E+01
      7.835  0.4901E+00  0.3920E+00  0.3323E+01  0.3312E+01
      7.929  0.1489E+00  0.2230E+00  0.3337E+01  0.3332E+01
      8.022  0.8628E+00  0.8883E+00  0.3418E+01  0.3415E+01
      8.116  0.4733E+00  0.3332E+00  0.3462E+01  0.3447E+01
      8.209  0.4184E+00  0.5889E+00  0.3501E+01  0.3502E+01
      8.303 -0.1142E-01 -0.1745E-01  0.3500E+01  0.3500E+01
      8.396 -0.7667E-05 -0.1647E-04  0.3500E+01  0.3500E+01
      8.490 -0.1601E-01 -0.7100E-02  0.3499E+01  0.3499E+01
      8.583  0.5495E+00  0.2937E+00  0.3550E+01  0.3527E+01
      8.677  0.1284E+01  0.1412E+01  0.3670E+01  0.3659E+01
      8.770  0.8272E+00  0.8133E+00  0.3747E+01  0.3735E+01
      8.864  0.8220E+00  0.8482E+00  0.3824E+01  0.3814E+01
      8.957  0.9900E+00  0.1035E+01  0.3917E+01  0.3911E+01
      9.051 -0.1674E-01  0.5299E-01  0.3915E+01  0.3916E+01
      9.144  0.5003E+00  0.3690E+00  0.3962E+01  0.3950E+01
      9.238  0.1126E+00  0.2386E+00  0.3972E+01  0.3973E+01
      9.331 -0.1773E-02 -0.4799E-02  0.3972E+01  0.3972E+01
      9.425 -0.1204E-04 -0.2903E-05  0.3972E+01  0.3972E+01
      9.518 -0.1043E-01 -0.7986E-02  0.3971E+01  0.3971E+01
      9.612  0.2624E+00  0.2258E+00  0.3996E+01  0.3993E+01
      9.705  0.6214E+00  0.5253E+00  0.4054E+01  0.4042E+01
      9.799  0.2107E+00  0.3466E+00  0.4074E+01  0.4074E+01
      9.892  0.3350E+00  0.2612E+00  0.4105E+01  0.4099E+01
      9.986  0.1564E+00  0.2346E+00  0.4120E+01  0.4120E+01
     10.079  0.6300E+00  0.3287E+00  0.4178E+01  0.4151E+01
     10.173  0.1184E+01  0.1479E+01  0.4289E+01  0.4289E+01
     10.266  0.2733E+00  0.1606E+00  0.4315E+01  0.4304E+01
     10.360  0.6168E+00  0.7263E+00  0.4372E+01  0.4372E+01
     10.453 -0.3219E-01 -0.2812E-01  0.4369E+01  0.4370E+01
     10.547  0.3416E+00  0.2284E+00  0.4401E+01  0.4391E+01
     10.640  0.5685E+00  0.6722E+00  0.4454E+01  0.4454E+01
     10.734  0.2464E+00  0.2078E+00  0.4477E+01  0.4473E+01
     10.827  0.4351E-01  0.8818E-01  0.4482E+01  0.4482E+01
     10.921 -0.6705E-03 -0.1556E-02  0.4481E+01  0.4481E+01
     11.014 -0.1136E-05 -0.2639E-06  0.4481E+01  0.4481E+01
     11.108 -0.6168E-02 -0.3421E-02  0.4481E+01  0.4481E+01
     11.201  0.1968E+00  0.1429E+00  0.4499E+01  0.4495E+01
     11.295  0.4982E+00  0.4381E+00  0.4546E+01  0.4535E+01
     11.388  0.3258E+00  0.3466E+00  0.4576E+01  0.4568E+01
     11.482  0.1216E+01  0.1207E+01  0.4690E+01  0.4681E+01
     11.575  0.9521E+00  0.9514E+00  0.4779E+01  0.4770E+01
     11.669  0.1057E+01  0.9672E+00  0.4878E+01  0.4860E+01
     11.762  0.5015E+00  0.6625E+00  0.4925E+01  0.4922E+01
     11.856 -0.8619E-02  0.1650E-01  0.4924E+01  0.4924E+01
     11.949  0.8021E+00  0.7371E+00  0.4999E+01  0.4993E+01
     12.043  0.4287E-03  0.7399E-01  0.4999E+01  0.4999E+01
     12.136  0.2834E+00  0.2211E+00  0.5026E+01  0.5020E+01
     12.230  0.3311E+00  0.3745E+00  0.5057E+01  0.5055E+01
     12.323  0.3960E+00  0.3580E+00  0.5094E+01  0.5089E+01
     12.417  0.4249E+00  0.4425E+00  0.5133E+01  0.5130E+01
     12.510  0.5139E+00  0.4584E+00  0.5181E+01  0.5173E+01
     12.604  0.1421E+01  0.1334E+01  0.5314E+01  0.5298E+01
     12.697  0.7789E+00  0.8938E+00  0.5387E+01  0.5381E+01
     12.791  0.1531E-01  0.8207E-01  0.5388E+01  0.5389E+01
     12.884  0.1941E+00  0.1346E+00  0.5407E+01  0.5401E+01
     12.978  0.1100E+00  0.1682E+00  0.5417E+01  0.5417E+01
     13.071 -0.2137E-02 -0.4195E-02  0.5417E+01  0.5417E+01
     13.165 -0.1896E-01 -0.1313E-01  0.5415E+01  0.5415E+01
     13.258  0.5274E+00  0.4312E+00  0.5464E+01  0.5456E+01
     13.352  0.8327E-01  0.1776E+00  0.5472E+01  0.5472E+01
     13.445  0.1584E+00  0.9076E-01  0.5487E+01  0.5481E+01
     13.539  0.1341E+00  0.1931E+00  0.5499E+01  0.5499E+01
     13.632  0.7465E+00  0.6326E+00  0.5569E+01  0.5558E+01
     13.726  0.7156E+00  0.7284E+00  0.5636E+01  0.5626E+01
     13.819  0.3757E+00  0.4491E+00  0.5671E+01  0.5668E+01
     13.913  0.2588E+00  0.2909E+00  0.5695E+01  0.5695E+01
     14.006 -0.2379E-01 -0.1592E-01  0.5693E+01  0.5694E+01
     14.100  0.4345E+00  0.2794E+00  0.5734E+01  0.5720E+01
     14.193  0.4571E+00  0.5522E+00  0.5776E+01  0.5772E+01
     14.287  0.1374E-01  0.6734E-01  0.5778E+01  0.5778E+01
     14.380 -0.1233E-01 -0.2725E-01  0.5777E+01  0.5775E+01
     14.474  0.1032E+01  0.8877E+00  0.5873E+01  0.5858E+01
     14.567  0.1725E+00  0.3349E+00  0.5889E+01  0.5890E+01
     14.661 -0.3511E-02 -0.8160E-02  0.5889E+01  0.5889E+01
     14.754 -0.9071E-07 -0.6291E-06  0.5889E+01  0.5889E+01
     14.848 -0.5937E-04 -0.1148E-04  0.5889E+01  0.5889E+01
     14.941 -0.1981E-01 -0.1891E-01  0.5887E+01  0.5887E+01
     15.035  0.6002E+00  0.5266E+00  0.5943E+01  0.5936E+01
     15.128  0.1422E-01  0.8789E-01  0.5944E+01  0.5945E+01
     15.222 -0.3923E-03 -0.1354E-02  0.5944E+01  0.5944E+01
     15.315 -0.1238E-08 -0.1318E-07  0.5944E+01  0.5944E+01
     15.409 -0.7231E-21 -0.1319E-15  0.5944E+01  0.5944E+01
     15.502 -0.3461E-11 -0.1628E-12  0.5944E+01  0.5944E+01
     15.596 -0.1294E-04 -0.1919E-05  0.5944E+01  0.5944E+01
     15.689 -0.1936E-01 -0.1170E-01  0.5943E+01  0.5943E+01
     15.783  0.5128E+00  0.3873E+00  0.5991E+01  0.5980E+01
     15.876  0.6732E+00  0.7111E+00  0.6054E+01  0.6046E+01
     15.970  0.1879E-01  0.1024E+00  0.6055E+01  0.6056E+01
     16.063  0.1874E+00  0.5860E-01  0.6073E+01  0.6061E+01
     16.157  0.4223E+00  0.5553E+00  0.6112E+01  0.6113E+01
     16.250 -0.2288E-01 -0.2726E-01  0.6110E+01  0.6110E+01
     16.344  0.2717E+00  0.2179E+00  0.6136E+01  0.6131E+01
     16.437  0.3697E+00  0.2278E+00  0.6170E+01  0.6152E+01
     16.531  0.8438E+00  0.1000E+01  0.6249E+01  0.6246E+01
     16.624  0.1055E-01  0.4736E-01  0.6250E+01  0.6250E+01
     16.718  0.2821E-01 -0.8347E-03  0.6253E+01  0.6250E+01
     16.811  0.2792E+00  0.3052E+00  0.6279E+01  0.6279E+01
     16.905 -0.1043E-01 -0.8351E-02  0.6278E+01  0.6278E+01
     16.998  0.2886E-02 -0.1028E-01  0.6278E+01  0.6277E+01
     17.092  0.2916E+00  0.2917E+00  0.6305E+01  0.6304E+01
     17.185  0.4249E+00  0.2816E+00  0.6345E+01  0.6330E+01
     17.279  0.2750E+00  0.4390E+00  0.6371E+01  0.6371E+01
     17.372  0.1137E+00  0.1592E-01  0.6381E+01  0.6373E+01
     17.466  0.4781E+00  0.5790E+00  0.6426E+01  0.6427E+01
     17.559  0.4533E+00  0.3167E+00  0.6468E+01  0.6457E+01
     17.653  0.1409E+00  0.2706E+00  0.6482E+01  0.6482E+01
     17.746  0.5667E-01 -0.1035E-01  0.6487E+01  0.6481E+01
     17.840  0.5557E+00  0.6129E+00  0.6539E+01  0.6538E+01
     17.933  0.3767E-01  0.1938E-02  0.6542E+01  0.6539E+01
     18.027  0.2415E+00  0.2882E+00  0.6565E+01  0.6565E+01
     18.120  0.2129E+00  0.1426E+00  0.6585E+01  0.6579E+01
     18.214  0.7380E-01  0.1440E+00  0.6592E+01  0.6592E+01
     18.307  0.2750E+00  0.2197E+00  0.6617E+01  0.6613E+01
     18.401  0.1333E-01  0.7220E-01  0.6619E+01  0.6620E+01
     18.494  0.5103E+00  0.3721E+00  0.6666E+01  0.6654E+01
     18.588  0.9272E-01  0.2301E+00  0.6675E+01  0.6676E+01
     18.681  0.3392E+00  0.2054E+00  0.6707E+01  0.6695E+01
     18.775  0.2712E+00  0.4024E+00  0.6732E+01  0.6733E+01
     18.868 -0.1204E-01 -0.1444E-01  0.6731E+01  0.6731E+01
     18.962  0.2229E+00  0.8649E-01  0.6752E+01  0.6739E+01
     19.055  0.4706E+00  0.6172E+00  0.6796E+01  0.6797E+01
     19.149  0.6817E+00  0.4610E+00  0.6860E+01  0.6840E+01
     19.242  0.2307E+00  0.4252E+00  0.6881E+01  0.6880E+01
     19.336  0.2873E+00  0.2935E+00  0.6908E+01  0.6907E+01
     19.429  0.1125E+00  0.5306E-01  0.6919E+01  0.6912E+01
     19.523  0.1349E+00  0.1660E+00  0.6931E+01  0.6928E+01
     19.616  0.2494E+00  0.2867E+00  0.6955E+01  0.6955E+01
     19.709 -0.2454E-01 -0.1953E-01  0.6952E+01  0.6953E+01
     19.803  0.4764E+00  0.3507E+00  0.6997E+01  0.6986E+01
     19.896 -0.1196E+00  0.8715E-01  0.6986E+01  0.6994E+01
     19.990  0.8211E+01  0.6296E+01  0.7753E+01  0.7582E+01
     20.083  0.2797E+01  0.4670E+01  0.8015E+01  0.8019E+01
     20.177 -0.6302E-01 -0.1061E+00  0.8009E+01  0.8009E+01
     20.270  0.2069E+00  0.9474E-01  0.8028E+01  0.8018E+01
     20.364  0.5734E+00  0.6168E+00  0.8082E+01  0.8076E+01
     20.457  0.1787E+00  0.1903E+00  0.8099E+01  0.8093E+01
     20.551  0.9583E+00  0.8382E+00  0.8188E+01  0.8172E+01
     20.644  0.2295E+00  0.3562E+00  0.8210E+01  0.8205E+01
     20.738  0.8799E+00  0.7779E+00  0.8292E+01  0.8278E+01
     20.831  0.8095E+00  0.8700E+00  0.8368E+01  0.8359E+01
     20.925  0.6304E+00  0.6472E+00  0.8427E+01  0.8420E+01
     21.018  0.2991E+00  0.3475E+00  0.8454E+01  0.8452E+01
     21.112 -0.8159E-02  0.1652E-01  0.8454E+01  0.8454E+01
     21.205 -0.7854E-04 -0.3154E-03  0.8454E+01  0.8454E+01
     21.299 -0.1005E-01 -0.9175E-02  0.8453E+01  0.8453E+01
     21.392  0.2990E+00  0.2586E+00  0.8481E+01  0.8477E+01
     21.486 -0.1723E-02  0.3995E-01  0.8481E+01  0.8481E+01
     21.579  0.2976E+00  0.2462E+00  0.8508E+01  0.8504E+01
     21.673  0.6455E-01  0.6617E-01  0.8514E+01  0.8510E+01
     21.766  0.9863E+00  0.8814E+00  0.8607E+01  0.8592E+01
     21.860  0.4194E+00  0.5230E+00  0.8646E+01  0.8641E+01
     21.953  0.2507E-01  0.7485E-01  0.8648E+01  0.8648E+01
     22.047 -0.1183E-02 -0.1637E-02  0.8648E+01  0.8648E+01
     22.140  0.3877E-01  0.6450E-02  0.8652E+01  0.8649E+01
     22.234  0.5143E+00  0.4526E+00  0.8700E+01  0.8691E+01
     22.327  0.6066E-01  0.1198E+00  0.8705E+01  0.8702E+01
     22.421  0.5954E+00  0.6009E+00  0.8761E+01  0.8758E+01
     22.514 -0.8083E-02 -0.4551E-02  0.8760E+01  0.8758E+01
     22.608  0.6032E+00  0.5417E+00  0.8817E+01  0.8809E+01
     22.701  0.8098E-01  0.1698E+00  0.8824E+01  0.8825E+01
     22.795 -0.2884E-02 -0.4907E-02  0.8824E+01  0.8824E+01
     22.888 -0.2270E-01 -0.1601E-01  0.8822E+01  0.8823E+01
     22.982  0.6437E+00  0.5007E+00  0.8882E+01  0.8869E+01
     23.075  0.7368E-01  0.2131E+00  0.8889E+01  0.8889E+01
     23.169 -0.3692E-02 -0.5267E-02  0.8889E+01  0.8889E+01
     23.262  0.1157E+00  0.4830E-01  0.8899E+01  0.8893E+01
     23.356  0.1787E+00  0.2513E+00  0.8916E+01  0.8917E+01
     23.449  0.2940E+00  0.2203E+00  0.8944E+01  0.8937E+01
     23.543  0.5415E-02  0.7568E-01  0.8944E+01  0.8945E+01
     23.636  0.1654E+00  0.2738E-01  0.8960E+01  0.8947E+01
     23.730  0.4453E+00  0.5870E+00  0.9001E+01  0.9002E+01
     23.823 -0.1394E-01 -0.2091E-01  0.9000E+01  0.9000E+01
     23.917 -0.3346E-05 -0.3955E-04  0.9000E+01  0.9000E+01
     24.010 -0.3917E-12 -0.2211E-10  0.9000E+01  0.9000E+01
     24.104  0.0000E+00  0.0000E+00  0.9000E+01  0.9000E+01
     24.197  0.0000E+00  0.0000E+00  0.9000E+01  0.9000E+01
     24.291  0.0000E+00  0.0000E+00  0.9000E+01  0.9000E+01
     24.384  0.0000E+00  0.0000E+00  0.9000E+01  0.9000E+01
     24.478  0.0000E+00  0.0000E+00  0.9000E+01  0.9000E+01
     24.571  0.0000E+00  0.0000E+00  0.9000E+01  0.9000E+01
     24.665  0.0000E+00  0.0000E+00  0.9000E+01  0.9000E+01
     24.758  0.0000E+00  0.0000E+00  0.9000E+01  0.9000E+01
     24.852  0.0000E+00  0.0000E+00  0.9000E+01  0.9000E+01
     24.945  0.0000E+00  0.0000E+00  0.9000E+01  0.9000E+01
     24.94531641     -3.10371305  301      6.14087419      1.00000000
     -3.104  0.0000E+00  0.0000E+00  0.0000E+00  0.0000E+00  0.0000E+00  0.0000E+00  0.0000E+00  0.0000E+00  0.0000E+00  0.0000E+00  0.0000E+00  0.0000E+00  0.0000E+00  0.0000E+00  0.0000E+00  0.0000E+00  0.0000E+00  0.0000E+00
     -3.010  0.0000E+00  0.0000E+00  0.0000E+00  0.0000E+00  0.0000E+00  0.0000E+00  0.0000E+00  0.0000E+00  0.0000E+00  0.0000E+00  0.0000E+00  0.0000E+00  0.0000E+00  0.0000E+00  0.0000E+00  0.0000E+00  0.0000E+00  0.0000E+00
     -2.917  0.0000E+00  0.0000E+00  0.0000E+00  0.0000E+00  0.0000E+00  0.0000E+00  0.0000E+00  0.0000E+00  0.0000E+00  0.0000E+00  0.0000E+00  0.0000E+00  0.0000E+00  0.0000E+00  0.0000E+00  0.0000E+00  0.0000E+00  0.0000E+00
     -2.823  0.0000E+00  0.0000E+00  0.0000E+00  0.0000E+00  0.0000E+00  0.0000E+00  0.0000E+00  0.0000E+00  0.0000E+00  0.0000E+00  0.0000E+00  0.0000E+00  0.0000E+00  0.0000E+00  0.0000E+00  0.0000E+00  0.0000E+00  0.0000E+00
     -2.730  0.0000E+00  0.0000E+00  0.0000E+00  0.0000E+00  0.0000E+00  0.0000E+00  0.0000E+00  0.0000E+00  0.0000E+00  0.0000E+00  0.0000E+00  0.0000E+00  0.0000E+00  0.0000E+00  0.0000E+00  0.0000E+00  0.0000E+00  0.0000E+00
     -2.636  0.0000E+00  0.0000E+00  0.0000E+00  0.0000E+00  0.0000E+00  0.0000E+00  0.0000E+00  0.0000E+00  0.0000E+00  0.0000E+00  0.0000E+00  0.0000E+00  0.0000E+00  0.0000E+00  0.0000E+00  0.0000E+00  0.0000E+00  0.0000E+00
     -2.543  0.0000E+00  0.0000E+00  0.0000E+00  0.0000E+00  0.0000E+00  0.0000E+00  0.0000E+00  0.0000E+00  0.0000E+00  0.0000E+00  0.0000E+00  0.0000E+00  0.0000E+00  0.0000E+00  0.0000E+00  0.0000E+00  0.0000E+00  0.0000E+00
     -2.449  0.0000E+00  0.0000E+00  0.0000E+00  0.0000E+00  0.0000E+00  0.0000E+00  0.0000E+00  0.0000E+00  0.0000E+00  0.0000E+00  0.0000E+00  0.0000E+00  0.0000E+00  0.0000E+00  0.0000E+00  0.0000E+00  0.0000E+00  0.0000E+00
     -2.356  0.0000E+00  0.0000E+00  0.0000E+00  0.0000E+00  0.0000E+00  0.0000E+00  0.0000E+00  0.0000E+00  0.0000E+00  0.0000E+00  0.0000E+00  0.0000E+00  0.0000E+00  0.0000E+00  0.0000E+00  0.0000E+00  0.0000E+00  0.0000E+00
     -2.262 -0.4752E-33 -0.7223E-36 -0.4092E-35 -0.6224E-38 -0.4092E-35 -0.6224E-38 -0.4092E-35 -0.6224E-38 -0.1663E-36 -0.2528E-39 -0.1663E-36 -0.2528E-39 -0.7575E-46 -0.9416E-52 -0.1663E-36 -0.2528E-39 -0.1050E-46 -0.4505E-51
     -2.169 -0.1362E-20 -0.8313E-23 -0.1173E-22 -0.7164E-25 -0.1173E-22 -0.7164E-25 -0.1173E-22 -0.7164E-25 -0.4766E-24 -0.2910E-26 -0.4766E-24 -0.2910E-26 -0.2171E-33 -0.1084E-38 -0.4766E-24 -0.2910E-26 -0.3008E-34 -0.5185E-38
     -2.075 -0.3179E-11 -0.7899E-13 -0.2737E-13 -0.6807E-15 -0.2737E-13 -0.6807E-15 -0.2737E-13 -0.6807E-15 -0.1112E-14 -0.2765E-16 -0.1112E-14 -0.2765E-16 -0.5067E-24 -0.1030E-28 -0.1112E-14 -0.2765E-16 -0.7021E-25 -0.4927E-28
     -1.982 -0.5686E-05 -0.5948E-06 -0.4897E-07 -0.5125E-08 -0.4897E-07 -0.5125E-08 -0.4897E-07 -0.5125E-08 -0.1990E-08 -0.2082E-09 -0.1990E-08 -0.2082E-09 -0.9065E-18 -0.7754E-22 -0.1990E-08 -0.2082E-09 -0.1256E-18 -0.3710E-21
     -1.888 -0.3007E-02 -0.2132E-02 -0.2589E-04 -0.1837E-04 -0.2589E-04 -0.1837E-04 -0.2589E-04 -0.1837E-04 -0.1052E-05 -0.7462E-06 -0.1052E-05 -0.7462E-06 -0.4794E-15 -0.2779E-18 -0.1052E-05 -0.7462E-06 -0.6642E-16 -0.1330E-17
     -1.795  0.8441E-01  0.6614E-01  0.7269E-03  0.5700E-03  0.7269E-03  0.5700E-03  0.7269E-03  0.5700E-03  0.2954E-04  0.2315E-04  0.2954E-04  0.2315E-04  0.1346E-13  0.8622E-17  0.2954E-04  0.2315E-04  0.1865E-14  0.4126E-16
     -1.701  0.4121E-02  0.2173E-01  0.3549E-04  0.1872E-03  0.3549E-04  0.1872E-03  0.3549E-04  0.1872E-03  0.1442E-05  0.7606E-05  0.1442E-05  0.7606E-05  0.6570E-15  0.2832E-17  0.1442E-05  0.7606E-05  0.9103E-16  0.1355E-16
     -1.608 -0.7893E-04 -0.3641E-03 -0.6797E-06 -0.3137E-05 -0.6797E-06 -0.3137E-05 -0.6797E-06 -0.3137E-05 -0.2762E-07 -0.1275E-06 -0.2762E-07 -0.1275E-06 -0.1258E-16 -0.4746E-19 -0.2762E-07 -0.1275E-06 -0.1744E-17 -0.2271E-18
     -1.514 -0.3321E-09 -0.6846E-08 -0.2860E-11 -0.5899E-10 -0.2860E-11 -0.5899E-10 -0.2860E-11 -0.5899E-10 -0.1162E-12 -0.2396E-11 -0.1162E-12 -0.2396E-11 -0.5294E-22 -0.8924E-24 -0.1162E-12 -0.2396E-11 -0.7335E-23 -0.4270E-23
     -1.421 -0.7179E-18 -0.7583E-16 -0.5761E-20 -0.6535E-18 -0.5761E-20 -0.6535E-18 -0.5640E-19 -0.6539E-18 -0.2224E-20 -0.2656E-19 -0.4302E-21 -0.2655E-19 -0.7558E-21 -0.6362E-23 -0.2224E-20 -0.2656E-19 -0.2267E-20 -0.1909E-22
     -1.327 -0.3628E-09 -0.1239E-10 -0.2911E-11 -0.9950E-13 -0.2911E-11 -0.9950E-13 -0.2850E-10 -0.9740E-12 -0.1124E-11 -0.3840E-13 -0.2174E-12 -0.7427E-14 -0.3819E-12 -0.1307E-13 -0.1124E-11 -0.3840E-13 -0.1146E-11 -0.3922E-13
     -1.234 -0.1335E-03 -0.1944E-04 -0.1071E-05 -0.1561E-06 -0.1071E-05 -0.1561E-06 -0.1048E-04 -0.1528E-05 -0.4134E-06 -0.6025E-07 -0.7997E-07 -0.1165E-07 -0.1405E-06 -0.2051E-07 -0.4134E-06 -0.6025E-07 -0.4215E-06 -0.6153E-07
     -1.140  0.3213E-02 -0.8354E-02  0.2578E-04 -0.6710E-04  0.2578E-04 -0.6710E-04  0.2524E-03 -0.6568E-03  0.9954E-05 -0.2589E-04  0.1925E-05 -0.5008E-05  0.3382E-05 -0.8815E-05  0.9954E-05 -0.2589E-04  0.1015E-04 -0.2644E-04
     -1.047  0.2463E+00  0.2413E+00  0.1976E-02  0.1938E-02  0.1976E-02  0.1938E-02  0.1935E-01  0.1897E-01  0.7629E-03  0.7479E-03  0.1476E-03  0.1447E-03  0.2593E-03  0.2546E-03  0.7630E-03  0.7479E-03  0.7777E-03  0.7638E-03
     -0.953 -0.7608E-02  0.8772E-02 -0.6105E-04  0.7045E-04 -0.6105E-04  0.7045E-04 -0.5977E-03  0.6896E-03 -0.2357E-04  0.2719E-04 -0.4559E-05  0.5259E-05 -0.8009E-05  0.9256E-05 -0.2357E-04  0.2719E-04 -0.2403E-04  0.2777E-04
     -0.860 -0.2968E-04 -0.1912E-03 -0.2382E-06 -0.1535E-05 -0.2382E-06 -0.1535E-05 -0.2332E-05 -0.1503E-04 -0.9195E-07 -0.5925E-06 -0.1779E-07 -0.1146E-06 -0.3125E-07 -0.2017E-06 -0.9196E-07 -0.5925E-06 -0.9374E-07 -0.6051E-06
     -0.766 -0.2548E-10 -0.7035E-09 -0.2045E-12 -0.5650E-11 -0.2045E-12 -0.5650E-11 -0.2002E-11 -0.5531E-10 -0.7895E-13 -0.2180E-11 -0.1527E-13 -0.4217E-12 -0.2683E-13 -0.7423E-12 -0.7895E-13 -0.2180E-11 -0.8048E-13 -0.2227E-11
     -0.673 -0.9988E-09 -0.3752E-10 -0.7336E-10 -0.2758E-11 -0.7336E-10 -0.2758E-11 -0.6497E-11 -0.2444E-12 -0.5346E-11 -0.2010E-12 -0.2792E-10 -0.1050E-11 -0.7127E-12 -0.2685E-13 -0.5346E-11 -0.2010E-12 -0.2138E-11 -0.8055E-13
     -0.579 -0.2241E-03 -0.3618E-04 -0.1646E-04 -0.2659E-05 -0.1646E-04 -0.2659E-05 -0.1458E-05 -0.2356E-06 -0.1200E-05 -0.1938E-06 -0.6265E-05 -0.1012E-05 -0.1599E-06 -0.2588E-07 -0.1200E-05 -0.1938E-06 -0.4797E-06 -0.7765E-07
     -0.486  0.1220E-01 -0.6362E-02  0.8960E-03 -0.4676E-03  0.8960E-03 -0.4676E-03  0.7936E-04 -0.4143E-04  0.6530E-04 -0.3407E-04  0.3411E-03 -0.1779E-03  0.8705E-05 -0.4552E-05  0.6530E-04 -0.3407E-04  0.2611E-04 -0.1366E-04
     -0.392  0.2232E+00  0.2331E+00  0.1640E-01  0.1714E-01  0.1640E-01  0.1714E-01  0.1452E-02  0.1518E-02  0.1195E-02  0.1249E-02  0.6241E-02  0.6521E-02  0.1593E-03  0.1668E-03  0.1195E-02  0.1249E-02  0.4779E-03  0.5004E-03
     -0.299 -0.8026E-02  0.3281E-03 -0.5895E-03  0.2411E-04 -0.5895E-03  0.2411E-04 -0.5221E-04  0.2136E-05 -0.4296E-04  0.1757E-05 -0.2244E-03  0.9176E-05 -0.5727E-05  0.2347E-06 -0.4296E-04  0.1757E-05 -0.1718E-04  0.7042E-06
     -0.205 -0.1392E-04 -0.9910E-04 -0.1022E-05 -0.7284E-05 -0.1022E-05 -0.7284E-05 -0.9057E-07 -0.6453E-06 -0.7452E-07 -0.5307E-06 -0.3892E-06 -0.2772E-05 -0.9934E-08 -0.7090E-07 -0.7452E-07 -0.5307E-06 -0.2980E-07 -0.2127E-06
     -0.112 -0.5139E-05 -0.5465E-06 -0.3031E-06 -0.3227E-07 -0.3031E-06 -0.3227E-07 -0.3031E-06 -0.3225E-07 -0.2437E-06 -0.2592E-07 -0.2437E-06 -0.2593E-07 -0.5297E-14 -0.1592E-12 -0.2437E-06 -0.2592E-07 -0.1575E-13 -0.4777E-12
     -0.018 -0.2448E-02 -0.1804E-02 -0.1444E-03 -0.1065E-03 -0.1444E-03 -0.1065E-03 -0.1444E-03 -0.1065E-03 -0.1161E-03 -0.8560E-04 -0.1161E-03 -0.8560E-04 -0.2484E-08 -0.1421E-09 -0.1161E-03 -0.8560E-04 -0.1191E-20 -0.4404E-20
      0.075  0.6827E-01  0.5482E-01  0.4097E-02  0.3254E-02  0.3805E-02  0.3181E-02  0.4097E-02  0.3254E-02  0.3300E-02  0.2617E-02  0.3291E-02  0.2614E-02 -0.7964E-04 -0.1999E-04  0.3291E-02  0.2614E-02 -0.9778E-17 -0.6582E-19
      0.169  0.7574E-01  0.3889E-01  0.7101E-03  0.1161E-02  0.1624E-01  0.5850E-02  0.7101E-03  0.1161E-02  0.2671E-03  0.8416E-03  0.7188E-03  0.9779E-03  0.4236E-02  0.1281E-02  0.7188E-03  0.9779E-03  0.5214E-15  0.1289E-16
      0.262  0.1408E+00  0.1933E+00  0.1035E-02  0.1411E-02  0.3109E-01  0.4274E-01  0.1035E-02  0.1411E-02  0.2439E-03  0.3259E-03  0.1118E-02  0.1527E-02  0.8199E-02  0.1130E-01  0.1118E-02  0.1527E-02  0.1009E-14  0.1132E-15
      0.356 -0.4040E-02 -0.7115E-02 -0.2977E-04 -0.5248E-04 -0.8916E-03 -0.1572E-02 -0.2977E-04 -0.5248E-04 -0.7075E-05 -0.1247E-04 -0.3214E-04 -0.5662E-04 -0.2351E-03 -0.4152E-03 -0.3214E-04 -0.5662E-04 -0.2894E-16 -0.4162E-17
      0.449 -0.6454E-06 -0.6447E-05 -0.4756E-08 -0.4755E-07 -0.1424E-06 -0.1424E-05 -0.4757E-08 -0.4755E-07 -0.1131E-08 -0.1130E-07 -0.5135E-08 -0.5130E-07 -0.3756E-07 -0.3761E-06 -0.5135E-08 -0.5130E-07 -0.5556E-13 -0.1290E-14
      0.543 -0.9443E-05 -0.8955E-06 -0.6290E-06 -0.5971E-07 -0.3632E-07 -0.3450E-08 -0.1981E-05 -0.1880E-06 -0.7193E-06 -0.6824E-07 -0.1454E-06 -0.1380E-07 -0.1296E-06 -0.1234E-07 -0.1385E-06 -0.1314E-07 -0.1943E-06 -0.1848E-07
      0.636 -0.1292E-01 -0.6824E-02 -0.8604E-03 -0.4550E-03 -0.4968E-04 -0.2628E-04 -0.2710E-02 -0.1433E-02 -0.9840E-03 -0.5200E-03 -0.1989E-03 -0.1052E-03 -0.1773E-03 -0.9400E-04 -0.1894E-03 -0.1001E-03 -0.2657E-03 -0.1408E-03
      0.730  0.3547E+00  0.2494E+00  0.2363E-01  0.1663E-01  0.1364E-02  0.9607E-03  0.7442E-01  0.5237E-01  0.2702E-01  0.1901E-01  0.5462E-02  0.3844E-02  0.4870E-02  0.3436E-02  0.5201E-02  0.3659E-02  0.7297E-02  0.5147E-02
      0.823  0.4870E-01  0.1505E+00  0.3276E-02  0.1004E-01  0.1563E-03  0.5724E-03  0.1026E-01  0.3161E-01  0.3661E-02  0.1146E-01  0.6448E-03  0.2295E-02  0.6782E-03  0.2075E-02  0.6028E-03  0.2182E-02  0.1010E-02  0.3107E-02
      0.917  0.5501E-01  0.1153E-01  0.1880E-02  0.3046E-03  0.1928E-02  0.4912E-03  0.9086E-02  0.1783E-02  0.6928E-02  0.1591E-02  0.6677E-02  0.1695E-02  0.2233E-03  0.2006E-04  0.6975E-02  0.1774E-02  0.6855E-03  0.1217E-03
      1.010  0.1247E+00  0.1675E+00  0.4317E-02  0.5805E-02  0.4317E-02  0.5805E-02  0.2067E-01  0.2779E-01  0.1562E-01  0.2099E-01  0.1496E-01  0.2010E-01  0.5227E-03  0.7043E-03  0.1562E-01  0.2099E-01  0.1568E-02  0.2113E-02
      1.104 -0.3724E-02 -0.6161E-02 -0.1289E-03 -0.2135E-03 -0.1289E-03 -0.2135E-03 -0.6173E-03 -0.1022E-02 -0.4664E-03 -0.7721E-03 -0.4465E-03 -0.7394E-03 -0.1561E-04 -0.2590E-04 -0.4664E-03 -0.7721E-03 -0.4682E-04 -0.7771E-04
      1.197 -0.5298E-04 -0.1567E-04 -0.1097E-05 -0.4230E-06 -0.1097E-05 -0.4230E-06 -0.1179E-05 -0.1370E-05 -0.2433E-04 -0.4831E-05 -0.2434E-04 -0.4793E-05 -0.3113E-08 -0.3038E-07 -0.2433E-04 -0.4831E-05 -0.9338E-08 -0.9114E-07
      1.291  0.1435E-02 -0.1448E-02 -0.1033E-03 -0.6747E-04 -0.1034E-03 -0.6748E-04  0.5884E-04 -0.2098E-04  0.1017E-02 -0.5722E-03  0.9075E-03 -0.6036E-03 -0.1931E-05 -0.5299E-06  0.1017E-02 -0.5722E-03 -0.5406E-05 -0.1555E-05
      1.384  0.1112E+00  0.7231E-01  0.7959E-02  0.3843E-02  0.7078E-02  0.3521E-02  0.1019E-02  0.9537E-03  0.3766E-01  0.2773E-01  0.4235E-01  0.2968E-01 -0.1068E-02 -0.3883E-03  0.3766E-01  0.2773E-01  0.2313E-03  0.9667E-04
      1.478  0.1585E+00  0.1629E+00  0.7788E-02  0.1174E-01  0.4122E-01  0.2948E-01  0.9770E-03  0.7819E-03  0.1910E-01  0.3088E-01  0.2390E-01  0.3839E-01  0.4350E-01  0.2323E-01  0.1929E-01  0.3098E-01  0.2269E-03  0.3667E-03
      1.571  0.4992E-01  0.9041E-01 -0.6196E-03 -0.4388E-03  0.2213E-01  0.3806E-01  0.3680E-03  0.8180E-03 -0.1633E-02 -0.9935E-03 -0.2894E-02 -0.2118E-02  0.2953E-01  0.5012E-01 -0.1505E-02 -0.7776E-03 -0.6749E-04 -0.6876E-04