    1    1    1    2
  0.1786834E+02  0.2934493E-09  0.2934493E-09  0.2934493E-09  0.5000000E-15
  1.000000000000000E-004
  CAR 
 unknown system                          
    5   28    9
 
  0.8333333E-01  0.8333333E-01  0.8333333E-01  0.9259259E-02
   1       -1.828757     -1.810320
   2        6.398589      6.414327
   3        6.801766      6.817143
   4        6.801766      6.817143
   5        9.718542      9.729957
   6        9.718542      9.729957
   7       19.418617     19.442632
   8       19.964646     19.976575
   9       22.624604     22.639377
 
  0.2500000E+00  0.8333333E-01  0.8333333E-01  0.2777778E-01
   1       -0.452524     -0.434173
   2        5.506033      5.522682
   3        7.073154      7.087830
   4        7.342726      7.357648
   5        8.879216      8.891330
   6       10.248759     10.260522
   7       19.961204     19.973075
   8       20.359290     20.374288
   9       22.212400     22.233319
 
  0.4166667E+00  0.8333333E-01  0.8333333E-01  0.2777778E-01
   1        1.383868      1.402464
   2        5.694879      5.711207
   3        6.424198      6.438552
   4        6.873372      6.887096
   5       10.562752     10.575207
   6       12.173408     12.184775
   7       17.952828     17.966296
   8       19.968515     19.980479
   9       20.967508     20.985807
 
 -0.4166667E+00  0.8333333E-01  0.8333333E-01  0.2777778E-01
   1        1.649971      1.668737
   2        5.890160      5.903664
   3        6.660710      6.674478
   4        6.882494      6.899210
   5       12.394272     12.405098
   6       12.577733     12.589151
   7       16.746003     16.759470
   8       19.106941     19.125092
   9       19.974809     19.986842
 
 -0.2500000E+00  0.8333333E-01  0.8333333E-01  0.2777778E-01
   1        0.928104      0.946507
   2        5.269451      5.286208
   3        6.628292      6.642266
   4        7.171378      7.185521
   5       10.123454     10.136458
   6       11.190313     11.201851
   7       18.660662     18.674520
   8       19.970961     19.982944
   9       22.544834     22.562713
 
 -0.8333333E-01  0.8333333E-01  0.8333333E-01  0.2777778E-01
   1       -1.100816     -1.082455
   2        5.755017      5.771346
   3        7.150170      7.165297
   4        7.185731      7.200902
   5        8.869499      8.881564
   6       10.067051     10.078319
   7       19.964629     19.976546
   8       20.784057     20.806484
   9       21.831207     21.845810
 
  0.2500000E+00  0.2500000E+00  0.8333333E-01  0.2777778E-01
   1        0.178139      0.196152
   2        4.783956      4.800943
   3        7.115503      7.129158
   4        7.976228      7.990997
   5        8.564093      8.578342
   6       10.710092     10.721079
   7       19.966797     19.978705
   8       21.716416     21.729709
   9       23.412401     23.433949
 
  0.4166667E+00  0.2500000E+00  0.8333333E-01  0.5555556E-01
   1        1.968705      1.985800
   2        4.235942      4.253203
   3        5.810210      5.825001
   4        8.615820      8.629382
   5       10.091469     10.105252
   6       12.488444     12.499730
   7       19.785596     19.798529
   8       20.017726     20.030727
   9       22.949124     22.965137
 
 -0.4166667E+00  0.2500000E+00  0.8333333E-01  0.5555556E-01
   1        2.906601      2.924712
   2        4.419395      4.432677
   3        5.971256      5.988779
   4        7.959714      7.972922
   5       11.912176     11.924348
   6       14.462268     14.475392
   7       15.840911     15.855182
   8       19.973830     19.985824
   9       21.751218     21.766146
 
 -0.2500000E+00  0.2500000E+00  0.8333333E-01  0.5555556E-01
   1        2.702815      2.720827
   2        4.819723      4.835610
   3        5.211926      5.227179
   4        8.102673      8.115576
   5       10.085439     10.099035
   6       13.698170     13.709590
   7       18.472534     18.487377
   8       19.977562     19.989639
   9       22.363889     22.381817
 
 -0.8333333E-01  0.2500000E+00  0.8333333E-01  0.5555556E-01
   1        0.704229      0.722393
   2        4.917684      4.934745
   3        6.609343      6.623266
   4        7.814891      7.829041
   5        8.919361      8.932792
   6       11.285111     11.296731
   7       19.955959     19.967722
   8       20.279552     20.292846
   9       23.650297     23.670361
 
  0.4166667E+00  0.4166667E+00  0.8333333E-01  0.2777778E-01
   1        1.891099      1.905457
   2        3.173954      3.191690
   3        7.192386      7.210357
   4       10.522848     10.535750
   5       11.654527     11.668496
   6       12.331124     12.341673
   7       19.276728     19.292678
   8       19.977379     19.989475
   9       20.658316     20.674842
 
 -0.4166667E+00  0.4166667E+00  0.8333333E-01  0.5555556E-01
   1        2.331794      2.345255
   2        3.357406      3.375088
   3        7.198023      7.216356
   4       10.293330     10.305425
   5       12.662341     12.674404
   6       14.997061     15.011057
   7       16.074648     16.091010
   8       19.140013     19.156639
   9       19.976119     19.988159
 
 -0.2500000E+00  0.4166667E+00  0.8333333E-01  0.5555556E-01
   1        3.468978      3.484579
   2        4.076092      4.091493
   3        5.699717      5.717553
   4        8.674510      8.687122
   5       11.540869     11.553806
   6       14.085796     14.101349
   7       17.542417     17.555872
   8       19.968178     19.980090
   9       20.483008     20.496804
 
 -0.8333333E-01  0.4166667E+00  0.8333333E-01  0.5555556E-01
   1        2.071893      2.090437
   2        5.302853      5.316436
   3        6.136143      6.153077
   4        7.210055      7.223645
   5       11.438104     11.450358
   6       13.234507     13.245779
   7       17.180831     17.194616
   8       19.973865     19.985878
   9       20.539450     20.557233
 
 -0.4166667E+00 -0.4166667E+00  0.8333333E-01  0.2777778E-01
   1        1.740353      1.753831
   2        2.809210      2.827088
   3        8.574217      8.593732
   4       11.659680     11.670428
   5       12.876033     12.887313
   6       13.443707     13.456735
   7       17.038231     17.055624
   8       18.693427     18.711072
   9       19.935147     19.946611
 
 -0.2500000E+00 -0.4166667E+00  0.8333333E-01  0.5555556E-01
   1        2.481563      2.496163
   2        3.664745      3.682160
   3        6.104763      6.122065
   4        9.679969      9.692859
   5       11.633533     11.646597
   6       13.615696     13.627789
   7       17.774167     17.790107
   8       19.975003     19.987010
   9       20.880225     20.896819
 
 -0.2500000E+00 -0.2500000E+00  0.8333333E-01  0.2777778E-01
   1        1.472062      1.488678
   2        3.862361      3.879817
   3        6.458455      6.473582
   4        9.124063      9.138156
   5        9.856550      9.870951
   6       11.546973     11.557643
   7       19.966323     19.978192
   8       21.689206     21.702862
   9       23.269431     23.284751
 
  0.2500000E+00  0.2500000E+00  0.2500000E+00  0.9259259E-02
   1        0.040326      0.058743
   2        5.471292      5.487993
   3        7.079161      7.093606
   4        7.079161      7.093606
   5        9.910306      9.922443
   6        9.910306      9.922443
   7       18.950924     18.965826
   8       19.969598     19.981584
   9       22.975283     22.994460
 
  0.4166667E+00  0.2500000E+00  0.2500000E+00  0.2777778E-01
   1        1.624909      1.643215
   2        5.006152      5.023353
   3        6.055477      6.069356
   4        7.684265      7.697345
   5        9.124186      9.137878
   6       12.571235     12.582677
   7       19.542903     19.555524
   8       19.985867     19.998115
   9       22.573287     22.592745
 
 -0.4166667E+00  0.2500000E+00  0.2500000E+00  0.2777778E-01
   1        3.267560      3.286004
   2        4.519040      4.531986
   3        5.502397      5.520107
   4        8.135184      8.147755
   5       10.586896     10.600123
   6       13.844708     13.858340
   7       18.106367     18.119857
   8       19.975923     19.987953
   9       21.355503     21.370098
 
 -0.2500000E+00  0.2500000E+00  0.2500000E+00  0.2777778E-01
   1        2.650129      2.666446
   2        4.093875      4.109313
   3        5.986698      6.004144
   4        8.598909      8.612004
   5       12.600334     12.611200
   6       13.577366     13.591741
   7       16.315396     16.330202
   8       19.974015     19.986003
   9       22.162944     22.176428
 
  0.4166667E+00  0.4166667E+00  0.2500000E+00  0.2777778E-01
   1        1.965911      1.983843
   2        4.772616      4.788352
   3        5.910583      5.926019
   4        7.698318      7.712062
   5       11.478882     11.492369
   6       12.270372     12.281193
   7       18.279543     18.292991
   8       19.975226     19.987261
   9       21.542484     21.559907
 
 -0.4166667E+00  0.4166667E+00  0.2500000E+00  0.5555556E-01
   1        3.432752      3.447913
   2        4.256342      4.272456
   3        5.080071      5.097630
   4        8.803334      8.816207
   5       11.405060     11.418233
   6       14.422170     14.435671
   7       17.391454     17.406181
   8       19.973501     19.985493
   9       20.702087     20.717889
 
 -0.2500000E+00  0.4166667E+00  0.2500000E+00  0.5555556E-01
   1        3.204426      3.217426
   2        4.271849      4.289580
   3        5.619535      5.637435
   4        8.743411      8.756632
   5       12.562187     12.574524
   6       15.758063     15.772861
   7       16.443531     16.459286
   8       18.976753     18.992480
   9       19.979183     19.991284
 
 -0.4166667E+00 -0.4166667E+00  0.2500000E+00  0.2777778E-01
   1        2.711171      2.725657
   2        3.775675      3.792250
   3        6.617347      6.635506
   4        9.582131      9.594209
   5       12.108889     12.120981
   6       14.160300     14.177524
   7       16.501367     16.514838
   8       19.966698     19.978552
   9       20.803610     20.815497
 
  0.4166667E+00  0.4166667E+00  0.4166667E+00  0.9259259E-02
   1        1.321085      1.339853
   2        6.514026      6.527899
   3        6.514026      6.527899
   4        6.536221      6.552633
   5       11.898330     11.909635
   6       11.898330     11.909635
   7       17.163429     17.177160
   8       19.426377     19.443956
   9       19.981190     19.993418
 
 -0.4166667E+00  0.4166667E+00  0.4166667E+00  0.2777778E-01
   1        2.376727      2.395360
   2        5.044019      5.057119
   3        6.396032      6.413345
   4        7.279615      7.293001
   5       11.728850     11.740637
   6       13.753768     13.766111
   7       16.444705     16.458489
   8       19.975248     19.987260
   9       20.752237     20.769146
