       N       E                     dE             d eps       ncg     rms          rms(c)
DAV:   1     0.248009555532E+01    0.24801E+01   -0.14235E+03  1201   0.217E+02
DAV:   2    -0.191545899081E+01   -0.43956E+01   -0.40962E+01  1301   0.336E+01
DAV:   3    -0.194170943571E+01   -0.26250E-01   -0.25593E-01  1276   0.244E+00
DAV:   4    -0.194173366792E+01   -0.24232E-04   -0.24230E-04  1305   0.598E-02
DAV:   5    -0.194173369706E+01   -0.29143E-07   -0.28673E-07  1221   0.148E-03    0.760E+00
DAV:   6    -0.113173690328E+02   -0.93756E+01   -0.26863E+00  1127   0.464E+00    0.389E+00
DAV:   7    -0.114671834940E+02   -0.14981E+00   -0.54531E-02  1246   0.121E+00    0.341E+00
DAV:   8    -0.112147438911E+02    0.25244E+00   -0.17465E+00  1104   0.640E+00    0.251E+00
DAV:   9    -0.115656331092E+02   -0.35089E+00   -0.25226E-01  1042   0.253E+00    0.764E-01
DAV:  10    -0.116055969054E+02   -0.39964E-01   -0.70231E-02  1108   0.138E+00    0.188E-01
DAV:  11    -0.116057168862E+02   -0.11998E-03   -0.28320E-03  1183   0.280E-01    0.603E-02
DAV:  12    -0.116058179809E+02   -0.10109E-03   -0.23691E-04  1037   0.829E-02    0.189E-02
DAV:  13    -0.116058200919E+02   -0.21110E-05   -0.21845E-05   527   0.265E-02
   1 F= -.11605820E+02 E0= -.11605551E+02  d E =-.808241E-03  mag=     0.0253
