 vasp.5.2.12 11Nov11 complex                                                    
  
 executed on             LinuxIFC date 2012.10.17  11:06:56
 running on    1 nodes
 distr:  one band on    1 nodes,    1 groups


--------------------------------------------------------------------------------------------------------


 INCAR:
 POTCAR:    PAW_PBE Ta 17Jan2003                  
 POTCAR:    PAW_PBE Ta 17Jan2003                  
   VRHFIN =Ta:  6s5d                                                            
   LEXCH  = PE                                                                  
   EATOM  =   130.6506 eV,    9.6025 Ry                                         
                                                                                
   TITEL  = PAW_PBE Ta 17Jan2003                                                
   LULTRA =        F    use ultrasoft PP ?                                      
   IUNSCR =        1    unscreen: 0-lin 1-nonlin 2-no                           
   RPACOR =    2.330    partial core radius                                     
   POMASS =  180.948; ZVAL   =    5.000    mass and valenz                      
   RCORE  =    2.900    outmost cutoff radius                                   
   RWIGS  =    2.840; RWIGS  =    1.503    wigner-seitz radius (au A)           
   ENMAX  =  223.667; ENMIN  =  167.750 eV                                      
   RCLOC  =    2.205    cutoff for local pot                                    
   LCOR   =        T    correct aug charges                                     
   LPAW   =        T    paw PP                                                  
   EAUG   =  332.075                                                            
   DEXC   =    -.049                                                            
   RMAX   =    3.083    core radius for proj-oper                               
   RAUG   =    1.300    factor for augmentation sphere                          
   RDEP   =    3.060    radius for radial grids                                 
   QCUT   =   -4.055; QGAM   =    8.109    optimization parameters              
                                                                                
   Description                                                                  
     l     E      TYP  RCUT    TYP  RCUT                                        
     2   .000     23  2.500                                                     
     2   .000     23  2.500                                                     
     0   .000     23  2.500                                                     
     0   .000     23  2.500                                                     
     1   .000     23  2.900                                                     
     1  2.000     23  2.900                                                     
     3   .000      7   .000                                                     
  local pseudopotential read in
  partial core-charges read in
  atomic valenz-charges read in
  non local Contribution for L=           2  read in
    real space projection operators read in
  non local Contribution for L=           2  read in
    real space projection operators read in
  non local Contribution for L=           0  read in
    real space projection operators read in
  non local Contribution for L=           0  read in
    real space projection operators read in
  non local Contribution for L=           1  read in
    real space projection operators read in
  non local Contribution for L=           1  read in
    real space projection operators read in
    PAW grid and wavefunctions read in
 
   number of l-projection  operators is LMAX  =           6
   number of lm-projection operators is LMMAX =          18
 
  PAW_PBE Ta 17Jan2003                  :
 energy of atom  1       EATOM= -130.6506
 kinetic energy error for atom=    0.0711 (will be added to EATOM!!)
 
 
 POSCAR: Ta                                      
  positions in cartesian coordinates
  No initial velocities read in
 exchange correlation table for  LEXCH =        8
   RHO(1)=    0.500       N(1)  =     2000
   RHO(2)=  100.500       N(2)  =     4000
 


--------------------------------------------------------------------------------------------------------


 ion  position               nearest neighbor table
   1  0.000  0.000  0.000-
 
  LATTYP: Found a face centered cubic cell.
 ALAT       =     4.1500000000
  
  Lattice vectors:
  
 A1 = (   0.0000000000,   2.0750000000,   2.0750000000)
 A2 = (   2.0750000000,   0.0000000000,   2.0750000000)
 A3 = (   2.0750000000,   2.0750000000,   0.0000000000)
 Subroutine PRICEL returns:
 Original cell was already a primitive cell.
 

Analysis of symmetry for initial positions (statically):

 Routine SETGRP: Setting up the symmetry group for a 
 face centered cubic supercell.


 Subroutine GETGRP returns: Found 48 space group operations
 (whereof 48 operations were pure point group operations)
 out of a pool of 48 trial point group operations.


The static configuration has the point symmetry O_h .

Analysis of symmetry for dynamics (positions and initial velocities):

 Subroutine DYNSYM returns: Found 48 space group operations
 (whereof 48 operations were pure point group operations)
 out of a pool of 48 trial space group operations
 (whereof 48 operations were pure point group operations)
 and found also     1 'primitive' translations


The dynamic configuration has the point symmetry O_h .

Analysis of magnetic symmetry:

 Subroutine MAGSYM returns: Found 48 space group operations
 (whereof 48 operations were pure point group operations)
 out of a pool of 48 trial space group operations
 (whereof 48 operations were pure point group operations)
 and found also     1 'primitive' translations


The magnetic configuration has the point symmetry O_h .
 
 
 KPOINTS: KPOINTS created by Atomic Simulation Env

Automatic generation of k-mesh.
 
 Subroutine IBZKPT returns following result:
 ===========================================
 
 Found     28 irreducible k-points:
 
 Following reciprocal coordinates:
            Coordinates               Weight
  0.083333  0.083333  0.083333     96.000000
  0.250000  0.083333  0.083333    288.000000
  0.416667  0.083333  0.083333    288.000000
 -0.416667  0.083333  0.083333    288.000000
 -0.250000  0.083333  0.083333    288.000000
 -0.083333  0.083333  0.083333    288.000000
  0.250000  0.250000  0.083333    288.000000
  0.416667  0.250000  0.083333    576.000000
 -0.416667  0.250000  0.083333    576.000000
 -0.250000  0.250000  0.083333    576.000000
 -0.083333  0.250000  0.083333    576.000000
  0.416667  0.416667  0.083333    288.000000
 -0.416667  0.416667  0.083333    576.000000
 -0.250000  0.416667  0.083333    576.000000
 -0.083333  0.416667  0.083333    576.000000
 -0.416667 -0.416667  0.083333    288.000000
 -0.250000 -0.416667  0.083333    576.000000
 -0.250000 -0.250000  0.083333    288.000000
  0.250000  0.250000  0.250000     96.000000
  0.416667  0.250000  0.250000    288.000000
 -0.416667  0.250000  0.250000    288.000000
 -0.250000  0.250000  0.250000    288.000000
  0.416667  0.416667  0.250000    288.000000
 -0.416667  0.416667  0.250000    576.000000
 -0.250000  0.416667  0.250000    576.000000
 -0.416667 -0.416667  0.250000    288.000000
  0.416667  0.416667  0.416667     96.000000
 -0.416667  0.416667  0.416667    288.000000
 
 Following cartesian coordinates:
            Coordinates               Weight
  0.020080  0.020080  0.020080     96.000000
 -0.020080  0.060241  0.060241    288.000000
 -0.060241  0.100402  0.100402    288.000000
  0.140562 -0.100402 -0.100402    288.000000
  0.100402 -0.060241 -0.060241    288.000000
  0.060241 -0.020080 -0.020080    288.000000
  0.020080  0.020080  0.100402    288.000000
 -0.020080  0.060241  0.140562    576.000000
  0.180723 -0.140562 -0.060241    576.000000
  0.140562 -0.100402 -0.020080    576.000000
  0.100402 -0.060241  0.020080    576.000000
  0.020080  0.020080  0.180723    288.000000
  0.220884 -0.180723 -0.020080    576.000000
  0.180723 -0.140562  0.020080    576.000000
  0.140562 -0.100402  0.060241    576.000000
  0.020080  0.020080 -0.220884    288.000000
 -0.020080  0.060241 -0.180723    576.000000
  0.020080  0.020080 -0.140562    288.000000
  0.060241  0.060241  0.060241     96.000000
  0.020080  0.100402  0.100402    288.000000
  0.220884 -0.100402 -0.100402    288.000000
  0.180723 -0.060241 -0.060241    288.000000
  0.060241  0.060241  0.140562    288.000000
  0.261044 -0.140562 -0.060241    576.000000
  0.220884 -0.100402 -0.020080    576.000000
  0.060241  0.060241 -0.261044    288.000000
  0.100402  0.100402  0.100402     96.000000
  0.301205 -0.100402 -0.100402    288.000000
 


--------------------------------------------------------------------------------------------------------




 Dimension of arrays:
   k-points           NKPTS =     28   k-points in BZ     NKDIM =     28   number of bands    NBANDS=      9
   number of dos      NEDOS =    301   number of ions     NIONS =      1
   non local maximal  LDIM  =      6   non local SUM 2l+1 LMDIM =     18
   total plane-waves  NPLWV =   2744
   max r-space proj   IRMAX =      1   max aug-charges    IRDMAX=  10652
   dimension x,y,z NGX =    14 NGY =   14 NGZ =   14
   dimension x,y,z NGXF=    28 NGYF=   28 NGZF=   28
   support grid    NGXF=    28 NGYF=   28 NGZF=   28
   ions per type =               1
 NGX,Y,Z   is equivalent  to a cutoff of   7.93,  7.93,  7.93 a.u.
 NGXF,Y,Z  is equivalent  to a cutoff of  15.86, 15.86, 15.86 a.u.


 I would recommend the setting:
   dimension x,y,z NGX =    14 NGY =   14 NGZ =   14
 SYSTEM =  unknown system                          
 POSCAR =  Ta                                      

 Startparameter for this run:
   NWRITE =      2    write-flag & timer
   PREC   = accura    normal or accurate (medium, high low for compatibility)
   ISTART =      0    job   : 0-new  1-cont  2-samecut
   ICHARG =      2    charge: 1-file 2-atom 10-const
   ISPIN  =      2    spin polarized calculation?
   LNONCOLLINEAR =      F non collinear calculations
   LSORBIT =      F    spin-orbit coupling
   INIWAV =      1    electr: 0-lowe 1-rand  2-diag
   LASPH  =      F    aspherical Exc in radial PAW
   METAGGA=      F    non-selfconsistent MetaGGA calc.

 Electronic Relaxation 1
   ENCUT  =  200.0 eV  14.70 Ry    3.83 a.u.   3.38  3.38  3.38*2*pi/ulx,y,z
   ENINI  =  200.0     initial cutoff
   ENAUG  =  332.1 eV  augmentation charge cutoff
   NELM   =     60;   NELMIN=  2; NELMDL= -5     # of ELM steps 
   EDIFF  = 0.1E-03   stopping-criterion for ELM
   LREAL  =      F    real-space projection
   NLSPLINE    = F    spline interpolate recip. space projectors
   LCOMPAT=      F    compatible to vasp.4.4
   GGA_COMPAT  = T    GGA compatible to vasp.4.4-vasp.4.6
   LMAXPAW     = -100 max onsite density
   LMAXMIX     =    2 max onsite mixed and CHGCAR
   VOSKOWN=      0    Vosko Wilk Nusair interpolation
   ROPT   =    0.00000
 Ionic relaxation
   EDIFFG = 0.1E-02   stopping-criterion for IOM
   NSW    =      0    number of steps for IOM
   NBLOCK =      1;   KBLOCK =      1    inner block; outer block 
   IBRION =     -1    ionic relax: 0-MD 1-quasi-New 2-CG
   NFREE  =      0    steps in history (QN), initial steepest desc. (CG)
   ISIF   =      2    stress and relaxation
   IWAVPR =     10    prediction:  0-non 1-charg 2-wave 3-comb
   ISYM   =      2    0-nonsym 1-usesym 2-fastsym
   LCORR  =      T    Harris-Foulkes like correction to forces

   POTIM  = 0.5000    time-step for ionic-motion
   TEIN   =    0.0    initial temperature
   TEBEG  =    0.0;   TEEND  =   0.0 temperature during run
   SMASS  =  -3.00    Nose mass-parameter (am)
   estimated Nose-frequenzy (Omega)   =  0.10E-29 period in steps =****** mass=  -0.197E-27a.u.
   SCALEE = 1.0000    scale energy and forces
   NPACO  =    256;   APACO  = 16.0  distance and # of slots for P.C.
   PSTRESS=    0.0 pullay stress

  Mass of Ions in am
   POMASS = 180.95
  Ionic Valenz
   ZVAL   =   5.00
  Atomic Wigner-Seitz radii
   RWIGS  =  -1.00
  virtual crystal weights 
   VCA    =   1.00
   NELECT =       5.0000    total number of electrons
   NUPDOWN=      -1.0000    fix difference up-down

 DOS related values:
   EMIN   =  10.00;   EMAX   =-10.00  energy-range for DOS
   EFERMI =   0.00
   ISMEAR =     1;   SIGMA  =   0.05  broadening in eV -4-tet -1-fermi 0-gaus

 Electronic relaxation 2 (details)
   IALGO  =     38    algorithm
   LDIAG  =      T    sub-space diagonalisation (order eigenvalues)
   LSUBROT=      T    optimize rotation matrix (better conditioning)
   TURBO    =      0    0=normal 1=particle mesh
   IRESTART =      0    0=no restart 2=restart with 2 vectors
   NREBOOT  =      0    no. of reboots
   NMIN     =      0    reboot dimension
   EREF     =   0.00    reference energy to select bands
   IMIX   =      4    mixing-type and parameters
     AMIX     =   0.40;   BMIX     =  1.00
     AMIX_MAG =   1.60;   BMIX_MAG =  1.00
     AMIN     =   0.10
     WC   =   100.;   INIMIX=   1;  MIXPRE=   1

 Intra band minimization:
   WEIMIN = 0.0000     energy-eigenvalue tresh-hold
   EBREAK =  0.28E-05  absolut break condition
   DEPER  =   0.30     relativ break condition  

   TIME   =   0.40     timestep for ELM

  volume/ion in A,a.u.               =      17.87       120.58
  Fermi-wavevector in a.u.,A,eV,Ry     =   1.070788  2.023495 15.600256  1.146586
  Thomas-Fermi vector in A             =   2.206508
 
 Write flags
   LWAVE  =      T    write WAVECAR
   LCHARG =      T    write CHGCAR
   LVTOT  =      F    write LOCPOT, total local potential
   LVHAR  =      F    write LOCPOT, Hartree potential only
   LELF   =      F    write electronic localiz. function (ELF)
   LORBIT =     11    0 simple, 1 ext, 2 COOP (PROOUT)


 Dipole corrections
   LMONO  =      F    monopole corrections only (constant potential shift)
   LDIPOL =      F    correct potential (dipole corrections)
   IDIPOL =      0    1-x, 2-y, 3-z, 4-all directions 
   EPSILON=  1.0000000 bulk dielectric constant

 Exchange correlation treatment:
   GGA     =    --    GGA type
   LEXCH   =     8    internal setting for exchange type
   VOSKOWN=      0    Vosko Wilk Nusair interpolation
   LHFCALC =     F    Hartree Fock is set to
   LHFONE  =     F    Hartree Fock one center treatment
   AEXX    =    0.0000 exact exchange contribution

 Linear response parameters
   LEPSILON=     F    determine dielectric tensor
   LRPA    =     F    only Hartree local field effects (RPA)
   LNABLA  =     F    use nabla operator in PAW spheres
   LVEL    =     F    velocity operator in full k-point grid
   LINTERFAST=   F  fast interpolation
   KINTER  =     0    interpolate to denser k-point grid
   CSHIFT  =0.1000    complex shift for real part using Kramers Kronig
   OMEGAMAX=  -1.0    maximum frequency
   RTIME   =    0.100 relaxation time in fs

 Orbital magnetization related:
   ORBITALMAG=     F  switch on orbital magnetization
   LCHIMAG   =     F  perturbation theory with respect to B field
   DQ        =  0.001000  dq finite difference perturbation B field



--------------------------------------------------------------------------------------------------------


 Static calculation
 charge density and potential will be updated during run
 spin polarized calculation
 Variant of blocked Davidson
 Davidson routine will perform the subspace rotation
 perform sub-space diagonalisation
    after iterative eigenvector-optimisation
 modified Broyden-mixing scheme, WC =      100.0
 initial mixing is a Kerker type mixing with AMIX =  0.4000 and BMIX =      1.0000
 Hartree-type preconditioning will be used
 using additional bands            6
 reciprocal scheme for non local part
 use partial core corrections
 calculate Harris-corrections to forces 
   (improved forces if not selfconsistent)
 use gradient corrections 
 use of overlap-Matrix (Vanderbilt PP)
 Methfessel and Paxton  Order N= 1 SIGMA  =   0.05


--------------------------------------------------------------------------------------------------------


  energy-cutoff  :      200.00
  volume of cell :       17.87
      direct lattice vectors                 reciprocal lattice vectors
     0.000000000  2.075000000  2.075000000    -0.240963855  0.240963855  0.240963855
     2.075000000  0.000000000  2.075000000     0.240963855 -0.240963855  0.240963855
     2.075000000  2.075000000  0.000000000     0.240963855  0.240963855 -0.240963855

  length of vectors
     2.934493142  2.934493142  2.934493142     0.417361640  0.417361640  0.417361640


 
 k-points in units of 2pi/SCALE and weight: KPOINTS created by Atomic Simulation Env
   0.02008032  0.02008032  0.02008032       0.009
  -0.02008032  0.06024096  0.06024096       0.028
  -0.06024096  0.10040161  0.10040161       0.028
   0.14056225 -0.10040161 -0.10040161       0.028
   0.10040161 -0.06024096 -0.06024096       0.028
   0.06024096 -0.02008032 -0.02008032       0.028
   0.02008032  0.02008032  0.10040161       0.028
  -0.02008032  0.06024096  0.14056225       0.056
   0.18072289 -0.14056225 -0.06024096       0.056
   0.14056225 -0.10040161 -0.02008032       0.056
   0.10040161 -0.06024096  0.02008032       0.056
   0.02008032  0.02008032  0.18072289       0.028
   0.22088353 -0.18072289 -0.02008032       0.056
   0.18072289 -0.14056225  0.02008032       0.056
   0.14056225 -0.10040161  0.06024096       0.056
   0.02008032  0.02008032 -0.22088353       0.028
  -0.02008032  0.06024096 -0.18072289       0.056
   0.02008032  0.02008032 -0.14056225       0.028
   0.06024096  0.06024096  0.06024096       0.009
   0.02008032  0.10040161  0.10040161       0.028
   0.22088353 -0.10040161 -0.10040161       0.028
   0.18072289 -0.06024096 -0.06024096       0.028
   0.06024096  0.06024096  0.14056225       0.028
   0.26104418 -0.14056225 -0.06024096       0.056
   0.22088353 -0.10040161 -0.02008032       0.056
   0.06024096  0.06024096 -0.26104418       0.028
   0.10040161  0.10040161  0.10040161       0.009
   0.30120482 -0.10040161 -0.10040161       0.028
 
 k-points in reciprocal lattice and weights: KPOINTS created by Atomic Simulation Env
   0.08333333  0.08333333  0.08333333       0.009
   0.25000000  0.08333333  0.08333333       0.028
   0.41666667  0.08333333  0.08333333       0.028
  -0.41666667  0.08333333  0.08333333       0.028
  -0.25000000  0.08333333  0.08333333       0.028
  -0.08333333  0.08333333  0.08333333       0.028
   0.25000000  0.25000000  0.08333333       0.028
   0.41666667  0.25000000  0.08333333       0.056
  -0.41666667  0.25000000  0.08333333       0.056
  -0.25000000  0.25000000  0.08333333       0.056
  -0.08333333  0.25000000  0.08333333       0.056
   0.41666667  0.41666667  0.08333333       0.028
  -0.41666667  0.41666667  0.08333333       0.056
  -0.25000000  0.41666667  0.08333333       0.056
  -0.08333333  0.41666667  0.08333333       0.056
  -0.41666667 -0.41666667  0.08333333       0.028
  -0.25000000 -0.41666667  0.08333333       0.056
  -0.25000000 -0.25000000  0.08333333       0.028
   0.25000000  0.25000000  0.25000000       0.009
   0.41666667  0.25000000  0.25000000       0.028
  -0.41666667  0.25000000  0.25000000       0.028
  -0.25000000  0.25000000  0.25000000       0.028
   0.41666667  0.41666667  0.25000000       0.028
  -0.41666667  0.41666667  0.25000000       0.056
  -0.25000000  0.41666667  0.25000000       0.056
  -0.41666667 -0.41666667  0.25000000       0.028
   0.41666667  0.41666667  0.41666667       0.009
  -0.41666667  0.41666667  0.41666667       0.028
 
 position of ions in fractional coordinates (direct lattice) 
   0.00000000  0.00000000  0.00000000
 
 position of ions in cartesian coordinates  (Angst):
   0.00000000  0.00000000  0.00000000
 


--------------------------------------------------------------------------------------------------------


 k-point  1 :  0.08330.08330.0833  plane waves:     116
 k-point  2 :  0.25000.08330.0833  plane waves:     119
 k-point  3 :  0.41670.08330.0833  plane waves:     115
 k-point  4 :  -.41670.08330.0833  plane waves:     114
 k-point  5 :  -.25000.08330.0833  plane waves:     113
 k-point  6 :  -.08330.08330.0833  plane waves:     121
 k-point  7 :  0.25000.25000.0833  plane waves:     120
 k-point  8 :  0.41670.25000.0833  plane waves:     116
 k-point  9 :  -.41670.25000.0833  plane waves:     115
 k-point 10 :  -.25000.25000.0833  plane waves:     116
 k-point 11 :  -.08330.25000.0833  plane waves:     118
 k-point 12 :  0.41670.41670.0833  plane waves:     114
 k-point 13 :  -.41670.41670.0833  plane waves:     110
 k-point 14 :  -.25000.41670.0833  plane waves:     112
 k-point 15 :  -.08330.41670.0833  plane waves:     115
 k-point 16 :  -.4167-.41670.0833  plane waves:     115
 k-point 17 :  -.2500-.41670.0833  plane waves:     113
 k-point 18 :  -.2500-.25000.0833  plane waves:     118
 k-point 19 :  0.25000.25000.2500  plane waves:     117
 k-point 20 :  0.41670.25000.2500  plane waves:     117
 k-point 21 :  -.41670.25000.2500  plane waves:     115
 k-point 22 :  -.25000.25000.2500  plane waves:     113
 k-point 23 :  0.41670.41670.2500  plane waves:     113
 k-point 24 :  -.41670.41670.2500  plane waves:     112
 k-point 25 :  -.25000.41670.2500  plane waves:     111
 k-point 26 :  -.4167-.41670.2500  plane waves:     112
 k-point 27 :  0.41670.41670.4167  plane waves:     114
 k-point 28 :  -.41670.41670.4167  plane waves:     113

 maximum and minimum number of plane-waves per node :       121      110

 maximum number of plane-waves:       121
 maximum index in each direction: 
   IXMAX=    3   IYMAX=    3   IZMAX=    3
   IXMIN=   -3   IYMIN=   -3   IZMIN=   -3

 NGX is ok and might be reduce to  14
 NGY is ok and might be reduce to  14
 NGZ is ok and might be reduce to  14

 serial   3D FFT for wavefunctions
 parallel 3D FFT for charge:
    minimum data exchange during FFTs selected (reduces bandwidth)


 total amount of memory used by VASP on root node    34334. kBytes
========================================================================

   base      :      30000. kBytes
   nonl-proj :        489. kBytes
   fftplans  :        800. kBytes
   grid      :       1894. kBytes
   one-center:         31. kBytes
   wavefun   :       1120. kBytes
 
 Broyden mixing: mesh for mixing (old mesh)
   NGX =  7   NGY =  7   NGZ =  7
  (NGX  = 28   NGY  = 28   NGZ  = 28)
  gives a total of    343 points

 initial charge density was supplied:
 charge density of overlapping atoms calculated
 number of electron       5.0000000 magnetization       6.0000000
 keeping initial charge density in first step


--------------------------------------------------------------------------------------------------------


 Maximum index for augmentation-charges        10149 (set IRDMAX)


--------------------------------------------------------------------------------------------------------


 First call to EWALD:  gamma=   0.678
 Maximum number of real-space cells 3x 3x 3
 Maximum number of reciprocal cells 3x 3x 3

    FEWALD:  cpu time    0.00: real time    0.00


----------------------------------------- Iteration    1(   1)  ---------------------------------------


    POTLOK:  cpu time    0.07: real time    0.07
    SETDIJ:  cpu time    0.02: real time    0.02
     EDDAV:  cpu time    0.61: real time    0.61
       DOS:  cpu time    0.00: real time    0.00
    --------------------------------------------
      LOOP:  cpu time    0.71: real time    0.72

 eigenvalue-minimisations  :  1201
 total energy-change (2. order) : 0.2480096E+01  (-0.1423473E+03)
 number of electron       5.0000000 magnetization       6.0000000
 augmentation part        5.0000000 magnetization       6.0000000

 Free energy of the ion-electron system (eV)
  ---------------------------------------------------
  alpha Z        PSCENC =        31.03520437
  Ewald energy   TEWEN  =      -198.85854833
  -1/2 Hartree   DENC   =        -2.45820869
  -exchange  EXHF       =         0.00000000
  -V(xc)+E(xc)   XCENC  =       -60.68692257
  PAW double counting   =       143.51874798      -69.33493833
  entropy T*S    EENTRO =        -0.00077007
  eigenvalues    EBANDS =        28.68603089
  atomic energy  EATOM  =       130.57950032
  ---------------------------------------------------
  free energy    TOTEN  =         2.48009556 eV

  energy without entropy =        2.48086563  energy(sigma->0) =        2.48035225


--------------------------------------------------------------------------------------------------------




----------------------------------------- Iteration    1(   2)  ---------------------------------------


     EDDAV:  cpu time    0.67: real time    0.67
       DOS:  cpu time    0.00: real time    0.00
    --------------------------------------------
      LOOP:  cpu time    0.67: real time    0.69

 eigenvalue-minimisations  :  1301
 total energy-change (2. order) :-0.4395555E+01  (-0.4096164E+01)
 number of electron       5.0000000 magnetization       6.0000000
 augmentation part        5.0000000 magnetization       6.0000000

 Free energy of the ion-electron system (eV)
  ---------------------------------------------------
  alpha Z        PSCENC =        31.03520437
  Ewald energy   TEWEN  =      -198.85854833
  -1/2 Hartree   DENC   =        -2.45820869
  -exchange  EXHF       =         0.00000000
  -V(xc)+E(xc)   XCENC  =       -60.68692257
  PAW double counting   =       143.51874798      -69.33493833
  entropy T*S    EENTRO =        -0.00001395
  eigenvalues    EBANDS =        24.28972023
  atomic energy  EATOM  =       130.57950032
  ---------------------------------------------------
  free energy    TOTEN  =        -1.91545899 eV

  energy without entropy =       -1.91544504  energy(sigma->0) =       -1.91545434


--------------------------------------------------------------------------------------------------------




----------------------------------------- Iteration    1(   3)  ---------------------------------------


     EDDAV:  cpu time    0.67: real time    0.67
       DOS:  cpu time    0.00: real time    0.00
    --------------------------------------------
      LOOP:  cpu time    0.68: real time    0.71

 eigenvalue-minimisations  :  1276
 total energy-change (2. order) :-0.2625044E-01  (-0.2559331E-01)
 number of electron       5.0000000 magnetization       6.0000000
 augmentation part        5.0000000 magnetization       6.0000000

 Free energy of the ion-electron system (eV)
  ---------------------------------------------------
  alpha Z        PSCENC =        31.03520437
  Ewald energy   TEWEN  =      -198.85854833
  -1/2 Hartree   DENC   =        -2.45820869
  -exchange  EXHF       =         0.00000000
  -V(xc)+E(xc)   XCENC  =       -60.68692257
  PAW double counting   =       143.51874798      -69.33493833
  entropy T*S    EENTRO =        -0.00011171
  eigenvalues    EBANDS =        24.26356754
  atomic energy  EATOM  =       130.57950032
  ---------------------------------------------------
  free energy    TOTEN  =        -1.94170944 eV

  energy without entropy =       -1.94159773  energy(sigma->0) =       -1.94167220


--------------------------------------------------------------------------------------------------------




----------------------------------------- Iteration    1(   4)  ---------------------------------------


     EDDAV:  cpu time    0.71: real time    0.71
       DOS:  cpu time    0.00: real time    0.00
    --------------------------------------------
      LOOP:  cpu time    0.71: real time    0.73

 eigenvalue-minimisations  :  1305
 total energy-change (2. order) :-0.2423221E-04  (-0.2422994E-04)
 number of electron       5.0000000 magnetization       6.0000000
 augmentation part        5.0000000 magnetization       6.0000000

 Free energy of the ion-electron system (eV)
  ---------------------------------------------------
  alpha Z        PSCENC =        31.03520437
  Ewald energy   TEWEN  =      -198.85854833
  -1/2 Hartree   DENC   =        -2.45820869
  -exchange  EXHF       =         0.00000000
  -V(xc)+E(xc)   XCENC  =       -60.68692257
  PAW double counting   =       143.51874798      -69.33493833
  entropy T*S    EENTRO =        -0.00011172
  eigenvalues    EBANDS =        24.26354332
  atomic energy  EATOM  =       130.57950032
  ---------------------------------------------------
  free energy    TOTEN  =        -1.94173367 eV

  energy without entropy =       -1.94162195  energy(sigma->0) =       -1.94169643


--------------------------------------------------------------------------------------------------------




----------------------------------------- Iteration    1(   5)  ---------------------------------------


     EDDAV:  cpu time    0.67: real time    0.67
       DOS:  cpu time    0.00: real time    0.00
    CHARGE:  cpu time    0.04: real time    0.04
    MIXING:  cpu time    0.00: real time    0.00
    --------------------------------------------
      LOOP:  cpu time    0.72: real time    0.74

 eigenvalue-minimisations  :  1221
 total energy-change (2. order) :-0.2914277E-07  (-0.2867295E-07)
 number of electron       4.9999998 magnetization       2.0928689
 augmentation part        0.4467674 magnetization      -0.7893546

 Broyden mixing:
  rms(total) = 0.76035E+00    rms(broyden)= 0.76010E+00
  rms(prec ) = 0.99025E+00
  weight for this iteration     100.00

 Free energy of the ion-electron system (eV)
  ---------------------------------------------------
  alpha Z        PSCENC =        31.03520437
  Ewald energy   TEWEN  =      -198.85854833
  -1/2 Hartree   DENC   =        -2.45820869
  -exchange  EXHF       =         0.00000000
  -V(xc)+E(xc)   XCENC  =       -60.68692257
  PAW double counting   =       143.51874798      -69.33493833
  entropy T*S    EENTRO =        -0.00011172
  eigenvalues    EBANDS =        24.26354329
  atomic energy  EATOM  =       130.57950032
  ---------------------------------------------------
  free energy    TOTEN  =        -1.94173370 eV

  energy without entropy =       -1.94162198  energy(sigma->0) =       -1.94169646


--------------------------------------------------------------------------------------------------------




----------------------------------------- Iteration    1(   6)  ---------------------------------------


    POTLOK:  cpu time    0.07: real time    0.07
    SETDIJ:  cpu time    0.02: real time    0.02
     EDDAV:  cpu time    0.60: real time    0.60
       DOS:  cpu time    0.00: real time    0.00
    CHARGE:  cpu time    0.04: real time    0.04
    MIXING:  cpu time    0.00: real time    0.00
    --------------------------------------------
      LOOP:  cpu time    0.75: real time    0.76

 eigenvalue-minimisations  :  1127
 total energy-change (2. order) :-0.9375635E+01  (-0.2686279E+00)
 number of electron       4.9999998 magnetization       1.6881183
 augmentation part        0.3689142 magnetization       0.8523271

 Broyden mixing:
  rms(total) = 0.38882E+00    rms(broyden)= 0.38858E+00
  rms(prec ) = 0.10962E+01
  weight for this iteration     100.00

 eigenvalues of (default mixing * dielectric matrix)
  average eigenvalue GAMMA=   1.4215
  1.4215

 Free energy of the ion-electron system (eV)
  ---------------------------------------------------
  alpha Z        PSCENC =        31.03520437
  Ewald energy   TEWEN  =      -198.85854833
  -1/2 Hartree   DENC   =        -1.93563443
  -exchange  EXHF       =         0.00000000
  -V(xc)+E(xc)   XCENC  =       -66.06053347
  PAW double counting   =       164.73194247      -90.81271458
  entropy T*S    EENTRO =         0.00012546
  eigenvalues    EBANDS =        20.00328917
  atomic energy  EATOM  =       130.57950032
  ---------------------------------------------------
  free energy    TOTEN  =       -11.31736903 eV

  energy without entropy =      -11.31749450  energy(sigma->0) =      -11.31741085


--------------------------------------------------------------------------------------------------------




----------------------------------------- Iteration    1(   7)  ---------------------------------------


    POTLOK:  cpu time    0.07: real time    0.07
    SETDIJ:  cpu time    0.02: real time    0.02
     EDDAV:  cpu time    0.65: real time    0.66
       DOS:  cpu time    0.00: real time    0.00
    CHARGE:  cpu time    0.04: real time    0.04
    MIXING:  cpu time    0.00: real time    0.00
    --------------------------------------------
      LOOP:  cpu time    0.80: real time    0.83

 eigenvalue-minimisations  :  1246
 total energy-change (2. order) :-0.1498145E+00  (-0.5453080E-02)
 number of electron       4.9999998 magnetization      -0.7676260
 augmentation part        0.3680295 magnetization      -1.3769500

 Broyden mixing:
  rms(total) = 0.34136E+00    rms(broyden)= 0.34134E+00
  rms(prec ) = 0.99793E+00
  weight for this iteration     100.00

 eigenvalues of (default mixing * dielectric matrix)
  average eigenvalue GAMMA=   1.0881
  1.5598  0.6163

 Free energy of the ion-electron system (eV)
  ---------------------------------------------------
  alpha Z        PSCENC =        31.03520437
  Ewald energy   TEWEN  =      -198.85854833
  -1/2 Hartree   DENC   =        -1.74304062
  -exchange  EXHF       =         0.00000000
  -V(xc)+E(xc)   XCENC  =       -66.16815263
  PAW double counting   =       168.42355098      -94.56801304
  entropy T*S    EENTRO =         0.00016902
  eigenvalues    EBANDS =        19.83214644
  atomic energy  EATOM  =       130.57950032
  ---------------------------------------------------
  free energy    TOTEN  =       -11.46718349 eV

  energy without entropy =      -11.46735251  energy(sigma->0) =      -11.46723983


--------------------------------------------------------------------------------------------------------




----------------------------------------- Iteration    1(   8)  ---------------------------------------


    POTLOK:  cpu time    0.07: real time    0.07
    SETDIJ:  cpu time    0.03: real time    0.03
     EDDAV:  cpu time    0.59: real time    0.59
       DOS:  cpu time    0.00: real time    0.00
    CHARGE:  cpu time    0.04: real time    0.04
    MIXING:  cpu time    0.00: real time    0.00
    --------------------------------------------
      LOOP:  cpu time    0.74: real time    0.76

 eigenvalue-minimisations  :  1104
 total energy-change (2. order) : 0.2524396E+00  (-0.1746507E+00)
 number of electron       4.9999998 magnetization      -0.2943342
 augmentation part        0.3957993 magnetization       0.0061091

 Broyden mixing:
  rms(total) = 0.25103E+00    rms(broyden)= 0.25100E+00
  rms(prec ) = 0.25388E+00
  weight for this iteration     100.00

 eigenvalues of (default mixing * dielectric matrix)
  average eigenvalue GAMMA=   1.0850
  1.3362  1.3362  0.5828

 Free energy of the ion-electron system (eV)
  ---------------------------------------------------
  alpha Z        PSCENC =        31.03520437
  Ewald energy   TEWEN  =      -198.85854833
  -1/2 Hartree   DENC   =        -0.62374853
  -exchange  EXHF       =         0.00000000
  -V(xc)+E(xc)   XCENC  =       -65.74664103
  PAW double counting   =       186.87432956     -113.46135277
  entropy T*S    EENTRO =         0.00006469
  eigenvalues    EBANDS =        18.98644785
  atomic energy  EATOM  =       130.57950032
  ---------------------------------------------------
  free energy    TOTEN  =       -11.21474389 eV

  energy without entropy =      -11.21480858  energy(sigma->0) =      -11.21476545


--------------------------------------------------------------------------------------------------------




----------------------------------------- Iteration    1(   9)  ---------------------------------------


    POTLOK:  cpu time    0.07: real time    0.07
    SETDIJ:  cpu time    0.02: real time    0.02
     EDDAV:  cpu time    0.57: real time    0.57
       DOS:  cpu time    0.00: real time    0.00
    CHARGE:  cpu time    0.04: real time    0.04
    MIXING:  cpu time    0.00: real time    0.00
    --------------------------------------------
      LOOP:  cpu time    0.71: real time    0.72

 eigenvalue-minimisations  :  1042
 total energy-change (2. order) :-0.3508892E+00  (-0.2522575E-01)
 number of electron       4.9999998 magnetization       0.0223007
 augmentation part        0.3936536 magnetization       0.1415726

 Broyden mixing:
  rms(total) = 0.76393E-01    rms(broyden)= 0.76387E-01
  rms(prec ) = 0.10174E+00
  weight for this iteration     100.00

 eigenvalues of (default mixing * dielectric matrix)
  average eigenvalue GAMMA=   1.0511
  1.3602  1.3602  0.7419  0.7419

 Free energy of the ion-electron system (eV)
  ---------------------------------------------------
  alpha Z        PSCENC =        31.03520437
  Ewald energy   TEWEN  =      -198.85854833
  -1/2 Hartree   DENC   =        -0.63201798
  -exchange  EXHF       =         0.00000000
  -V(xc)+E(xc)   XCENC  =       -65.93118263
  PAW double counting   =       188.36170381     -114.95439655
  entropy T*S    EENTRO =         0.00006724
  eigenvalues    EBANDS =        18.83403664
  atomic energy  EATOM  =       130.57950032
  ---------------------------------------------------
  free energy    TOTEN  =       -11.56563311 eV

  energy without entropy =      -11.56570035  energy(sigma->0) =      -11.56565552


--------------------------------------------------------------------------------------------------------




----------------------------------------- Iteration    1(  10)  ---------------------------------------


    POTLOK:  cpu time    0.07: real time    0.07
    SETDIJ:  cpu time    0.02: real time    0.02
     EDDAV:  cpu time    0.59: real time    0.59
       DOS:  cpu time    0.00: real time    0.00
    CHARGE:  cpu time    0.04: real time    0.04
    MIXING:  cpu time    0.00: real time    0.00
    --------------------------------------------
      LOOP:  cpu time    0.73: real time    0.74

 eigenvalue-minimisations  :  1108
 total energy-change (2. order) :-0.3996380E-01  (-0.7023054E-02)
 number of electron       4.9999998 magnetization       0.0025521
 augmentation part        0.3939180 magnetization       0.0001116

 Broyden mixing:
  rms(total) = 0.18760E-01    rms(broyden)= 0.18750E-01
  rms(prec ) = 0.43624E-01
  weight for this iteration     100.00

 eigenvalues of (default mixing * dielectric matrix)
  average eigenvalue GAMMA=   1.2127
  1.7948  1.7948  0.9773  0.8242  0.6723

 Free energy of the ion-electron system (eV)
  ---------------------------------------------------
  alpha Z        PSCENC =        31.03520437
  Ewald energy   TEWEN  =      -198.85854833
  -1/2 Hartree   DENC   =        -0.61384328
  -exchange  EXHF       =         0.00000000
  -V(xc)+E(xc)   XCENC  =       -65.92976284
  PAW double counting   =       191.45170737     -118.07866964
  entropy T*S    EENTRO =        -0.00081789
  eigenvalues    EBANDS =        18.80963303
  atomic energy  EATOM  =       130.57950032
  ---------------------------------------------------
  free energy    TOTEN  =       -11.60559691 eV

  energy without entropy =      -11.60477902  energy(sigma->0) =      -11.60532428


--------------------------------------------------------------------------------------------------------




----------------------------------------- Iteration    1(  11)  ---------------------------------------


    POTLOK:  cpu time    0.07: real time    0.07
    SETDIJ:  cpu time    0.02: real time    0.02
     EDDAV:  cpu time    0.63: real time    0.63
       DOS:  cpu time    0.00: real time    0.00
    CHARGE:  cpu time    0.04: real time    0.05
    MIXING:  cpu time    0.00: real time    0.00
    --------------------------------------------
      LOOP:  cpu time    0.78: real time    0.79

 eigenvalue-minimisations  :  1183
 total energy-change (2. order) :-0.1199808E-03  (-0.2832031E-03)
 number of electron       4.9999998 magnetization       0.0231926
 augmentation part        0.3956279 magnetization       0.0112763

 Broyden mixing:
  rms(total) = 0.60300E-02    rms(broyden)= 0.60235E-02
  rms(prec ) = 0.97488E-02
  weight for this iteration     100.00

 eigenvalues of (default mixing * dielectric matrix)
  average eigenvalue GAMMA=   1.1486
  1.8459  1.8459  0.8948  0.8948  0.7587  0.6512

 Free energy of the ion-electron system (eV)
  ---------------------------------------------------
  alpha Z        PSCENC =        31.03520437
  Ewald energy   TEWEN  =      -198.85854833
  -1/2 Hartree   DENC   =        -0.58104421
  -exchange  EXHF       =         0.00000000
  -V(xc)+E(xc)   XCENC  =       -65.90289248
  PAW double counting   =       194.25975485     -120.91904938
  entropy T*S    EENTRO =        -0.00085868
  eigenvalues    EBANDS =        18.78221666
  atomic energy  EATOM  =       130.57950032
  ---------------------------------------------------
  free energy    TOTEN  =       -11.60571689 eV

  energy without entropy =      -11.60485821  energy(sigma->0) =      -11.60543066


--------------------------------------------------------------------------------------------------------




----------------------------------------- Iteration    1(  12)  ---------------------------------------


    POTLOK:  cpu time    0.07: real time    0.07
    SETDIJ:  cpu time    0.02: real time    0.02
     EDDAV:  cpu time    0.58: real time    0.58
       DOS:  cpu time    0.00: real time    0.00
    CHARGE:  cpu time    0.05: real time    0.05
    MIXING:  cpu time    0.00: real time    0.00
    --------------------------------------------
      LOOP:  cpu time    0.72: real time    0.74

 eigenvalue-minimisations  :  1037
 total energy-change (2. order) :-0.1010947E-03  (-0.2369112E-04)
 number of electron       4.9999998 magnetization       0.0235470
 augmentation part        0.3953609 magnetization       0.0033426

 Broyden mixing:
  rms(total) = 0.18939E-02    rms(broyden)= 0.18912E-02
  rms(prec ) = 0.42609E-02
  weight for this iteration     100.00

 eigenvalues of (default mixing * dielectric matrix)
  average eigenvalue GAMMA=   1.1979
  1.9157  1.9157  1.3405  1.0386  0.7708  0.7708  0.6332

 Free energy of the ion-electron system (eV)
  ---------------------------------------------------
  alpha Z        PSCENC =        31.03520437
  Ewald energy   TEWEN  =      -198.85854833
  -1/2 Hartree   DENC   =        -0.58903386
  -exchange  EXHF       =         0.00000000
  -V(xc)+E(xc)   XCENC  =       -65.90853681
  PAW double counting   =       194.88054381     -121.54101854
  entropy T*S    EENTRO =        -0.00081289
  eigenvalues    EBANDS =        18.79688396
  atomic energy  EATOM  =       130.57950032
  ---------------------------------------------------
  free energy    TOTEN  =       -11.60581798 eV

  energy without entropy =      -11.60500509  energy(sigma->0) =      -11.60554702


--------------------------------------------------------------------------------------------------------




----------------------------------------- Iteration    1(  13)  ---------------------------------------


    POTLOK:  cpu time    0.07: real time    0.07
    SETDIJ:  cpu time    0.02: real time    0.02
     EDDAV:  cpu time    0.38: real time    0.38
       DOS:  cpu time    0.00: real time    0.00
    --------------------------------------------
      LOOP:  cpu time    0.48: real time    0.49

 eigenvalue-minimisations  :   527
 total energy-change (2. order) :-0.2111044E-05  (-0.2184482E-05)
 number of electron       4.9999998 magnetization       0.0235470
 augmentation part        0.3953609 magnetization       0.0033426

 Free energy of the ion-electron system (eV)
  ---------------------------------------------------
  alpha Z        PSCENC =        31.03520437
  Ewald energy   TEWEN  =      -198.85854833
  -1/2 Hartree   DENC   =        -0.58743599
  -exchange  EXHF       =         0.00000000
  -V(xc)+E(xc)   XCENC  =       -65.90662992
  PAW double counting   =       195.69086775     -122.35720047
  entropy T*S    EENTRO =        -0.00080824
  eigenvalues    EBANDS =        18.79923041
  atomic energy  EATOM  =       130.57950032
  ---------------------------------------------------
  free energy    TOTEN  =       -11.60582009 eV

  energy without entropy =      -11.60501185  energy(sigma->0) =      -11.60555068


--------------------------------------------------------------------------------------------------------




 average (electrostatic) potential at core
  the test charge radii are     1.2538
  (the norm of the test charge is              1.0000)
       1 -34.9008
 
 
 
 E-fermi :   6.1409     XC(G=0): -12.4494     alpha+bet :-13.7030


 spin component 1

 k-point   1 :       0.0833    0.0833    0.0833
  band No.  band energies     occupation 
      1      -1.8288      1.00000
      2       6.3986      0.00000
      3       6.8018      0.00000
      4       6.8018      0.00000
      5       9.7185      0.00000
      6       9.7185      0.00000
      7      19.4186      0.00000
      8      19.9646      0.00000
      9      22.6246      0.00000

 k-point   2 :       0.2500    0.0833    0.0833
  band No.  band energies     occupation 
      1      -0.4525      1.00000
      2       5.5060      1.00000
      3       7.0732      0.00000
      4       7.3427      0.00000
      5       8.8792      0.00000
      6      10.2488      0.00000
      7      19.9612      0.00000
      8      20.3593      0.00000
      9      22.2124      0.00000

 k-point   3 :       0.4167    0.0833    0.0833
  band No.  band energies     occupation 
      1       1.3839      1.00000
      2       5.6949      1.00000
      3       6.4242      0.00000
      4       6.8734      0.00000
      5      10.5628      0.00000
      6      12.1734      0.00000
      7      17.9528      0.00000
      8      19.9685      0.00000
      9      20.9675      0.00000

 k-point   4 :      -0.4167    0.0833    0.0833
  band No.  band energies     occupation 
      1       1.6500      1.00000
      2       5.8902      1.00000
      3       6.6607      0.00000
      4       6.8825      0.00000
      5      12.3943      0.00000
      6      12.5777      0.00000
      7      16.7460      0.00000
      8      19.1069      0.00000
      9      19.9748      0.00000

 k-point   5 :      -0.2500    0.0833    0.0833
  band No.  band energies     occupation 
      1       0.9281      1.00000
      2       5.2695      1.00000
      3       6.6283      0.00000
      4       7.1714      0.00000
      5      10.1235      0.00000
      6      11.1903      0.00000
      7      18.6607      0.00000
      8      19.9710      0.00000
      9      22.5448      0.00000

 k-point   6 :      -0.0833    0.0833    0.0833
  band No.  band energies     occupation 
      1      -1.1008      1.00000
      2       5.7550      1.00000
      3       7.1502      0.00000
      4       7.1857      0.00000
      5       8.8695      0.00000
      6      10.0671      0.00000
      7      19.9646      0.00000
      8      20.7841      0.00000
      9      21.8312      0.00000

 k-point   7 :       0.2500    0.2500    0.0833
  band No.  band energies     occupation 
      1       0.1781      1.00000
      2       4.7840      1.00000
      3       7.1155      0.00000
      4       7.9762      0.00000
      5       8.5641      0.00000
      6      10.7101      0.00000
      7      19.9668      0.00000
      8      21.7164      0.00000
      9      23.4124      0.00000

 k-point   8 :       0.4167    0.2500    0.0833
  band No.  band energies     occupation 
      1       1.9687      1.00000
      2       4.2359      1.00000
      3       5.8102      1.00000
      4       8.6158      0.00000
      5      10.0915      0.00000
      6      12.4884      0.00000
      7      19.7856      0.00000
      8      20.0177      0.00000
      9      22.9491      0.00000

 k-point   9 :      -0.4167    0.2500    0.0833
  band No.  band energies     occupation 
      1       2.9066      1.00000
      2       4.4194      1.00000
      3       5.9713      1.00001
      4       7.9597      0.00000
      5      11.9122      0.00000
      6      14.4623      0.00000
      7      15.8409      0.00000
      8      19.9738      0.00000
      9      21.7512      0.00000

 k-point  10 :      -0.2500    0.2500    0.0833
  band No.  band energies     occupation 
      1       2.7028      1.00000
      2       4.8197      1.00000
      3       5.2119      1.00000
      4       8.1027      0.00000
      5      10.0854      0.00000
      6      13.6982      0.00000
      7      18.4725      0.00000
      8      19.9776      0.00000
      9      22.3639      0.00000

 k-point  11 :      -0.0833    0.2500    0.0833
  band No.  band energies     occupation 
      1       0.7042      1.00000
      2       4.9177      1.00000
      3       6.6093      0.00000
      4       7.8149      0.00000
      5       8.9194      0.00000
      6      11.2851      0.00000
      7      19.9560      0.00000
      8      20.2796      0.00000
      9      23.6503      0.00000

 k-point  12 :       0.4167    0.4167    0.0833
  band No.  band energies     occupation 
      1       1.8911      1.00000
      2       3.1740      1.00000
      3       7.1924      0.00000
      4      10.5228      0.00000
      5      11.6545      0.00000
      6      12.3311      0.00000
      7      19.2767      0.00000
      8      19.9774      0.00000
      9      20.6583      0.00000

 k-point  13 :      -0.4167    0.4167    0.0833
  band No.  band energies     occupation 
      1       2.3318      1.00000
      2       3.3574      1.00000
      3       7.1980      0.00000
      4      10.2933      0.00000
      5      12.6623      0.00000
      6      14.9971      0.00000
      7      16.0746      0.00000
      8      19.1400      0.00000
      9      19.9761      0.00000

 k-point  14 :      -0.2500    0.4167    0.0833
  band No.  band energies     occupation 
      1       3.4690      1.00000
      2       4.0761      1.00000
      3       5.6997      1.00000
      4       8.6745      0.00000
      5      11.5409      0.00000
      6      14.0858      0.00000
      7      17.5424      0.00000
      8      19.9682      0.00000
      9      20.4830      0.00000

 k-point  15 :      -0.0833    0.4167    0.0833
  band No.  band energies     occupation 
      1       2.0719      1.00000
      2       5.3029      1.00000
      3       6.1361      0.57968
      4       7.2101      0.00000
      5      11.4381      0.00000
      6      13.2345      0.00000
      7      17.1808      0.00000
      8      19.9739      0.00000
      9      20.5395      0.00000

 k-point  16 :      -0.4167   -0.4167    0.0833
  band No.  band energies     occupation 
      1       1.7404      1.00000
      2       2.8092      1.00000
      3       8.5742      0.00000
      4      11.6597      0.00000
      5      12.8760      0.00000
      6      13.4437      0.00000
      7      17.0382      0.00000
      8      18.6934      0.00000
      9      19.9351      0.00000

 k-point  17 :      -0.2500   -0.4167    0.0833
  band No.  band energies     occupation 
      1       2.4816      1.00000
      2       3.6647      1.00000
      3       6.1048      0.96739
      4       9.6800      0.00000
      5      11.6335      0.00000
      6      13.6157      0.00000
      7      17.7742      0.00000
      8      19.9750      0.00000
      9      20.8802      0.00000

 k-point  18 :      -0.2500   -0.2500    0.0833
  band No.  band energies     occupation 
      1       1.4721      1.00000
      2       3.8624      1.00000
      3       6.4585      0.00000
      4       9.1241      0.00000
      5       9.8565      0.00000
      6      11.5470      0.00000
      7      19.9663      0.00000
      8      21.6892      0.00000
      9      23.2694      0.00000

 k-point  19 :       0.2500    0.2500    0.2500
  band No.  band energies     occupation 
      1       0.0403      1.00000
      2       5.4713      1.00000
      3       7.0792      0.00000
      4       7.0792      0.00000
      5       9.9103      0.00000
      6       9.9103      0.00000
      7      18.9509      0.00000
      8      19.9696      0.00000
      9      22.9753      0.00000

 k-point  20 :       0.4167    0.2500    0.2500
  band No.  band energies     occupation 
      1       1.6249      1.00000
      2       5.0062      1.00000
      3       6.0555      1.01820
      4       7.6843      0.00000
      5       9.1242      0.00000
      6      12.5712      0.00000
      7      19.5429      0.00000
      8      19.9859      0.00000
      9      22.5733      0.00000

 k-point  21 :      -0.4167    0.2500    0.2500
  band No.  band energies     occupation 
      1       3.2676      1.00000
      2       4.5190      1.00000
      3       5.5024      1.00000
      4       8.1352      0.00000
      5      10.5869      0.00000
      6      13.8447      0.00000
      7      18.1064      0.00000
      8      19.9759      0.00000
      9      21.3555      0.00000

 k-point  22 :      -0.2500    0.2500    0.2500
  band No.  band energies     occupation 
      1       2.6501      1.00000
      2       4.0939      1.00000
      3       5.9867      1.00006
      4       8.5989      0.00000
      5      12.6003      0.00000
      6      13.5774      0.00000
      7      16.3154      0.00000
      8      19.9740      0.00000
      9      22.1629      0.00000

 k-point  23 :       0.4167    0.4167    0.2500
  band No.  band energies     occupation 
      1       1.9659      1.00000
      2       4.7726      1.00000
      3       5.9106      1.00000
      4       7.6983      0.00000
      5      11.4789      0.00000
      6      12.2704      0.00000
      7      18.2795      0.00000
      8      19.9752      0.00000
      9      21.5425      0.00000

 k-point  24 :      -0.4167    0.4167    0.2500
  band No.  band energies     occupation 
      1       3.4328      1.00000
      2       4.2563      1.00000
      3       5.0801      1.00000
      4       8.8033      0.00000
      5      11.4051      0.00000
      6      14.4222      0.00000
      7      17.3915      0.00000
      8      19.9735      0.00000
      9      20.7021      0.00000

 k-point  25 :      -0.2500    0.4167    0.2500
  band No.  band energies     occupation 
      1       3.2044      1.00000
      2       4.2718      1.00000
      3       5.6195      1.00000
      4       8.7434      0.00000
      5      12.5622      0.00000
      6      15.7581      0.00000
      7      16.4435      0.00000
      8      18.9768      0.00000
      9      19.9792      0.00000

 k-point  26 :      -0.4167   -0.4167    0.2500
  band No.  band energies     occupation 
      1       2.7112      1.00000
      2       3.7757      1.00000
      3       6.6173      0.00000
      4       9.5821      0.00000
      5      12.1089      0.00000
      6      14.1603      0.00000
      7      16.5014      0.00000
      8      19.9667      0.00000
      9      20.8036      0.00000

 k-point  27 :       0.4167    0.4167    0.4167
  band No.  band energies     occupation 
      1       1.3211      1.00000
      2       6.5140      0.00000
      3       6.5140      0.00000
      4       6.5362      0.00000
      5      11.8983      0.00000
      6      11.8983      0.00000
      7      17.1634      0.00000
      8      19.4264      0.00000
      9      19.9812      0.00000

 k-point  28 :      -0.4167    0.4167    0.4167
  band No.  band energies     occupation 
      1       2.3767      1.00000
      2       5.0440      1.00000
      3       6.3960      0.00000
      4       7.2796      0.00000
      5      11.7288      0.00000
      6      13.7538      0.00000
      7      16.4447      0.00000
      8      19.9752      0.00000
      9      20.7522      0.00000

 spin component 2

 k-point   1 :       0.0833    0.0833    0.0833
  band No.  band energies     occupation 
      1      -1.8103      1.00000
      2       6.4143      0.00000
      3       6.8171      0.00000
      4       6.8171      0.00000
      5       9.7300      0.00000
      6       9.7300      0.00000
      7      19.4426      0.00000
      8      19.9766      0.00000
      9      22.6394      0.00000

 k-point   2 :       0.2500    0.0833    0.0833
  band No.  band energies     occupation 
      1      -0.4342      1.00000
      2       5.5227      1.00000
      3       7.0878      0.00000
      4       7.3576      0.00000
      5       8.8913      0.00000
      6      10.2605      0.00000
      7      19.9731      0.00000
      8      20.3743      0.00000
      9      22.2333      0.00000

 k-point   3 :       0.4167    0.0833    0.0833
  band No.  band energies     occupation 
      1       1.4025      1.00000
      2       5.7112      1.00000
      3       6.4386      0.00000
      4       6.8871      0.00000
      5      10.5752      0.00000
      6      12.1848      0.00000
      7      17.9663      0.00000
      8      19.9805      0.00000
      9      20.9858      0.00000

 k-point   4 :      -0.4167    0.0833    0.0833
  band No.  band energies     occupation 
      1       1.6687      1.00000
      2       5.9037      1.00000
      3       6.6745      0.00000
      4       6.8992      0.00000
      5      12.4051      0.00000
      6      12.5892      0.00000
      7      16.7595      0.00000
      8      19.1251      0.00000
      9      19.9868      0.00000

 k-point   5 :      -0.2500    0.0833    0.0833
  band No.  band energies     occupation 
      1       0.9465      1.00000
      2       5.2862      1.00000
      3       6.6423      0.00000
      4       7.1855      0.00000
      5      10.1365      0.00000
      6      11.2019      0.00000
      7      18.6745      0.00000
      8      19.9829      0.00000
      9      22.5627      0.00000

 k-point   6 :      -0.0833    0.0833    0.0833
  band No.  band energies     occupation 
      1      -1.0825      1.00000
      2       5.7713      1.00000
      3       7.1653      0.00000
      4       7.2009      0.00000
      5       8.8816      0.00000
      6      10.0783      0.00000
      7      19.9765      0.00000
      8      20.8065      0.00000
      9      21.8458      0.00000

 k-point   7 :       0.2500    0.2500    0.0833
  band No.  band energies     occupation 
      1       0.1962      1.00000
      2       4.8009      1.00000
      3       7.1292      0.00000
      4       7.9910      0.00000
      5       8.5783      0.00000
      6      10.7211      0.00000
      7      19.9787      0.00000
      8      21.7297      0.00000
      9      23.4339      0.00000

 k-point   8 :       0.4167    0.2500    0.0833
  band No.  band energies     occupation 
      1       1.9858      1.00000
      2       4.2532      1.00000
      3       5.8250      1.00000
      4       8.6294      0.00000
      5      10.1053      0.00000
      6      12.4997      0.00000
      7      19.7985      0.00000
      8      20.0307      0.00000
      9      22.9651      0.00000

 k-point   9 :      -0.4167    0.2500    0.0833
  band No.  band energies     occupation 
      1       2.9247      1.00000
      2       4.4327      1.00000
      3       5.9888      1.00007
      4       7.9729      0.00000
      5      11.9243      0.00000
      6      14.4754      0.00000
      7      15.8552      0.00000
      8      19.9858      0.00000
      9      21.7661      0.00000

 k-point  10 :      -0.2500    0.2500    0.0833
  band No.  band energies     occupation 
      1       2.7208      1.00000
      2       4.8356      1.00000
      3       5.2272      1.00000
      4       8.1156      0.00000
      5      10.0990      0.00000
      6      13.7096      0.00000
      7      18.4874      0.00000
      8      19.9896      0.00000
      9      22.3818      0.00000

 k-point  11 :      -0.0833    0.2500    0.0833
  band No.  band energies     occupation 
      1       0.7224      1.00000
      2       4.9347      1.00000
      3       6.6233      0.00000
      4       7.8290      0.00000
      5       8.9328      0.00000
      6      11.2967      0.00000
      7      19.9677      0.00000
      8      20.2928      0.00000
      9      23.6704      0.00000

 k-point  12 :       0.4167    0.4167    0.0833
  band No.  band energies     occupation 
      1       1.9055      1.00000
      2       3.1917      1.00000
      3       7.2104      0.00000
      4      10.5357      0.00000
      5      11.6685      0.00000
      6      12.3417      0.00000
      7      19.2927      0.00000
      8      19.9895      0.00000
      9      20.6748      0.00000

 k-point  13 :      -0.4167    0.4167    0.0833
  band No.  band energies     occupation 
      1       2.3453      1.00000
      2       3.3751      1.00000
      3       7.2164      0.00000
      4      10.3054      0.00000
      5      12.6744      0.00000
      6      15.0111      0.00000
      7      16.0910      0.00000
      8      19.1566      0.00000
      9      19.9882      0.00000

 k-point  14 :      -0.2500    0.4167    0.0833
  band No.  band energies     occupation 
      1       3.4846      1.00000
      2       4.0915      1.00000
      3       5.7176      1.00000
      4       8.6871      0.00000
      5      11.5538      0.00000
      6      14.1013      0.00000
      7      17.5559      0.00000
      8      19.9801      0.00000
      9      20.4968      0.00000

 k-point  15 :      -0.0833    0.4167    0.0833
  band No.  band energies     occupation 
      1       2.0904      1.00000
      2       5.3164      1.00000
      3       6.1531      0.30013
      4       7.2236      0.00000
      5      11.4504      0.00000
      6      13.2458      0.00000
      7      17.1946      0.00000
      8      19.9859      0.00000
      9      20.5572      0.00000

 k-point  16 :      -0.4167   -0.4167    0.0833
  band No.  band energies     occupation 
      1       1.7538      1.00000
      2       2.8271      1.00000
      3       8.5937      0.00000
      4      11.6704      0.00000
      5      12.8873      0.00000
      6      13.4567      0.00000
      7      17.0556      0.00000
      8      18.7111      0.00000
      9      19.9466      0.00000

 k-point  17 :      -0.2500   -0.4167    0.0833
  band No.  band energies     occupation 
      1       2.4962      1.00000
      2       3.6822      1.00000
      3       6.1221      0.79476
      4       9.6929      0.00000
      5      11.6466      0.00000
      6      13.6278      0.00000
      7      17.7901      0.00000
      8      19.9870      0.00000
      9      20.8968      0.00000

 k-point  18 :      -0.2500   -0.2500    0.0833
  band No.  band energies     occupation 
      1       1.4887      1.00000
      2       3.8798      1.00000
      3       6.4736      0.00000
      4       9.1382      0.00000
      5       9.8710      0.00000
      6      11.5576      0.00000
      7      19.9782      0.00000
      8      21.7029      0.00000
      9      23.2848      0.00000

 k-point  19 :       0.2500    0.2500    0.2500
  band No.  band energies     occupation 
      1       0.0587      1.00000
      2       5.4880      1.00000
      3       7.0936      0.00000
      4       7.0936      0.00000
      5       9.9224      0.00000
      6       9.9224      0.00000
      7      18.9658      0.00000
      8      19.9816      0.00000
      9      22.9945      0.00000

 k-point  20 :       0.4167    0.2500    0.2500
  band No.  band energies     occupation 
      1       1.6432      1.00000
      2       5.0234      1.00000
      3       6.0694      1.03061
      4       7.6973      0.00000
      5       9.1379      0.00000
      6      12.5827      0.00000
      7      19.5555      0.00000
      8      19.9981      0.00000
      9      22.5927      0.00000

 k-point  21 :      -0.4167    0.2500    0.2500
  band No.  band energies     occupation 
      1       3.2860      1.00000
      2       4.5320      1.00000
      3       5.5201      1.00000
      4       8.1478      0.00000
      5      10.6001      0.00000
      6      13.8583      0.00000
      7      18.1199      0.00000
      8      19.9880      0.00000
      9      21.3701      0.00000

 k-point  22 :      -0.2500    0.2500    0.2500
  band No.  band energies     occupation 
      1       2.6664      1.00000
      2       4.1093      1.00000
      3       6.0041      1.00038
      4       8.6120      0.00000
      5      12.6112      0.00000
      6      13.5917      0.00000
      7      16.3302      0.00000
      8      19.9860      0.00000
      9      22.1764      0.00000

 k-point  23 :       0.4167    0.4167    0.2500
  band No.  band energies     occupation 
      1       1.9838      1.00000
      2       4.7884      1.00000
      3       5.9260      1.00000
      4       7.7121      0.00000
      5      11.4924      0.00000
      6      12.2812      0.00000
      7      18.2930      0.00000
      8      19.9873      0.00000
      9      21.5599      0.00000

 k-point  24 :      -0.4167    0.4167    0.2500
  band No.  band energies     occupation 
      1       3.4479      1.00000
      2       4.2725      1.00000
      3       5.0976      1.00000
      4       8.8162      0.00000
      5      11.4182      0.00000
      6      14.4357      0.00000
      7      17.4062      0.00000
      8      19.9855      0.00000
      9      20.7179      0.00000

 k-point  25 :      -0.2500    0.4167    0.2500
  band No.  band energies     occupation 
      1       3.2174      1.00000
      2       4.2896      1.00000
      3       5.6374      1.00000
      4       8.7566      0.00000
      5      12.5745      0.00000
      6      15.7729      0.00000
      7      16.4593      0.00000
      8      18.9925      0.00000
      9      19.9913      0.00000

 k-point  26 :      -0.4167   -0.4167    0.2500
  band No.  band energies     occupation 
      1       2.7257      1.00000
      2       3.7923      1.00000
      3       6.6355      0.00000
      4       9.5942      0.00000
      5      12.1210      0.00000
      6      14.1775      0.00000
      7      16.5148      0.00000
      8      19.9786      0.00000
      9      20.8155      0.00000

 k-point  27 :       0.4167    0.4167    0.4167
  band No.  band energies     occupation 
      1       1.3399      1.00000
      2       6.5279      0.00000
      3       6.5279      0.00000
      4       6.5526      0.00000
      5      11.9096      0.00000
      6      11.9096      0.00000
      7      17.1772      0.00000
      8      19.4440      0.00000
      9      19.9934      0.00000

 k-point  28 :      -0.4167    0.4167    0.4167
  band No.  band energies     occupation 
      1       2.3954      1.00000
      2       5.0571      1.00000
      3       6.4133      0.00000
      4       7.2930      0.00000
      5      11.7406      0.00000
      6      13.7661      0.00000
      7      16.4585      0.00000
      8      19.9873      0.00000
      9      20.7691      0.00000


--------------------------------------------------------------------------------------------------------


 soft charge-density along one line, spin component           1
         0         1         2         3         4         5         6         7         8         9
 total charge-density along one line
 
 soft charge-density along one line, spin component           2
         0         1         2         3         4         5         6         7         8         9
 total charge-density along one line
 
 pseudopotential strength for first ion, spin component:           1
 -6.538   0.000   0.000   0.000   0.000   0.091   0.000   0.000
  0.000  -6.538   0.000   0.000   0.000   0.000   0.091   0.000
  0.000   0.000  -6.550   0.000   0.000   0.000   0.000   0.091
  0.000   0.000   0.000  -6.538   0.000   0.000   0.000   0.000
  0.000   0.000   0.000   0.000  -6.550   0.000   0.000   0.000
  0.091   0.000   0.000   0.000   0.000   0.071   0.000   0.000
  0.000   0.091   0.000   0.000   0.000   0.000   0.071   0.000
  0.000   0.000   0.091   0.000   0.000   0.000   0.000   0.071
  0.000   0.000   0.000   0.091   0.000   0.000   0.000   0.000
  0.000   0.000   0.000   0.000   0.091   0.000   0.000   0.000
  0.000   0.000   0.000   0.000   0.000   0.000   0.000   0.000
  0.000   0.000   0.000   0.000   0.000   0.000   0.000   0.000
  0.000   0.000   0.000   0.000   0.000   0.000   0.000   0.000
  0.000   0.000   0.000   0.000   0.000   0.000   0.000   0.000
  0.000   0.000   0.000   0.000   0.000   0.000   0.000   0.000
  0.000   0.000   0.000   0.000   0.000   0.000   0.000   0.000
  0.000   0.000   0.000   0.000   0.000   0.000   0.000   0.000
  0.000   0.000   0.000   0.000   0.000   0.000   0.000   0.000
 pseudopotential strength for first ion, spin component:           2
 -6.538   0.000   0.000   0.000   0.000   0.091   0.000   0.000
  0.000  -6.538   0.000   0.000   0.000   0.000   0.091   0.000
  0.000   0.000  -6.550   0.000   0.000   0.000   0.000   0.091
  0.000   0.000   0.000  -6.538   0.000   0.000   0.000   0.000
  0.000   0.000   0.000   0.000  -6.550   0.000   0.000   0.000
  0.091   0.000   0.000   0.000   0.000   0.071   0.000   0.000
  0.000   0.091   0.000   0.000   0.000   0.000   0.071   0.000
  0.000   0.000   0.091   0.000   0.000   0.000   0.000   0.071
  0.000   0.000   0.000   0.091   0.000   0.000   0.000   0.000
  0.000   0.000   0.000   0.000   0.091   0.000   0.000   0.000
  0.000   0.000   0.000   0.000   0.000   0.000   0.000   0.000
  0.000   0.000   0.000   0.000   0.000   0.000   0.000   0.000
  0.000   0.000   0.000   0.000   0.000   0.000   0.000   0.000
  0.000   0.000   0.000   0.000   0.000   0.000   0.000   0.000
  0.000   0.000   0.000   0.000   0.000   0.000   0.000   0.000
  0.000   0.000   0.000   0.000   0.000   0.000   0.000   0.000
  0.000   0.000   0.000   0.000   0.000   0.000   0.000   0.000
  0.000   0.000   0.000   0.000   0.000   0.000   0.000   0.000
 total augmentation occupancy for first ion, spin component:           1
  0.767   0.000   0.000   0.000   0.000  -0.585   0.000   0.000   0.000   0.000   0.000   0.000   0.000   0.000   0.000   0.000
  0.000   0.767   0.000   0.000   0.000   0.000  -0.585   0.000   0.000   0.000   0.000   0.000   0.000   0.000   0.000   0.000
  0.000   0.000   0.544   0.000   0.000   0.000   0.000  -0.456   0.000   0.000   0.000   0.000   0.000   0.000   0.000   0.000
  0.000   0.000   0.000   0.767   0.000   0.000   0.000   0.000  -0.585   0.000   0.000   0.000   0.000   0.000   0.000   0.000
  0.000   0.000   0.000   0.000   0.544   0.000   0.000   0.000   0.000  -0.456   0.000   0.000   0.000   0.000   0.000   0.000
 -0.585   0.000   0.000   0.000   0.000   0.510   0.000   0.000   0.000   0.000   0.000   0.000   0.000   0.000   0.000   0.000
  0.000  -0.585   0.000   0.000   0.000   0.000   0.510   0.000   0.000   0.000   0.000   0.000   0.000   0.000   0.000   0.000
  0.000   0.000  -0.456   0.000   0.000   0.000   0.000   0.433   0.000   0.000   0.000   0.000   0.000   0.000   0.000   0.000
  0.000   0.000   0.000  -0.585   0.000   0.000   0.000   0.000   0.510   0.000   0.000   0.000   0.000   0.000   0.000   0.000
  0.000   0.000   0.000   0.000  -0.456   0.000   0.000   0.000   0.000   0.433   0.000   0.000   0.000   0.000   0.000   0.000
  0.000   0.000   0.000   0.000   0.000   0.000   0.000   0.000   0.000   0.000   1.480  -0.305   0.000   0.000   0.000   0.000
  0.000   0.000   0.000   0.000   0.000   0.000   0.000   0.000   0.000   0.000  -0.305   0.069   0.000   0.000   0.000   0.000
  0.000   0.000   0.000   0.000   0.000   0.000   0.000   0.000   0.000   0.000   0.000   0.000   0.332   0.000   0.000   0.013
  0.000   0.000   0.000   0.000   0.000   0.000   0.000   0.000   0.000   0.000   0.000   0.000   0.000   0.332   0.000   0.000
  0.000   0.000   0.000   0.000   0.000   0.000   0.000   0.000   0.000   0.000   0.000   0.000   0.000   0.000   0.332   0.000
  0.000   0.000   0.000   0.000   0.000   0.000   0.000   0.000   0.000   0.000   0.000   0.000   0.013   0.000   0.000   0.001
  0.000   0.000   0.000   0.000   0.000   0.000   0.000   0.000   0.000   0.000   0.000   0.000   0.000   0.013   0.000   0.000
  0.000   0.000   0.000   0.000   0.000   0.000   0.000   0.000   0.000   0.000   0.000   0.000   0.000   0.000   0.013   0.000
 total augmentation occupancy for first ion, spin component:           2
  0.004   0.000   0.000   0.000   0.000  -0.002   0.000   0.000   0.000   0.000   0.000   0.000   0.000   0.000   0.000   0.000
  0.000   0.004   0.000   0.000   0.000   0.000  -0.002   0.000   0.000   0.000   0.000   0.000   0.000   0.000   0.000   0.000
  0.000   0.000   0.001   0.000   0.000   0.000   0.000  -0.001   0.000   0.000   0.000   0.000   0.000   0.000   0.000   0.000
  0.000   0.000   0.000   0.004   0.000   0.000   0.000   0.000  -0.002   0.000   0.000   0.000   0.000   0.000   0.000   0.000
  0.000   0.000   0.000   0.000   0.001   0.000   0.000   0.000   0.000  -0.001   0.000   0.000   0.000   0.000   0.000   0.000
 -0.002   0.000   0.000   0.000   0.000   0.001   0.000   0.000   0.000   0.000   0.000   0.000   0.000   0.000   0.000   0.000
  0.000  -0.002   0.000   0.000   0.000   0.000   0.001   0.000   0.000   0.000   0.000   0.000   0.000   0.000   0.000   0.000
  0.000   0.000  -0.001   0.000   0.000   0.000   0.000   0.001   0.000   0.000   0.000   0.000   0.000   0.000   0.000   0.000
  0.000   0.000   0.000  -0.002   0.000   0.000   0.000   0.000   0.001   0.000   0.000   0.000   0.000   0.000   0.000   0.000
  0.000   0.000   0.000   0.000  -0.001   0.000   0.000   0.000   0.000   0.001   0.000   0.000   0.000   0.000   0.000   0.000
  0.000   0.000   0.000   0.000   0.000   0.000   0.000   0.000   0.000   0.000   0.003  -0.002   0.000   0.000   0.000   0.000
  0.000   0.000   0.000   0.000   0.000   0.000   0.000   0.000   0.000   0.000  -0.002   0.001   0.000   0.000   0.000   0.000
  0.000   0.000   0.000   0.000   0.000   0.000   0.000   0.000   0.000   0.000   0.000   0.000   0.003   0.000   0.000   0.000
  0.000   0.000   0.000   0.000   0.000   0.000   0.000   0.000   0.000   0.000   0.000   0.000   0.000   0.003   0.000   0.000
  0.000   0.000   0.000   0.000   0.000   0.000   0.000   0.000   0.000   0.000   0.000   0.000   0.000   0.000   0.003   0.000
  0.000   0.000   0.000   0.000   0.000   0.000   0.000   0.000   0.000   0.000   0.000   0.000   0.000   0.000   0.000   0.000
  0.000   0.000   0.000   0.000   0.000   0.000   0.000   0.000   0.000   0.000   0.000   0.000   0.000   0.000   0.000   0.000
  0.000   0.000   0.000   0.000   0.000   0.000   0.000   0.000   0.000   0.000   0.000   0.000   0.000   0.000   0.000   0.000


------------------------ aborting loop because EDIFF is reached ----------------------------------------


 


 total charge     
 
# of ion     s       p       d       tot
----------------------------------------
  1        0.751   0.767   3.304   4.823
 


 magnetization (x)
 
# of ion     s       p       d       tot
----------------------------------------
  1        0.002   0.007   0.015   0.025
 
    CHARGE:  cpu time    0.04: real time    0.04
    FORLOC:  cpu time    0.00: real time    0.00
    FORNL :  cpu time    0.10: real time    0.10
    STRESS:  cpu time    0.18: real time    0.18
    FORCOR:  cpu time    0.07: real time    0.07
    FORHAR:  cpu time    0.01: real time    0.01
    MIXING:  cpu time    0.00: real time    0.00

  FORCE on cell =-STRESS in cart. coord.  units (eV):
  Direction    XX          YY          ZZ          XY          YZ          ZX
  --------------------------------------------------------------------------------------
  Alpha Z    31.03520    31.03520    31.03520
  Ewald     -66.28618   -66.28618   -66.28618     0.00000     0.00000     0.00000
  Hartree     0.19586     0.19586     0.19586     0.00000     0.00000     0.00000
  E(xc)     -22.58218   -22.58218   -22.58218     0.00000     0.00000     0.00000
  Local       3.42766     3.42766     3.42766     0.00000     0.00000     0.00000
  n-local    -6.35528    -3.02635    -7.42732     2.11827    -1.81378    -0.19847
  augment     2.88717     2.88717     2.88717     0.00000     0.00000     0.00000
  Kinetic    59.50988    56.10032    57.25205    -2.38323     2.01071    -0.34474
  Fock        0.00000     0.00000     0.00000     0.00000     0.00000     0.00000
  -------------------------------------------------------------------------------------
  Total       0.69531     0.69531     0.69531     0.00000     0.00000     0.00000
  in kB      62.34542    62.34542    62.34542     0.00000     0.00000     0.00000
  external pressure =       62.35 kB  Pullay stress =        0.00 kB


 VOLUME and BASIS-vectors are now :
 -----------------------------------------------------------------------------
  energy-cutoff  :      200.00
  volume of cell :       17.87
      direct lattice vectors                 reciprocal lattice vectors
     0.000000000  2.075000000  2.075000000    -0.240963855  0.240963855  0.240963855
     2.075000000  0.000000000  2.075000000     0.240963855 -0.240963855  0.240963855
     2.075000000  2.075000000  0.000000000     0.240963855  0.240963855 -0.240963855

  length of vectors
     2.934493142  2.934493142  2.934493142     0.417361640  0.417361640  0.417361640


 FORCES acting on ions
    electron-ion (+dipol)            ewald-force                    non-local-force                 convergence-correction
 -----------------------------------------------------------------------------------------------
   -.349E-14 -.146E-14 -.226E-14   -.775E-16 -.232E-15 -.782E-15   -.132E-22 0.662E-23 0.165E-22   -.206E-15 -.751E-17 -.595E-16
 -----------------------------------------------------------------------------------------------
   -.349E-14 -.146E-14 -.226E-14   -.775E-16 -.232E-15 -.782E-15   -.132E-22 0.662E-23 0.165E-22   -.206E-15 -.751E-17 -.595E-16
 
 
 POSITION                                       TOTAL-FORCE (eV/Angst)
 -----------------------------------------------------------------------------------
      0.00000      0.00000      0.00000         0.000000      0.000000      0.000000
 -----------------------------------------------------------------------------------
    total drift:                                0.000000      0.000000      0.000000


--------------------------------------------------------------------------------------------------------



  FREE ENERGIE OF THE ION-ELECTRON SYSTEM (eV)
  ---------------------------------------------------
  free  energy   TOTEN  =       -11.605820 eV

  energy  without entropy=      -11.605012  energy(sigma->0) =      -11.605551
 


--------------------------------------------------------------------------------------------------------


    POTLOK:  cpu time    0.09: real time    0.09


--------------------------------------------------------------------------------------------------------


 writing wavefunctions
     LOOP+:  cpu time    9.85: real time   10.08
    4ORBIT:  cpu time    0.00: real time    0.00
 


 total charge     
 
# of ion     s       p       d       tot
----------------------------------------
  1        0.751   0.767   3.304   4.823
 


 magnetization (x)
 
# of ion     s       p       d       tot
----------------------------------------
  1        0.002   0.007   0.015   0.025
 

 total amount of memory used by VASP on root node    34334. kBytes
========================================================================

   base      :      30000. kBytes
   nonl-proj :        489. kBytes
   fftplans  :        800. kBytes
   grid      :       1894. kBytes
   one-center:         31. kBytes
   wavefun   :       1120. kBytes
 
  
  
 General timing and accounting informations for this job:
 ========================================================
  
                  Total CPU time used (sec):       10.415
                            User time (sec):       10.112
                          System time (sec):        0.303
                         Elapsed time (sec):       11.015
  
                   Maximum memory used (kb):           0.
                   Average memory used (kb):           0.
  
                          Minor page faults:         6089
                          Major page faults:            0
                 Voluntary context switches:         9423
