PROCAR lm decomposed
# of k-points:   28         # of bands:   9         # of ions:   1

 k-point    1 :    0.08333333 0.08333333 0.08333333     weight = 0.00925926

band   1 # energy   -1.82875717 # occ.  1.00000000
 
ion      s     py     pz     px    dxy    dyz    dz2    dxz    dx2    tot
  1  0.863  0.007  0.007  0.007  0.000  0.000  0.000  0.000  0.000  0.886
 
band   2 # energy    6.39858874 # occ.  0.00000000
 
ion      s     py     pz     px    dxy    dyz    dz2    dxz    dx2    tot
  1  0.000  0.004  0.004  0.004  0.333  0.333  0.000  0.333  0.000  1.010
 
band   3 # energy    6.80176574 # occ.  0.00000000
 
ion      s     py     pz     px    dxy    dyz    dz2    dxz    dx2    tot
  1  0.000  0.000  0.002  0.001  0.610  0.318  0.003  0.074  0.000  1.007
 
band   4 # energy    6.80176574 # occ.  0.00000000
 
ion      s     py     pz     px    dxy    dyz    dz2    dxz    dx2    tot
  1  0.000  0.002  0.000  0.001  0.058  0.350  0.000  0.594  0.003  1.007
 
band   5 # energy    9.71854227 # occ.  0.00000000
 
ion      s     py     pz     px    dxy    dyz    dz2    dxz    dx2    tot
  1  0.000  0.000  0.000  0.000  0.000  0.001  0.095  0.002  0.880  0.978
 
band   6 # energy    9.71854227 # occ.  0.00000000
 
ion      s     py     pz     px    dxy    dyz    dz2    dxz    dx2    tot
  1  0.000  0.000  0.000  0.000  0.002  0.001  0.880  0.000  0.095  0.978
 
band   7 # energy   19.41861715 # occ.  0.00000000
 
ion      s     py     pz     px    dxy    dyz    dz2    dxz    dx2    tot
  1  0.000  0.000  0.000  0.000  0.009  0.009  0.000  0.009  0.000  0.026
 
band   8 # energy   19.96464560 # occ.  0.00000000
 
ion      s     py     pz     px    dxy    dyz    dz2    dxz    dx2    tot
  1 43.819  0.000  0.000  0.000  0.000  0.000  0.000  0.000  0.000 43.819
 
band   9 # energy   22.62460372 # occ.  0.00000000
 
ion      s     py     pz     px    dxy    dyz    dz2    dxz    dx2    tot
  1  0.061  0.031  0.031  0.031  0.005  0.005  0.000  0.005  0.000  0.169
 

 k-point    2 :    0.25000000 0.08333333 0.08333333     weight = 0.02777778

band   1 # energy   -0.45252376 # occ.  1.00000000
 
ion      s     py     pz     px    dxy    dyz    dz2    dxz    dx2    tot
  1  0.765  0.056  0.056  0.005  0.004  0.021  0.001  0.004  0.002  0.914
 
band   2 # energy    5.50603326 # occ.  1.00000000
 
ion      s     py     pz     px    dxy    dyz    dz2    dxz    dx2    tot
  1  0.002  0.008  0.008  0.049  0.445  0.034  0.000  0.445  0.000  0.990
 
band   3 # energy    7.07315380 # occ.  0.00000000
 
ion      s     py     pz     px    dxy    dyz    dz2    dxz    dx2    tot
  1  0.000  0.016  0.016  0.001  0.020  0.709  0.051  0.020  0.154  0.987
 
band   4 # energy    7.34272576 # occ.  0.00000000
 
ion      s     py     pz     px    dxy    dyz    dz2    dxz    dx2    tot
  1  0.000  0.000  0.000  0.000  0.448  0.000  0.068  0.448  0.023  0.987
 
band   5 # energy    8.87921568 # occ.  0.00000000
 
ion      s     py     pz     px    dxy    dyz    dz2    dxz    dx2    tot
  1  0.000  0.002  0.002  0.000  0.045  0.000  0.642  0.045  0.214  0.949
 
band   6 # energy   10.24875950 # occ.  0.00000000
 
ion      s     py     pz     px    dxy    dyz    dz2    dxz    dx2    tot
  1  0.004  0.006  0.006  0.000  0.004  0.185  0.186  0.004  0.559  0.955
 
band   7 # energy   19.96120365 # occ.  0.00000000
 
ion      s     py     pz     px    dxy    dyz    dz2    dxz    dx2    tot
  1 42.932  0.001  0.001  0.000  0.000  0.000  0.000  0.000  0.000 42.934
 
band   8 # energy   20.35929006 # occ.  0.00000000
 
ion      s     py     pz     px    dxy    dyz    dz2    dxz    dx2    tot
  1  0.948  0.022  0.022  0.011  0.000  0.025  0.007  0.000  0.021  1.057
 
band   9 # energy   22.21240050 # occ.  0.00000000
 
ion      s     py     pz     px    dxy    dyz    dz2    dxz    dx2    tot
  1  0.042  0.009  0.009  0.002  0.071  0.032  0.002  0.071  0.005  0.243
 

 k-point    3 :    0.41666667 0.08333333 0.08333333     weight = 0.02777778

band   1 # energy    1.38386803 # occ.  1.00000000
 
ion      s     py     pz     px    dxy    dyz    dz2    dxz    dx2    tot
  1  0.483  0.047  0.047  0.002  0.127  0.157  0.001  0.127  0.002  0.991
 
band   2 # energy    5.69487919 # occ.  1.00000000
 
ion      s     py     pz     px    dxy    dyz    dz2    dxz    dx2    tot
  1  0.042  0.142  0.142  0.166  0.164  0.046  0.014  0.164  0.042  0.922
 
band   3 # energy    6.42419802 # occ.  0.00000000
 
ion      s     py     pz     px    dxy    dyz    dz2    dxz    dx2    tot
  1  0.005  0.000  0.000  0.016  0.096  0.295  0.117  0.096  0.352  0.978
 
band   4 # energy    6.87337208 # occ.  0.00000000
 
ion      s     py     pz     px    dxy    dyz    dz2    dxz    dx2    tot
  1  0.000  0.000  0.000  0.000  0.199  0.000  0.436  0.199  0.145  0.980
 
band   5 # energy   10.56275199 # occ.  0.00000000
 
ion      s     py     pz     px    dxy    dyz    dz2    dxz    dx2    tot
  1  0.000  0.007  0.007  0.000  0.282  0.000  0.267  0.282  0.089  0.935
 
band   6 # energy   12.17340768 # occ.  0.00000000
 
ion      s     py     pz     px    dxy    dyz    dz2    dxz    dx2    tot
  1  0.012  0.024  0.024  0.001  0.031  0.412  0.106  0.031  0.317  0.958
 
band   7 # energy   17.95282775 # occ.  0.00000000
 
ion      s     py     pz     px    dxy    dyz    dz2    dxz    dx2    tot
  1  0.157  0.024  0.024  0.022  0.039  0.100  0.005  0.039  0.015  0.425
 
band   8 # energy   19.96851509 # occ.  0.00000000
 
ion      s     py     pz     px    dxy    dyz    dz2    dxz    dx2    tot
  1 43.499  0.000  0.000  0.000  0.000  0.000  0.000  0.000  0.000 43.500
 
band   9 # energy   20.96750844 # occ.  0.00000000
 
ion      s     py     pz     px    dxy    dyz    dz2    dxz    dx2    tot
  1  0.649  0.083  0.083  0.039  0.090  0.048  0.001  0.090  0.003  1.085
 

 k-point    4 :   -0.41666667 0.08333333 0.08333333     weight = 0.02777778

band   1 # energy    1.64997051 # occ.  1.00000000
 
ion      s     py     pz     px    dxy    dyz    dz2    dxz    dx2    tot
  1  0.354  0.001  0.001  0.021  0.204  0.239  0.000  0.204  0.001  1.025
 
band   2 # energy    5.89015973 # occ.  1.00000000
 
ion      s     py     pz     px    dxy    dyz    dz2    dxz    dx2    tot
  1  0.000  0.064  0.064  0.029  0.049  0.088  0.147  0.049  0.441  0.930
 
band   3 # energy    6.66070986 # occ.  0.00000000
 
ion      s     py     pz     px    dxy    dyz    dz2    dxz    dx2    tot
  1  0.000  0.004  0.004  0.000  0.191  0.000  0.447  0.191  0.149  0.985
 
band   4 # energy    6.88249357 # occ.  0.00000000
 
ion      s     py     pz     px    dxy    dyz    dz2    dxz    dx2    tot
  1  0.006  0.189  0.189  0.221  0.027  0.248  0.008  0.027  0.024  0.940
 
band   5 # energy   12.39427172 # occ.  0.00000000
 
ion      s     py     pz     px    dxy    dyz    dz2    dxz    dx2    tot
  1  0.000  0.000  0.000  0.000  0.302  0.000  0.272  0.302  0.091  0.966
 
band   6 # energy   12.57773342 # occ.  0.00000000
 
ion      s     py     pz     px    dxy    dyz    dz2    dxz    dx2    tot
  1  0.000  0.024  0.024  0.057  0.096  0.311  0.084  0.096  0.252  0.944
 
band   7 # energy   16.74600305 # occ.  0.00000000
 
ion      s     py     pz     px    dxy    dyz    dz2    dxz    dx2    tot
  1  0.444  0.002  0.002  0.004  0.167  0.117  0.000  0.167  0.000  0.902
 
band   8 # energy   19.10694118 # occ.  0.00000000
 
ion      s     py     pz     px    dxy    dyz    dz2    dxz    dx2    tot
  1  0.009  0.016  0.016  0.027  0.000  0.032  0.004  0.000  0.011  0.113
 
band   9 # energy   19.97480882 # occ.  0.00000000
 
ion      s     py     pz     px    dxy    dyz    dz2    dxz    dx2    tot
  1 44.044  0.000  0.000  0.000  0.000  0.000  0.000  0.000  0.000 44.045
 

 k-point    5 :   -0.25000000 0.08333333 0.08333333     weight = 0.02777778

band   1 # energy    0.92810441 # occ.  1.00000000
 
ion      s     py     pz     px    dxy    dyz    dz2    dxz    dx2    tot
  1  0.592  0.020  0.020  0.098  0.074  0.071  0.002  0.074  0.007  0.960
 
band   2 # energy    5.26945113 # occ.  1.00000000
 
ion      s     py     pz     px    dxy    dyz    dz2    dxz    dx2    tot
  1  0.027  0.095  0.095  0.065  0.096  0.460  0.005  0.096  0.014  0.953
 
band   3 # energy    6.62829201 # occ.  0.00000000
 
ion      s     py     pz     px    dxy    dyz    dz2    dxz    dx2    tot
  1  0.004  0.001  0.001  0.000  0.102  0.231  0.132  0.102  0.395  0.966
 
band   4 # energy    7.17137758 # occ.  0.00000000
 
ion      s     py     pz     px    dxy    dyz    dz2    dxz    dx2    tot
  1  0.000  0.010  0.010  0.000  0.279  0.000  0.303  0.279  0.101  0.982
 
band   5 # energy   10.12345415 # occ.  0.00000000
 
ion      s     py     pz     px    dxy    dyz    dz2    dxz    dx2    tot
  1  0.008  0.006  0.006  0.045  0.160  0.173  0.093  0.160  0.280  0.932
 
band   6 # energy   11.19031302 # occ.  0.00000000
 
ion      s     py     pz     px    dxy    dyz    dz2    dxz    dx2    tot
  1  0.000  0.006  0.006  0.000  0.195  0.000  0.409  0.195  0.136  0.947
 
band   7 # energy   18.66066228 # occ.  0.00000000
 
ion      s     py     pz     px    dxy    dyz    dz2    dxz    dx2    tot
  1  0.087  0.025  0.025  0.019  0.044  0.007  0.005  0.044  0.014  0.268
 
band   8 # energy   19.97096138 # occ.  0.00000000
 
ion      s     py     pz     px    dxy    dyz    dz2    dxz    dx2    tot
  1 43.790  0.000  0.000  0.000  0.000  0.000  0.000  0.000  0.000 43.790
 
band   9 # energy   22.54483442 # occ.  0.00000000
 
ion      s     py     pz     px    dxy    dyz    dz2    dxz    dx2    tot
  1  0.303  0.074  0.074  0.090  0.107  0.140  0.002  0.107  0.005  0.902
 

 k-point    6 :   -0.08333333 0.08333333 0.08333333     weight = 0.02777778

band   1 # energy   -1.10081591 # occ.  1.00000000
 
ion      s     py     pz     px    dxy    dyz    dz2    dxz    dx2    tot
  1  0.814  0.007  0.007  0.064  0.003  0.000  0.001  0.003  0.003  0.899
 
band   2 # energy    5.75501745 # occ.  1.00000000
 
ion      s     py     pz     px    dxy    dyz    dz2    dxz    dx2    tot
  1  0.000  0.008  0.008  0.001  0.061  0.857  0.000  0.061  0.000  0.997
 
band   3 # energy    7.15016960 # occ.  0.00000000
 
ion      s     py     pz     px    dxy    dyz    dz2    dxz    dx2    tot
  1  0.000  0.007  0.007  0.004  0.403  0.130  0.011  0.403  0.033  0.999
 
band   4 # energy    7.18573117 # occ.  0.00000000
 
ion      s     py     pz     px    dxy    dyz    dz2    dxz    dx2    tot
  1  0.000  0.011  0.011  0.000  0.476  0.000  0.022  0.476  0.007  1.002
 
band   5 # energy    8.86949905 # occ.  0.00000000
 
ion      s     py     pz     px    dxy    dyz    dz2    dxz    dx2    tot
  1  0.004  0.000  0.000  0.003  0.019  0.005  0.225  0.019  0.676  0.952
 
band   6 # energy   10.06705136 # occ.  0.00000000
 
ion      s     py     pz     px    dxy    dyz    dz2    dxz    dx2    tot
  1  0.000  0.000  0.000  0.000  0.015  0.000  0.709  0.015  0.236  0.976
 
band   7 # energy   19.96462939 # occ.  0.00000000
 
ion      s     py     pz     px    dxy    dyz    dz2    dxz    dx2    tot
  1 43.742  0.000  0.000  0.000  0.000  0.000  0.000  0.000  0.000 43.743
 
band   8 # energy   20.78405694 # occ.  0.00000000
 
ion      s     py     pz     px    dxy    dyz    dz2    dxz    dx2    tot
  1  0.023  0.002  0.002  0.002  0.002  0.057  0.001  0.002  0.002  0.093
 
band   9 # energy   21.83120728 # occ.  0.00000000
 
ion      s     py     pz     px    dxy    dyz    dz2    dxz    dx2    tot
  1  0.126  0.019  0.019  0.029  0.019  0.017  0.009  0.019  0.027  0.282
 

 k-point    7 :    0.25000000 0.25000000 0.08333333     weight = 0.02777778

band   1 # energy    0.17813871 # occ.  1.00000000
 
ion      s     py     pz     px    dxy    dyz    dz2    dxz    dx2    tot
  1  0.701  0.005  0.155  0.005  0.001  0.006  0.041  0.006  0.000  0.919
 
band   2 # energy    4.78395570 # occ.  1.00000000
 
ion      s     py     pz     px    dxy    dyz    dz2    dxz    dx2    tot
  1  0.000  0.008  0.001  0.008  0.947  0.017  0.000  0.017  0.000  1.000
 
band   3 # energy    7.11550314 # occ.  0.00000000
 
ion      s     py     pz     px    dxy    dyz    dz2    dxz    dx2    tot
  1  0.017  0.007  0.009  0.007  0.016  0.127  0.627  0.127  0.000  0.938
 
band   4 # energy    7.97622768 # occ.  0.00000000
 
ion      s     py     pz     px    dxy    dyz    dz2    dxz    dx2    tot
  1  0.000  0.026  0.000  0.026  0.000  0.422  0.000  0.422  0.083  0.979
 
band   5 # energy    8.56409293 # occ.  0.00000000
 
ion      s     py     pz     px    dxy    dyz    dz2    dxz    dx2    tot
  1  0.012  0.019  0.025  0.019  0.028  0.307  0.241  0.307  0.000  0.958
 
band   6 # energy   10.71009165 # occ.  0.00000000
 
ion      s     py     pz     px    dxy    dyz    dz2    dxz    dx2    tot
  1  0.000  0.002  0.000  0.002  0.000  0.040  0.000  0.040  0.888  0.971
 
band   7 # energy   19.96679717 # occ.  0.00000000
 
ion      s     py     pz     px    dxy    dyz    dz2    dxz    dx2    tot
  1 43.710  0.000  0.000  0.000  0.000  0.000  0.000  0.000  0.000 43.710
 
band   8 # energy   21.71641610 # occ.  0.00000000
 
ion      s     py     pz     px    dxy    dyz    dz2    dxz    dx2    tot
  1  0.164  0.030  0.017  0.030  0.001  0.024  0.100  0.024  0.000  0.391
 
band   9 # energy   23.41240076 # occ.  0.00000000
 
ion      s     py     pz     px    dxy    dyz    dz2    dxz    dx2    tot
  1  0.012  0.005  0.003  0.005  0.178  0.017  0.005  0.017  0.000  0.242
 

 k-point    8 :    0.41666667 0.25000000 0.08333333     weight = 0.05555556

band   1 # energy    1.96870512 # occ.  1.00000000
 
ion      s     py     pz     px    dxy    dyz    dz2    dxz    dx2    tot
  1  0.459  0.035  0.185  0.001  0.033  0.054  0.165  0.011  0.000  0.944
 
band   2 # energy    4.23594206 # occ.  1.00000000
 
ion      s     py     pz     px    dxy    dyz    dz2    dxz    dx2    tot
  1  0.004  0.018  0.007  0.070  0.815  0.006  0.028  0.051  0.001  0.999
 
band   3 # energy    5.81021033 # occ.  1.00000000
 
ion      s     py     pz     px    dxy    dyz    dz2    dxz    dx2    tot
  1  0.056  0.016  0.048  0.000  0.039  0.250  0.498  0.009  0.035  0.951
 
band   4 # energy    8.61581980 # occ.  0.00000000
 
ion      s     py     pz     px    dxy    dyz    dz2    dxz    dx2    tot
  1  0.004  0.025  0.032  0.019  0.016  0.133  0.076  0.261  0.383  0.949
 
band   5 # energy   10.09146927 # occ.  0.00000000
 
ion      s     py     pz     px    dxy    dyz    dz2    dxz    dx2    tot
  1  0.008  0.014  0.054  0.045  0.065  0.039  0.097  0.509  0.104  0.935
 
band   6 # energy   12.48844387 # occ.  0.00000000
 
ion      s     py     pz     px    dxy    dyz    dz2    dxz    dx2    tot
  1  0.023  0.026  0.033  0.000  0.001  0.418  0.040  0.009  0.422  0.973
 
band   7 # energy   19.78559645 # occ.  0.00000000
 
ion      s     py     pz     px    dxy    dyz    dz2    dxz    dx2    tot
  1  7.223  0.132  0.064  0.032  0.008  0.108  0.012  0.034  0.023  7.637
 
band   8 # energy   20.01772627 # occ.  0.00000000
 
ion      s     py     pz     px    dxy    dyz    dz2    dxz    dx2    tot
  1 36.864  0.034  0.013  0.009  0.002  0.030  0.004  0.009  0.006 36.971
 
band   9 # energy   22.94912395 # occ.  0.00000000
 
ion      s     py     pz     px    dxy    dyz    dz2    dxz    dx2    tot
  1  0.089  0.041  0.097  0.001  0.017  0.001  0.201  0.001  0.001  0.449
 

 k-point    9 :   -0.41666667 0.25000000 0.08333333     weight = 0.05555556

band   1 # energy    2.90660070 # occ.  1.00000000
 
ion      s     py     pz     px    dxy    dyz    dz2    dxz    dx2    tot
  1  0.237  0.000  0.071  0.027  0.366  0.160  0.059  0.089  0.000  1.009
 
band   2 # energy    4.41939495 # occ.  1.00000000
 
ion      s     py     pz     px    dxy    dyz    dz2    dxz    dx2    tot
  1  0.002  0.121  0.004  0.063  0.004  0.060  0.570  0.015  0.064  0.902
 
band   3 # energy    5.97125625 # occ.  1.00000881
 
ion      s     py     pz     px    dxy    dyz    dz2    dxz    dx2    tot
  1  0.016  0.046  0.184  0.103  0.342  0.264  0.009  0.011  0.009  0.984
 
band   4 # energy    7.95971353 # occ.  0.00000000
 
ion      s     py     pz     px    dxy    dyz    dz2    dxz    dx2    tot
  1  0.001  0.009  0.027  0.020  0.006  0.029  0.069  0.210  0.578  0.949
 
band   5 # energy   11.91217597 # occ.  0.00000000
 
ion      s     py     pz     px    dxy    dyz    dz2    dxz    dx2    tot
  1  0.036  0.004  0.007  0.003  0.073  0.170  0.029  0.437  0.177  0.937
 
band   6 # energy   14.46226778 # occ.  0.00000000
 
ion      s     py     pz     px    dxy    dyz    dz2    dxz    dx2    tot
  1  0.003  0.060  0.195  0.130  0.132  0.184  0.163  0.000  0.064  0.930
 
band   7 # energy   15.84091149 # occ.  0.00000000
 
ion      s     py     pz     px    dxy    dyz    dz2    dxz    dx2    tot
  1  0.482  0.002  0.001  0.004  0.048  0.117  0.023  0.205  0.024  0.906
 
band   8 # energy   19.97382982 # occ.  0.00000000
 
ion      s     py     pz     px    dxy    dyz    dz2    dxz    dx2    tot
  1 43.953  0.000  0.000  0.000  0.000  0.000  0.000  0.000  0.000 43.954
 
band   9 # energy   21.75121790 # occ.  0.00000000
 
ion      s     py     pz     px    dxy    dyz    dz2    dxz    dx2    tot
  1  0.016  0.007  0.096  0.003  0.020  0.060  0.181  0.008  0.008  0.399
 

 k-point   10 :   -0.25000000 0.25000000 0.08333333     weight = 0.05555556

band   1 # energy    2.70281486 # occ.  1.00000000
 
ion      s     py     pz     px    dxy    dyz    dz2    dxz    dx2    tot
  1  0.396  0.070  0.003  0.157  0.204  0.067  0.016  0.032  0.028  0.974
 
band   2 # energy    4.81972307 # occ.  1.00000000
 
ion      s     py     pz     px    dxy    dyz    dz2    dxz    dx2    tot
  1  0.005  0.069  0.125  0.032  0.028  0.368  0.165  0.106  0.051  0.949
 
band   3 # energy    5.21192579 # occ.  1.00000000
 
ion      s     py     pz     px    dxy    dyz    dz2    dxz    dx2    tot
  1  0.021  0.012  0.041  0.003  0.239  0.220  0.332  0.034  0.060  0.962
 
band   4 # energy    8.10267322 # occ.  0.00000000
 
ion      s     py     pz     px    dxy    dyz    dz2    dxz    dx2    tot
  1  0.001  0.003  0.003  0.055  0.011  0.033  0.081  0.110  0.648  0.944
 
band   5 # energy   10.08543929 # occ.  0.00000000
 
ion      s     py     pz     px    dxy    dyz    dz2    dxz    dx2    tot
  1  0.000  0.000  0.020  0.018  0.000  0.208  0.006  0.560  0.120  0.932
 
band   6 # energy   13.69816951 # occ.  0.00000000
 
ion      s     py     pz     px    dxy    dyz    dz2    dxz    dx2    tot
  1  0.108  0.024  0.004  0.049  0.504  0.002  0.297  0.001  0.000  0.988
 
band   7 # energy   18.47253444 # occ.  0.00000000
 
ion      s     py     pz     px    dxy    dyz    dz2    dxz    dx2    tot
  1  0.209  0.139  0.026  0.117  0.047  0.021  0.126  0.037  0.002  0.724
 
band   8 # energy   19.97756183 # occ.  0.00000000
 
ion      s     py     pz     px    dxy    dyz    dz2    dxz    dx2    tot
  1 44.025  0.001  0.000  0.000  0.000  0.000  0.001  0.000  0.000 44.028
 
band   9 # energy   22.36388879 # occ.  0.00000000
 
ion      s     py     pz     px    dxy    dyz    dz2    dxz    dx2    tot
  1  0.017  0.016  0.014  0.066  0.035  0.028  0.070  0.015  0.039  0.300
 

 k-point   11 :   -0.08333333 0.25000000 0.08333333     weight = 0.05555556

band   1 # energy    0.70422880 # occ.  1.00000000
 
ion      s     py     pz     px    dxy    dyz    dz2    dxz    dx2    tot
  1  0.658  0.044  0.003  0.138  0.050  0.010  0.009  0.010  0.014  0.934
 
band   2 # energy    4.91768360 # occ.  1.00000000
 
ion      s     py     pz     px    dxy    dyz    dz2    dxz    dx2    tot
  1  0.004  0.013  0.067  0.008  0.012  0.727  0.002  0.157  0.002  0.992
 
band   3 # energy    6.60934341 # occ.  0.00000000
 
ion      s     py     pz     px    dxy    dyz    dz2    dxz    dx2    tot
  1  0.005  0.027  0.000  0.001  0.369  0.037  0.323  0.004  0.186  0.951
 
band   4 # energy    7.81489132 # occ.  0.00000000
 
ion      s     py     pz     px    dxy    dyz    dz2    dxz    dx2    tot
  1  0.001  0.007  0.013  0.006  0.100  0.085  0.049  0.437  0.272  0.969
 
band   5 # energy    8.91936137 # occ.  0.00000000
 
ion      s     py     pz     px    dxy    dyz    dz2    dxz    dx2    tot
  1  0.006  0.004  0.010  0.029  0.073  0.101  0.001  0.295  0.427  0.947
 
band   6 # energy   11.28511077 # occ.  0.00000000
 
ion      s     py     pz     px    dxy    dyz    dz2    dxz    dx2    tot
  1  0.010  0.019  0.000  0.014  0.310  0.001  0.559  0.010  0.032  0.955
 
band   7 # energy   19.95595886 # occ.  0.00000000
 
ion      s     py     pz     px    dxy    dyz    dz2    dxz    dx2    tot
  1 41.532  0.002  0.001  0.002  0.003  0.000  0.002  0.000  0.000 41.543
 
band   8 # energy   20.27955244 # occ.  0.00000000
 
ion      s     py     pz     px    dxy    dyz    dz2    dxz    dx2    tot
  1  2.383  0.045  0.015  0.025  0.074  0.000  0.054  0.009  0.012  2.618
 
band   9 # energy   23.65029718 # occ.  0.00000000
 
ion      s     py     pz     px    dxy    dyz    dz2    dxz    dx2    tot
  1  0.082  0.051  0.021  0.037  0.054  0.162  0.000  0.081  0.002  0.490
 

 k-point   12 :    0.41666667 0.41666667 0.08333333     weight = 0.02777778

band   1 # energy    1.89109928 # occ.  1.00000000
 
ion      s     py     pz     px    dxy    dyz    dz2    dxz    dx2    tot
  1  0.224  0.004  0.077  0.004  0.006  0.001  0.615  0.001  0.000  0.933
 
band   2 # energy    3.17395403 # occ.  1.00000000
 
ion      s     py     pz     px    dxy    dyz    dz2    dxz    dx2    tot
  1  0.000  0.008  0.000  0.008  1.013  0.002  0.004  0.002  0.000  1.038
 
band   3 # energy    7.19238566 # occ.  0.00000000
 
ion      s     py     pz     px    dxy    dyz    dz2    dxz    dx2    tot
  1  0.164  0.002  0.455  0.002  0.002  0.062  0.221  0.062  0.000  0.968
 
band   4 # energy   10.52284808 # occ.  0.00000000
 
ion      s     py     pz     px    dxy    dyz    dz2    dxz    dx2    tot
  1  0.000  0.041  0.000  0.041  0.000  0.247  0.000  0.247  0.355  0.930
 
band   5 # energy   11.65452669 # occ.  0.00000000
 
ion      s     py     pz     px    dxy    dyz    dz2    dxz    dx2    tot
  1  0.012  0.052  0.087  0.052  0.007  0.347  0.032  0.347  0.000  0.937
 
band   6 # energy   12.33112370 # occ.  0.00000000
 
ion      s     py     pz     px    dxy    dyz    dz2    dxz    dx2    tot
  1  0.000  0.006  0.000  0.006  0.000  0.178  0.000  0.178  0.601  0.970
 
band   7 # energy   19.27672819 # occ.  0.00000000
 
ion      s     py     pz     px    dxy    dyz    dz2    dxz    dx2    tot
  1  0.317  0.196  0.052  0.196  0.008  0.088  0.006  0.088  0.000  0.953
 
band   8 # energy   19.97737899 # occ.  0.00000000
 
ion      s     py     pz     px    dxy    dyz    dz2    dxz    dx2    tot
  1 43.450  0.004  0.000  0.004  0.000  0.002  0.000  0.002  0.000 43.462
 
band   9 # energy   20.65831589 # occ.  0.00000000
 
ion      s     py     pz     px    dxy    dyz    dz2    dxz    dx2    tot
  1  0.000  0.298  0.000  0.298  0.000  0.092  0.000  0.093  0.024  0.806
 

 k-point   13 :   -0.41666667 0.41666667 0.08333333     weight = 0.05555556

band   1 # energy    2.33179413 # occ.  1.00000000
 
ion      s     py     pz     px    dxy    dyz    dz2    dxz    dx2    tot
  1  0.095  0.038  0.008  0.001  0.038  0.000  0.741  0.000  0.004  0.926
 
band   2 # energy    3.35740580 # occ.  1.00000000
 
ion      s     py     pz     px    dxy    dyz    dz2    dxz    dx2    tot
  1  0.000  0.015  0.000  0.067  0.916  0.000  0.024  0.002  0.000  1.024
 
band   3 # energy    7.19802321 # occ.  0.00000000
 
ion      s     py     pz     px    dxy    dyz    dz2    dxz    dx2    tot
  1  0.036  0.002  0.495  0.000  0.003  0.382  0.015  0.029  0.009  0.971
 
band   4 # energy   10.29333019 # occ.  0.00000000
 
ion      s     py     pz     px    dxy    dyz    dz2    dxz    dx2    tot
  1  0.033  0.062  0.030  0.008  0.000  0.001  0.007  0.022  0.752  0.914
 
band   5 # energy   12.66234094 # occ.  0.00000000
 
ion      s     py     pz     px    dxy    dyz    dz2    dxz    dx2    tot
  1  0.010  0.002  0.001  0.019  0.006  0.121  0.000  0.774  0.021  0.954
 
band   6 # energy   14.99706061 # occ.  0.00000000
 
ion      s     py     pz     px    dxy    dyz    dz2    dxz    dx2    tot
  1  0.017  0.009  0.342  0.020  0.003  0.481  0.022  0.087  0.010  0.992
 
band   7 # energy   16.07464820 # occ.  0.00000000
 
ion      s     py     pz     px    dxy    dyz    dz2    dxz    dx2    tot
  1  0.381  0.094  0.009  0.156  0.031  0.006  0.014  0.038  0.087  0.817
 
band   8 # energy   19.14001336 # occ.  0.00000000
 
ion      s     py     pz     px    dxy    dyz    dz2    dxz    dx2    tot
  1  0.115  0.042  0.021  0.498  0.033  0.001  0.038  0.033  0.091  0.873
 
band   9 # energy   19.97611874 # occ.  0.00000000
 
ion      s     py     pz     px    dxy    dyz    dz2    dxz    dx2    tot
  1 43.675  0.003  0.000  0.002  0.000  0.000  0.000  0.000  0.002 43.682
 

 k-point   14 :   -0.25000000 0.41666667 0.08333333     weight = 0.05555556

band   1 # energy    3.46897757 # occ.  1.00000000
 
ion      s     py     pz     px    dxy    dyz    dz2    dxz    dx2    tot
  1  0.101  0.012  0.015  0.011  0.395  0.016  0.396  0.009  0.010  0.965
 
band   2 # energy    4.07609196 # occ.  1.00000000
 
ion      s     py     pz     px    dxy    dyz    dz2    dxz    dx2    tot
  1  0.048  0.136  0.004  0.143  0.230  0.037  0.285  0.014  0.042  0.939
 
band   3 # energy    5.69971671 # occ.  1.00000000
 
ion      s     py     pz     px    dxy    dyz    dz2    dxz    dx2    tot
  1  0.002  0.010  0.289  0.022  0.081  0.483  0.001  0.096  0.001  0.984
 
band   4 # energy    8.67451029 # occ.  0.00000000
 
ion      s     py     pz     px    dxy    dyz    dz2    dxz    dx2    tot
  1  0.025  0.009  0.008  0.045  0.007  0.005  0.045  0.049  0.733  0.926
 
band   5 # energy   11.54086872 # occ.  0.00000000
 
ion      s     py     pz     px    dxy    dyz    dz2    dxz    dx2    tot
  1  0.023  0.001  0.011  0.000  0.018  0.239  0.002  0.603  0.035  0.931
 
band   6 # energy   14.08579556 # occ.  0.00000000
 
ion      s     py     pz     px    dxy    dyz    dz2    dxz    dx2    tot
  1  0.418  0.019  0.020  0.094  0.228  0.002  0.016  0.022  0.049  0.867
 
band   7 # energy   17.54241702 # occ.  0.00000000
 
ion      s     py     pz     px    dxy    dyz    dz2    dxz    dx2    tot
  1  0.099  0.037  0.270  0.076  0.012  0.177  0.156  0.151  0.002  0.980
 
band   8 # energy   19.96817814 # occ.  0.00000000
 
ion      s     py     pz     px    dxy    dyz    dz2    dxz    dx2    tot
  1 43.061  0.001  0.005  0.002  0.001  0.002  0.002  0.002  0.000 43.075
 
band   9 # energy   20.48300845 # occ.  0.00000000
 
ion      s     py     pz     px    dxy    dyz    dz2    dxz    dx2    tot
  1  1.010  0.052  0.252  0.135  0.024  0.097  0.250  0.086  0.008  1.913
 

 k-point   15 :   -0.08333333 0.41666667 0.08333333     weight = 0.05555556

band   1 # energy    2.07189265 # occ.  1.00000000
 
ion      s     py     pz     px    dxy    dyz    dz2    dxz    dx2    tot
  1  0.360  0.012  0.005  0.070  0.202  0.216  0.003  0.133  0.009  1.009
 
band   2 # energy    5.30285278 # occ.  1.00000000
 
ion      s     py     pz     px    dxy    dyz    dz2    dxz    dx2    tot
  1  0.004  0.127  0.068  0.051  0.088  0.003  0.360  0.022  0.177  0.899
 
band   3 # energy    6.13614306 # occ.  0.57968084
 
ion      s     py     pz     px    dxy    dyz    dz2    dxz    dx2    tot
  1  0.032  0.049  0.131  0.100  0.150  0.410  0.080  0.021  0.012  0.985
 
band   4 # energy    7.21005479 # occ.  0.00000000
 
ion      s     py     pz     px    dxy    dyz    dz2    dxz    dx2    tot
  1  0.001  0.005  0.004  0.020  0.046  0.052  0.148  0.247  0.448  0.969
 
band   5 # energy   11.43810355 # occ.  0.00000000
 
ion      s     py     pz     px    dxy    dyz    dz2    dxz    dx2    tot
  1  0.000  0.003  0.015  0.040  0.005  0.176  0.011  0.407  0.279  0.935
 
band   6 # energy   13.23450684 # occ.  0.00000000
 
ion      s     py     pz     px    dxy    dyz    dz2    dxz    dx2    tot
  1  0.031  0.031  0.024  0.060  0.436  0.032  0.341  0.014  0.002  0.969
 
band   7 # energy   17.18083108 # occ.  0.00000000
 
ion      s     py     pz     px    dxy    dyz    dz2    dxz    dx2    tot
  1  0.342  0.043  0.029  0.039  0.111  0.073  0.027  0.134  0.001  0.798
 
band   8 # energy   19.97386507 # occ.  0.00000000
 
ion      s     py     pz     px    dxy    dyz    dz2    dxz    dx2    tot
  1 43.874  0.000  0.000  0.000  0.000  0.000  0.000  0.000  0.000 43.875
 
band   9 # energy   20.53945006 # occ.  0.00000000
 
ion      s     py     pz     px    dxy    dyz    dz2    dxz    dx2    tot
  1  0.179  0.019  0.013  0.049  0.005  0.048  0.023  0.012  0.022  0.369
 

 k-point   16 :   -0.41666667-0.41666667 0.08333333     weight = 0.02777778

band   1 # energy    1.74035349 # occ.  1.00000000
 
ion      s     py     pz     px    dxy    dyz    dz2    dxz    dx2    tot
  1  0.126  0.004  0.007  0.004  0.005  0.000  0.788  0.000  0.000  0.936
 
band   2 # energy    2.80920996 # occ.  1.00000000
 
ion      s     py     pz     px    dxy    dyz    dz2    dxz    dx2    tot
  1  0.000  0.008  0.000  0.008  1.035  0.000  0.003  0.000  0.000  1.054
 
band   3 # energy    8.57421704 # occ.  0.00000000
 
ion      s     py     pz     px    dxy    dyz    dz2    dxz    dx2    tot
  1  0.039  0.001  0.751  0.001  0.000  0.079  0.025  0.079  0.000  0.974
 
band   4 # energy   11.65968007 # occ.  0.00000000
 
ion      s     py     pz     px    dxy    dyz    dz2    dxz    dx2    tot
  1  0.000  0.024  0.000  0.024  0.000  0.060  0.000  0.060  0.779  0.948
 
band   5 # energy   12.87603298 # occ.  0.00000000
 
ion      s     py     pz     px    dxy    dyz    dz2    dxz    dx2    tot
  1  0.000  0.003  0.000  0.003  0.000  0.410  0.000  0.410  0.147  0.972
 
band   6 # energy   13.44370712 # occ.  0.00000000
 
ion      s     py     pz     px    dxy    dyz    dz2    dxz    dx2    tot
  1  0.002  0.021  0.152  0.021  0.001  0.383  0.006  0.383  0.000  0.969
 