<?xml version="1.0" encoding="ISO-8859-1"?>
<modeling>
 <generator>
  <i name="program" type="string">vasp </i>
  <i name="version" type="string">5.2.12  </i>
  <i name="subversion" type="string">11Nov11 complex                                                      parallel </i>
  <i name="platform" type="string">LinuxIFC </i>
  <i name="date" type="string">2012 10 17 </i>
  <i name="time" type="string">11:06:56 </i>
 </generator>
 <incar>
  <i type="int" name="ISTART">     0</i>
  <i type="string" name="PREC">accurate</i>
  <i type="int" name="ISPIN">     2</i>
  <i name="ENCUT">    200.00000000</i>
  <v name="MAGMOM">      6.00000000</v>
  <i type="logical" name="LREAL"> F  </i>
  <i type="int" name="ISMEAR">     1</i>
  <i name="SIGMA">      0.05000000</i>
  <i type="logical" name="LORBIT"> F  </i>
 </incar>
 <kpoints>
  <generation param="Monkhorst-Pack">
   <v type="int" name="divisions">       6        6        6 </v>
   <v name="usershift">      0.00000000       0.00000000       0.00000000 </v>
   <v name="genvec1">      0.16666667       0.00000000       0.00000000 </v>
   <v name="genvec2">      0.00000000       0.16666667       0.00000000 </v>
   <v name="genvec3">      0.00000000       0.00000000       0.16666667 </v>
   <v name="shift">      0.50000000       0.50000000       0.50000000 </v>
  </generation>
  <varray name="kpointlist" >
   <v>       0.08333333       0.08333333       0.08333333 </v>
   <v>       0.25000000       0.08333333       0.08333333 </v>
   <v>       0.41666667       0.08333333       0.08333333 </v>
   <v>      -0.41666667       0.08333333       0.08333333 </v>
   <v>      -0.25000000       0.08333333       0.08333333 </v>
   <v>      -0.08333333       0.08333333       0.08333333 </v>
   <v>       0.25000000       0.25000000       0.08333333 </v>
   <v>       0.41666667       0.25000000       0.08333333 </v>
   <v>      -0.41666667       0.25000000       0.08333333 </v>
   <v>      -0.25000000       0.25000000       0.08333333 </v>
   <v>      -0.08333333       0.25000000       0.08333333 </v>
   <v>       0.41666667       0.41666667       0.08333333 </v>
   <v>      -0.41666667       0.41666667       0.08333333 </v>
   <v>      -0.25000000       0.41666667       0.08333333 </v>
   <v>      -0.08333333       0.41666667       0.08333333 </v>
   <v>      -0.41666667      -0.41666667       0.08333333 </v>
   <v>      -0.25000000      -0.41666667       0.08333333 </v>
   <v>      -0.25000000      -0.25000000       0.08333333 </v>
   <v>       0.25000000       0.25000000       0.25000000 </v>
   <v>       0.41666667       0.25000000       0.25000000 </v>
   <v>      -0.41666667       0.25000000       0.25000000 </v>
   <v>      -0.25000000       0.25000000       0.25000000 </v>
   <v>       0.41666667       0.41666667       0.25000000 </v>
   <v>      -0.41666667       0.41666667       0.25000000 </v>
   <v>      -0.25000000       0.41666667       0.25000000 </v>
   <v>      -0.41666667      -0.41666667       0.25000000 </v>
   <v>       0.41666667       0.41666667       0.41666667 </v>
   <v>      -0.41666667       0.41666667       0.41666667 </v>
  </varray>
  <varray name="weights" >
   <v>       0.00925926 </v>
   <v>       0.02777778 </v>
   <v>       0.02777778 </v>
   <v>       0.02777778 </v>
   <v>       0.02777778 </v>
   <v>       0.02777778 </v>
   <v>       0.02777778 </v>
   <v>       0.05555556 </v>
   <v>       0.05555556 </v>
   <v>       0.05555556 </v>
   <v>       0.05555556 </v>
   <v>       0.02777778 </v>
   <v>       0.05555556 </v>
   <v>       0.05555556 </v>
   <v>       0.05555556 </v>
   <v>       0.02777778 </v>
   <v>       0.05555556 </v>
   <v>       0.02777778 </v>
   <v>       0.00925926 </v>
   <v>       0.02777778 </v>
   <v>       0.02777778 </v>
   <v>       0.02777778 </v>
   <v>       0.02777778 </v>
   <v>       0.05555556 </v>
   <v>       0.05555556 </v>
   <v>       0.02777778 </v>
   <v>       0.00925926 </v>
   <v>       0.02777778 </v>
  </varray>
 </kpoints>
 <parameters>
  <separator name="general" >
   <i type="string" name="SYSTEM">unknown system</i>
   <i type="logical" name="LCOMPAT"> F  </i>
  </separator>
  <separator name="electronic" >
   <i type="string" name="PREC">accura</i>
   <i name="ENMAX">    200.00000000</i>
   <i name="ENAUG">    332.07500000</i>
   <i name="EDIFF">      0.00010000</i>
   <i type="int" name="IALGO">    38</i>
   <i type="int" name="IWAVPR">    10</i>
   <i type="int" name="NBANDS">     9</i>
   <i name="NELECT">      5.00000000</i>
   <i type="int" name="TURBO">     0</i>
   <i type="int" name="IRESTART">     0</i>
   <i type="int" name="NREBOOT">     0</i>
   <i type="int" name="NMIN">     0</i>
   <i name="EREF">      0.00000000</i>
   <separator name="electronic smearing" >
    <i type="int" name="ISMEAR">     1</i>
    <i name="SIGMA">      0.05000000</i>
    <i name="KSPACING">      0.50000000</i>
    <i type="logical" name="KGAMMA"> T  </i>
   </separator>
   <separator name="electronic projectors" >
    <i type="logical" name="LREAL"> F  </i>
    <v name="ROPT">      0.00000000</v>
    <i type="int" name="LMAXPAW">  -100</i>
    <i type="int" name="LMAXMIX">     2</i>
    <i type="logical" name="NLSPLINE"> F  </i>
   </separator>
   <separator name="electronic startup" >
    <i type="int" name="ISTART">     0</i>
    <i type="int" name="ICHARG">     2</i>
    <i type="int" name="INIWAV">     1</i>
   </separator>
   <separator name="electronic spin" >
    <i type="int" name="ISPIN">     2</i>
    <i type="logical" name="LNONCOLLINEAR"> F  </i>
    <v name="MAGMOM">      6.00000000</v>
    <i name="NUPDOWN">     -1.00000000</i>
    <i type="logical" name="LSORBIT"> F  </i>
    <v name="SAXIS">      0.00000000      0.00000000      1.00000000</v>
    <i type="logical" name="LSPIRAL"> F  </i>
    <v name="QSPIRAL">      0.00000000      0.00000000      0.00000000</v>
    <i type="logical" name="LZEROZ"> F  </i>
   </separator>
   <separator name="electronic exchange-correlation" >
    <i type="logical" name="LASPH"> F  </i>
    <i type="logical" name="LMETAGGA"> F  </i>
   </separator>
   <separator name="electronic convergence" >
    <i type="int" name="NELM">    60</i>
    <i type="int" name="NELMDL">    -5</i>
    <i type="int" name="NELMIN">     2</i>
    <i name="ENINI">    200.00000000</i>
    <separator name="electronic convergence detail" >
     <i type="logical" name="LDIAG"> T  </i>
     <i type="logical" name="LSUBROT"> T  </i>
     <i name="WEIMIN">      0.00000000</i>
     <i name="EBREAK">      0.00000278</i>
     <i name="DEPER">      0.30000000</i>
     <i type="int" name="NRMM">     4</i>
     <i name="TIME">      0.40000000</i>
    </separator>
   </separator>
   <separator name="electronic mixer" >
    <i name="AMIX">      0.40000000</i>
    <i name="BMIX">      1.00000000</i>
    <i name="AMIN">      0.10000000</i>
    <i name="AMIX_MAG">      1.60000000</i>
    <i name="BMIX_MAG">      1.00000000</i>
    <separator name="electronic mixer details" >
     <i type="int" name="IMIX">     4</i>
     <i type="int" name="MAXMIX">   -45</i>
     <i name="WC">    100.00000000</i>
     <i type="int" name="INIMIX">     1</i>
     <i type="int" name="MIXPRE">     1</i>
     <i type="int" name="MREMOVE">     5</i>
    </separator>
   </separator>
   <separator name="electronic dipolcorrection" >
    <i type="logical" name="LDIPOL"> F  </i>
    <i type="logical" name="LMONO"> F  </i>
    <i type="int" name="IDIPOL">     0</i>
    <i name="EPSILON">      1.00000000</i>
    <v name="DIPOL">   -100.00000000   -100.00000000   -100.00000000</v>
    <i name="EFIELD">      0.00000000</i>
   </separator>
  </separator>
  <separator name="grids" >
   <i type="int" name="NGX">    14</i>
   <i type="int" name="NGY">    14</i>
   <i type="int" name="NGZ">    14</i>
   <i type="int" name="NGXF">    28</i>
   <i type="int" name="NGYF">    28</i>
   <i type="int" name="NGZF">    28</i>
   <i type="logical" name="ADDGRID"> F  </i>
  </separator>
  <separator name="ionic" >
   <i type="int" name="NSW">     0</i>
   <i type="int" name="IBRION">    -1</i>
   <i type="int" name="ISIF">     2</i>
   <i name="PSTRESS">      0.00000000</i>
   <i name="EDIFFG">      0.00100000</i>
   <i type="int" name="NFREE">     0</i>
   <i name="POTIM">      0.50000000</i>
   <i name="SMASS">     -3.00000000</i>
   <i name="SCALEE">      1.00000000</i>
  </separator>
  <separator name="ionic md" >
   <i name="TEBEG">      0.00010000</i>
   <i name="TEEND">      0.00010000</i>
   <i type="int" name="NBLOCK">     1</i>
   <i type="int" name="KBLOCK">     1</i>
   <i type="int" name="NPACO">   256</i>
   <i name="APACO">     16.00000000</i>
  </separator>
  <separator name="symmetry" >
   <i type="int" name="ISYM">     2</i>
   <i name="SYMPREC">      0.00001000</i>
  </separator>
  <separator name="dos" >
   <i type="logical" name="LORBIT"> F  </i>
   <v name="RWIGS">     -1.00000000</v>
   <i type="int" name="NEDOS">   301</i>
   <i name="EMIN">     10.00000000</i>
   <i name="EMAX">    -10.00000000</i>
   <i name="EFERMI">      0.00000000</i>
  </separator>
  <separator name="writing" >
   <i type="int" name="NWRITE">     2</i>
   <i type="logical" name="LWAVE"> T  </i>
   <i type="logical" name="LCHARG"> T  </i>
   <i type="logical" name="LPARD"> F  </i>
   <i type="logical" name="LVTOT"> F  </i>
   <i type="logical" name="LVHAR"> F  </i>
   <i type="logical" name="LELF"> F  </i>
   <i type="logical" name="LOPTICS"> F  </i>
   <v name="STM">      0.00000000      0.00000000      0.00000000      0.00000000      0.00000000      0.00000000      0.00000000</v>
  </separator>
  <separator name="performance" >
   <i type="int" name="NPAR">     1</i>
   <i type="int" name="NSIM">     4</i>
   <i type="int" name="NBLK">    -1</i>
   <i type="logical" name="LPLANE"> T  </i>
   <i type="logical" name="LSCALAPACK"> F  </i>
   <i type="logical" name="LSCAAWARE"> F  </i>
   <i type="logical" name="LSCALU"> F  </i>
   <i type="logical" name="LASYNC"> F  </i>
   <i type="logical" name="LORBITALREAL"> F  </i>
  </separator>
  <separator name="miscellaneous" >
   <i type="int" name="IDIOT">     3</i>
   <i type="logical" name="LMUSIC"> F  </i>
   <v name="POMASS">    180.94800000</v>
   <v name="DARWINR">      0.00000000</v>
   <v name="DARWINV">      1.00000000</v>
   <i type="logical" name="LCORR"> T  </i>
  </separator>
  <i type="logical" name="GGA_COMPAT"> T  </i>
  <i type="logical" name="LBERRY"> F  </i>
  <i type="int" name="ICORELEVEL">     0</i>
  <i type="logical" name="LDAU"> F  </i>
  <i type="int" name="I_CONSTRAINED_M">     0</i>
  <separator name="electronic exchange-correlation" >
   <i type="string" name="GGA">--</i>
   <i type="int" name="VOSKOWN">     0</i>
   <i type="logical" name="LHFCALC"> F  </i>
   <i type="string" name="PRECFOCK"></i>
   <i type="logical" name="LHFONE"> F  </i>
   <i type="logical" name="LRHFCALC"> F  </i>
   <i type="logical" name="LTHOMAS"> F  </i>
   <i type="logical" name="LMODELHF"> F  </i>
   <i name="ENCUT4O">     -1.00000000</i>
   <i type="int" name="EXXOEP">     0</i>
   <i type="int" name="FOURORBIT">     0</i>
   <i name="AEXX">      0.00000000</i>
   <i name="HFALPHA">      0.00000000</i>
   <i name="ALDAX">      1.00000000</i>
   <i name="AGGAX">      1.00000000</i>
   <i name="ALDAC">      1.00000000</i>
   <i name="AGGAC">      1.00000000</i>
   <i type="int" name="NKREDX">     1</i>
   <i type="int" name="NKREDY">     1</i>
   <i type="int" name="NKREDZ">     1</i>
   <i type="logical" name="SHIFTRED"> F  </i>
   <i type="logical" name="ODDONLY"> F  </i>
   <i type="logical" name="EVENONLY"> F  </i>
   <i type="int" name="LMAXFOCK">     0</i>
   <i type="int" name="NMAXFOCKAE">     0</i>
   <i type="logical" name="LFOCKAEDFT"> F  </i>
   <i name="HFSCREEN">      0.00000000</i>
   <i name="HFSCREENC">      0.00000000</i>
  </separator>
  <separator name="vdW DFT" >
   <i type="logical" name="LUSE_VDW"> F  </i>
   <i name="Zab_VDW">     -0.84910000</i>
   <i name="PARAM1">      0.12340000</i>
   <i name="PARAM2">      1.00000000</i>
   <i name="PARAM3">      0.00000000</i>
  </separator>
  <separator name="model GW" >
   <i type="int" name="MODEL_GW">     0</i>
   <i name="MODEL_EPS0">     10.72100625</i>
   <i name="MODEL_ALPHA">      1.00000000</i>
  </separator>
  <separator name="linear response parameters" >
   <i type="logical" name="LEPSILON"> F  </i>
   <i type="logical" name="LRPA"> F  </i>
   <i type="logical" name="LNABLA"> F  </i>
   <i type="logical" name="LVEL"> F  </i>
   <i type="int" name="KINTER">     0</i>
   <i name="CSHIFT">      0.10000000</i>
   <i name="OMEGAMAX">     -1.00000000</i>
  </separator>
  <separator name="orbital magnetization" >
   <i type="logical" name="NUCIND"> F  </i>
   <v name="MAGPOS">      0.00000000      0.00000000      0.00000000</v>
   <i type="logical" name="LNICSALL"> T  </i>
   <i type="logical" name="ORBITALMAG"> F  </i>
   <i type="logical" name="LMAGBLOCH"> F  </i>
   <i type="logical" name="LCHIMAG"> F  </i>
   <i type="logical" name="LGAUGE"> T  </i>
   <i type="int" name="MAGATOM">     0</i>
   <v name="MAGDIPOL">      0.00000000      0.00000000      0.00000000</v>
   <v name="AVECCONST">      0.00000000      0.00000000      0.00000000</v>
  </separator>
  <separator name="response functions" >
   <i type="logical" name="LADDER"> F  </i>
   <i type="logical" name="LHARTREE"> T  </i>
   <i type="int" name="IBSE">     0</i>
   <i type="logical" name="LTCTE"> F  </i>
   <i type="logical" name="LTETE"> F  </i>
   <i type="logical" name="LFXCEPS"> F  </i>
   <i type="logical" name="L2ORDER"> F  </i>
   <i type="logical" name="LUSEW"> F  </i>
   <i name="ENCUTGW">     -2.00000000</i>
   <i name="ENCUTGWSOFT">     -2.00000000</i>
   <i name="ENCUTLF">     -1.00000000</i>
   <i type="int" name="LMAXMP2">    -1</i>
   <i name="SCISSOR">      0.00000000</i>
   <i type="int" name="NOMEGA">     0</i>
   <i type="int" name="NOMEGAR">     0</i>
   <i type="int" name="NBANDSGW">    -1</i>
   <i type="int" name="NBANDSO">    -1</i>
   <i type="int" name="NBANDSV">    -1</i>
   <i name="OPTEMAX">      0.00000000</i>
   <i type="int" name="NELM">     1</i>
   <i type="int" name="DIM">     3</i>
   <i type="int" name="ANTIRES">     0</i>
   <i name="OMEGAMAX">    -30.00000000</i>
   <i name="OMEGATL">   -200.00000000</i>
   <i type="int" name="OMEGAGRID">     0</i>
   <i name="CSHIFT">     -0.10000000</i>
   <i type="logical" name="SELFENERGY"> F  </i>
   <i type="logical" name="LSPECTRAL"> F  </i>
   <i type="logical" name="ODDONLYGW"> F  </i>
   <i type="logical" name="EVENONLYGW"> F  </i>
   <i type="int" name="NKREDLFX">     1</i>
   <i type="int" name="NKREDLFY">     1</i>
   <i type="int" name="NKREDLFZ">     1</i>
   <i type="int" name="MAXMEM">  1800</i>
   <i type="int" name="TELESCOPE">     0</i>
  </separator>
 </parameters>
 <atominfo>
  <atoms>       1 </atoms>
  <types>       1 </types>
  <array name="atoms" >
   <dimension dim="1">ion</dimension>
   <field type="string">element</field>
   <field type="int">atomtype</field>
   <set>
    <rc><c>Ta</c><c>   1</c></rc>
   </set>
  </array>
  <array name="atomtypes" >
   <dimension dim="1">type</dimension>
   <field type="int">atomspertype</field>
   <field type="string">element</field>
   <field>mass</field>
   <field>valence</field>
   <field type="string">pseudopotential</field>
   <set>
    <rc><c>   1</c><c>Ta</c><c>    180.94800000</c><c>      5.00000000</c><c>  PAW_PBE Ta 17Jan2003                  </c></rc>
   </set>
  </array>
 </atominfo>
 <structure name="initialpos" >
  <crystal>
   <varray name="basis" >
    <v>       0.00000000       2.07500000       2.07500000 </v>
    <v>       2.07500000       0.00000000       2.07500000 </v>
    <v>       2.07500000       2.07500000       0.00000000 </v>
   </varray>
   <i name="volume">     17.86834375 </i>
   <varray name="rec_basis" >
    <v>      -0.24096386       0.24096386       0.24096386 </v>
    <v>       0.24096386      -0.24096386       0.24096386 </v>
    <v>       0.24096386       0.24096386      -0.24096386 </v>
   </varray>
  </crystal>
  <varray name="positions" >
   <v>       0.00000000       0.00000000       0.00000000 </v>
  </varray>
 </structure>
 <calculation>
  <scstep>
   <time name="dav">    0.61    0.61</time>
   <time name="total">    0.71    0.72</time>
   <energy>
    <i name="alphaZ">     31.03520437 </i>
    <i name="ewald">   -198.85854833 </i>
    <i name="hartreedc">     -2.45820869 </i>
    <i name="XCdc">    -60.68692257 </i>
    <i name="pawpsdc">    143.51874798 </i>
    <i name="pawaedc">    -69.33493833 </i>
    <i name="eentropy">     -0.00077007 </i>
    <i name="bandstr">     28.68603089 </i>
    <i name="atom">    130.57950032 </i>
    <i name="e_fr_energy">      2.48009556 </i>
    <i name="e_wo_entrp">      2.48086563 </i>
    <i name="e_0_energy">      2.48035225 </i>
   </energy>
  </scstep>
  <scstep>
   <time name="dav">    0.67    0.67</time>
   <time name="total">    0.67    0.69</time>
   <energy>
    <i name="e_fr_energy">     -1.91545899 </i>
    <i name="e_wo_entrp">     -1.91544504 </i>
    <i name="e_0_energy">     -1.91545434 </i>
   </energy>
  </scstep>
  <scstep>
   <time name="dav">    0.67    0.67</time>
   <time name="total">    0.68    0.71</time>
   <energy>
    <i name="e_fr_energy">     -1.94170944 </i>
    <i name="e_wo_entrp">     -1.94159773 </i>
    <i name="e_0_energy">     -1.94167220 </i>
   </energy>
  </scstep>
  <scstep>
   <time name="dav">    0.71    0.71</time>
   <time name="total">    0.71    0.73</time>
   <energy>
    <i name="e_fr_energy">     -1.94173367 </i>
    <i name="e_wo_entrp">     -1.94162195 </i>
    <i name="e_0_energy">     -1.94169643 </i>
   </energy>
  </scstep>
  <scstep>
   <time name="dav">    0.67    0.67</time>
   <time name="total">    0.72    0.74</time>
   <energy>
    <i name="e_fr_energy">     -1.94173370 </i>
    <i name="e_wo_entrp">     -1.94162198 </i>
    <i name="e_0_energy">     -1.94169646 </i>
   </energy>
  </scstep>
  <scstep>
   <time name="dav">    0.60    0.60</time>
   <time name="total">    0.75    0.76</time>
   <energy>
    <i name="e_fr_energy">    -11.31736903 </i>
    <i name="e_wo_entrp">    -11.31749450 </i>
    <i name="e_0_energy">    -11.31741085 </i>
   </energy>
  </scstep>
  <scstep>
   <time name="dav">    0.65    0.66</time>
   <time name="total">    0.80    0.83</time>
   <energy>
    <i name="e_fr_energy">    -11.46718349 </i>
    <i name="e_wo_entrp">    -11.46735251 </i>
    <i name="e_0_energy">    -11.46723983 </i>
   </energy>
  </scstep>
  <scstep>
   <time name="dav">    0.59    0.59</time>
   <time name="total">    0.74    0.76</time>
   <energy>
    <i name="e_fr_energy">    -11.21474389 </i>
    <i name="e_wo_entrp">    -11.21480858 </i>
    <i name="e_0_energy">    -11.21476545 </i>
   </energy>
  </scstep>
  <scstep>
   <time name="dav">    0.57    0.57</time>
   <time name="total">    0.71    0.72</time>
   <energy>
    <i name="e_fr_energy">    -11.56563311 </i>
    <i name="e_wo_entrp">    -11.56570035 </i>
    <i name="e_0_energy">    -11.56565552 </i>
   </energy>
  </scstep>
  <scstep>
   <time name="dav">    0.59    0.59</time>
   <time name="total">    0.73    0.74</time>
   <energy>
    <i name="e_fr_energy">    -11.60559691 </i>
    <i name="e_wo_entrp">    -11.60477902 </i>
    <i name="e_0_energy">    -11.60532428 </i>
   </energy>
  </scstep>
  <scstep>
   <time name="dav">    0.63    0.63</time>
   <time name="total">    0.78    0.79</time>
   <energy>
    <i name="e_fr_energy">    -11.60571689 </i>
    <i name="e_wo_entrp">    -11.60485821 </i>
    <i name="e_0_energy">    -11.60543066 </i>
   </energy>
  </scstep>
  <scstep>
   <time name="dav">    0.58    0.58</time>
   <time name="total">    0.72    0.74</time>
   <energy>
    <i name="e_fr_energy">    -11.60581798 </i>
    <i name="e_wo_entrp">    -11.60500509 </i>
    <i name="e_0_energy">    -11.60554702 </i>
   </energy>
  </scstep>
  <scstep>
   <time name="dav">    0.38    0.38</time>
   <time name="total">    0.48    0.49</time>
   <energy>
    <i name="alphaZ">     31.03520437 </i>
    <i name="ewald">   -198.85854833 </i>
    <i name="hartreedc">     -0.58743599 </i>
    <i name="XCdc">    -65.90662992 </i>
    <i name="pawpsdc">    195.69086775 </i>
    <i name="pawaedc">   -122.35720047 </i>
    <i name="eentropy">     -0.00080824 </i>
    <i name="bandstr">     18.79923041 </i>
    <i name="atom">    130.57950032 </i>
    <i name="e_fr_energy">    -11.60582009 </i>
    <i name="e_wo_entrp">    -11.60501185 </i>
    <i name="e_0_energy">    -11.60555068 </i>
   </energy>
  </scstep>
  <parameters_embedded>
   <separator name="dft+d2" >
    <i type="logical" name="LVDW"> F  </i>
   </separator>
  </parameters_embedded>
  <structure>
   <crystal>
    <varray name="basis" >
     <v>       0.00000000       2.07500000       2.07500000 </v>
     <v>       2.07500000       0.00000000       2.07500000 </v>
     <v>       2.07500000       2.07500000       0.00000000 </v>
    </varray>
    <i name="volume">     17.86834375 </i>
    <varray name="rec_basis" >
     <v>      -0.24096386       0.24096386       0.24096386 </v>
     <v>       0.24096386      -0.24096386       0.24096386 </v>
     <v>       0.24096386       0.24096386      -0.24096386 </v>
    </varray>
   </crystal>
   <varray name="positions" >
    <v>       0.00000000       0.00000000       0.00000000 </v>
   </varray>
  </structure>
  <varray name="forces" >
   <v>       0.00000000       0.00000000       0.00000000 </v>
  </varray>
  <varray name="stress" >
   <v>      62.34541949       0.00000000       0.00000000 </v>
   <v>       0.00000000      62.34541949       0.00000000 </v>
   <v>       0.00000000       0.00000000      62.34541949 </v>
  </varray>
  <energy>
   <i name="e_fr_energy">    -11.60582009 </i>
   <i name="e_wo_entrp">    -11.60555068 </i>
   <i name="e_0_energy">     -0.00080824 </i>
  </energy>
  <time name="totalsc">    9.85   10.08</time>
  <eigenvalues>
   <array>
    <dimension dim="1">band</dimension>
    <dimension dim="2">kpoint</dimension>
    <dimension dim="3">spin</dimension>
    <field>eigene</field>
    <field>occ</field>
    <set>
     <set comment="spin 1">
      <set comment="kpoint 1">
       <r>   -1.8288    1.0000 </r>
       <r>    6.3986    0.0000 </r>
       <r>    6.8018    0.0000 </r>
       <r>    6.8018    0.0000 </r>
       <r>    9.7185    0.0000 </r>
       <r>    9.7185    0.0000 </r>
       <r>   19.4186    0.0000 </r>
       <r>   19.9646    0.0000 </r>
       <r>   22.6246    0.0000 </r>
      </set>
      <set comment="kpoint 2">
       <r>   -0.4525    1.0000 </r>
       <r>    5.5060    1.0000 </r>
       <r>    7.0732    0.0000 </r>
       <r>    7.3427    0.0000 </r>
       <r>    8.8792    0.0000 </r>
       <r>   10.2488    0.0000 </r>
       <r>   19.9612    0.0000 </r>
       <r>   20.3593    0.0000 </r>
       <r>   22.2124    0.0000 </r>
      </set>
      <set comment="kpoint 3">
       <r>    1.3839    1.0000 </r>
       <r>    5.6949    1.0000 </r>
       <r>    6.4242    0.0000 </r>
       <r>    6.8734    0.0000 </r>
       <r>   10.5628    0.0000 </r>
       <r>   12.1734    0.0000 </r>
       <r>   17.9528    0.0000 </r>
       <r>   19.9685    0.0000 </r>
       <r>   20.9675    0.0000 </r>
      </set>
      <set comment="kpoint 4">
       <r>    1.6500    1.0000 </r>
       <r>    5.8902    1.0000 </r>
       <r>    6.6607    0.0000 </r>
       <r>    6.8825    0.0000 </r>
       <r>   12.3943    0.0000 </r>
       <r>   12.5777    0.0000 </r>
       <r>   16.7460    0.0000 </r>
       <r>   19.1069    0.0000 </r>
       <r>   19.9748    0.0000 </r>
      </set>
      <set comment="kpoint 5">
       <r>    0.9281    1.0000 </r>
       <r>    5.2695    1.0000 </r>
       <r>    6.6283    0.0000 </r>
       <r>    7.1714    0.0000 </r>
       <r>   10.1235    0.0000 </r>
       <r>   11.1903    0.0000 </r>
       <r>   18.6607    0.0000 </r>
       <r>   19.9710    0.0000 </r>
       <r>   22.5448    0.0000 </r>
      </set>
      <set comment="kpoint 6">
       <r>   -1.1008    1.0000 </r>
       <r>    5.7550    1.0000 </r>
       <r>    7.1502    0.0000 </r>
       <r>    7.1857    0.0000 </r>
       <r>    8.8695    0.0000 </r>
       <r>   10.0671    0.0000 </r>
       <r>   19.9646    0.0000 </r>
       <r>   20.7841    0.0000 </r>
       <r>   21.8312    0.0000 </r>
      </set>
      <set comment="kpoint 7">
       <r>    0.1781    1.0000 </r>
       <r>    4.7840    1.0000 </r>
       <r>    7.1155    0.0000 </r>
       <r>    7.9762    0.0000 </r>
       <r>    8.5641    0.0000 </r>
       <r>   10.7101    0.0000 </r>
       <r>   19.9668    0.0000 </r>
       <r>   21.7164    0.0000 </r>
       <r>   23.4124    0.0000 </r>
      </set>
      <set comment="kpoint 8">
       <r>    1.9687    1.0000 </r>
       <r>    4.2359    1.0000 </r>
       <r>    5.8102    1.0000 </r>
       <r>    8.6158    0.0000 </r>
       <r>   10.0915    0.0000 </r>
       <r>   12.4884    0.0000 </r>
       <r>   19.7856    0.0000 </r>
       <r>   20.0177    0.0000 </r>
       <r>   22.9491    0.0000 </r>
      </set>
      <set comment="kpoint 9">
       <r>    2.9066    1.0000 </r>
       <r>    4.4194    1.0000 </r>
       <r>    5.9713    1.0000 </r>
       <r>    7.9597    0.0000 </r>
       <r>   11.9122    0.0000 </r>
       <r>   14.4623    0.0000 </r>
       <r>   15.8409    0.0000 </r>
       <r>   19.9738    0.0000 </r>
       <r>   21.7512    0.0000 </r>
      </set>
      <set comment="kpoint 10">
       <r>    2.7028    1.0000 </r>
       <r>    4.8197    1.0000 </r>
       <r>    5.2119    1.0000 </r>
       <r>    8.1027    0.0000 </r>
       <r>   10.0854    0.0000 </r>
       <r>   13.6982    0.0000 </r>
       <r>   18.4725    0.0000 </r>
       <r>   19.9776    0.0000 </r>
       <r>   22.3639    0.0000 </r>
      </set>
      <set comment="kpoint 11">
       <r>    0.7042    1.0000 </r>
       <r>    4.9177    1.0000 </r>
       <r>    6.6093    0.0000 </r>
       <r>    7.8149    0.0000 </r>
       <r>    8.9194    0.0000 </r>
       <r>   11.2851    0.0000 </r>
       <r>   19.9560    0.0000 </r>
       <r>   20.2796    0.0000 </r>
       <r>   23.6503    0.0000 </r>
      </set>
      <set comment="kpoint 12">
       <r>    1.8911    1.0000 </r>
       <r>    3.1740    1.0000 </r>
       <r>    7.1924    0.0000 </r>
       <r>   10.5228    0.0000 </r>
       <r>   11.6545    0.0000 </r>
       <r>   12.3311    0.0000 </r>
       <r>   19.2767    0.0000 </r>
       <r>   19.9774    0.0000 </r>
       <r>   20.6583    0.0000 </r>
      </set>
      <set comment="kpoint 13">
       <r>    2.3318    1.0000 </r>
       <r>    3.3574    1.0000 </r>
       <r>    7.1980    0.0000 </r>
       <r>   10.2933    0.0000 </r>
       <r>   12.6623    0.0000 </r>
       <r>   14.9971    0.0000 </r>
       <r>   16.0746    0.0000 </r>
       <r>   19.1400    0.0000 </r>
       <r>   19.9761    0.0000 </r>
      </set>
      <set comment="kpoint 14">
       <r>    3.4690    1.0000 </r>
       <r>    4.0761    1.0000 </r>
       <r>    5.6997    1.0000 </r>
       <r>    8.6745    0.0000 </r>
       <r>   11.5409    0.0000 </r>
       <r>   14.0858    0.0000 </r>
       <r>   17.5424    0.0000 </r>
       <r>   19.9682    0.0000 </r>
       <r>   20.4830    0.0000 </r>
      </set>
      <set comment="kpoint 15">
       <r>    2.0719    1.0000 </r>
       <r>    5.3029    1.0000 </r>
       <r>    6.1361    0.5797 </r>
       <r>    7.2101    0.0000 </r>
       <r>   11.4381    0.0000 </r>
       <r>   13.2345    0.0000 </r>
       <r>   17.1808    0.0000 </r>
       <r>   19.9739    0.0000 </r>
       <r>   20.5395    0.0000 </r>
      </set>
      <set comment="kpoint 16">
       <r>    1.7404    1.0000 </r>
       <r>    2.8092    1.0000 </r>
       <r>    8.5742    0.0000 </r>
       <r>   11.6597    0.0000 </r>
       <r>   12.8760    0.0000 </r>
       <r>   13.4437    0.0000 </r>
       <r>   17.0382    0.0000 </r>
       <r>   18.6934    0.0000 </r>
       <r>   19.9351    0.0000 </r>
      </set>
      <set comment="kpoint 17">
       <r>    2.4816    1.0000 </r>
       <r>    3.6647    1.0000 </r>
       <r>    6.1048    0.9674 </r>
       <r>    9.6800    0.0000 </r>
       <r>   11.6335    0.0000 </r>
       <r>   13.6157    0.0000 </r>
       <r>   17.7742    0.0000 </r>
       <r>   19.9750    0.0000 </r>
       <r>   20.8802    0.0000 </r>
      </set>
      <set comment="kpoint 18">
       <r>    1.4721    1.0000 </r>
       <r>    3.8624    1.0000 </r>
       <r>    6.4585    0.0000 </r>
       <r>    9.1241    0.0000 </r>
       <r>    9.8565    0.0000 </r>
       <r>   11.5470    0.0000 </r>
       <r>   19.9663    0.0000 </r>
       <r>   21.6892    0.0000 </r>
       <r>   23.2694    0.0000 </r>
      </set>
      <set comment="kpoint 19">
       <r>    0.0403    1.0000 </r>
       <r>    5.4713    1.0000 </r>
       <r>    7.0792    0.0000 </r>
       <r>    7.0792    0.0000 </r>
       <r>    9.9103    0.0000 </r>
       <r>    9.9103    0.0000 </r>
       <r>   18.9509    0.0000 </r>
       <r>   19.9696    0.0000 </r>
       <r>   22.9753    0.0000 </r>
      </set>
      <set comment="kpoint 20">
       <r>    1.6249    1.0000 </r>
       <r>    5.0062    1.0000 </r>
       <r>    6.0555    1.0182 </r>
       <r>    7.6843    0.0000 </r>
       <r>    9.1242    0.0000 </r>
       <r>   12.5712    0.0000 </r>
       <r>   19.5429    0.0000 </r>
       <r>   19.9859    0.0000 </r>
       <r>   22.5733    0.0000 </r>
      </set>
      <set comment="kpoint 21">
       <r>    3.2676    1.0000 </r>
       <r>    4.5190    1.0000 </r>
       <r>    5.5024    1.0000 </r>
       <r>    8.1352    0.0000 </r>
       <r>   10.5869    0.0000 </r>
       <r>   13.8447    0.0000 </r>
       <r>   18.1064    0.0000 </r>
       <r>   19.9759    0.0000 </r>
       <r>   21.3555    0.0000 </r>
      </set>
      <set comment="kpoint 22">
       <r>    2.6501    1.0000 </r>
       <r>    4.0939    1.0000 </r>
       <r>    5.9867    1.0001 </r>
       <r>    8.5989    0.0000 </r>
       <r>   12.6003    0.0000 </r>
       <r>   13.5774    0.0000 </r>
       <r>   16.3154    0.0000 </r>
       <r>   19.9740    0.0000 </r>
       <r>   22.1629    0.0000 </r>
      </set>
      <set comment="kpoint 23">
       <r>    1.9659    1.0000 </r>
       <r>    4.7726    1.0000 </r>
       <r>    5.9106    1.0000 </r>
       <r>    7.6983    0.0000 </r>
       <r>   11.4789    0.0000 </r>
       <r>   12.2704    0.0000 </r>
       <r>   18.2795    0.0000 </r>
       <r>   19.9752    0.0000 </r>
       <r>   21.5425    0.0000 </r>
      </set>
      <set comment="kpoint 24">
       <r>    3.4328    1.0000 </r>
       <r>    4.2563    1.0000 </r>
       <r>    5.0801    1.0000 </r>
       <r>    8.8033    0.0000 </r>
       <r>   11.4051    0.0000 </r>
       <r>   14.4222    0.0000 </r>
       <r>   17.3915    0.0000 </r>
       <r>   19.9735    0.0000 </r>
       <r>   20.7021    0.0000 </r>
      </set>
      <set comment="kpoint 25">
       <r>    3.2044    1.0000 </r>
       <r>    4.2718    1.0000 </r>
       <r>    5.6195    1.0000 </r>
       <r>    8.7434    0.0000 </r>
       <r>   12.5622    0.0000 </r>
       <r>   15.7581    0.0000 </r>
       <r>   16.4435    0.0000 </r>
       <r>   18.9768    0.0000 </r>
       <r>   19.9792    0.0000 </r>
      </set>
      <set comment="kpoint 26">
       <r>    2.7112    1.0000 </r>
       <r>    3.7757    1.0000 </r>
       <r>    6.6173    0.0000 </r>
       <r>    9.5821    0.0000 </r>
       <r>   12.1089    0.0000 </r>
       <r>   14.1603    0.0000 </r>
       <r>   16.5014    0.0000 </r>
       <r>   19.9667    0.0000 </r>
       <r>   20.8036    0.0000 </r>
      </set>
      <set comment="kpoint 27">
       <r>    1.3211    1.0000 </r>
       <r>    6.5140    0.0000 </r>
       <r>    6.5140    0.0000 </r>
       <r>    6.5362    0.0000 </r>
       <r>   11.8983    0.0000 </r>
       <r>   11.8983    0.0000 </r>
       <r>   17.1634    0.0000 </r>
       <r>   19.4264    0.0000 </r>
       <r>   19.9812    0.0000 </r>
      </set>
      <set comment="kpoint 28">
       <r>    2.3767    1.0000 </r>
       <r>    5.0440    1.0000 </r>
       <r>    6.3960    0.0000 </r>
       <r>    7.2796    0.0000 </r>
       <r>   11.7288    0.0000 </r>
       <r>   13.7538    0.0000 </r>
       <r>   16.4447    0.0000 </r>
       <r>   19.9752    0.0000 </r>
       <r>   20.7522    0.0000 </r>
      </set>
     </set>
     <set comment="spin 2">
      <set comment="kpoint 1">
       <r>   -1.8103    1.0000 </r>
       <r>    6.4143    0.0000 </r>
       <r>    6.8171    0.0000 </r>
       <r>    6.8171    0.0000 </r>
       <r>    9.7300    0.0000 </r>
       <r>    9.7300    0.0000 </r>
       <r>   19.4426    0.0000 </r>
       <r>   19.9766    0.0000 </r>
       <r>   22.6394    0.0000 </r>
      </set>
      <set comment="kpoint 2">
       <r>   -0.4342    1.0000 </r>
       <r>    5.5227    1.0000 </r>
       <r>    7.0878    0.0000 </r>
       <r>    7.3576    0.0000 </r>
       <r>    8.8913    0.0000 </r>
       <r>   10.2605    0.0000 </r>
       <r>   19.9731    0.0000 </r>
       <r>   20.3743    0.0000 </r>
       <r>   22.2333    0.0000 </r>
      </set>
      <set comment="kpoint 3">
       <r>    1.4025    1.0000 </r>
       <r>    5.7112    1.0000 </r>
       <r>    6.4386    0.0000 </r>
       <r>    6.8871    0.0000 </r>
       <r>   10.5752    0.0000 </r>
       <r>   12.1848    0.0000 </r>
       <r>   17.9663    0.0000 </r>
       <r>   19.9805    0.0000 </r>
       <r>   20.9858    0.0000 </r>
      </set>
      <set comment="kpoint 4">
       <r>    1.6687    1.0000 </r>
       <r>    5.9037    1.0000 </r>
       <r>    6.6745    0.0000 </r>
       <r>    6.8992    0.0000 </r>
       <r>   12.4051    0.0000 </r>
       <r>   12.5892    0.0000 </r>
       <r>   16.7595    0.0000 </r>
       <r>   19.1251    0.0000 </r>
       <r>   19.9868    0.0000 </r>
      </set>
      <set comment="kpoint 5">
       <r>    0.9465    1.0000 </r>
       <r>    5.2862    1.0000 </r>
       <r>    6.6423    0.0000 </r>
       <r>    7.1855    0.0000 </r>
       <r>   10.1365    0.0000 </r>
       <r>   11.2019    0.0000 </r>
       <r>   18.6745    0.0000 </r>
       <r>   19.9829    0.0000 </r>
       <r>   22.5627    0.0000 </r>
      </set>
      <set comment="kpoint 6">
       <r>   -1.0825    1.0000 </r>
       <r>    5.7713    1.0000 </r>
       <r>    7.1653    0.0000 </r>
       <r>    7.2009    0.0000 </r>
       <r>    8.8816    0.0000 </r>
       <r>   10.0783    0.0000 </r>
       <r>   19.9765    0.0000 </r>
       <r>   20.8065    0.0000 </r>
       <r>   21.8458    0.0000 </r>
      </set>
      <set comment="kpoint 7">
       <r>    0.1962    1.0000 </r>
       <r>    4.8009    1.0000 </r>
       <r>    7.1292    0.0000 </r>
       <r>    7.9910    0.0000 </r>
       <r>    8.5783    0.0000 </r>
       <r>   10.7211    0.0000 </r>
       <r>   19.9787    0.0000 </r>
       <r>   21.7297    0.0000 </r>
       <r>   23.4339    0.0000 </r>
      </set>
      <set comment="kpoint 8">
       <r>    1.9858    1.0000 </r>
       <r>    4.2532    1.0000 </r>
       <r>    5.8250    1.0000 </r>
       <r>    8.6294    0.0000 </r>
       <r>   10.1053    0.0000 </r>
       <r>   12.4997    0.0000 </r>
       <r>   19.7985    0.0000 </r>
       <r>   20.0307    0.0000 </r>
       <r>   22.9651    0.0000 </r>
      </set>
      <set comment="kpoint 9">
       <r>    2.9247    1.0000 </r>
       <r>    4.4327    1.0000 </r>
       <r>    5.9888    1.0001 </r>
       <r>    7.9729    0.0000 </r>
       <r>   11.9243    0.0000 </r>
       <r>   14.4754    0.0000 </r>
       <r>   15.8552    0.0000 </r>
       <r>   19.9858    0.0000 </r>
       <r>   21.7661    0.0000 </r>
      </set>
      <set comment="kpoint 10">
       <r>    2.7208    1.0000 </r>
       <r>    4.8356    1.0000 </r>
       <r>    5.2272    1.0000 </r>
       <r>    8.1156    0.0000 </r>
       <r>   10.0990    0.0000 </r>
       <r>   13.7096    0.0000 </r>
       <r>   18.4874    0.0000 </r>
       <r>   19.9896    0.0000 </r>
       <r>   22.3818    0.0000 </r>
      </set>
      <set comment="kpoint 11">
       <r>    0.7224    1.0000 </r>
       <r>    4.9347    1.0000 </r>
       <r>    6.6233    0.0000 </r>
       <r>    7.8290    0.0000 </r>
       <r>    8.9328    0.0000 </r>
       <r>   11.2967    0.0000 </r>
       <r>   19.9677    0.0000 </r>
       <r>   20.2928    0.0000 </r>
       <r>   23.6704    0.0000 </r>
      </set>
      <set comment="kpoint 12">
       <r>    1.9055    1.0000 </r>
       <r>    3.1917    1.0000 </r>
       <r>    7.2104    0.0000 </r>
       <r>   10.5357    0.0000 </r>
       <r>   11.6685    0.0000 </r>
       <r>   12.3417    0.0000 </r>
       <r>   19.2927    0.0000 </r>
       <r>   19.9895    0.0000 </r>
       <r>   20.6748    0.0000 </r>
      </set>
      <set comment="kpoint 13">
       <r>    2.3453    1.0000 </r>
       <r>    3.3751    1.0000 </r>
       <r>    7.2164    0.0000 </r>
       <r>   10.3054    0.0000 </r>
       <r>   12.6744    0.0000 </r>
       <r>   15.0111    0.0000 </r>
       <r>   16.0910    0.0000 </r>
       <r>   19.1566    0.0000 </r>
       <r>   19.9882    0.0000 </r>
      </set>
      <set comment="kpoint 14">
       <r>    3.4846    1.0000 </r>
       <r>    4.0915    1.0000 </r>
       <r>    5.7176    1.0000 </r>
       <r>    8.6871    0.0000 </r>
       <r>   11.5538    0.0000 </r>
       <r>   14.1013    0.0000 </r>
       <r>   17.5559    0.0000 </r>
       <r>   19.9801    0.0000 </r>
       <r>   20.4968    0.0000 </r>
      </set>
      <set comment="kpoint 15">
       <r>    2.0904    1.0000 </r>
       <r>    5.3164    1.0000 </r>
       <r>    6.1531    0.3001 </r>
       <r>    7.2236    0.0000 </r>
       <r>   11.4504    0.0000 </r>
       <r>   13.2458    0.0000 </r>
       <r>   17.1946    0.0000 </r>
       <r>   19.9859    0.0000 </r>
       <r>   20.5572    0.0000 </r>
      </set>
      <set comment="kpoint 16">
       <r>    1.7538    1.0000 </r>
       <r>    2.8271    1.0000 </r>
       <r>    8.5937    0.0000 </r>
       <r>   11.6704    0.0000 </r>
       <r>   12.8873    0.0000 </r>
       <r>   13.4567    0.0000 </r>
       <r>   17.0556    0.0000 </r>
       <r>   18.7111    0.0000 </r>
       <r>   19.9466    0.0000 </r>
      </set>
      <set comment="kpoint 17">
       <r>    2.4962    1.0000 </r>
       <r>    3.6822    1.0000 </r>
       <r>    6.1221    0.7948 </r>
       <r>    9.6929    0.0000 </r>
       <r>   11.6466    0.0000 </r>
       <r>   13.6278    0.0000 </r>
       <r>   17.7901    0.0000 </r>
       <r>   19.9870    0.0000 </r>
       <r>   20.8968    0.0000 </r>
      </set>
      <set comment="kpoint 18">
       <r>    1.4887    1.0000 </r>
       <r>    3.8798    1.0000 </r>
       <r>    6.4736    0.0000 </r>
       <r>    9.1382    0.0000 </r>
       <r>    9.8710    0.0000 </r>
       <r>   11.5576    0.0000 </r>
       <r>   19.9782    0.0000 </r>
       <r>   21.7029    0.0000 </r>
       <r>   23.2848    0.0000 </r>
      </set>
      <set comment="kpoint 19">
       <r>    0.0587    1.0000 </r>
       <r>    5.4880    1.0000 </r>
       <r>    7.0936    0.0000 </r>
       <r>    7.0936    0.0000 </r>
       <r>    9.9224    0.0000 </r>
       <r>    9.9224    0.0000 </r>
       <r>   18.9658    0.0000 </r>
       <r>   19.9816    0.0000 </r>
       <r>   22.9945    0.0000 </r>
      </set>
      <set comment="kpoint 20">
       <r>    1.6432    1.0000 </r>
       <r>    5.0234    1.0000 </r>
       <r>    6.0694    1.0306 </r>
       <r>    7.6973    0.0000 </r>
       <r>    9.1379    0.0000 </r>
       <r>   12.5827    0.0000 </r>
       <r>   19.5555    0.0000 </r>
       <r>   19.9981    0.0000 </r>
       <r>   22.5927    0.0000 </r>
      </set>
      <set comment="kpoint 21">
       <r>    3.2860    1.0000 </r>
       <r>    4.5320    1.0000 </r>
       <r>    5.5201    1.0000 </r>
       <r>    8.1478    0.0000 </r>
       <r>   10.6001    0.0000 </r>
       <r>   13.8583    0.0000 </r>
       <r>   18.1199    0.0000 </r>
       <r>   19.9880    0.0000 </r>
       <r>   21.3701    0.0000 </r>
      </set>
      <set comment="kpoint 22">
       <r>    2.6664    1.0000 </r>
       <r>    4.1093    1.0000 </r>
       <r>    6.0041    1.0004 </r>
       <r>    8.6120    0.0000 </r>
       <r>   12.6112    0.0000 </r>
       <r>   13.5917    0.0000 </r>
       <r>   16.3302    0.0000 </r>
       <r>   19.9860    0.0000 </r>
       <r>   22.1764    0.0000 </r>
      </set>
      <set comment="kpoint 23">
       <r>    1.9838    1.0000 </r>
       <r>    4.7884    1.0000 </r>
       <r>    5.9260    1.0000 </r>
       <r>    7.7121    0.0000 </r>
       <r>   11.4924    0.0000 </r>
       <r>   12.2812    0.0000 </r>
       <r>   18.2930    0.0000 </r>
       <r>   19.9873    0.0000 </r>
       <r>   21.5599    0.0000 </r>
      </set>
      <set comment="kpoint 24">
       <r>    3.4479    1.0000 </r>
       <r>    4.2725    1.0000 </r>
       <r>    5.0976    1.0000 </r>
       <r>    8.8162    0.0000 </r>
       <r>   11.4182    0.0000 </r>
       <r>   14.4357    0.0000 </r>
       <r>   17.4062    0.0000 </r>
       <r>   19.9855    0.0000 </r>
       <r>   20.7179    0.0000 </r>
      </set>
      <set comment="kpoint 25">
       <r>    3.2174    1.0000 </r>
       <r>    4.2896    1.0000 </r>
       <r>    5.6374    1.0000 </r>
       <r>    8.7566    0.0000 </r>
       <r>   12.5745    0.0000 </r>
       <r>   15.7729    0.0000 </r>
       <r>   16.4593    0.0000 </r>
       <r>   18.9925    0.0000 </r>
       <r>   19.9913    0.0000 </r>
      </set>
      <set comment="kpoint 26">
       <r>    2.7257    1.0000 </r>
       <r>    3.7923    1.0000 </r>
       <r>    6.6355    0.0000 </r>
       <r>    9.5942    0.0000 </r>
       <r>   12.1210    0.0000 </r>
       <r>   14.1775    0.0000 </r>
       <r>   16.5148    0.0000 </r>
       <r>   19.9786    0.0000 </r>
       <r>   20.8155    0.0000 </r>
      </set>
      <set comment="kpoint 27">
       <r>    1.3399    1.0000 </r>
       <r>    6.5279    0.0000 </r>
       <r>    6.5279    0.0000 </r>
       <r>    6.5526    0.0000 </r>
       <r>   11.9096    0.0000 </r>
       <r>   11.9096    0.0000 </r>
       <r>   17.1772    0.0000 </r>
       <r>   19.4440    0.0000 </r>
       <r>   19.9934    0.0000 </r>
      </set>
      <set comment="kpoint 28">
       <r>    2.3954    1.0000 </r>
       <r>    5.0571    1.0000 </r>
       <r>    6.4133    0.0000 </r>
       <r>    7.2930    0.0000 </r>
       <r>   11.7406    0.0000 </r>
       <r>   13.7661    0.0000 </r>
       <r>   16.4585    0.0000 </r>
       <r>   19.9873    0.0000 </r>
       <r>   20.7691    0.0000 </r>
      </set>
     </set>
    </set>
   </array>
  </eigenvalues>
  <separator name="orbital magnetization" >
   <v name="MAGDIPOLOUT">      0.00000000      0.00000000      0.00000000</v>
  </separator>
  <dos>
   <i name="efermi">      6.14087419 </i>
   <total>
    <array>
     <dimension dim="1">gridpoints</dimension>
     <dimension dim="2">spin</dimension>
     <field>energy</field>
     <field>total</field>
     <field>integrated</field>
     <set>
      <set comment="spin 1">
       <r>    -3.1037     0.0000     0.0000 </r>
       <r>    -3.0102     0.0000     0.0000 </r>
       <r>    -2.9167     0.0000     0.0000 </r>
       <r>    -2.8232     0.0000     0.0000 </r>
       <r>    -2.7297     0.0000     0.0000 </r>
       <r>    -2.6362     0.0000     0.0000 </r>
       <r>    -2.5427     0.0000     0.0000 </r>
       <r>    -2.4492     0.0000     0.0000 </r>
       <r>    -2.3557     0.0000     0.0000 </r>
       <r>    -2.2622     0.0000     0.0000 </r>
       <r>    -2.1687     0.0000     0.0000 </r>
       <r>    -2.0752     0.0000     0.0000 </r>
       <r>    -1.9818     0.0000     0.0000 </r>
       <r>    -1.8883    -0.0035    -0.0003 </r>
       <r>    -1.7948     0.0978     0.0088 </r>
       <r>    -1.7013     0.0048     0.0093 </r>
       <r>    -1.6078    -0.0001     0.0093 </r>
       <r>    -1.5143     0.0000     0.0093 </r>
       <r>    -1.4208     0.0000     0.0093 </r>
       <r>    -1.3273     0.0000     0.0093 </r>
       <r>    -1.2338    -0.0002     0.0092 </r>
       <r>    -1.1403     0.0039     0.0096 </r>
       <r>    -1.0468     0.3027     0.0379 </r>
       <r>    -0.9533    -0.0094     0.0370 </r>
       <r>    -0.8598     0.0000     0.0370 </r>
       <r>    -0.7663     0.0000     0.0370 </r>
       <r>    -0.6728     0.0000     0.0370 </r>
       <r>    -0.5793    -0.0003     0.0370 </r>
       <r>    -0.4858     0.0160     0.0385 </r>
       <r>    -0.3923     0.2920     0.0658 </r>
       <r>    -0.2988    -0.0105     0.0648 </r>
       <r>    -0.2053     0.0000     0.0648 </r>
       <r>    -0.1118     0.0000     0.0648 </r>
       <r>    -0.0183    -0.0035     0.0645 </r>
       <r>     0.0752     0.0965     0.0735 </r>
       <r>     0.1687     0.1080     0.0836 </r>
       <r>     0.2622     0.2009     0.1024 </r>
       <r>     0.3557    -0.0058     0.1019 </r>
       <r>     0.4492     0.0000     0.1019 </r>
       <r>     0.5427     0.0000     0.1019 </r>
       <r>     0.6362    -0.0196     0.1000 </r>
       <r>     0.7297     0.5394     0.1504 </r>
       <r>     0.8232     0.0739     0.1574 </r>
       <r>     0.9166     0.0931     0.1661 </r>
       <r>     1.0101     0.2108     0.1858 </r>
       <r>     1.1036    -0.0063     0.1852 </r>
       <r>     1.1971    -0.0001     0.1852 </r>
       <r>     1.2906     0.0041     0.1856 </r>
       <r>     1.3841     0.2437     0.2083 </r>
       <r>     1.4776     0.3283     0.2390 </r>
       <r>     1.5711     0.1034     0.2487 </r>
       <r>     1.6646     0.5185     0.2972 </r>
       <r>     1.7581     0.3230     0.3274 </r>
       <r>     1.8516     0.0664     0.3336 </r>
       <r>     1.9451     0.4432     0.3750 </r>
       <r>     2.0386     0.8016     0.4500 </r>
       <r>     2.1321     0.5562     0.5020 </r>
       <r>     2.2256    -0.0242     0.4997 </r>
       <r>     2.3191     0.1667     0.5153 </r>
       <r>     2.4126     0.7115     0.5818 </r>
       <r>     2.5061     0.5303     0.6314 </r>
       <r>     2.5996     0.0687     0.6378 </r>
       <r>     2.6931     0.5740     0.6915 </r>
       <r>     2.7866     0.6913     0.7561 </r>
       <r>     2.8801     0.3084     0.7850 </r>
       <r>     2.9736     0.5375     0.8352 </r>
       <r>     3.0671    -0.0217     0.8332 </r>
       <r>     3.1606     0.0798     0.8406 </r>
       <r>     3.2541     0.9141     0.9261 </r>
       <r>     3.3476     0.3916     0.9627 </r>
       <r>     3.4411     0.8492     1.0421 </r>
       <r>     3.5346     0.7624     1.1134 </r>
       <r>     3.6281    -0.0071     1.1127 </r>
       <r>     3.7216     0.5878     1.1677 </r>
       <r>     3.8150     0.2769     1.1936 </r>
       <r>     3.9085     0.3112     1.2227 </r>
       <r>     4.0020    -0.0254     1.2203 </r>
       <r>     4.0955     0.6547     1.2815 </r>
       <r>     4.1890     0.2199     1.3021 </r>
       <r>     4.2825     1.5676     1.4486 </r>
       <r>     4.3760     0.2540     1.4724 </r>
       <r>     4.4695     0.6005     1.5285 </r>
       <r>     4.5630     0.2916     1.5558 </r>
       <r>     4.6565    -0.0033     1.5555 </r>
       <r>     4.7500     0.0428     1.5595 </r>
       <r>     4.8435     1.0640     1.6590 </r>
       <r>     4.9370     0.5489     1.7103 </r>
       <r>     5.0305     0.4549     1.7528 </r>
       <r>     5.1240     0.8636     1.8336 </r>
       <r>     5.2175     0.3312     1.8645 </r>
       <r>     5.3110     0.9398     1.9524 </r>
       <r>     5.4045     0.2083     1.9719 </r>
       <r>     5.4980     0.3260     2.0023 </r>
       <r>     5.5915     0.4349     2.0430 </r>
       <r>     5.6850     0.7964     2.1175 </r>
       <r>     5.7785     0.9363     2.2050 </r>
       <r>     5.8720     0.6648     2.2672 </r>
       <r>     5.9655     0.8141     2.3433 </r>
       <r>     6.0590     0.7479     2.4132 </r>
       <r>     6.1525     1.1968     2.5251 </r>
       <r>     6.2460     0.1302     2.5373 </r>
       <r>     6.3395    -0.0222     2.5352 </r>
       <r>     6.4330     0.6271     2.5938 </r>
       <r>     6.5265     0.5494     2.6452 </r>
       <r>     6.6200     0.8055     2.7205 </r>
       <r>     6.7134     0.8285     2.7980 </r>
       <r>     6.8069     0.0803     2.8055 </r>
       <r>     6.9004     0.5993     2.8615 </r>
       <r>     6.9939     0.0852     2.8695 </r>
       <r>     7.0874     0.3586     2.9030 </r>
       <r>     7.1809     1.3300     3.0273 </r>
       <r>     7.2744     1.6526     3.1819 </r>
       <r>     7.3679     0.3985     3.2191 </r>
       <r>     7.4614     0.0338     3.2223 </r>
       <r>     7.5549    -0.0009     3.2222 </r>
       <r>     7.6484     0.0031     3.2225 </r>
       <r>     7.7419     0.5861     3.2773 </r>
       <r>     7.8354     0.4901     3.3231 </r>
       <r>     7.9289     0.1489     3.3370 </r>
       <r>     8.0224     0.8628     3.4177 </r>
       <r>     8.1159     0.4733     3.4619 </r>
       <r>     8.2094     0.4184     3.5011 </r>
       <r>     8.3029    -0.0114     3.5000 </r>
       <r>     8.3964     0.0000     3.5000 </r>
       <r>     8.4899    -0.0160     3.4985 </r>
       <r>     8.5834     0.5495     3.5499 </r>
       <r>     8.6769     1.2836     3.6699 </r>
       <r>     8.7704     0.8272     3.7472 </r>
       <r>     8.8639     0.8220     3.8241 </r>
       <r>     8.9574     0.9900     3.9166 </r>
       <r>     9.0509    -0.0167     3.9151 </r>
       <r>     9.1444     0.5003     3.9619 </r>
       <r>     9.2379     0.1126     3.9724 </r>
       <r>     9.3314    -0.0018     3.9722 </r>
       <r>     9.4249     0.0000     3.9722 </r>
       <r>     9.5184    -0.0104     3.9712 </r>
       <r>     9.6118     0.2624     3.9958 </r>
       <r>     9.7053     0.6214     4.0539 </r>
       <r>     9.7988     0.2107     4.0736 </r>
       <r>     9.8923     0.3350     4.1049 </r>
       <r>     9.9858     0.1564     4.1195 </r>
       <r>    10.0793     0.6300     4.1784 </r>
       <r>    10.1728     1.1841     4.2891 </r>
       <r>    10.2663     0.2733     4.3147 </r>
       <r>    10.3598     0.6168     4.3724 </r>
       <r>    10.4533    -0.0322     4.3694 </r>
       <r>    10.5468     0.3416     4.4013 </r>
       <r>    10.6403     0.5685     4.4544 </r>
       <r>    10.7338     0.2464     4.4775 </r>
       <r>    10.8273     0.0435     4.4815 </r>
       <r>    10.9208    -0.0007     4.4815 </r>
       <r>    11.0143     0.0000     4.4815 </r>
       <r>    11.1078    -0.0062     4.4809 </r>
       <r>    11.2013     0.1968     4.4993 </r>
       <r>    11.2948     0.4982     4.5459 </r>
       <r>    11.3883     0.3258     4.5764 </r>
       <r>    11.4818     1.2163     4.6901 </r>
       <r>    11.5753     0.9521     4.7791 </r>
       <r>    11.6688     1.0574     4.8780 </r>
       <r>    11.7623     0.5015     4.9248 </r>
       <r>    11.8558    -0.0086     4.9240 </r>
       <r>    11.9493     0.8021     4.9990 </r>
       <r>    12.0428     0.0004     4.9991 </r>
       <r>    12.1363     0.2834     5.0256 </r>
       <r>    12.2298     0.3311     5.0565 </r>
       <r>    12.3233     0.3960     5.0935 </r>
       <r>    12.4167     0.4249     5.1333 </r>
       <r>    12.5102     0.5139     5.1813 </r>
       <r>    12.6037     1.4209     5.3142 </r>
       <r>    12.6972     0.7789     5.3870 </r>
       <r>    12.7907     0.0153     5.3884 </r>
       <r>    12.8842     0.1941     5.4066 </r>
       <r>    12.9777     0.1100     5.4169 </r>
       <r>    13.0712    -0.0021     5.4167 </r>
       <r>    13.1647    -0.0190     5.4149 </r>
       <r>    13.2582     0.5274     5.4642 </r>
       <r>    13.3517     0.0833     5.4720 </r>
       <r>    13.4452     0.1584     5.4868 </r>
       <r>    13.5387     0.1341     5.4993 </r>
       <r>    13.6322     0.7465     5.5691 </r>
       <r>    13.7257     0.7156     5.6360 </r>
       <r>    13.8192     0.3757     5.6712 </r>
       <r>    13.9127     0.2588     5.6954 </r>
       <r>    14.0062    -0.0238     5.6931 </r>
       <r>    14.0997     0.4345     5.7338 </r>
       <r>    14.1932     0.4571     5.7765 </r>
       <r>    14.2867     0.0137     5.7778 </r>
       <r>    14.3802    -0.0123     5.7766 </r>
       <r>    14.4737     1.0317     5.8731 </r>
       <r>    14.5672     0.1725     5.8892 </r>
       <r>    14.6607    -0.0035     5.8889 </r>
       <r>    14.7542     0.0000     5.8889 </r>
       <r>    14.8477    -0.0001     5.8889 </r>
       <r>    14.9412    -0.0198     5.8870 </r>
       <r>    15.0347     0.6002     5.9432 </r>
       <r>    15.1282     0.0142     5.9445 </r>
       <r>    15.2217    -0.0004     5.9444 </r>
       <r>    15.3151     0.0000     5.9444 </r>
       <r>    15.4086     0.0000     5.9444 </r>
       <r>    15.5021     0.0000     5.9444 </r>
       <r>    15.5956     0.0000     5.9444 </r>
       <r>    15.6891    -0.0194     5.9426 </r>
       <r>    15.7826     0.5128     5.9906 </r>
       <r>    15.8761     0.6732     6.0535 </r>
       <r>    15.9696     0.0188     6.0553 </r>
       <r>    16.0631     0.1874     6.0728 </r>
       <r>    16.1566     0.4223     6.1123 </r>
       <r>    16.2501    -0.0229     6.1102 </r>
       <r>    16.3436     0.2717     6.1356 </r>
       <r>    16.4371     0.3697     6.1701 </r>
       <r>    16.5306     0.8438     6.2490 </r>
       <r>    16.6241     0.0105     6.2500 </r>
       <r>    16.7176     0.0282     6.2526 </r>
       <r>    16.8111     0.2792     6.2787 </r>
       <r>    16.9046    -0.0104     6.2778 </r>
       <r>    16.9981     0.0029     6.2780 </r>
       <r>    17.0916     0.2916     6.3053 </r>
       <r>    17.1851     0.4249     6.3450 </r>
       <r>    17.2786     0.2750     6.3707 </r>
       <r>    17.3721     0.1137     6.3814 </r>
       <r>    17.4656     0.4781     6.4261 </r>
       <r>    17.5591     0.4533     6.4684 </r>
       <r>    17.6526     0.1409     6.4816 </r>
       <r>    17.7461     0.0567     6.4869 </r>
       <r>    17.8396     0.5557     6.5389 </r>
       <r>    17.9331     0.0377     6.5424 </r>
       <r>    18.0266     0.2415     6.5650 </r>
       <r>    18.1201     0.2129     6.5849 </r>
       <r>    18.2135     0.0738     6.5918 </r>
       <r>    18.3070     0.2750     6.6175 </r>
       <r>    18.4005     0.0133     6.6187 </r>
       <r>    18.4940     0.5103     6.6664 </r>
       <r>    18.5875     0.0927     6.6751 </r>
       <r>    18.6810     0.3392     6.7068 </r>
       <r>    18.7745     0.2712     6.7322 </r>
       <r>    18.8680    -0.0120     6.7310 </r>
       <r>    18.9615     0.2229     6.7519 </r>
       <r>    19.0550     0.4706     6.7959 </r>
       <r>    19.1485     0.6817     6.8596 </r>
       <r>    19.2420     0.2307     6.8812 </r>
       <r>    19.3355     0.2873     6.9081 </r>
       <r>    19.4290     0.1125     6.9186 </r>
       <r>    19.5225     0.1349     6.9312 </r>
       <r>    19.6160     0.2494     6.9545 </r>
       <r>    19.7095    -0.0245     6.9522 </r>
       <r>    19.8030     0.4764     6.9968 </r>
       <r>    19.8965    -0.1196     6.9856 </r>
       <r>    19.9900     8.2107     7.7533 </r>
       <r>    20.0835     2.7971     8.0148 </r>
       <r>    20.1770    -0.0630     8.0089 </r>
       <r>    20.2705     0.2069     8.0282 </r>
       <r>    20.3640     0.5734     8.0818 </r>
       <r>    20.4575     0.1787     8.0986 </r>
       <r>    20.5510     0.9583     8.1881 </r>
       <r>    20.6445     0.2295     8.2096 </r>
       <r>    20.7380     0.8799     8.2919 </r>
       <r>    20.8315     0.8095     8.3676 </r>
       <r>    20.9250     0.6304     8.4265 </r>
       <r>    21.0185     0.2991     8.4545 </r>
       <r>    21.1119    -0.0082     8.4537 </r>
       <r>    21.2054    -0.0001     8.4537 </r>
       <r>    21.2989    -0.0101     8.4528 </r>
       <r>    21.3924     0.2990     8.4807 </r>
       <r>    21.4859    -0.0017     8.4806 </r>
       <r>    21.5794     0.2976     8.5084 </r>
       <r>    21.6729     0.0646     8.5144 </r>
       <r>    21.7664     0.9863     8.6066 </r>
       <r>    21.8599     0.4194     8.6458 </r>
       <r>    21.9534     0.0251     8.6482 </r>
       <r>    22.0469    -0.0012     8.6481 </r>
       <r>    22.1404     0.0388     8.6517 </r>
       <r>    22.2339     0.5143     8.6998 </r>
       <r>    22.3274     0.0607     8.7055 </r>
       <r>    22.4209     0.5954     8.7611 </r>
       <r>    22.5144    -0.0081     8.7604 </r>
       <r>    22.6079     0.6032     8.8168 </r>
       <r>    22.7014     0.0810     8.8243 </r>
       <r>    22.7949    -0.0029     8.8241 </r>
       <r>    22.8884    -0.0227     8.8219 </r>
       <r>    22.9819     0.6437     8.8821 </r>
       <r>    23.0754     0.0737     8.8890 </r>
       <r>    23.1689    -0.0037     8.8887 </r>
       <r>    23.2624     0.1157     8.8995 </r>
       <r>    23.3559     0.1787     8.9162 </r>
       <r>    23.4494     0.2940     8.9437 </r>
       <r>    23.5429     0.0054     8.9442 </r>
       <r>    23.6364     0.1654     8.9597 </r>
       <r>    23.7299     0.4453     9.0013 </r>
       <r>    23.8234    -0.0139     9.0000 </r>
       <r>    23.9169     0.0000     9.0000 </r>
       <r>    24.0103     0.0000     9.0000 </r>
       <r>    24.1038     0.0000     9.0000 </r>
       <r>    24.1973     0.0000     9.0000 </r>
       <r>    24.2908     0.0000     9.0000 </r>
       <r>    24.3843     0.0000     9.0000 </r>
       <r>    24.4778     0.0000     9.0000 </r>
       <r>    24.5713     0.0000     9.0000 </r>
       <r>    24.6648     0.0000     9.0000 </r>
       <r>    24.7583     0.0000     9.0000 </r>
       <r>    24.8518     0.0000     9.0000 </r>
       <r>    24.9453     0.0000     9.0000 </r>
      </set>
      <set comment="spin 2">
       <r>    -3.1037     0.0000     0.0000 </r>
       <r>    -3.0102     0.0000     0.0000 </r>
       <r>    -2.9167     0.0000     0.0000 </r>
       <r>    -2.8232     0.0000     0.0000 </r>
       <r>    -2.7297     0.0000     0.0000 </r>
       <r>    -2.6362     0.0000     0.0000 </r>
       <r>    -2.5427     0.0000     0.0000 </r>
       <r>    -2.4492     0.0000     0.0000 </r>
       <r>    -2.3557     0.0000     0.0000 </r>
       <r>    -2.2622     0.0000     0.0000 </r>
       <r>    -2.1687     0.0000     0.0000 </r>
       <r>    -2.0752     0.0000     0.0000 </r>
       <r>    -1.9818     0.0000     0.0000 </r>
       <r>    -1.8883    -0.0025    -0.0002 </r>
       <r>    -1.7948     0.0767     0.0069 </r>
       <r>    -1.7013     0.0252     0.0093 </r>
       <r>    -1.6078    -0.0004     0.0093 </r>
       <r>    -1.5143     0.0000     0.0093 </r>
       <r>    -1.4208     0.0000     0.0093 </r>
       <r>    -1.3273     0.0000     0.0093 </r>
       <r>    -1.2338     0.0000     0.0093 </r>
       <r>    -1.1403    -0.0103     0.0083 </r>
       <r>    -1.0468     0.2968     0.0361 </r>
       <r>    -0.9533     0.0108     0.0371 </r>
       <r>    -0.8598    -0.0002     0.0370 </r>
       <r>    -0.7663     0.0000     0.0370 </r>
       <r>    -0.6728     0.0000     0.0370 </r>
       <r>    -0.5793     0.0000     0.0370 </r>
       <r>    -0.4858    -0.0083     0.0363 </r>
       <r>    -0.3923     0.3052     0.0648 </r>
       <r>    -0.2988     0.0004     0.0648 </r>
       <r>    -0.2053    -0.0001     0.0648 </r>
       <r>    -0.1118     0.0000     0.0648 </r>
       <r>    -0.0183    -0.0026     0.0646 </r>
       <r>     0.0752     0.0775     0.0718 </r>
       <r>     0.1687     0.0553     0.0770 </r>
       <r>     0.2622     0.2760     0.1028 </r>
       <r>     0.3557    -0.0102     0.1019 </r>
       <r>     0.4492     0.0000     0.1019 </r>
       <r>     0.5427     0.0000     0.1019 </r>
       <r>     0.6362    -0.0104     0.1009 </r>
       <r>     0.7297     0.3797     0.1364 </r>
       <r>     0.8232     0.2290     0.1578 </r>
       <r>     0.9166     0.0200     0.1597 </r>
       <r>     1.0101     0.2834     0.1862 </r>
       <r>     1.1036    -0.0104     0.1852 </r>
       <r>     1.1971     0.0000     0.1852 </r>
       <r>     1.2906    -0.0033     0.1849 </r>
       <r>     1.3841     0.1644     0.2002 </r>
       <r>     1.4776     0.3378     0.2318 </r>
       <r>     1.5711     0.1889     0.2495 </r>
       <r>     1.6646     0.3750     0.2845 </r>
       <r>     1.7581     0.3999     0.3219 </r>
       <r>     1.8516     0.1148     0.3327 </r>
       <r>     1.9451     0.3094     0.3616 </r>
       <r>     2.0386     0.8967     0.4454 </r>
       <r>     2.1321     0.5825     0.4999 </r>
       <r>     2.2256     0.0002     0.4999 </r>
       <r>     2.3191     0.0628     0.5058 </r>
       <r>     2.4126     0.7702     0.5778 </r>
       <r>     2.5061     0.4551     0.6204 </r>
       <r>     2.5996     0.1907     0.6382 </r>
       <r>     2.6931     0.3486     0.6708 </r>
       <r>     2.7866     0.8808     0.7531 </r>
       <r>     2.8801     0.2667     0.7781 </r>
       <r>     2.9736     0.6046     0.8346 </r>
       <r>     3.0671    -0.0138     0.8333 </r>
       <r>     3.1606     0.0005     0.8334 </r>
       <r>     3.2541     0.9021     0.9177 </r>
       <r>     3.3476     0.3537     0.9508 </r>
       <r>     3.4411     0.7724     1.0230 </r>
       <r>     3.5346     0.9677     1.1135 </r>
       <r>     3.6281    -0.0438     1.1094 </r>
       <r>     3.7216     0.5958     1.1651 </r>
       <r>     3.8150     0.2581     1.1892 </r>
       <r>     3.9085     0.3266     1.2197 </r>
       <r>     4.0020     0.0167     1.2213 </r>
       <r>     4.0955     0.4295     1.2615 </r>
       <r>     4.1890     0.4469     1.3032 </r>
       <r>     4.2825     1.1909     1.4146 </r>
       <r>     4.3760     0.6111     1.4717 </r>
       <r>     4.4695     0.5725     1.5252 </r>
       <r>     4.5630     0.3035     1.5536 </r>
       <r>     4.6565     0.0208     1.5556 </r>
       <r>     4.7500    -0.0132     1.5543 </r>
       <r>     4.8435     0.9851     1.6464 </r>
       <r>     4.9370     0.5350     1.6965 </r>
       <r>     5.0305     0.4794     1.7413 </r>
       <r>     5.1240     0.9246     1.8277 </r>
       <r>     5.2175     0.2480     1.8509 </r>
       <r>     5.3110     0.9184     1.9368 </r>
       <r>     5.4045     0.3859     1.9729 </r>
       <r>     5.4980     0.1471     1.9866 </r>
       <r>     5.5915     0.5490     2.0379 </r>
       <r>     5.6850     0.6600     2.0996 </r>
       <r>     5.7785     1.0210     2.1951 </r>
       <r>     5.8720     0.7075     2.2612 </r>
       <r>     5.9655     0.6716     2.3240 </r>
       <r>     6.0590     0.8910     2.4073 </r>
       <r>     6.1525     1.0445     2.5050 </r>
       <r>     6.2460     0.3507     2.5378 </r>
       <r>     6.3395    -0.0220     2.5357 </r>
       <r>     6.4330     0.4519     2.5780 </r>
       <r>     6.5265     0.6652     2.6402 </r>
       <r>     6.6200     0.5665     2.6932 </r>
       <r>     6.7134     1.1224     2.7981 </r>
       <r>     6.8069     0.0359     2.8015 </r>
       <r>     6.9004     0.5147     2.8496 </r>
       <r>     6.9939     0.2220     2.8703 </r>
       <r>     7.0874     0.2138     2.8903 </r>
       <r>     7.1809     1.0441     2.9879 </r>
       <r>     7.2744     2.0288     3.1776 </r>
       <r>     7.3679     0.3872     3.2138 </r>
       <r>     7.4614     0.0915     3.2224 </r>
       <r>     7.5549    -0.0019     3.2222 </r>
       <r>     7.6484    -0.0171     3.2206 </r>
       <r>     7.7419     0.5802     3.2749 </r>
       <r>     7.8354     0.3920     3.3115 </r>
       <r>     7.9289     0.2230     3.3324 </r>
       <r>     8.0224     0.8883     3.4154 </r>
       <r>     8.1159     0.3332     3.4466 </r>
       <r>     8.2094     0.5889     3.5016 </r>
       <r>     8.3029    -0.0175     3.5000 </r>
       <r>     8.3964     0.0000     3.5000 </r>
       <r>     8.4899    -0.0071     3.4993 </r>
       <r>     8.5834     0.2937     3.5268 </r>
       <r>     8.6769     1.4116     3.6588 </r>
       <r>     8.7704     0.8133     3.7348 </r>
       <r>     8.8639     0.8482     3.8141 </r>
       <r>     8.9574     1.0351     3.9109 </r>
       <r>     9.0509     0.0530     3.9159 </r>
       <r>     9.1444     0.3690     3.9504 </r>
       <r>     9.2379     0.2386     3.9727 </r>
       <r>     9.3314    -0.0048     3.9722 </r>
       <r>     9.4249     0.0000     3.9722 </r>
       <r>     9.5184    -0.0080     3.9715 </r>
       <r>     9.6118     0.2258     3.9926 </r>
       <r>     9.7053     0.5253     4.0417 </r>
       <r>     9.7988     0.3466     4.0741 </r>
       <r>     9.8923     0.2612     4.0985 </r>
       <r>     9.9858     0.2346     4.1205 </r>
       <r>    10.0793     0.3287     4.1512 </r>
       <r>    10.1728     1.4788     4.2895 </r>
       <r>    10.2663     0.1606     4.3045 </r>
       <r>    10.3598     0.7263     4.3724 </r>
       <r>    10.4533    -0.0281     4.3698 </r>
       <r>    10.5468     0.2284     4.3911 </r>
       <r>    10.6403     0.6722     4.4540 </r>
       <r>    10.7338     0.2078     4.4734 </r>
       <r>    10.8273     0.0882     4.4816 </r>
       <r>    10.9208    -0.0016     4.4815 </r>
       <r>    11.0143     0.0000     4.4815 </r>
       <r>    11.1078    -0.0034     4.4812 </r>
       <r>    11.2013     0.1429     4.4945 </r>
       <r>    11.2948     0.4381     4.5355 </r>
       <r>    11.3883     0.3466     4.5679 </r>
       <r>    11.4818     1.2070     4.6807 </r>
       <r>    11.5753     0.9514     4.7697 </r>
       <r>    11.6688     0.9672     4.8601 </r>
       <r>    11.7623     0.6625     4.9221 </r>
       <r>    11.8558     0.0165     4.9236 </r>
       <r>    11.9493     0.7371     4.9925 </r>
       <r>    12.0428     0.0740     4.9994 </r>
       <r>    12.1363     0.2211     5.0201 </r>
       <r>    12.2298     0.3745     5.0551 </r>
       <r>    12.3233     0.3580     5.0886 </r>
       <r>    12.4167     0.4425     5.1300 </r>
       <r>    12.5102     0.4584     5.1728 </r>
       <r>    12.6037     1.3336     5.2975 </r>
       <r>    12.6972     0.8938     5.3811 </r>
       <r>    12.7907     0.0821     5.3887 </r>
       <r>    12.8842     0.1346     5.4013 </r>
       <r>    12.9777     0.1682     5.4171 </r>
       <r>    13.0712    -0.0042     5.4167 </r>
       <r>    13.1647    -0.0131     5.4154 </r>
       <r>    13.2582     0.4312     5.4558 </r>
       <r>    13.3517     0.1776     5.4724 </r>
       <r>    13.4452     0.0908     5.4808 </r>
       <r>    13.5387     0.1931     5.4989 </r>
       <r>    13.6322     0.6326     5.5581 </r>
       <r>    13.7257     0.7284     5.6262 </r>
       <r>    13.8192     0.4491     5.6681 </r>
       <r>    13.9127     0.2909     5.6953 </r>
       <r>    14.0062    -0.0159     5.6938 </r>
       <r>    14.0997     0.2794     5.7200 </r>
       <r>    14.1932     0.5522     5.7716 </r>
       <r>    14.2867     0.0673     5.7779 </r>
       <r>    14.3802    -0.0273     5.7753 </r>
       <r>    14.4737     0.8877     5.8583 </r>
       <r>    14.5672     0.3349     5.8897 </r>
       <r>    14.6607    -0.0082     5.8889 </r>
       <r>    14.7542     0.0000     5.8889 </r>
       <r>    14.8477     0.0000     5.8889 </r>
       <r>    14.9412    -0.0189     5.8871 </r>
       <r>    15.0347     0.5266     5.9364 </r>
       <r>    15.1282     0.0879     5.9446 </r>
       <r>    15.2217    -0.0014     5.9444 </r>
       <r>    15.3151     0.0000     5.9444 </r>
       <r>    15.4086     0.0000     5.9444 </r>
       <r>    15.5021     0.0000     5.9444 </r>
       <r>    15.5956     0.0000     5.9444 </r>
       <r>    15.6891    -0.0117     5.9434 </r>
       <r>    15.7826     0.3873     5.9796 </r>
       <r>    15.8761     0.7111     6.0460 </r>
       <r>    15.9696     0.1024     6.0556 </r>
       <r>    16.0631     0.0586     6.0611 </r>
       <r>    16.1566     0.5553     6.1130 </r>
       <r>    16.2501    -0.0273     6.1105 </r>
       <r>    16.3436     0.2179     6.1308 </r>
       <r>    16.4371     0.2278     6.1521 </r>
       <r>    16.5306     1.0004     6.2457 </r>
       <r>    16.6241     0.0474     6.2501 </r>
       <r>    16.7176    -0.0008     6.2500 </r>
       <r>    16.8111     0.3052     6.2786 </r>
       <r>    16.9046    -0.0084     6.2778 </r>
       <r>    16.9981    -0.0103     6.2768 </r>
       <r>    17.0916     0.2917     6.3041 </r>
       <r>    17.1851     0.2816     6.3304 </r>
       <r>    17.2786     0.4390     6.3715 </r>
       <r>    17.3721     0.0159     6.3730 </r>
       <r>    17.4656     0.5790     6.4271 </r>
       <r>    17.5591     0.3167     6.4567 </r>
       <r>    17.6526     0.2706     6.4820 </r>
       <r>    17.7461    -0.0104     6.4810 </r>
       <r>    17.8396     0.6129     6.5383 </r>
       <r>    17.9331     0.0019     6.5385 </r>
       <r>    18.0266     0.2882     6.5655 </r>
       <r>    18.1201     0.1426     6.5788 </r>
       <r>    18.2135     0.1440     6.5923 </r>
       <r>    18.3070     0.2197     6.6128 </r>
       <r>    18.4005     0.0722     6.6196 </r>
       <r>    18.4940     0.3721     6.6544 </r>
       <r>    18.5875     0.2301     6.6759 </r>
       <r>    18.6810     0.2054     6.6951 </r>
       <r>    18.7745     0.4024     6.7327 </r>
       <r>    18.8680    -0.0144     6.7313 </r>
       <r>    18.9615     0.0865     6.7394 </r>
       <r>    19.0550     0.6172     6.7971 </r>
       <r>    19.1485     0.4610     6.8402 </r>
       <r>    19.2420     0.4252     6.8800 </r>
       <r>    19.3355     0.2935     6.9074 </r>
       <r>    19.4290     0.0531     6.9124 </r>
       <r>    19.5225     0.1660     6.9279 </r>
       <r>    19.6160     0.2867     6.9547 </r>
       <r>    19.7095    -0.0195     6.9529 </r>
       <r>    19.8030     0.3507     6.9857 </r>
       <r>    19.8965     0.0872     6.9938 </r>
       <r>    19.9900     6.2958     7.5824 </r>
       <r>    20.0835     4.6698     8.0191 </r>
       <r>    20.1770    -0.1061     8.0091 </r>
       <r>    20.2705     0.0947     8.0180 </r>
       <r>    20.3640     0.6168     8.0757 </r>
       <r>    20.4575     0.1903     8.0934 </r>
       <r>    20.5510     0.8382     8.1718 </r>
       <r>    20.6445     0.3562     8.2051 </r>
       <r>    20.7380     0.7779     8.2779 </r>
       <r>    20.8315     0.8700     8.3592 </r>
       <r>    20.9250     0.6472     8.4197 </r>
       <r>    21.0185     0.3475     8.4522 </r>
       <r>    21.1119     0.0165     8.4537 </r>
       <r>    21.2054    -0.0003     8.4537 </r>
       <r>    21.2989    -0.0092     8.4528 </r>
       <r>    21.3924     0.2586     8.4770 </r>
       <r>    21.4859     0.0399     8.4808 </r>
       <r>    21.5794     0.2462     8.5038 </r>
       <r>    21.6729     0.0662     8.5100 </r>
       <r>    21.7664     0.8814     8.5924 </r>
       <r>    21.8599     0.5230     8.6413 </r>
       <r>    21.9534     0.0749     8.6483 </r>
       <r>    22.0469    -0.0016     8.6481 </r>
       <r>    22.1404     0.0064     8.6487 </r>
       <r>    22.2339     0.4526     8.6910 </r>
       <r>    22.3274     0.1198     8.7022 </r>
       <r>    22.4209     0.6009     8.7584 </r>
       <r>    22.5144    -0.0046     8.7580 </r>
       <r>    22.6079     0.5417     8.8087 </r>
       <r>    22.7014     0.1698     8.8245 </r>
       <r>    22.7949    -0.0049     8.8241 </r>
       <r>    22.8884    -0.0160     8.8226 </r>
       <r>    22.9819     0.5007     8.8694 </r>
       <r>    23.0754     0.2131     8.8893 </r>
       <r>    23.1689    -0.0053     8.8888 </r>
       <r>    23.2624     0.0483     8.8933 </r>
       <r>    23.3559     0.2513     8.9168 </r>
       <r>    23.4494     0.2203     8.9374 </r>
       <r>    23.5429     0.0757     8.9445 </r>
       <r>    23.6364     0.0274     8.9471 </r>
       <r>    23.7299     0.5870     9.0020 </r>
       <r>    23.8234    -0.0209     9.0000 </r>
       <r>    23.9169     0.0000     9.0000 </r>
       <r>    24.0103     0.0000     9.0000 </r>
       <r>    24.1038     0.0000     9.0000 </r>
       <r>    24.1973     0.0000     9.0000 </r>
       <r>    24.2908     0.0000     9.0000 </r>
       <r>    24.3843     0.0000     9.0000 </r>
       <r>    24.4778     0.0000     9.0000 </r>
       <r>    24.5713     0.0000     9.0000 </r>
       <r>    24.6648     0.0000     9.0000 </r>
       <r>    24.7583     0.0000     9.0000 </r>
       <r>    24.8518     0.0000     9.0000 </r>
       <r>    24.9453     0.0000     9.0000 </r>
      </set>
     </set>
    </array>
   </total>
   <partial>
    <array>
     <dimension dim="1">gridpoints</dimension>
     <dimension dim="2">spin</dimension>
     <dimension dim="3">ion</dimension>
     <field>energy</field>
     <field>  s</field>
     <field> py</field>
     <field> pz</field>
     <field> px</field>
     <field>dxy</field>
     <field>dyz</field>
     <field>dz2</field>
     <field>dxz</field>
     <field>dx2</field>
     <set>
      <set comment="ion 1">
       <set comment="spin 1">
        <r>    -3.1037     0.0000     0.0000     0.0000     0.0000     0.0000     0.0000     0.0000     0.0000     0.0000 </r>
        <r>    -3.0102     0.0000     0.0000     0.0000     0.0000     0.0000     0.0000     0.0000     0.0000     0.0000 </r>
        <r>    -2.9167     0.0000     0.0000     0.0000     0.0000     0.0000     0.0000     0.0000     0.0000     0.0000 </r>
        <r>    -2.8232     0.0000     0.0000     0.0000     0.0000     0.0000     0.0000     0.0000     0.0000     0.0000 </r>
        <r>    -2.7297     0.0000     0.0000     0.0000     0.0000     0.0000     0.0000     0.0000     0.0000     0.0000 </r>
        <r>    -2.6362     0.0000     0.0000     0.0000     0.0000     0.0000     0.0000     0.0000     0.0000     0.0000 </r>
        <r>    -2.5427     0.0000     0.0000     0.0000     0.0000     0.0000     0.0000     0.0000     0.0000     0.0000 </r>
        <r>    -2.4492     0.0000     0.0000     0.0000     0.0000     0.0000     0.0000     0.0000     0.0000     0.0000 </r>
        <r>    -2.3557     0.0000     0.0000     0.0000     0.0000     0.0000     0.0000     0.0000     0.0000     0.0000 </r>
        <r>    -2.2622     0.0000     0.0000     0.0000     0.0000     0.0000     0.0000     0.0000     0.0000     0.0000 </r>
        <r>    -2.1687     0.0000     0.0000     0.0000     0.0000     0.0000     0.0000     0.0000     0.0000     0.0000 </r>
        <r>    -2.0752     0.0000     0.0000     0.0000     0.0000     0.0000     0.0000     0.0000     0.0000     0.0000 </r>
        <r>    -1.9818     0.0000     0.0000     0.0000     0.0000     0.0000     0.0000     0.0000     0.0000     0.0000 </r>
        <r>    -1.8883    -0.0030     0.0000     0.0000     0.0000     0.0000     0.0000     0.0000     0.0000     0.0000 </r>
        <r>    -1.7948     0.0844     0.0007     0.0007     0.0007     0.0000     0.0000     0.0000     0.0000     0.0000 </r>
        <r>    -1.7013     0.0041     0.0000     0.0000     0.0000     0.0000     0.0000     0.0000     0.0000     0.0000 </r>
        <r>    -1.6078    -0.0001     0.0000     0.0000     0.0000     0.0000     0.0000     0.0000     0.0000     0.0000 </r>
        <r>    -1.5143     0.0000     0.0000     0.0000     0.0000     0.0000     0.0000     0.0000     0.0000     0.0000 </r>
        <r>    -1.4208     0.0000     0.0000     0.0000     0.0000     0.0000     0.0000     0.0000     0.0000     0.0000 </r>
        <r>    -1.3273     0.0000     0.0000     0.0000     0.0000     0.0000     0.0000     0.0000     0.0000     0.0000 </r>
        <r>    -1.2338    -0.0001     0.0000     0.0000     0.0000     0.0000     0.0000     0.0000     0.0000     0.0000 </r>
        <r>    -1.1403     0.0032     0.0000     0.0000     0.0003     0.0000     0.0000     0.0000     0.0000     0.0000 </r>
        <r>    -1.0468     0.2463     0.0020     0.0020     0.0193     0.0008     0.0001     0.0003     0.0008     0.0008 </r>
        <r>    -0.9533    -0.0076    -0.0001    -0.0001    -0.0006     0.0000     0.0000     0.0000     0.0000     0.0000 </r>
        <r>    -0.8598     0.0000     0.0000     0.0000     0.0000     0.0000     0.0000     0.0000     0.0000     0.0000 </r>
        <r>    -0.7663     0.0000     0.0000     0.0000     0.0000     0.0000     0.0000     0.0000     0.0000     0.0000 </r>
        <r>    -0.6728     0.0000     0.0000     0.0000     0.0000     0.0000     0.0000     0.0000     0.0000     0.0000 </r>
        <r>    -0.5793    -0.0002     0.0000     0.0000     0.0000     0.0000     0.0000     0.0000     0.0000     0.0000 </r>
        <r>    -0.4858     0.0122     0.0009     0.0009     0.0001     0.0001     0.0003     0.0000     0.0001     0.0000 </r>
        <r>    -0.3923     0.2232     0.0164     0.0164     0.0015     0.0012     0.0062     0.0002     0.0012     0.0005 </r>
        <r>    -0.2988    -0.0080    -0.0006    -0.0006    -0.0001     0.0000    -0.0002     0.0000     0.0000     0.0000 </r>
        <r>    -0.2053     0.0000     0.0000     0.0000     0.0000     0.0000     0.0000     0.0000     0.0000     0.0000 </r>
        <r>    -0.1118     0.0000     0.0000     0.0000     0.0000     0.0000     0.0000     0.0000     0.0000     0.0000 </r>
        <r>    -0.0183    -0.0024    -0.0001    -0.0001    -0.0001    -0.0001    -0.0001     0.0000    -0.0001     0.0000 </r>
        <r>     0.0752     0.0683     0.0041     0.0038     0.0041     0.0033     0.0033    -0.0001     0.0033     0.0000 </r>
        <r>     0.1687     0.0757     0.0007     0.0162     0.0007     0.0003     0.0007     0.0042     0.0007     0.0000 </r>
        <r>     0.2622     0.1408     0.0010     0.0311     0.0010     0.0002     0.0011     0.0082     0.0011     0.0000 </r>
        <r>     0.3557    -0.0040     0.0000    -0.0009     0.0000     0.0000     0.0000    -0.0002     0.0000     0.0000 </r>
        <r>     0.4492     0.0000     0.0000     0.0000     0.0000     0.0000     0.0000     0.0000     0.0000     0.0000 </r>
        <r>     0.5427     0.0000     0.0000     0.0000     0.0000     0.0000     0.0000     0.0000     0.0000     0.0000 </r>
        <r>     0.6362    -0.0129    -0.0009     0.0000    -0.0027    -0.0010    -0.0002    -0.0002    -0.0002    -0.0003 </r>
        <r>     0.7297     0.3547     0.0236     0.0014     0.0744     0.0270     0.0055     0.0049     0.0052     0.0073 </r>
        <r>     0.8232     0.0487     0.0033     0.0002     0.0103     0.0037     0.0006     0.0007     0.0006     0.0010 </r>
        <r>     0.9166     0.0550     0.0019     0.0019     0.0091     0.0069     0.0067     0.0002     0.0070     0.0007 </r>
        <r>     1.0101     0.1247     0.0043     0.0043     0.0207     0.0156     0.0150     0.0005     0.0156     0.0016 </r>
        <r>     1.1036    -0.0037    -0.0001    -0.0001    -0.0006    -0.0005    -0.0004     0.0000    -0.0005     0.0000 </r>
        <r>     1.1971    -0.0001     0.0000     0.0000     0.0000     0.0000     0.0000     0.0000     0.0000     0.0000 </r>
        <r>     1.2906     0.0014    -0.0001    -0.0001     0.0001     0.0010     0.0009     0.0000     0.0010     0.0000 </r>
        <r>     1.3841     0.1112     0.0080     0.0071     0.0010     0.0377     0.0424    -0.0011     0.0377     0.0002 </r>
        <r>     1.4776     0.1585     0.0078     0.0412     0.0010     0.0191     0.0239     0.0435     0.0193     0.0002 </r>
        <r>     1.5711     0.0499    -0.0006     0.0221     0.0004    -0.0016    -0.0029     0.0295    -0.0015    -0.0001 </r>
[...]
        <r>  0.0005 </r>
       </set>
       <set comment="band 3">
        <r>  0.0018 </r>
       </set>
       <set comment="band 4">
        <r>  0.0000 </r>
       </set>
       <set comment="band 5">
        <r>  0.0000 </r>
       </set>
       <set comment="band 6">
        <r>  0.0954 </r>
       </set>
       <set comment="band 7">
        <r>  0.4021 </r>
       </set>
       <set comment="band 8">
        <r> 44.0120 </r>
       </set>
       <set comment="band 9">
        <r>  0.0007 </r>
       </set>
      </set>
     </set>
     <set comment="spin2">
      <set comment="kpoint 1">
       <set comment="band 1">
        <r>  0.8621 </r>
       </set>
       <set comment="band 2">
        <r>  0.0001 </r>
       </set>
       <set comment="band 3">
        <r>  0.0000 </r>
       </set>
       <set comment="band 4">
        <r>  0.0000 </r>
       </set>
       <set comment="band 5">
        <r>  0.0000 </r>
       </set>
       <set comment="band 6">
        <r>  0.0000 </r>
       </set>
       <set comment="band 7">
        <r>  0.0001 </r>
       </set>
       <set comment="band 8">
        <r> 43.8194 </r>
       </set>
       <set comment="band 9">
        <r>  0.0611 </r>
       </set>
      </set>
      <set comment="kpoint 2">
       <set comment="band 1">
        <r>  0.7640 </r>
       </set>
       <set comment="band 2">
        <r>  0.0017 </r>
       </set>
       <set comment="band 3">
        <r>  0.0000 </r>
       </set>
       <set comment="band 4">
        <r>  0.0000 </r>
       </set>
       <set comment="band 5">
        <r>  0.0000 </r>
       </set>
       <set comment="band 6">
        <r>  0.0045 </r>
       </set>
       <set comment="band 7">
        <r> 42.9291 </r>
       </set>
       <set comment="band 8">
        <r>  0.9516 </r>
       </set>
       <set comment="band 9">
        <r>  0.0420 </r>
       </set>
      </set>
      <set comment="kpoint 3">
       <set comment="band 1">
        <r>  0.4829 </r>
       </set>
       <set comment="band 2">
        <r>  0.0415 </r>
       </set>
       <set comment="band 3">
        <r>  0.0049 </r>
       </set>
       <set comment="band 4">
        <r>  0.0000 </r>
       </set>
       <set comment="band 5">
        <r>  0.0000 </r>
       </set>
       <set comment="band 6">
        <r>  0.0118 </r>
       </set>
       <set comment="band 7">
        <r>  0.1563 </r>
       </set>
       <set comment="band 8">
        <r> 43.4993 </r>
       </set>
       <set comment="band 9">
        <r>  0.6496 </r>
       </set>
      </set>
      <set comment="kpoint 4">
       <set comment="band 1">
        <r>  0.3541 </r>
       </set>
       <set comment="band 2">
        <r>  0.0003 </r>
       </set>
       <set comment="band 3">
        <r>  0.0000 </r>
       </set>
       <set comment="band 4">
        <r>  0.0063 </r>
       </set>
       <set comment="band 5">
        <r>  0.0000 </r>
       </set>
       <set comment="band 6">
        <r>  0.0000 </r>
       </set>
       <set comment="band 7">
        <r>  0.4420 </r>
       </set>
       <set comment="band 8">
        <r>  0.0088 </r>
       </set>
       <set comment="band 9">
        <r> 44.0452 </r>
       </set>
      </set>
      <set comment="kpoint 5">
       <set comment="band 1">
        <r>  0.5911 </r>
       </set>
       <set comment="band 2">
        <r>  0.0268 </r>
       </set>
       <set comment="band 3">
        <r>  0.0040 </r>
       </set>
       <set comment="band 4">
        <r>  0.0000 </r>
       </set>
       <set comment="band 5">
        <r>  0.0084 </r>
       </set>
       <set comment="band 6">
        <r>  0.0000 </r>
       </set>
       <set comment="band 7">
        <r>  0.0872 </r>
       </set>
       <set comment="band 8">
        <r> 43.7892 </r>
       </set>
       <set comment="band 9">
        <r>  0.3035 </r>
       </set>
      </set>
      <set comment="kpoint 6">
       <set comment="band 1">
        <r>  0.8129 </r>
       </set>
       <set comment="band 2">
        <r>  0.0002 </r>
       </set>
       <set comment="band 3">
        <r>  0.0000 </r>
       </set>
       <set comment="band 4">
        <r>  0.0000 </r>
       </set>
       <set comment="band 5">
        <r>  0.0036 </r>
       </set>
       <set comment="band 6">
        <r>  0.0000 </r>
       </set>
       <set comment="band 7">
        <r> 43.7418 </r>
       </set>
       <set comment="band 8">
        <r>  0.0229 </r>
       </set>
       <set comment="band 9">
        <r>  0.1264 </r>
       </set>
      </set>
      <set comment="kpoint 7">
       <set comment="band 1">
        <r>  0.7004 </r>
       </set>
       <set comment="band 2">
        <r>  0.0004 </r>
       </set>
       <set comment="band 3">
        <r>  0.0173 </r>
       </set>
       <set comment="band 4">
        <r>  0.0000 </r>
       </set>
       <set comment="band 5">
        <r>  0.0116 </r>
       </set>
       <set comment="band 6">
        <r>  0.0000 </r>
       </set>
       <set comment="band 7">
        <r> 43.7089 </r>
       </set>
       <set comment="band 8">
        <r>  0.1651 </r>
       </set>
       <set comment="band 9">
        <r>  0.0116 </r>
       </set>
      </set>
      <set comment="kpoint 8">
       <set comment="band 1">
        <r>  0.4583 </r>
       </set>
       <set comment="band 2">
        <r>  0.0038 </r>
       </set>
       <set comment="band 3">
        <r>  0.0561 </r>
       </set>
       <set comment="band 4">
        <r>  0.0044 </r>
       </set>
       <set comment="band 5">
        <r>  0.0082 </r>
       </set>
       <set comment="band 6">
        <r>  0.0234 </r>
       </set>
       <set comment="band 7">
        <r>  7.4063 </r>
       </set>
       <set comment="band 8">
        <r> 36.6809 </r>
       </set>
       <set comment="band 9">
        <r>  0.0879 </r>
       </set>
      </set>
      <set comment="kpoint 9">
       <set comment="band 1">
        <r>  0.2364 </r>
       </set>
       <set comment="band 2">
        <r>  0.0016 </r>
       </set>
       <set comment="band 3">
        <r>  0.0163 </r>
       </set>
       <set comment="band 4">
        <r>  0.0010 </r>
       </set>
       <set comment="band 5">
        <r>  0.0354 </r>
       </set>
       <set comment="band 6">
        <r>  0.0030 </r>
       </set>
       <set comment="band 7">
        <r>  0.4810 </r>
       </set>
       <set comment="band 8">
        <r> 43.9540 </r>
       </set>
       <set comment="band 9">
        <r>  0.0163 </r>
       </set>
      </set>
      <set comment="kpoint 10">
       <set comment="band 1">
        <r>  0.3950 </r>
       </set>
       <set comment="band 2">
        <r>  0.0046 </r>
       </set>
       <set comment="band 3">
        <r>  0.0211 </r>
       </set>
       <set comment="band 4">
        <r>  0.0012 </r>
       </set>
       <set comment="band 5">
        <r>  0.0001 </r>
       </set>
       <set comment="band 6">
        <r>  0.1081 </r>
       </set>
       <set comment="band 7">
        <r>  0.2088 </r>
       </set>
       <set comment="band 8">
        <r> 44.0254 </r>
       </set>
       <set comment="band 9">
        <r>  0.0152 </r>
       </set>
      </set>
      <set comment="kpoint 11">
       <set comment="band 1">
        <r>  0.6569 </r>
       </set>
       <set comment="band 2">
        <r>  0.0036 </r>
       </set>
       <set comment="band 3">
        <r>  0.0046 </r>
       </set>
       <set comment="band 4">
        <r>  0.0013 </r>
       </set>
       <set comment="band 5">
        <r>  0.0065 </r>
       </set>
       <set comment="band 6">
        <r>  0.0104 </r>
       </set>
       <set comment="band 7">
        <r> 41.5152 </r>
       </set>
       <set comment="band 8">
        <r>  2.4009 </r>
       </set>
       <set comment="band 9">
        <r>  0.0824 </r>
       </set>
      </set>
      <set comment="kpoint 12">
       <set comment="band 1">
        <r>  0.2232 </r>
       </set>
       <set comment="band 2">
        <r>  0.0001 </r>
       </set>
       <set comment="band 3">
        <r>  0.1637 </r>
       </set>
       <set comment="band 4">
        <r>  0.0000 </r>
       </set>
       <set comment="band 5">
        <r>  0.0121 </r>
       </set>
       <set comment="band 6">
        <r>  0.0000 </r>
       </set>
       <set comment="band 7">
        <r>  0.3275 </r>
       </set>
       <set comment="band 8">
        <r> 43.4397 </r>
       </set>
       <set comment="band 9">
        <r>  0.0000 </r>
       </set>
      </set>
      <set comment="kpoint 13">
       <set comment="band 1">
        <r>  0.0950 </r>
       </set>
       <set comment="band 2">
        <r>  0.0001 </r>
       </set>
       <set comment="band 3">
        <r>  0.0358 </r>
       </set>
       <set comment="band 4">
        <r>  0.0325 </r>
       </set>
       <set comment="band 5">
        <r>  0.0104 </r>
       </set>
       <set comment="band 6">
        <r>  0.0170 </r>
       </set>
       <set comment="band 7">
        <r>  0.3798 </r>
       </set>
       <set comment="band 8">
        <r>  0.1184 </r>
       </set>
       <set comment="band 9">
        <r> 43.6769 </r>
       </set>
      </set>
      <set comment="kpoint 14">
       <set comment="band 1">
        <r>  0.1003 </r>
       </set>
       <set comment="band 2">
        <r>  0.0485 </r>
       </set>
       <set comment="band 3">
        <r>  0.0016 </r>
       </set>
       <set comment="band 4">
        <r>  0.0250 </r>
       </set>
       <set comment="band 5">
        <r>  0.0228 </r>
       </set>
       <set comment="band 6">
        <r>  0.4166 </r>
       </set>
       <set comment="band 7">
        <r>  0.0992 </r>
       </set>
       <set comment="band 8">
        <r> 43.0556 </r>
       </set>
       <set comment="band 9">
        <r>  1.0166 </r>
       </set>
      </set>
      <set comment="kpoint 15">
       <set comment="band 1">
        <r>  0.3593 </r>
       </set>
       <set comment="band 2">
        <r>  0.0035 </r>
       </set>
       <set comment="band 3">
        <r>  0.0322 </r>
       </set>
       <set comment="band 4">
        <r>  0.0005 </r>
       </set>
       <set comment="band 5">
        <r>  0.0000 </r>
       </set>
       <set comment="band 6">
        <r>  0.0313 </r>
       </set>
       <set comment="band 7">
        <r>  0.3406 </r>
       </set>
       <set comment="band 8">
        <r> 43.8755 </r>
       </set>
       <set comment="band 9">
        <r>  0.1786 </r>
       </set>
      </set>
      <set comment="kpoint 16">
       <set comment="band 1">
        <r>  0.1262 </r>
       </set>
       <set comment="band 2">
        <r>  0.0000 </r>
       </set>
       <set comment="band 3">
        <r>  0.0386 </r>
       </set>
       <set comment="band 4">
        <r>  0.0000 </r>
       </set>
       <set comment="band 5">
        <r>  0.0000 </r>
       </set>
       <set comment="band 6">
        <r>  0.0017 </r>
       </set>
       <set comment="band 7">
        <r>  0.2260 </r>
       </set>
       <set comment="band 8">
        <r>  0.0000 </r>
       </set>
       <set comment="band 9">
        <r> 38.0330 </r>
       </set>
      </set>
      <set comment="kpoint 17">
       <set comment="band 1">
        <r>  0.1958 </r>
       </set>
       <set comment="band 2">
        <r>  0.0002 </r>
       </set>
       <set comment="band 3">
        <r>  0.1331 </r>
       </set>
       <set comment="band 4">
        <r>  0.0004 </r>
       </set>
       <set comment="band 5">
        <r>  0.0000 </r>
       </set>
       <set comment="band 6">
        <r>  0.0535 </r>
       </set>
       <set comment="band 7">
        <r>  0.2558 </r>
       </set>
       <set comment="band 8">
        <r> 43.8564 </r>
       </set>
       <set comment="band 9">
        <r>  0.0964 </r>
       </set>
      </set>
      <set comment="kpoint 18">
       <set comment="band 1">
        <r>  0.4805 </r>
       </set>
       <set comment="band 2">
        <r>  0.0004 </r>
       </set>
       <set comment="band 3">
        <r>  0.1011 </r>
       </set>
       <set comment="band 4">
        <r>  0.0000 </r>
       </set>
       <set comment="band 5">
        <r>  0.0129 </r>
       </set>
       <set comment="band 6">
        <r>  0.0000 </r>
       </set>
       <set comment="band 7">
        <r> 43.5231 </r>
       </set>
       <set comment="band 8">
        <r>  0.3509 </r>
       </set>
       <set comment="band 9">
        <r>  0.0000 </r>
       </set>
      </set>
      <set comment="kpoint 19">
       <set comment="band 1">
        <r>  0.7069 </r>
       </set>
       <set comment="band 2">
        <r>  0.0135 </r>
       </set>
       <set comment="band 3">
        <r>  0.0000 </r>
       </set>
       <set comment="band 4">
        <r>  0.0000 </r>
       </set>
       <set comment="band 5">
        <r>  0.0000 </r>
       </set>
       <set comment="band 6">
        <r>  0.0000 </r>
       </set>
       <set comment="band 7">
        <r>  0.0658 </r>
       </set>
       <set comment="band 8">
        <r> 43.8119 </r>
       </set>
       <set comment="band 9">
        <r>  0.1241 </r>
       </set>
      </set>
      <set comment="kpoint 20">
       <set comment="band 1">
        <r>  0.5578 </r>
       </set>
       <set comment="band 2">
        <r>  0.0102 </r>
       </set>
       <set comment="band 3">
        <r>  0.0013 </r>
       </set>
       <set comment="band 4">
        <r>  0.0000 </r>
       </set>
       <set comment="band 5">
        <r>  0.0000 </r>
       </set>
       <set comment="band 6">
        <r>  0.0364 </r>
       </set>
       <set comment="band 7">
        <r>  1.0433 </r>
       </set>
       <set comment="band 8">
        <r> 42.9934 </r>
       </set>
       <set comment="band 9">
        <r>  0.1766 </r>
       </set>
      </set>
      <set comment="kpoint 21">
       <set comment="band 1">
        <r>  0.2725 </r>
       </set>
       <set comment="band 2">
        <r>  0.0027 </r>
       </set>
       <set comment="band 3">
        <r>  0.0065 </r>
       </set>
       <set comment="band 4">
        <r>  0.0000 </r>
       </set>
       <set comment="band 5">
        <r>  0.0000 </r>
       </set>
       <set comment="band 6">
        <r>  0.3164 </r>
       </set>
       <set comment="band 7">
        <r>  0.1589 </r>
       </set>
       <set comment="band 8">
        <r> 43.9869 </r>
       </set>
       <set comment="band 9">
        <r>  0.0445 </r>
       </set>
      </set>
      <set comment="kpoint 22">
       <set comment="band 1">
        <r>  0.2070 </r>
       </set>
       <set comment="band 2">
        <r>  0.0000 </r>
       </set>
       <set comment="band 3">
        <r>  0.0918 </r>
       </set>
       <set comment="band 4">
        <r>  0.0000 </r>
       </set>
       <set comment="band 5">
        <r>  0.0000 </r>
       </set>
       <set comment="band 6">
        <r>  0.0003 </r>
       </set>
       <set comment="band 7">
        <r>  0.4215 </r>
       </set>
       <set comment="band 8">
        <r> 43.9214 </r>
       </set>
       <set comment="band 9">
        <r>  0.0890 </r>
       </set>
      </set>
      <set comment="kpoint 23">
       <set comment="band 1">
        <r>  0.4142 </r>
       </set>
       <set comment="band 2">
        <r>  0.0149 </r>
       </set>
       <set comment="band 3">
        <r>  0.0482 </r>
       </set>
       <set comment="band 4">
        <r>  0.0000 </r>
       </set>
       <set comment="band 5">
        <r>  0.0177 </r>
       </set>
       <set comment="band 6">
        <r>  0.0000 </r>
       </set>
       <set comment="band 7">
        <r>  0.2117 </r>
       </set>
       <set comment="band 8">
        <r> 43.9339 </r>
       </set>
       <set comment="band 9">
        <r>  0.1487 </r>
       </set>
      </set>
      <set comment="kpoint 24">
       <set comment="band 1">
        <r>  0.1424 </r>
       </set>
       <set comment="band 2">
        <r>  0.0314 </r>
       </set>
       <set comment="band 3">
        <r>  0.0709 </r>
       </set>
       <set comment="band 4">
        <r>  0.0088 </r>
       </set>
       <set comment="band 5">
        <r>  0.0130 </r>
       </set>
       <set comment="band 6">
        <r>  0.2490 </r>
       </set>
       <set comment="band 7">
        <r>  0.2074 </r>
       </set>
       <set comment="band 8">
        <r> 43.7798 </r>
       </set>
       <set comment="band 9">
        <r>  0.2474 </r>
       </set>
      </set>
      <set comment="kpoint 25">
       <set comment="band 1">
        <r>  0.0257 </r>
       </set>
       <set comment="band 2">
        <r>  0.0176 </r>
       </set>
       <set comment="band 3">
        <r>  0.0299 </r>
       </set>
       <set comment="band 4">
        <r>  0.1233 </r>
       </set>
       <set comment="band 5">
        <r>  0.0178 </r>
       </set>
       <set comment="band 6">
        <r>  0.4197 </r>
       </set>
       <set comment="band 7">
        <r>  0.0185 </r>
       </set>
       <set comment="band 8">
        <r>  0.1259 </r>
       </set>
       <set comment="band 9">
        <r> 44.0075 </r>
       </set>
      </set>
      <set comment="kpoint 26">
       <set comment="band 1">
        <r>  0.0959 </r>
       </set>
       <set comment="band 2">
        <r>  0.0050 </r>
       </set>
       <set comment="band 3">
        <r>  0.0232 </r>
       </set>
       <set comment="band 4">
        <r>  0.0000 </r>
       </set>
       <set comment="band 5">
        <r>  0.0000 </r>
       </set>
       <set comment="band 6">
        <r>  0.4444 </r>
       </set>
       <set comment="band 7">
        <r>  0.0796 </r>
       </set>
       <set comment="band 8">
        <r> 43.1313 </r>
       </set>
       <set comment="band 9">
        <r>  1.0085 </r>
       </set>
      </set>
      <set comment="kpoint 27">
       <set comment="band 1">
        <r>  0.4137 </r>
       </set>
       <set comment="band 2">
        <r>  0.0000 </r>
       </set>
       <set comment="band 3">
        <r>  0.0000 </r>
       </set>
       <set comment="band 4">
        <r>  0.0372 </r>
       </set>
       <set comment="band 5">
        <r>  0.0000 </r>
       </set>
       <set comment="band 6">
        <r>  0.0000 </r>
       </set>
       <set comment="band 7">
        <r>  0.2501 </r>
       </set>
       <set comment="band 8">
        <r>  0.3744 </r>
       </set>
       <set comment="band 9">
        <r> 43.7958 </r>
       </set>
      </set>
      <set comment="kpoint 28">
       <set comment="band 1">
        <r>  0.3004 </r>
       </set>
       <set comment="band 2">
        <r>  0.0005 </r>
       </set>
       <set comment="band 3">
        <r>  0.0018 </r>
       </set>
       <set comment="band 4">
        <r>  0.0000 </r>
       </set>
       <set comment="band 5">
        <r>  0.0000 </r>
       </set>
       <set comment="band 6">
        <r>  0.0950 </r>
       </set>
       <set comment="band 7">
        <r>  0.4009 </r>
       </set>
       <set comment="band 8">
        <r> 44.0137 </r>
       </set>
       <set comment="band 9">
        <r>  0.0007 </r>
       </set>
      </set>
     </set>
    </set>
   </array>
  </projected>
 </calculation>
 <structure name="finalpos" >
  <crystal>
   <varray name="basis" >
    <v>       0.00000000       2.07500000       2.07500000 </v>
    <v>       2.07500000       0.00000000       2.07500000 </v>
    <v>       2.07500000       2.07500000       0.00000000 </v>
   </varray>
   <i name="volume">     17.86834375 </i>
   <varray name="rec_basis" >
    <v>      -0.24096386       0.24096386       0.24096386 </v>
    <v>       0.24096386      -0.24096386       0.24096386 </v>
    <v>       0.24096386       0.24096386      -0.24096386 </v>
   </varray>
  </crystal>
  <varray name="positions" >
   <v>       0.00000000       0.00000000       0.00000000 </v>
  </varray>
 </structure>
</modeling>
