   1   1   1   0
  0.1813235E+02  0.2866544E-09  0.2866544E-09  0.2866544E-09  0.5000000E-15
  1.000000000000000E-004
  CAR 
 unknown system                          
     16.46063445     -2.84668983  301      5.67262688      1.00000000
     -2.847  0.0000E+00  0.0000E+00  0.0000E+00  0.0000E+00
     -2.782  0.0000E+00  0.0000E+00  0.0000E+00  0.0000E+00
     -2.718  0.0000E+00  0.0000E+00  0.0000E+00  0.0000E+00
     -2.654  0.0000E+00  0.0000E+00  0.0000E+00  0.0000E+00
     -2.589  0.0000E+00  0.0000E+00  0.0000E+00  0.0000E+00
     -2.525  0.0000E+00  0.0000E+00  0.0000E+00  0.0000E+00
     -2.461  0.0000E+00  0.0000E+00  0.0000E+00  0.0000E+00
     -2.396 -0.4599E-32 -0.8578E-34 -0.2960E-33 -0.5521E-35
     -2.332 -0.2644E-23 -0.8992E-25 -0.1702E-24 -0.5787E-26
     -2.267 -0.5357E-16 -0.3328E-17 -0.3448E-17 -0.2142E-18
     -2.203 -0.3598E-10 -0.4115E-11 -0.2315E-11 -0.2648E-12
     -2.139 -0.8160E-06 -0.1736E-06 -0.5252E-07 -0.1117E-07
     -2.074 -0.5201E-03 -0.2159E-03 -0.3352E-04 -0.1391E-04
     -2.010  0.1008E-02 -0.2545E-02  0.3136E-04 -0.1777E-03
     -1.946  0.7895E-01  0.6747E-01  0.5112E-02  0.4165E-02
     -1.881  0.1530E-01  0.3100E-01  0.6097E-02  0.6159E-02
     -1.817 -0.1504E-02 -0.2454E-02  0.6000E-02  0.6002E-02
     -1.753 -0.6873E-05 -0.2410E-04  0.6000E-02  0.6000E-02
     -1.688 -0.5654E-04 -0.1708E-04  0.5996E-02  0.5999E-02
     -1.624 -0.3839E-02 -0.2605E-02  0.5749E-02  0.5831E-02
     -1.560  0.5305E-01  0.2985E-01  0.9164E-02  0.7752E-02
     -1.495  0.7947E-01  0.9912E-01  0.1428E-01  0.1413E-01
     -1.431 -0.4147E-02 -0.1587E-02  0.1401E-01  0.1403E-01
     -1.366 -0.1796E-03 -0.4602E-03  0.1400E-01  0.1400E-01
     -1.302 -0.3764E-04 -0.1034E-04  0.1400E-01  0.1400E-01
     -1.238 -0.6889E-02 -0.3703E-02  0.1355E-01  0.1376E-01
     -1.173  0.7473E-01  0.2671E-01  0.1836E-01  0.1548E-01
     -1.109  0.3076E+00  0.3271E+00  0.3816E-01  0.3653E-01
     -1.045 -0.8317E-03  0.2649E-01  0.3811E-01  0.3824E-01
     -0.980 -0.1704E-02 -0.3688E-02  0.3800E-01  0.3800E-01
     -0.916 -0.2271E-05 -0.9741E-05  0.3800E-01  0.3800E-01
     -0.852 -0.8620E-10 -0.6879E-09  0.3800E-01  0.3800E-01
     -0.787 -0.8280E-16 -0.1573E-14  0.3800E-01  0.3800E-01
     -0.723 -0.9027E-15 -0.6182E-16  0.3800E-01  0.3800E-01
     -0.659 -0.4451E-09 -0.5472E-10  0.3800E-01  0.3800E-01
     -0.594 -0.7202E-05 -0.1644E-05  0.3800E-01  0.3800E-01
     -0.530 -0.3169E-02 -0.1423E-02  0.3780E-01  0.3791E-01
     -0.465  0.1762E-01 -0.4969E-02  0.3893E-01  0.3759E-01
     -0.401  0.3392E+00  0.3021E+00  0.6076E-01  0.5703E-01
     -0.337  0.1153E+00  0.1684E+00  0.6818E-01  0.6787E-01
     -0.272 -0.2228E-02  0.3230E-02  0.6804E-01  0.6808E-01
     -0.208 -0.7444E-03 -0.1303E-02  0.6799E-01  0.6800E-01
     -0.144 -0.1082E-01 -0.7044E-02  0.6730E-01  0.6754E-01
     -0.079  0.1435E+00  0.7711E-01  0.7653E-01  0.7251E-01
     -0.015  0.2527E+00  0.3061E+00  0.9280E-01  0.9221E-01
      0.049 -0.1245E-01 -0.1806E-02  0.9200E-01  0.9209E-01
      0.114 -0.1204E-01 -0.1411E-01  0.9122E-01  0.9118E-01
      0.178  0.2577E+00  0.1872E+00  0.1078E+00  0.1032E+00
      0.242  0.1380E+00  0.2116E+00  0.1167E+00  0.1168E+00
      0.307 -0.1054E-01 -0.1282E-01  0.1160E+00  0.1160E+00
      0.371 -0.1216E-03 -0.3665E-03  0.1160E+00  0.1160E+00
      0.436 -0.2952E-07 -0.1682E-06  0.1160E+00  0.1160E+00
      0.500 -0.2242E-12 -0.2349E-11  0.1160E+00  0.1160E+00
      0.564 -0.3900E-13 -0.3093E-14  0.1160E+00  0.1160E+00
      0.629 -0.7934E-08 -0.1155E-08  0.1160E+00  0.1160E+00
      0.693 -0.5141E-04 -0.1395E-04  0.1160E+00  0.1160E+00
      0.757 -0.8236E-02 -0.4529E-02  0.1155E+00  0.1157E+00
      0.822  0.6622E-01  0.2012E-01  0.1197E+00  0.1170E+00
      0.886  0.6342E+00  0.5245E+00  0.1605E+00  0.1508E+00
      0.950  0.4534E+00  0.5956E+00  0.1897E+00  0.1891E+00
      1.015 -0.2581E-01 -0.1438E-01  0.1881E+00  0.1882E+00
      1.079 -0.1413E-02 -0.2689E-02  0.1880E+00  0.1880E+00
      1.143 -0.2400E-01 -0.1625E-01  0.1864E+00  0.1869E+00
      1.208  0.3195E+00  0.1669E+00  0.2070E+00  0.1977E+00
      1.272  0.8271E+00  0.9077E+00  0.2602E+00  0.2561E+00
      1.337  0.2023E-03  0.7014E-01  0.2602E+00  0.2606E+00
      1.401 -0.1211E-01 -0.2293E-01  0.2595E+00  0.2591E+00
      1.465  0.2770E+00  0.2182E+00  0.2773E+00  0.2732E+00
      1.530  0.3299E+00  0.3253E+00  0.2985E+00  0.2941E+00
      1.594  0.2907E+00  0.3264E+00  0.3172E+00  0.3151E+00
      1.658  0.4812E-01  0.8251E-01  0.3203E+00  0.3204E+00
      1.723 -0.4978E-02 -0.6779E-02  0.3200E+00  0.3200E+00
      1.787 -0.5331E-02 -0.2476E-02  0.3197E+00  0.3198E+00
      1.851  0.8926E-02 -0.2188E-01  0.3202E+00  0.3184E+00
      1.916  0.7715E+00  0.6189E+00  0.3699E+00  0.3583E+00
      1.980  0.8706E+00  0.9208E+00  0.4259E+00  0.4175E+00
      2.044  0.8194E+00  0.8197E+00  0.4787E+00  0.4703E+00
      2.109  0.4029E+00  0.5006E+00  0.5046E+00  0.5025E+00
      2.173  0.3153E+00  0.2897E+00  0.5249E+00  0.5211E+00
      2.238  0.1600E+00  0.1853E+00  0.5352E+00  0.5331E+00
      2.302  0.6118E+00  0.5174E+00  0.5745E+00  0.5664E+00
      2.366  0.6079E+00  0.6318E+00  0.6137E+00  0.6070E+00
      2.431  0.2007E+00  0.3115E+00  0.6266E+00  0.6271E+00
      2.495  0.8330E-01  0.2922E-01  0.6319E+00  0.6290E+00
      2.559  0.2876E+00  0.3200E+00  0.6505E+00  0.6496E+00
      2.624 -0.1520E-01 -0.3853E-02  0.6495E+00  0.6493E+00
      2.688  0.2514E+00  0.2076E+00  0.6657E+00  0.6627E+00
      2.752  0.4512E+00  0.3305E+00  0.6947E+00  0.6839E+00
      2.817  0.1574E+01  0.1481E+01  0.7960E+00  0.7792E+00
      2.881  0.8467E+00  0.1031E+01  0.8505E+00  0.8456E+00
      2.946  0.6427E+00  0.6323E+00  0.8919E+00  0.8863E+00
      3.010  0.1419E+00  0.2246E+00  0.9010E+00  0.9007E+00
      3.074  0.2606E-01 -0.5353E-02  0.9027E+00  0.9004E+00
      3.139  0.9771E+00  0.8037E+00  0.9656E+00  0.9521E+00
      3.203  0.7266E+00  0.8636E+00  0.1012E+01  0.1008E+01
      3.267  0.3369E+00  0.3851E+00  0.1034E+01  0.1032E+01
      3.332  0.2446E-02  0.2797E-01  0.1034E+01  0.1034E+01
      3.396 -0.4216E-02 -0.5399E-02  0.1034E+01  0.1034E+01
      3.460  0.1788E-01  0.4642E-02  0.1035E+01  0.1034E+01
      3.525  0.1057E+00  0.1078E+00  0.1042E+01  0.1041E+01
      3.589 -0.8938E-02  0.8114E-03  0.1041E+01  0.1041E+01
      3.653  0.2499E+00  0.1868E+00  0.1057E+01  0.1053E+01
      3.718  0.4988E+00  0.4486E+00  0.1089E+01  0.1082E+01
      3.782  0.6815E+00  0.7278E+00  0.1133E+01  0.1129E+01
      3.847  0.2485E+00  0.2618E+00  0.1149E+01  0.1146E+01
      3.911  0.2105E+00  0.2621E+00  0.1163E+01  0.1163E+01
      3.975 -0.1637E-01 -0.1144E-01  0.1162E+01  0.1162E+01
      4.040  0.3124E-01  0.1042E-01  0.1164E+01  0.1163E+01
      4.104  0.1553E+00  0.1377E+00  0.1174E+01  0.1171E+01
      4.168  0.1054E+01  0.7939E+00  0.1242E+01  0.1223E+01
      4.233  0.1021E+01  0.1295E+01  0.1307E+01  0.1306E+01
      4.297  0.4446E+00  0.2908E+00  0.1336E+01  0.1325E+01
      4.361  0.1522E+01  0.1349E+01  0.1434E+01  0.1411E+01
      4.426  0.1967E+01  0.2152E+01  0.1560E+01  0.1550E+01
      4.490  0.3743E+00  0.4569E+00  0.1585E+01  0.1579E+01
      4.554  0.6592E+00  0.6061E+00  0.1627E+01  0.1618E+01
      4.619  0.9693E+00  0.9489E+00  0.1689E+01  0.1679E+01
      4.683  0.5344E+00  0.6398E+00  0.1724E+01  0.1721E+01
      4.748  0.2671E+00  0.2221E+00  0.1741E+01  0.1735E+01
      4.812  0.7161E+00  0.7084E+00  0.1787E+01  0.1781E+01
      4.876  0.7365E+00  0.6729E+00  0.1834E+01  0.1824E+01
      4.941  0.1352E+01  0.1259E+01  0.1921E+01  0.1905E+01
      5.005  0.1383E+01  0.1485E+01  0.2010E+01  0.2000E+01
      5.069  0.1992E+00  0.3630E+00  0.2023E+01  0.2024E+01
      5.134 -0.5273E-01 -0.4961E-01  0.2020E+01  0.2021E+01
      5.198  0.3908E+00  0.2108E+00  0.2045E+01  0.2034E+01
      5.262  0.1604E+01  0.1494E+01  0.2148E+01  0.2130E+01
      5.327  0.1270E+01  0.1353E+01  0.2230E+01  0.2217E+01
      5.391  0.9751E+00  0.1068E+01  0.2293E+01  0.2286E+01
      5.455  0.2799E+00  0.3476E+00  0.2311E+01  0.2308E+01
      5.520  0.5422E+00  0.4844E+00  0.2346E+01  0.2340E+01
      5.584  0.7788E+00  0.6084E+00  0.2396E+01  0.2379E+01
      5.649  0.1468E+01  0.1616E+01  0.2490E+01  0.2483E+01
      5.713  0.7561E+00  0.6912E+00  0.2539E+01  0.2527E+01
      5.777  0.7419E+00  0.8745E+00  0.2587E+01  0.2584E+01
      5.842 -0.1802E-01  0.3943E-01  0.2585E+01  0.2586E+01
      5.906  0.9221E-01  0.4159E-02  0.2591E+01  0.2586E+01
      5.970  0.9972E+00  0.9270E+00  0.2656E+01  0.2646E+01
      6.035  0.3779E+00  0.4916E+00  0.2680E+01  0.2678E+01
      6.099  0.6835E+00  0.5358E+00  0.2724E+01  0.2712E+01
      6.163  0.8311E+00  0.9105E+00  0.2777E+01  0.2771E+01
      6.228  0.2746E+00  0.3701E+00  0.2795E+01  0.2795E+01
      6.292 -0.2277E-01 -0.1268E-01  0.2794E+01  0.2794E+01
      6.356  0.9606E-01  0.5366E-01  0.2800E+01  0.2797E+01
      6.421  0.2573E+00  0.2655E+00  0.2816E+01  0.2814E+01
      6.485  0.2072E-01  0.5612E-01  0.2818E+01  0.2818E+01
      6.550  0.1298E+00  0.6815E-01  0.2826E+01  0.2822E+01
      6.614  0.3333E+00  0.3676E+00  0.2847E+01  0.2846E+01
      6.678  0.1291E+00  0.9849E-01  0.2856E+01  0.2852E+01
      6.743  0.2577E+00  0.3039E+00  0.2872E+01  0.2872E+01
      6.807  0.2346E-01 -0.6490E-02  0.2874E+01  0.2871E+01
      6.871  0.6309E+00  0.5738E+00  0.2914E+01  0.2908E+01
      6.936  0.1420E+00  0.2123E+00  0.2924E+01  0.2922E+01
      7.000  0.4341E+00  0.3629E+00  0.2952E+01  0.2945E+01
      7.064  0.2712E+00  0.3619E+00  0.2969E+01  0.2969E+01
      7.129 -0.1775E-01 -0.1454E-01  0.2968E+01  0.2968E+01
      7.193  0.1589E+00  0.1090E+00  0.2978E+01  0.2975E+01
      7.257  0.4009E+00  0.4099E+00  0.3004E+01  0.3001E+01
      7.322  0.7869E-01  0.8731E-01  0.3009E+01  0.3007E+01
      7.386  0.3972E+00  0.3855E+00  0.3035E+01  0.3032E+01
      7.451  0.3765E-01  0.6312E-01  0.3037E+01  0.3036E+01
      7.515  0.5448E+00  0.4606E+00  0.3072E+01  0.3065E+01
      7.579  0.2755E+00  0.3393E+00  0.3090E+01  0.3087E+01
      7.644  0.2883E+00  0.3075E+00  0.3108E+01  0.3107E+01
      7.708 -0.2698E-02  0.2003E-01  0.3108E+01  0.3108E+01
      7.772 -0.1570E-02 -0.3277E-02  0.3108E+01  0.3108E+01
      7.837 -0.4787E-05 -0.8434E-05  0.3108E+01  0.3108E+01
      7.901 -0.2140E-02 -0.9592E-03  0.3108E+01  0.3108E+01
      7.965 -0.1441E-01 -0.2147E-01  0.3107E+01  0.3107E+01
      8.030  0.5165E+00  0.3880E+00  0.3140E+01  0.3132E+01
      8.094  0.5897E+00  0.6736E+00  0.3178E+01  0.3175E+01
      8.158  0.8695E+00  0.7412E+00  0.3234E+01  0.3223E+01
      8.223  0.3041E+00  0.4930E+00  0.3254E+01  0.3254E+01
      8.287 -0.4493E-01 -0.4788E-01  0.3251E+01  0.3251E+01
      8.352  0.2376E+00  0.1299E+00  0.3266E+01  0.3260E+01
      8.416  0.5367E+00  0.6141E+00  0.3301E+01  0.3299E+01
      8.480  0.2327E+00  0.1941E+00  0.3316E+01  0.3312E+01
      8.545  0.3040E+00  0.3076E+00  0.3335E+01  0.3331E+01
      8.609  0.4355E+00  0.3946E+00  0.3363E+01  0.3357E+01
      8.673  0.8796E+00  0.8581E+00  0.3420E+01  0.3412E+01
      8.738  0.5077E+00  0.5777E+00  0.3452E+01  0.3449E+01
      8.802  0.9508E-01  0.1158E+00  0.3459E+01  0.3457E+01
      8.866  0.6234E+00  0.5194E+00  0.3499E+01  0.3490E+01
      8.931  0.8783E+00  0.9044E+00  0.3555E+01  0.3548E+01
      8.995  0.4317E+00  0.4911E+00  0.3583E+01  0.3580E+01
      9.059  0.2951E+00  0.2476E+00  0.3602E+01  0.3596E+01
      9.124  0.9363E+00  0.8569E+00  0.3662E+01  0.3651E+01
      9.188  0.1156E+01  0.1193E+01  0.3737E+01  0.3728E+01
      9.253  0.3364E+00  0.4805E+00  0.3758E+01  0.3759E+01
      9.317  0.2360E+00  0.1115E+00  0.3773E+01  0.3766E+01
      9.381  0.1004E+01  0.1022E+01  0.3838E+01  0.3832E+01
      9.446  0.4719E+00  0.5073E+00  0.3868E+01  0.3864E+01
      9.510  0.6467E+00  0.6028E+00  0.3910E+01  0.3903E+01
      9.574  0.2240E+00  0.3433E+00  0.3924E+01  0.3925E+01
      9.639  0.1061E+00  0.3983E-01  0.3931E+01  0.3928E+01
      9.703  0.6002E+00  0.5674E+00  0.3970E+01  0.3964E+01
      9.767  0.8123E+00  0.7836E+00  0.4022E+01  0.4015E+01
      9.832  0.5549E+00  0.6219E+00  0.4058E+01  0.4055E+01
      9.896  0.5523E-01  0.1162E+00  0.4062E+01  0.4062E+01
      9.961  0.1533E+00  0.6583E-01  0.4071E+01  0.4066E+01
     10.025  0.8064E+00  0.7540E+00  0.4123E+01  0.4115E+01
     10.089  0.1105E+01  0.1109E+01  0.4194E+01  0.4186E+01
     10.154  0.3657E+00  0.4606E+00  0.4218E+01  0.4216E+01
     10.218  0.5033E+00  0.4652E+00  0.4250E+01  0.4246E+01
     10.282  0.4976E+00  0.4505E+00  0.4282E+01  0.4275E+01
     10.347  0.5986E+00  0.6775E+00  0.4321E+01  0.4318E+01
     10.411  0.1218E+01  0.9592E+00  0.4399E+01  0.4380E+01
     10.475  0.1402E+01  0.1623E+01  0.4490E+01  0.4485E+01
     10.540  0.1405E+01  0.1174E+01  0.4580E+01  0.4560E+01
     10.604  0.1563E+01  0.1695E+01  0.4681E+01  0.4669E+01
     10.668  0.1847E+01  0.1714E+01  0.4799E+01  0.4780E+01
     10.733  0.2174E+01  0.2225E+01  0.4939E+01  0.4923E+01
     10.797  0.1203E+01  0.1294E+01  0.5017E+01  0.5006E+01
     10.862  0.1073E+01  0.1110E+01  0.5086E+01  0.5077E+01
     10.926  0.5170E+00  0.5797E+00  0.5119E+01  0.5115E+01
     10.990  0.3630E+00  0.4117E+00  0.5142E+01  0.5141E+01
     11.055 -0.8792E-02  0.3542E-02  0.5142E+01  0.5141E+01
     11.119  0.3006E+00  0.2523E+00  0.5161E+01  0.5158E+01
     11.183  0.7981E-01  0.1289E+00  0.5166E+01  0.5166E+01
     11.248  0.2989E+00  0.2587E+00  0.5186E+01  0.5183E+01
     11.312  0.1051E+00  0.1353E+00  0.5192E+01  0.5191E+01
     11.376  0.1421E+00  0.1453E+00  0.5202E+01  0.5201E+01
     11.441  0.1751E+00  0.1467E+00  0.5213E+01  0.5210E+01
     11.505  0.8822E-01  0.1308E+00  0.5218E+01  0.5219E+01
     11.569 -0.1429E-01 -0.1291E-01  0.5218E+01  0.5218E+01
     11.634  0.8179E-01  0.3679E-01  0.5223E+01  0.5220E+01
     11.698  0.2924E+00  0.3129E+00  0.5242E+01  0.5240E+01
     11.763  0.2697E+00  0.2335E+00  0.5259E+01  0.5255E+01
     11.827  0.1189E+00  0.1794E+00  0.5267E+01  0.5267E+01
     11.891 -0.1468E-01 -0.1517E-01  0.5266E+01  0.5266E+01
     11.956  0.4644E-01  0.1400E-01  0.5269E+01  0.5267E+01
     12.020  0.3228E+00  0.3245E+00  0.5289E+01  0.5288E+01
     12.084  0.1130E-01  0.4180E-01  0.5290E+01  0.5290E+01
     12.149 -0.5864E-02 -0.6395E-02  0.5290E+01  0.5290E+01
     12.213  0.1411E-01 -0.6197E-02  0.5291E+01  0.5289E+01
     12.277  0.3987E+00  0.3630E+00  0.5316E+01  0.5313E+01
     12.342  0.6321E-01  0.1214E+00  0.5320E+01  0.5321E+01
     12.406 -0.6953E-02 -0.1042E-01  0.5320E+01  0.5320E+01
     12.470 -0.1279E-01 -0.1083E-01  0.5319E+01  0.5319E+01
     12.535  0.2020E+00  0.1418E+00  0.5332E+01  0.5328E+01
     12.599  0.1488E+00  0.2165E+00  0.5342E+01  0.5342E+01
     12.664  0.7023E+00  0.4470E+00  0.5387E+01  0.5371E+01
     12.728  0.1259E+01  0.1422E+01  0.5468E+01  0.5463E+01
     12.792  0.4616E+00  0.4579E+00  0.5498E+01  0.5492E+01
     12.857  0.6180E+00  0.6116E+00  0.5537E+01  0.5531E+01
     12.921  0.9204E+00  0.8464E+00  0.5597E+01  0.5586E+01
     12.985  0.3377E+00  0.5157E+00  0.5618E+01  0.5619E+01
     13.050  0.2990E+00  0.1755E+00  0.5638E+01  0.5630E+01
     13.114  0.4628E+00  0.5600E+00  0.5667E+01  0.5666E+01
     13.178 -0.2079E-01 -0.3885E-02  0.5666E+01  0.5666E+01
     13.243 -0.1280E-02 -0.2966E-02  0.5666E+01  0.5666E+01
     13.307 -0.1041E-05 -0.4623E-05  0.5666E+01  0.5666E+01
     13.371 -0.4948E-06 -0.9628E-07  0.5666E+01  0.5666E+01
     13.436 -0.3944E-03 -0.1518E-03  0.5666E+01  0.5666E+01
     13.500 -0.6243E-03 -0.3029E-02  0.5666E+01  0.5666E+01
     13.565  0.7027E-01  0.5889E-01  0.5670E+01  0.5670E+01
     13.629  0.7707E-01  0.5085E-01  0.5675E+01  0.5673E+01
     13.693  0.3152E+00  0.3207E+00  0.5696E+01  0.5693E+01
     13.758  0.6870E-02  0.3864E-01  0.5696E+01  0.5696E+01
     13.822  0.1534E+00  0.1332E+00  0.5706E+01  0.5705E+01
     13.886  0.2280E-01  0.4499E-01  0.5707E+01  0.5707E+01
     13.951  0.2655E+00  0.2105E+00  0.5725E+01  0.5721E+01
     14.015  0.1253E+00  0.1836E+00  0.5733E+01  0.5733E+01
     14.079 -0.9891E-02 -0.1237E-01  0.5732E+01  0.5732E+01
     14.144 -0.9867E-04 -0.2444E-03  0.5732E+01  0.5732E+01
     14.208 -0.1639E-04 -0.3791E-05  0.5732E+01  0.5732E+01
     14.272 -0.5283E-02 -0.2398E-02  0.5732E+01  0.5732E+01
     14.337  0.3692E-01 -0.2050E-02  0.5734E+01  0.5732E+01
     14.401  0.4792E+00  0.4412E+00  0.5765E+01  0.5760E+01
     14.466  0.2529E-01  0.1059E+00  0.5767E+01  0.5767E+01
     14.530  0.5388E+00  0.3864E+00  0.5801E+01  0.5792E+01
     14.594  0.6107E+00  0.7328E+00  0.5840E+01  0.5839E+01
     14.659  0.4121E-01  0.4604E-01  0.5843E+01  0.5842E+01
     14.723  0.7979E-01  0.9592E-01  0.5848E+01  0.5848E+01
     14.787 -0.4010E-02 -0.7372E-03  0.5848E+01  0.5848E+01
     14.852 -0.4505E-02 -0.2656E-02  0.5848E+01  0.5848E+01
     14.916  0.1035E-01 -0.1549E-01  0.5848E+01  0.5847E+01
     14.980  0.5976E+00  0.5313E+00  0.5887E+01  0.5881E+01
     15.045  0.4757E+00  0.4609E+00  0.5917E+01  0.5911E+01
     15.109  0.4388E+00  0.5374E+00  0.5946E+01  0.5945E+01
     15.173 -0.3094E-01 -0.2123E-01  0.5944E+01  0.5944E+01
     15.238  0.5009E-01  0.1308E-01  0.5947E+01  0.5945E+01
     15.302  0.3080E+00  0.3132E+00  0.5967E+01  0.5965E+01
     15.367  0.2356E+00  0.2031E+00  0.5982E+01  0.5978E+01
     15.431  0.1688E+00  0.2304E+00  0.5993E+01  0.5993E+01
     15.495 -0.1520E-01 -0.1457E-01  0.5992E+01  0.5992E+01
     15.560  0.4005E-01  0.1989E-01  0.5994E+01  0.5993E+01
     15.624  0.9087E-01  0.1053E+00  0.6000E+01  0.6000E+01
     15.688 -0.3278E-02  0.1344E-02  0.6000E+01  0.6000E+01
     15.753 -0.3006E-03 -0.6934E-03  0.6000E+01  0.6000E+01
     15.817 -0.2491E-06 -0.1088E-05  0.6000E+01  0.6000E+01
     15.881 -0.6075E-11 -0.4797E-10  0.6000E+01  0.6000E+01
     15.946  0.0000E+00 -0.8280E-16  0.6000E+01  0.6000E+01
     16.010  0.0000E+00  0.0000E+00  0.6000E+01  0.6000E+01
     16.074  0.0000E+00  0.0000E+00  0.6000E+01  0.6000E+01
     16.139  0.0000E+00  0.0000E+00  0.6000E+01  0.6000E+01
     16.203  0.0000E+00  0.0000E+00  0.6000E+01  0.6000E+01
     16.268  0.0000E+00  0.0000E+00  0.6000E+01  0.6000E+01
     16.332  0.0000E+00  0.0000E+00  0.6000E+01  0.6000E+01
     16.396  0.0000E+00  0.0000E+00  0.6000E+01  0.6000E+01
     16.461  0.0000E+00  0.0000E+00  0.6000E+01  0.6000E+01
     16.46063445     -2.84668983  301      5.67262688      1.00000000
     -2.847  0.0000E+00  0.0000E+00  0.0000E+00  0.0000E+00  0.0000E+00  0.0000E+00  0.0000E+00  0.0000E+00  0.0000E+00  0.0000E+00  0.0000E+00  0.0000E+00  0.0000E+00  0.0000E+00  0.0000E+00  0.0000E+00  0.0000E+00  0.0000E+00
     -2.782  0.0000E+00  0.0000E+00  0.0000E+00  0.0000E+00  0.0000E+00  0.0000E+00  0.0000E+00  0.0000E+00  0.0000E+00  0.0000E+00  0.0000E+00  0.0000E+00  0.0000E+00  0.0000E+00  0.0000E+00  0.0000E+00  0.0000E+00  0.0000E+00
     -2.718  0.0000E+00  0.0000E+00  0.0000E+00  0.0000E+00  0.0000E+00  0.0000E+00  0.0000E+00  0.0000E+00  0.0000E+00  0.0000E+00  0.0000E+00  0.0000E+00  0.0000E+00  0.0000E+00  0.0000E+00  0.0000E+00  0.0000E+00  0.0000E+00
     -2.654  0.0000E+00  0.0000E+00  0.0000E+00  0.0000E+00  0.0000E+00  0.0000E+00  0.0000E+00  0.0000E+00  0.0000E+00  0.0000E+00  0.0000E+00  0.0000E+00  0.0000E+00  0.0000E+00  0.0000E+00  0.0000E+00  0.0000E+00  0.0000E+00
     -2.589  0.0000E+00  0.0000E+00  0.0000E+00  0.0000E+00  0.0000E+00  0.0000E+00  0.0000E+00  0.0000E+00  0.0000E+00  0.0000E+00  0.0000E+00  0.0000E+00  0.0000E+00  0.0000E+00  0.0000E+00  0.0000E+00  0.0000E+00  0.0000E+00
     -2.525  0.0000E+00  0.0000E+00  0.0000E+00  0.0000E+00  0.0000E+00  0.0000E+00  0.0000E+00  0.0000E+00  0.0000E+00  0.0000E+00  0.0000E+00  0.0000E+00  0.0000E+00  0.0000E+00  0.0000E+00  0.0000E+00  0.0000E+00  0.0000E+00
     -2.461  0.0000E+00  0.0000E+00  0.0000E+00  0.0000E+00  0.0000E+00  0.0000E+00  0.0000E+00  0.0000E+00  0.0000E+00  0.0000E+00  0.0000E+00  0.0000E+00  0.0000E+00  0.0000E+00  0.0000E+00  0.0000E+00  0.0000E+00  0.0000E+00
     -2.396 -0.3871E-32 -0.7221E-34 -0.1289E-34 -0.2404E-36 -0.3867E-34 -0.7212E-36 -0.2578E-34 -0.4808E-36 -0.1789E-36 -0.3337E-38 -0.2683E-36 -0.5006E-38 -0.6708E-37 -0.1251E-38 -0.5366E-36 -0.1001E-37 -0.2236E-37 -0.4171E-39
     -2.332 -0.2226E-23 -0.7569E-25 -0.7411E-26 -0.2520E-27 -0.2223E-25 -0.7560E-27 -0.1482E-25 -0.5040E-27 -0.1028E-27 -0.3498E-29 -0.1543E-27 -0.5247E-29 -0.3857E-28 -0.1312E-29 -0.3085E-27 -0.1049E-28 -0.1286E-28 -0.4372E-30
     -2.267 -0.4510E-16 -0.2802E-17 -0.1501E-18 -0.9328E-20 -0.4504E-18 -0.2798E-19 -0.3003E-18 -0.1866E-19 -0.2084E-20 -0.1295E-21 -0.3126E-20 -0.1942E-21 -0.7814E-21 -0.4856E-22 -0.6251E-20 -0.3884E-21 -0.2605E-21 -0.1618E-22
     -2.203 -0.3028E-10 -0.3464E-11 -0.1008E-12 -0.1153E-13 -0.3025E-12 -0.3460E-13 -0.2017E-12 -0.2307E-13 -0.1399E-14 -0.1601E-15 -0.2099E-14 -0.2401E-15 -0.5247E-15 -0.6004E-16 -0.4198E-14 -0.4802E-15 -0.1749E-15 -0.2001E-16
     -2.139 -0.6869E-06 -0.1461E-06 -0.2287E-08 -0.4865E-09 -0.6861E-08 -0.1459E-08 -0.4574E-08 -0.9729E-09 -0.3174E-10 -0.6751E-11 -0.4761E-10 -0.1013E-10 -0.1190E-10 -0.2532E-11 -0.9522E-10 -0.2025E-10 -0.3967E-11 -0.8439E-12
     -2.074 -0.4378E-03 -0.1818E-03 -0.1458E-05 -0.6051E-06 -0.4373E-05 -0.1815E-05 -0.2915E-05 -0.1210E-05 -0.2023E-07 -0.8399E-08 -0.3034E-07 -0.1260E-07 -0.7586E-08 -0.3150E-08 -0.6069E-07 -0.2520E-07 -0.2529E-08 -0.1050E-08
     -2.010  0.8486E-03 -0.2142E-02  0.2826E-05 -0.7132E-05  0.8477E-05 -0.2140E-04  0.5651E-05 -0.1426E-04  0.3921E-07 -0.9898E-07  0.5882E-07 -0.1485E-06  0.1470E-07 -0.3712E-07  0.1176E-06 -0.2969E-06  0.4901E-08 -0.1237E-07
     -1.946  0.6646E-01  0.5680E-01  0.2213E-03  0.1891E-03  0.6638E-03  0.5673E-03  0.4425E-03  0.3782E-03  0.3071E-05  0.2625E-05  0.4606E-05  0.3937E-05  0.1152E-05  0.9844E-06  0.9212E-05  0.7874E-05  0.3838E-06  0.3281E-06
     -1.881  0.1288E-01  0.2609E-01  0.4289E-04  0.8687E-04  0.1287E-03  0.2606E-03  0.8579E-04  0.1737E-03  0.5953E-06  0.1206E-05  0.8929E-06  0.1809E-05  0.2232E-06  0.4522E-06  0.1786E-05  0.3617E-05  0.7441E-07  0.1507E-06
     -1.817 -0.1266E-02 -0.2066E-02 -0.4217E-05 -0.6878E-05 -0.1265E-04 -0.2064E-04 -0.8433E-05 -0.1376E-04 -0.5852E-07 -0.9546E-07 -0.8777E-07 -0.1432E-06 -0.2194E-07 -0.3580E-07 -0.1755E-06 -0.2864E-06 -0.7314E-08 -0.1193E-07
     -1.753 -0.5785E-05 -0.2029E-04 -0.1939E-07 -0.6756E-07 -0.5817E-07 -0.2027E-06 -0.3852E-07 -0.1351E-06 -0.2716E-09 -0.9381E-09 -0.4293E-09 -0.1411E-08 -0.1165E-09 -0.3542E-09 -0.8147E-09 -0.2814E-08 -0.3395E-10 -0.1173E-09
     -1.688 -0.4611E-04 -0.1393E-04 -0.5940E-06 -0.1794E-06 -0.1782E-05 -0.5381E-06 -0.2970E-06 -0.8971E-07 -0.1672E-07 -0.5049E-08 -0.1003E-06 -0.3029E-07 -0.5644E-07 -0.1704E-07 -0.5017E-07 -0.1515E-07 -0.2090E-08 -0.6311E-09
     -1.624 -0.3130E-02 -0.2125E-02 -0.4032E-04 -0.2737E-04 -0.1210E-03 -0.8211E-04 -0.2016E-04 -0.1368E-04 -0.1135E-05 -0.7704E-06 -0.6811E-05 -0.4622E-05 -0.3831E-05 -0.2600E-05 -0.3406E-05 -0.2311E-05 -0.1419E-06 -0.9630E-07
     -1.560  0.4326E-01  0.2434E-01  0.5573E-03  0.3136E-03  0.1672E-02  0.9407E-03  0.2787E-03  0.1568E-03  0.1569E-04  0.8827E-05  0.9414E-04  0.5296E-04  0.5296E-04  0.2979E-04  0.4707E-04  0.2648E-04  0.1961E-05  0.1103E-05
     -1.495  0.6480E-01  0.8083E-01  0.8348E-03  0.1041E-02  0.2504E-02  0.3124E-02  0.4174E-03  0.5206E-03  0.2350E-04  0.2931E-04  0.1410E-03  0.1759E-03  0.7933E-04  0.9892E-04  0.7051E-04  0.8793E-04  0.2938E-05  0.3664E-05
     -1.431 -0.3382E-02 -0.1294E-02 -0.4357E-04 -0.1667E-04 -0.1307E-03 -0.5001E-04 -0.2178E-04 -0.8335E-05 -0.1227E-05 -0.4693E-06 -0.7360E-05 -0.2816E-05 -0.4140E-05 -0.1584E-05 -0.3680E-05 -0.1408E-05 -0.1533E-06 -0.5866E-07
     -1.366 -0.1464E-03 -0.3753E-03 -0.1886E-05 -0.4834E-05 -0.5658E-05 -0.1450E-04 -0.9432E-06 -0.2417E-05 -0.5313E-07 -0.1361E-06 -0.3186E-06 -0.8164E-06 -0.1792E-06 -0.4592E-06 -0.1593E-06 -0.4082E-06 -0.6641E-08 -0.1701E-07
     -1.302 -0.2963E-04 -0.8157E-05 -0.8542E-06 -0.2287E-06 -0.3192E-06 -0.9907E-07 -0.1707E-05 -0.4492E-06 -0.2009E-06 -0.5271E-07 -0.1967E-07 -0.6023E-08 -0.9028E-07 -0.2411E-07 -0.3906E-07 -0.1066E-07 -0.2511E-07 -0.6589E-08
     -1.238 -0.5423E-02 -0.2915E-02 -0.1566E-03 -0.8417E-04 -0.5798E-04 -0.3116E-04 -0.3132E-03 -0.1683E-03 -0.3687E-04 -0.1982E-04 -0.3576E-05 -0.1923E-05 -0.1655E-04 -0.8893E-05 -0.7153E-05 -0.3845E-05 -0.4608E-05 -0.2477E-05
     -1.173  0.5883E-01  0.2103E-01  0.1699E-02  0.6071E-03  0.6290E-03  0.2248E-03  0.3397E-02  0.1214E-02  0.4000E-03  0.1429E-03  0.3880E-04  0.1387E-04  0.1795E-03  0.6414E-04  0.7759E-04  0.2774E-04  0.4999E-04  0.1787E-04
     -1.109  0.2422E+00  0.2576E+00  0.6993E-02  0.7436E-02  0.2589E-02  0.2753E-02  0.1399E-01  0.1487E-01  0.1647E-02  0.1751E-02  0.1597E-03  0.1699E-03  0.7392E-03  0.7856E-03  0.3194E-03  0.3397E-03  0.2058E-03  0.2188E-03
     -1.045 -0.6548E-03  0.2085E-01 -0.1890E-04  0.6021E-03 -0.7000E-05  0.2229E-03 -0.3781E-04  0.1204E-02 -0.4451E-05  0.1418E-03 -0.4318E-06  0.1375E-04 -0.1998E-05  0.6362E-04 -0.8635E-06  0.2751E-04 -0.5564E-06  0.1772E-04
     -0.980 -0.1341E-02 -0.2903E-02 -0.3873E-04 -0.8382E-04 -0.1434E-04 -0.3104E-04 -0.7746E-04 -0.1676E-03 -0.9119E-05 -0.1974E-04 -0.8846E-06 -0.1915E-05 -0.4094E-05 -0.8856E-05 -0.1769E-05 -0.3830E-05 -0.1140E-05 -0.2467E-05
     -0.916 -0.1788E-05 -0.7669E-05 -0.5163E-07 -0.2214E-06 -0.1912E-07 -0.8198E-07 -0.1033E-06 -0.4428E-06 -0.1216E-07 -0.5213E-07 -0.1179E-08 -0.5058E-08 -0.5457E-08 -0.2339E-07 -0.2358E-08 -0.1012E-07 -0.1519E-08 -0.6517E-08
     -0.852 -0.6786E-10 -0.5416E-09 -0.1959E-11 -0.1564E-10 -0.7255E-12 -0.5790E-11 -0.3919E-11 -0.3127E-10 -0.4613E-12 -0.3682E-11 -0.4475E-13 -0.3572E-12 -0.2071E-12 -0.1652E-11 -0.8950E-13 -0.7144E-12 -0.5767E-13 -0.4602E-12
     -0.787 -0.6519E-16 -0.1239E-14 -0.1882E-17 -0.3576E-16 -0.6970E-18 -0.1324E-16 -0.3764E-17 -0.7152E-16 -0.4432E-18 -0.8420E-17 -0.4299E-19 -0.8170E-18 -0.1989E-18 -0.3778E-17 -0.8598E-19 -0.1634E-17 -0.5540E-19 -0.1053E-17
     -0.723 -0.6616E-15 -0.4532E-16 -0.1825E-16 -0.1250E-17 -0.5474E-16 -0.3749E-17 -0.3539E-16 -0.2424E-17 -0.5194E-17 -0.3557E-18 -0.8327E-17 -0.5701E-18 -0.1165E-17 -0.7979E-19 -0.1558E-16 -0.1067E-17 -0.2138E-17 -0.1464E-18
     -0.659 -0.3263E-09 -0.4011E-10 -0.8998E-11 -0.1106E-11 -0.2699E-10 -0.3319E-11 -0.1745E-10 -0.2145E-11 -0.2561E-11 -0.3148E-12 -0.4106E-11 -0.5046E-12 -0.5747E-12 -0.7063E-13 -0.7683E-11 -0.9445E-12 -0.1054E-11 -0.1296E-12
     -0.594 -0.5279E-05 -0.1205E-05 -0.1456E-06 -0.3323E-07 -0.4368E-06 -0.9970E-07 -0.2824E-06 -0.6446E-07 -0.4144E-07 -0.9458E-08 -0.6644E-07 -0.1516E-07 -0.9299E-08 -0.2122E-08 -0.1243E-06 -0.2837E-07 -0.1706E-07 -0.3893E-08
     -0.530 -0.2323E-02 -0.1043E-02 -0.6408E-04 -0.2876E-04 -0.1922E-03 -0.8628E-04 -0.1243E-03 -0.5578E-04 -0.1822E-04 -0.8181E-05 -0.2921E-04 -0.1311E-04 -0.4091E-05 -0.1836E-05 -0.5466E-04 -0.2454E-04 -0.7495E-05 -0.3366E-05
     -0.465  0.1292E-01 -0.3639E-02  0.3525E-03 -0.1023E-03  0.1057E-02 -0.3069E-03  0.6818E-03 -0.1994E-03  0.1048E-03 -0.2688E-04  0.1684E-03 -0.4285E-04  0.2284E-04 -0.6365E-05  0.3143E-03 -0.8063E-04  0.4439E-04 -0.1042E-04
     -0.401  0.2486E+00  0.2215E+00  0.6892E-02  0.6116E-02  0.2068E-01  0.1835E-01  0.1339E-01  0.1187E-01  0.1919E-02  0.1730E-02  0.3073E-02  0.2772E-02  0.4370E-03  0.3897E-03  0.5757E-02  0.5190E-02  0.7779E-03  0.7090E-03
     -0.337  0.8411E-01  0.1231E+00  0.2547E-02  0.3623E-02  0.7641E-02  0.1087E-01  0.5051E-02  0.7139E-02  0.4631E-03  0.7666E-03  0.7155E-03  0.1202E-02  0.1431E-03  0.2117E-03  0.1389E-02  0.2300E-02  0.1160E-03  0.2401E-03
     -0.272 -0.1644E-02  0.2313E-02 -0.3949E-04  0.9473E-04 -0.1185E-03  0.2842E-03 -0.7374E-04  0.1989E-03 -0.1797E-04 -0.8720E-05 -0.2950E-04 -0.1763E-04 -0.3024E-05  0.3394E-05 -0.5390E-04 -0.2616E-04 -0.9314E-05 -0.1377E-04
     -0.208 -0.5382E-03 -0.9477E-03 -0.2405E-04 -0.3181E-04 -0.4591E-04 -0.8763E-04 -0.3343E-04 -0.5920E-04 -0.4667E-05 -0.5019E-05 -0.5227E-05 -0.7028E-05 -0.1438E-05 -0.1750E-05 -0.6359E-05 -0.1278E-04 -0.5947E-06 -0.7052E-06
     -0.144 -0.7578E-02 -0.4935E-02 -0.8196E-03 -0.5335E-03 -0.3245E-03 -0.2114E-03 -0.4474E-03 -0.2913E-03 -0.2153E-03 -0.1401E-03 -0.1779E-03 -0.1158E-03 -0.5626E-04 -0.3660E-04 -0.2404E-04 -0.1569E-04 -0.2606E-04 -0.1695E-04
     -0.079  0.1005E+00  0.5402E-01  0.1088E-01  0.5842E-02  0.4305E-02  0.2312E-02  0.5937E-02  0.3189E-02  0.2857E-02  0.1535E-02  0.2361E-02  0.1268E-02  0.7465E-03  0.4009E-03  0.3188E-03  0.1714E-03  0.3458E-03  0.1857E-03
     -0.015  0.1770E+00  0.2144E+00  0.1915E-01  0.2319E-01  0.7579E-02  0.9179E-02  0.1045E-01  0.1266E-01  0.5030E-02  0.6092E-02  0.4157E-02  0.5035E-02  0.1314E-02  0.1591E-02  0.5613E-03  0.6803E-03  0.6088E-03  0.7371E-03
      0.049 -0.8697E-02 -0.1256E-02 -0.9215E-03 -0.1290E-03 -0.3580E-03 -0.4862E-04 -0.5499E-03 -0.8727E-04 -0.2761E-03 -0.4612E-04 -0.1939E-03 -0.2579E-04 -0.7894E-04 -0.1449E-04 -0.2779E-04 -0.4063E-05 -0.3359E-04 -0.5641E-05
      0.114 -0.8031E-02 -0.9442E-02 -0.5629E-03 -0.6862E-03 -0.1157E-03 -0.1543E-03 -0.1053E-02 -0.1191E-02 -0.6888E-03 -0.7728E-03 -0.2465E-04 -0.4211E-04 -0.2880E-03 -0.3201E-03 -0.2890E-04 -0.3371E-04 -0.8605E-04 -0.9647E-04
      0.178  0.1714E+00  0.1245E+00  0.1161E-01  0.8434E-02  0.2169E-02  0.1576E-02  0.2322E-01  0.1687E-01  0.1530E-01  0.1112E-01  0.3106E-03  0.2256E-03  0.6444E-02  0.4679E-02  0.6212E-03  0.4513E-03  0.1913E-02  0.1389E-02
      0.242  0.9175E-01  0.1408E+00  0.6216E-02  0.9536E-02  0.1161E-02  0.1781E-02  0.1243E-01  0.1907E-01  0.8193E-02  0.1257E-01  0.1663E-03  0.2552E-03  0.3450E-02  0.5291E-02  0.3326E-03  0.5103E-03  0.1024E-02  0.1571E-02
      0.307 -0.7012E-02 -0.8529E-02 -0.4751E-03 -0.5778E-03 -0.8877E-04 -0.1079E-03 -0.9502E-03 -0.1156E-02 -0.6261E-03 -0.7615E-03 -0.1271E-04 -0.1546E-04 -0.2637E-03 -0.3206E-03 -0.2542E-04 -0.3092E-04 -0.7827E-04 -0.9519E-04
      0.371 -0.8084E-04 -0.2438E-03 -0.5477E-05 -0.1651E-04 -0.1023E-05 -0.3085E-05 -0.1095E-04 -0.3303E-04 -0.7218E-05 -0.2176E-04 -0.1465E-06 -0.4418E-06 -0.3040E-05 -0.9161E-05 -0.2930E-06 -0.8836E-06 -0.9023E-06 -0.2720E-05