   1   1   0   0
  0.1813235E+02  0.2866544E-09  0.2866544E-09  0.2866544E-09  0.5000000E-15
  1.000000000000000E-004
  CAR 
 unknown system                          
     16.45650089     -2.83922834  301      5.67391480      1.00000000
     -2.839  0.0000E+00  0.0000E+00
     -2.775  0.0000E+00  0.0000E+00
     -2.711  0.0000E+00  0.0000E+00
     -2.646  0.0000E+00  0.0000E+00
     -2.582  0.0000E+00  0.0000E+00
     -2.518  0.0000E+00  0.0000E+00
     -2.453  0.0000E+00  0.0000E+00
     -2.389 -0.1004E-31 -0.6458E-33
     -2.325 -0.5633E-23 -0.3623E-24
     -2.260 -0.1118E-15 -0.7192E-17
     -2.196 -0.7387E-10 -0.4751E-11
     -2.132 -0.1655E-05 -0.1064E-06
     -2.067 -0.1045E-02 -0.6735E-04
     -2.003  0.2044E-02  0.6413E-04
     -1.939  0.1579E+00  0.1022E-01
     -1.874  0.3067E-01  0.1220E-01
     -1.810 -0.3019E-02  0.1200E-01
     -1.746 -0.1390E-04  0.1200E-01
     -1.681 -0.1110E-03  0.1199E-01
     -1.617 -0.7639E-02  0.1150E-01
     -1.553  0.1050E+00  0.1826E-01
     -1.489  0.1601E+00  0.2855E-01
     -1.424 -0.8253E-02  0.2802E-01
     -1.360 -0.3704E-03  0.2800E-01
     -1.296 -0.7166E-04  0.2800E-01
     -1.231 -0.1347E-01  0.2713E-01
     -1.167  0.1443E+00  0.3641E-01
     -1.103  0.6189E+00  0.7622E-01
     -1.038  0.1545E-03  0.7623E-01
     -0.974 -0.3563E-02  0.7600E-01
     -0.910 -0.4944E-05  0.7600E-01
     -0.845 -0.1956E-09  0.7600E-01
     -0.781 -0.3314E-15  0.7600E-01
     -0.717 -0.1485E-14  0.7600E-01
     -0.652 -0.7634E-09  0.7600E-01
     -0.588 -0.1288E-04  0.7600E-01
     -0.524 -0.5969E-02  0.7562E-01
     -0.459  0.2994E-01  0.7754E-01
     -0.395  0.6747E+00  0.1209E+00
     -0.331  0.2393E+00  0.1363E+00
     -0.266 -0.3774E-02  0.1361E+00
     -0.202 -0.1557E-02  0.1360E+00
     -0.138 -0.2092E-01  0.1346E+00
     -0.074  0.2720E+00  0.1521E+00
     -0.009  0.5194E+00  0.1855E+00
      0.055 -0.2371E-01  0.1840E+00
      0.119 -0.2527E-01  0.1824E+00
      0.184  0.5005E+00  0.2146E+00
      0.248  0.2931E+00  0.2334E+00
      0.312 -0.2194E-01  0.2320E+00
      0.377 -0.2808E-03  0.2320E+00
      0.441 -0.7420E-07  0.2320E+00
      0.505 -0.6139E-12  0.2320E+00
      0.570 -0.5483E-13  0.2320E+00
      0.634 -0.1208E-07  0.2320E+00
      0.698 -0.8536E-04  0.2320E+00
      0.763 -0.1520E-01  0.2310E+00
      0.827  0.1152E+00  0.2384E+00
      0.891  0.1238E+01  0.3181E+00
      0.956  0.9538E+00  0.3794E+00
      1.020 -0.5057E-01  0.3762E+00
      1.084 -0.3051E-02  0.3760E+00
      1.149 -0.4571E-01  0.3730E+00
      1.213  0.5855E+00  0.4107E+00
      1.277  0.1691E+01  0.5194E+00
      1.342  0.1784E-01  0.5206E+00
      1.406 -0.2832E-01  0.5188E+00
      1.470  0.5402E+00  0.5535E+00
      1.534  0.6557E+00  0.5957E+00
      1.599  0.5946E+00  0.6339E+00
      1.663  0.1051E+00  0.6407E+00
      1.727 -0.1056E-01  0.6400E+00
      1.792 -0.9429E-02  0.6394E+00
      1.856  0.3153E-02  0.6396E+00
      1.920  0.1495E+01  0.7357E+00
      1.985  0.1754E+01  0.8486E+00
      2.049  0.1643E+01  0.9542E+00
      2.113  0.8452E+00  0.1009E+01
      2.178  0.6217E+00  0.1049E+01
      2.242  0.3212E+00  0.1069E+01
      2.306  0.1196E+01  0.1146E+01
      2.371  0.1226E+01  0.1225E+01
      2.435  0.4405E+00  0.1253E+01
      2.499  0.1499E+00  0.1263E+01
      2.564  0.5870E+00  0.1301E+01
      2.628 -0.2989E-01  0.1299E+01
      2.692  0.4931E+00  0.1331E+01
      2.757  0.8349E+00  0.1384E+01
      2.821  0.3126E+01  0.1585E+01
      2.885  0.1769E+01  0.1699E+01
      2.949  0.1283E+01  0.1782E+01
      3.014  0.3171E+00  0.1802E+01
      3.078  0.2960E-01  0.1804E+01
      3.142  0.1884E+01  0.1925E+01
      3.207  0.1522E+01  0.2023E+01
      3.271  0.6920E+00  0.2068E+01
      3.335  0.1282E-01  0.2068E+01
      3.400 -0.8612E-02  0.2068E+01
      3.464  0.2799E-01  0.2070E+01
      3.528  0.2150E+00  0.2083E+01
      3.593 -0.1558E-01  0.2082E+01
      3.657  0.4700E+00  0.2113E+01
      3.721  0.9703E+00  0.2175E+01
      3.786  0.1394E+01  0.2265E+01
      3.850  0.5020E+00  0.2297E+01
      3.914  0.4456E+00  0.2326E+01
      3.979 -0.3139E-01  0.2324E+01
      4.043  0.4949E-01  0.2327E+01
      4.107  0.2984E+00  0.2346E+01
      4.172  0.1967E+01  0.2473E+01
      4.236  0.2203E+01  0.2614E+01
      4.300  0.7889E+00  0.2665E+01
      4.365  0.2937E+01  0.2854E+01
      4.429  0.4072E+01  0.3116E+01
      4.493  0.7772E+00  0.3166E+01
      4.557  0.1291E+01  0.3249E+01
      4.622  0.1930E+01  0.3373E+01
      4.686  0.1134E+01  0.3446E+01
      4.750  0.4946E+00  0.3478E+01
      4.815  0.1430E+01  0.3570E+01
      4.879  0.1434E+01  0.3662E+01
      4.943  0.2643E+01  0.3832E+01
      5.008  0.2840E+01  0.4015E+01
      5.072  0.5027E+00  0.4047E+01
      5.136 -0.1041E+00  0.4040E+01
      5.201  0.6444E+00  0.4082E+01
      5.265  0.3144E+01  0.4284E+01
      5.329  0.2597E+01  0.4451E+01
      5.394  0.2025E+01  0.4581E+01
      5.458  0.5997E+00  0.4620E+01
      5.522  0.1054E+01  0.4688E+01
      5.587  0.1400E+01  0.4778E+01
      5.651  0.3078E+01  0.4976E+01
      5.715  0.1451E+01  0.5069E+01
      5.780  0.1595E+01  0.5171E+01
      5.844 -0.2493E-03  0.5171E+01
      5.908  0.9792E-01  0.5178E+01
      5.972  0.1962E+01  0.5304E+01
      6.037  0.8419E+00  0.5358E+01
      6.101  0.1236E+01  0.5438E+01
      6.165  0.1744E+01  0.5550E+01
      6.230  0.6240E+00  0.5590E+01
      6.294 -0.4073E-01  0.5587E+01
      6.358  0.1564E+00  0.5597E+01
      6.423  0.5263E+00  0.5631E+01
      6.487  0.6706E-01  0.5636E+01
      6.551  0.2044E+00  0.5649E+01
      6.616  0.7043E+00  0.5694E+01
      6.680  0.2158E+00  0.5708E+01
      6.744  0.5685E+00  0.5744E+01
      6.809  0.1200E-01  0.5745E+01
      6.873  0.1228E+01  0.5824E+01
      6.937  0.3323E+00  0.5846E+01
      7.002  0.8059E+00  0.5897E+01
      7.066  0.6302E+00  0.5938E+01
      7.130 -0.3594E-01  0.5936E+01
      7.195  0.2712E+00  0.5953E+01
      7.259  0.8180E+00  0.6006E+01
      7.323  0.1541E+00  0.6016E+01
      7.388  0.7959E+00  0.6067E+01
      7.452  0.8653E-01  0.6072E+01
      7.516  0.1021E+01  0.6138E+01
      7.580  0.6024E+00  0.6177E+01
      7.645  0.6024E+00  0.6215E+01
      7.709  0.1256E-01  0.6216E+01
      7.773 -0.4561E-02  0.6216E+01
      7.838 -0.1072E-04  0.6216E+01
      7.902 -0.2929E-02  0.6216E+01
      7.966 -0.3878E-01  0.6213E+01
      8.031  0.9073E+00  0.6272E+01
      8.095  0.1264E+01  0.6353E+01
      8.159  0.1616E+01  0.6457E+01
      8.224  0.7948E+00  0.6508E+01
      8.288 -0.9359E-01  0.6502E+01
      8.352  0.3594E+00  0.6525E+01
      8.417  0.1162E+01  0.6600E+01
      8.481  0.4217E+00  0.6627E+01
      8.545  0.6098E+00  0.6666E+01
      8.610  0.8245E+00  0.6719E+01
      8.674  0.1744E+01  0.6831E+01
      8.738  0.1092E+01  0.6902E+01
      8.803  0.2014E+00  0.6915E+01
      8.867  0.1137E+01  0.6988E+01
      8.931  0.1791E+01  0.7103E+01
      8.995  0.9288E+00  0.7163E+01
      9.060  0.5235E+00  0.7196E+01
      9.124  0.1791E+01  0.7312E+01
      9.188  0.2361E+01  0.7463E+01
      9.253  0.8348E+00  0.7517E+01
      9.317  0.3146E+00  0.7537E+01
      9.381  0.2045E+01  0.7669E+01
      9.446  0.9810E+00  0.7732E+01
      9.510  0.1244E+01  0.7812E+01
      9.574  0.5878E+00  0.7850E+01
      9.639  0.1271E+00  0.7858E+01
      9.703  0.1165E+01  0.7933E+01
      9.767  0.1592E+01  0.8035E+01
      9.832  0.1193E+01  0.8112E+01
      9.896  0.1832E+00  0.8124E+01
      9.960  0.1923E+00  0.8136E+01
     10.025  0.1549E+01  0.8236E+01
     10.089  0.2222E+01  0.8379E+01
     10.153  0.8464E+00  0.8433E+01
     10.218  0.9608E+00  0.8495E+01
     10.282  0.9285E+00  0.8555E+01
     10.346  0.1307E+01  0.8639E+01
     10.411  0.2081E+01  0.8773E+01
     10.475  0.3112E+01  0.8973E+01
     10.539  0.2497E+01  0.9133E+01
     10.603  0.3299E+01  0.9346E+01
     10.668  0.3508E+01  0.9571E+01
     10.732  0.4431E+01  0.9856E+01
     10.796  0.2520E+01  0.1002E+02
     10.861  0.2210E+01  0.1016E+02
     10.925  0.1112E+01  0.1023E+02
     10.989  0.8006E+00  0.1028E+02
     11.054 -0.4660E-02  0.1028E+02
     11.118  0.5393E+00  0.1032E+02
     11.182  0.2227E+00  0.1033E+02
     11.247  0.5413E+00  0.1037E+02
     11.311  0.2535E+00  0.1038E+02
     11.375  0.2910E+00  0.1040E+02
     11.440  0.3084E+00  0.1042E+02
     11.504  0.2387E+00  0.1044E+02
     11.568 -0.2667E-01  0.1044E+02
     11.633  0.9358E-01  0.1044E+02
     11.697  0.6197E+00  0.1048E+02
     11.761  0.4826E+00  0.1051E+02
     11.826  0.3307E+00  0.1053E+02
     11.890 -0.3013E-01  0.1053E+02
     11.954  0.3800E-01  0.1053E+02
     12.018  0.6526E+00  0.1058E+02
     12.083  0.7025E-01  0.1058E+02
     12.147 -0.1250E-01  0.1058E+02
     12.211 -0.5638E-02  0.1058E+02
     12.276  0.7470E+00  0.1063E+02
     12.340  0.2144E+00  0.1064E+02
     12.404 -0.1923E-01  0.1064E+02
     12.469 -0.2279E-01  0.1064E+02
     12.533  0.3078E+00  0.1066E+02
     12.597  0.4067E+00  0.1068E+02
     12.662  0.9841E+00  0.1075E+02
     12.726  0.2793E+01  0.1093E+02
     12.790  0.9096E+00  0.1099E+02
     12.855  0.1227E+01  0.1106E+02
     12.919  0.1717E+01  0.1118E+02
     12.983  0.9749E+00  0.1124E+02
     13.048  0.3866E+00  0.1126E+02
     13.112  0.1095E+01  0.1133E+02
     13.176 -0.1552E-01  0.1133E+02
     13.241 -0.5283E-02  0.1133E+02
     13.305 -0.7517E-05  0.1133E+02
     13.369 -0.2449E-06  0.1133E+02
     13.434 -0.3497E-03  0.1133E+02
     13.498 -0.5775E-02  0.1133E+02
     13.562  0.1216E+00  0.1134E+02
     13.626  0.1081E+00  0.1135E+02
     13.691  0.6461E+00  0.1139E+02
     13.755  0.6224E-01  0.1139E+02
     13.819  0.2717E+00  0.1141E+02
     13.884  0.8505E-01  0.1141E+02
     13.948  0.4301E+00  0.1144E+02
     14.012  0.3584E+00  0.1147E+02
     14.077 -0.2450E-01  0.1146E+02
     14.141 -0.4613E-03  0.1146E+02
     14.205 -0.9229E-05  0.1146E+02
     14.270 -0.5355E-02  0.1146E+02
     14.334  0.2562E-02  0.1146E+02
     14.398  0.8982E+00  0.1152E+02
     14.463  0.1888E+00  0.1153E+02
     14.527  0.7861E+00  0.1158E+02
     14.591  0.1456E+01  0.1168E+02
     14.656  0.9530E-01  0.1168E+02
     14.720  0.1890E+00  0.1170E+02
     14.784 -0.2592E-02  0.1170E+02
     14.849 -0.5296E-02  0.1170E+02
     14.913 -0.3042E-01  0.1169E+02
     14.977  0.1066E+01  0.1176E+02
     15.041  0.9164E+00  0.1182E+02
     15.106  0.1078E+01  0.1189E+02
     15.170 -0.4198E-01  0.1189E+02
     15.234  0.2594E-01  0.1189E+02
     15.299  0.6265E+00  0.1193E+02
     15.363  0.4072E+00  0.1196E+02
     15.427  0.4609E+00  0.1199E+02
     15.492 -0.2916E-01  0.1198E+02
     15.556  0.3985E-01  0.1199E+02
     15.620  0.2106E+00  0.1200E+02
     15.685  0.2725E-02  0.1200E+02
     15.749 -0.1394E-02  0.1200E+02
     15.813 -0.2206E-05  0.1200E+02
     15.878 -0.9849E-10  0.1200E+02
     15.942 -0.1657E-15  0.1200E+02
     16.006  0.0000E+00  0.1200E+02
     16.071  0.0000E+00  0.1200E+02
     16.135  0.0000E+00  0.1200E+02
     16.199  0.0000E+00  0.1200E+02
     16.264  0.0000E+00  0.1200E+02
     16.328  0.0000E+00  0.1200E+02
     16.392  0.0000E+00  0.1200E+02
     16.457  0.0000E+00  0.1200E+02
