    1    1    1    1
  0.1813235E+02  0.2866544E-09  0.2866544E-09  0.2866544E-09  0.5000000E-15
  1.000000000000000E-004
  CAR 
 unknown system                          
    5   44    6
 
  0.5000000E-01  0.5000000E-01  0.5000000E-01  0.8000000E-02
   1       -1.546343
   2        6.087431
   3        6.087431
   4        7.202280
   5        9.443542
   6        9.443542
 
  0.1500000E+00  0.5000000E-01  0.5000000E-01  0.2400000E-01
   1       -0.423757
   2        5.414349
   3        5.597822
   4        8.551560
   5        9.127350
   6        9.711408
 
  0.2500000E+00  0.5000000E-01  0.5000000E-01  0.2400000E-01
   1        0.901873
   2        4.757346
   3        5.296605
   4        9.345813
   5       10.039154
   6       10.524186
 
  0.3500000E+00  0.5000000E-01  0.5000000E-01  0.2400000E-01
   1        1.530445
   2        4.307749
   3        6.108480
   4        9.668307
   5       10.403012
   6       12.659608
 
  0.4500000E+00  0.5000000E-01  0.5000000E-01  0.1200000E-01
   1        1.587835
   2        4.149821
   3        6.984418
   4        9.649914
   5       10.587543
   6       13.805358
 
 -0.5000000E-01  0.5000000E-01  0.5000000E-01  0.6000000E-02
   1       -1.962150
   2        6.405988
   3        6.405989
   4        6.543214
   5        9.307162
   6        9.803968
 
  0.1500000E+00  0.1500000E+00  0.5000000E-01  0.2400000E-01
   1        0.846519
   2        4.868700
   3        4.941086
   4        9.202491
   5       10.084723
   6       10.448562
 
  0.2500000E+00  0.1500000E+00  0.5000000E-01  0.4800000E-01
   1        2.012608
   2        4.396951
   3        4.974135
   4        9.503568
   5       10.427263
   6       12.674424
 
  0.3500000E+00  0.1500000E+00  0.5000000E-01  0.4800000E-01
   1        2.290437
   2        4.182573
   3        5.939466
   4        9.755823
   5       10.628831
   6       14.527536
 
 -0.1500000E+00  0.1500000E+00  0.5000000E-01  0.2400000E-01
   1       -1.145792
   2        5.952229
   3        6.180644
   4        7.356170
   5        8.625410
   6        9.986685
 
  0.2500000E+00  0.2500000E+00  0.5000000E-01  0.2400000E-01
   1        2.931424
   2        4.291839
   3        5.010201
   4        9.818060
   5       10.525518
   6       14.958131
 
  0.3500000E+00  0.2500000E+00  0.5000000E-01  0.2400000E-01
   1        3.112354
   2        4.376017
   3        5.251106
   4       10.057484
   5       10.570149
   6       14.383029
 
 -0.2500000E+00  0.2500000E+00  0.5000000E-01  0.2400000E-01
   1        0.175552
   2        5.263834
   3        5.609539
   4        8.650467
   5        8.969510
   6       10.182749
 
 -0.1500000E+00  0.2500000E+00  0.5000000E-01  0.2400000E-01
   1       -0.063610
   2        5.627089
   3        5.698199
   4        8.067984
   5        8.475743
   6       10.385900
 
 -0.3500000E+00  0.3500000E+00  0.5000000E-01  0.2400000E-01
   1        1.212902
   2        4.669374
   3        5.693232
   4        9.183461
   5       10.410660
   6       11.105462
 
 -0.2500000E+00  0.3500000E+00  0.5000000E-01  0.4800000E-01
   1        1.239613
   2        4.917040
   3        5.349206
   4        8.369959
   5       10.304006
   6       10.689148
 
 -0.4500000E+00  0.4500000E+00  0.5000000E-01  0.2400000E-01
   1        1.455641
   2        4.337347
   3        6.696312
   4        9.342608
   5       10.780404
   6       13.052663
 
 -0.3500000E+00  0.4500000E+00  0.5000000E-01  0.4800000E-01
   1        1.895629
   2        4.615248
   3        5.596546
   4        8.909148
   5       10.724072
   6       12.693168
 
 -0.2500000E+00  0.4500000E+00  0.5000000E-01  0.2400000E-01
   1        2.362514
   2        4.321800
   3        5.355247
   4        8.676699
   5       10.429570
   6       12.764768
 
 -0.4500000E+00 -0.4500000E+00  0.5000000E-01  0.2400000E-01
   1        1.951345
   2        4.513674
   3        6.090556
   4        8.862941
   5       11.232326
   6       13.944912
 
 -0.3500000E+00 -0.4500000E+00  0.5000000E-01  0.4800000E-01
   1        2.832269
   2        4.380008
   3        5.220201
   4        9.145751
   5       10.650445
   6       15.055024
 
 -0.3500000E+00 -0.3500000E+00  0.5000000E-01  0.8000000E-02
   1        3.491939
   2        4.477877
   3        4.477878
   4       10.108491
   5       10.108492
   6       14.674049
 
  0.1500000E+00  0.1500000E+00  0.1500000E+00  0.8000000E-02
   1        2.232988
   2        4.384383
   3        4.384383
   4       10.051728
   5       10.051728
   6       12.782142
 
  0.2500000E+00  0.1500000E+00  0.1500000E+00  0.2400000E-01
   1        3.140098
   2        4.138355
   3        4.782875
   4       10.218444
   5       10.529292
   6       14.969129
 
  0.3500000E+00  0.1500000E+00  0.1500000E+00  0.1200000E-01
   1        3.147547
   2        4.066367
   3        5.605214
   4       10.278545
   5       10.681102
   6       14.369189
 
 -0.1500000E+00  0.1500000E+00  0.1500000E+00  0.6000000E-02
   1       -0.368649
   2        6.363793
   3        6.363794
   4        7.168365
   5        7.362712
   6       10.582152
 
  0.2500000E+00  0.2500000E+00  0.1500000E+00  0.2400000E-01
   1        3.741097
   2        4.401877
   3        4.830730
   4       10.532148
   5       10.661842
   6       13.661150
 
 -0.2500000E+00  0.2500000E+00  0.1500000E+00  0.2400000E-01
   1        0.893807
   2        5.512367
   3        6.006137
   4        7.234432
   5        8.723140
   6       10.786324
 
 -0.3500000E+00  0.3500000E+00  0.1500000E+00  0.2400000E-01
   1        1.938082
   2        4.887387
   3        5.498463
   4        8.038466
   5       10.850443
   6       10.890614
 
 -0.2500000E+00  0.3500000E+00  0.1500000E+00  0.2400000E-01
   1        2.063030
   2        4.568452
   3        6.140476
   4        7.516429
   5        9.980832
   6       10.951711
 
 -0.4500000E+00  0.4500000E+00  0.1500000E+00  0.2400000E-01
   1        2.160798
   2        5.199965
   3        5.258606
   4        8.013664
   5       11.988773
   6       12.850033
 
 -0.3500000E+00  0.4500000E+00  0.1500000E+00  0.4800000E-01
   1        2.767720
   2        4.183919
   3        5.742206
   4        8.150875
   5       10.720479
   6       12.908925
 
 -0.4500000E+00 -0.4500000E+00  0.1500000E+00  0.2400000E-01
   1        2.779528
   2        4.562777
   3        5.295239
   4        8.145690
   5       11.756322
   6       14.563998
 
 -0.3500000E+00 -0.4500000E+00  0.1500000E+00  0.2400000E-01
   1        3.648042
   2        3.709351
   3        4.971648
   4        9.413710
   5       10.582680
   6       15.368737
 
  0.2500000E+00  0.2500000E+00  0.2500000E+00  0.2000000E-02
   1        4.471485
   2        4.471486
   3        4.471486
   4       10.740291
   5       10.740291
   6       12.745984
 
 -0.2500000E+00  0.2500000E+00  0.2500000E+00  0.6000000E-02
   1        1.970448
   2        4.784905
   3        6.954003
   4        6.954004
   5        8.881823
   6       10.685595
 
 -0.3500000E+00  0.3500000E+00  0.2500000E+00  0.2400000E-01
   1        2.792960
   2        3.855238
   3        7.013869
   4        7.605105
   5       10.544511
   6       10.835563
 
 -0.4500000E+00  0.4500000E+00  0.2500000E+00  0.2400000E-01
   1        2.827573
   2        3.769292
   3        6.843611
   4        7.488798
   5       12.540010
   6       12.823948
 
 -0.3500000E+00  0.4500000E+00  0.2500000E+00  0.2400000E-01
   1        3.119054
   2        3.181173
   3        6.856032
   4        8.832314
   5       10.815194
   6       12.927280
 
 -0.4500000E+00 -0.4500000E+00  0.2500000E+00  0.2400000E-01
   1        2.909691
   2        3.233907
   3        6.578717
   4        9.348177
   5       11.659120
   6       15.270519
 
 -0.3500000E+00  0.3500000E+00  0.3500000E+00  0.6000000E-02
   1        2.896462
   2        2.995577
   3        8.611406
   4        8.611406
   5       10.766284
   6       10.945009
 
 -0.4500000E+00  0.4500000E+00  0.3500000E+00  0.2400000E-01
   1        2.516349
   2        2.678951
   3        9.076409
   4        9.082776
   5       12.259185
   6       13.071384
 
 -0.4500000E+00 -0.4500000E+00  0.3500000E+00  0.8000000E-02
   1        2.362479
   2        2.362479
   3        9.008420
   4       11.436802
   5       11.436804
   6       15.579422
 
 -0.4500000E+00  0.4500000E+00  0.4500000E+00  0.6000000E-02
   1        2.060503
   2        2.107372
   3       11.340465
   4       11.340465
   5       12.248260
   6       13.552942
