    1    1    1    2
  0.1813235E+02  0.2866544E-09  0.2866544E-09  0.2866544E-09  0.5000000E-15
  1.000000000000000E-004
  CAR 
 unknown system                          
    5   44    6
 
  0.5000000E-01  0.5000000E-01  0.5000000E-01  0.8000000E-02
   1       -1.553306     -1.541750
   2        6.081043      6.092294
   3        6.081043      6.092294
   4        7.195863      7.207025
   5        9.438266      9.447125
   6        9.438266      9.447125
 
  0.1500000E+00  0.5000000E-01  0.5000000E-01  0.2400000E-01
   1       -0.430773     -0.419264
   2        5.407993      5.419242
   3        5.591539      5.602537
   4        8.545180      8.556068
   5        9.121883      9.131132
   6        9.706134      9.714941
 
  0.2500000E+00  0.5000000E-01  0.5000000E-01  0.2400000E-01
   1        0.894949      0.906378
   2        4.750999      4.762271
   3        5.290218      5.300962
   4        9.340200      9.349641
   5       10.033915     10.042584
   6       10.517875     10.528345
 
  0.3500000E+00  0.5000000E-01  0.5000000E-01  0.2400000E-01
   1        1.523899      1.535152
   2        4.301402      4.312695
   3        6.101546      6.112296
   4        9.662625      9.672045
   5       10.397828     10.406289
   6       12.653550     12.663331
 
  0.4500000E+00  0.5000000E-01  0.5000000E-01  0.1200000E-01
   1        1.581450      1.592614
   2        4.143474      4.154775
   3        6.977114      6.987956
   4        9.644259      9.653627
   5       10.582391     10.590725
   6       13.799628     13.808758
 
 -0.5000000E-01  0.5000000E-01  0.5000000E-01  0.6000000E-02
   1       -1.969084     -1.957509
   2        6.399568      6.410845
   3        6.399569      6.410845
   4        6.536797      6.548068
   5        9.301904      9.310758
   6        9.798747      9.807429
 
  0.1500000E+00  0.1500000E+00  0.5000000E-01  0.2400000E-01
   1        0.839479      0.850938
   2        4.862470      4.873378
   3        4.934724      4.945901
   4        9.196987      9.206292
   5       10.079433     10.088170
   6       10.442174     10.452723
 
  0.2500000E+00  0.1500000E+00  0.5000000E-01  0.4800000E-01
   1        2.005788      2.017129
   2        4.390644      4.401697
   3        4.967587      4.978502
   4        9.498002      9.507342
   5       10.422000     10.430578
   6       12.668122     12.678162
 
  0.3500000E+00  0.1500000E+00  0.5000000E-01  0.4800000E-01
   1        2.283963      2.295127
   2        4.176209      4.187390
   3        5.932556      5.943297
   4        9.750223      9.759516
   5       10.623559     10.632077
   6       14.521479     14.530916
 
 -0.1500000E+00  0.1500000E+00  0.5000000E-01  0.2400000E-01
   1       -1.152775     -1.141243
   2        5.945835      5.957117
   3        6.174299      6.185405
   4        7.349772      7.360898
   5        8.620026      8.629224
   6        9.981458      9.990115
 
  0.2500000E+00  0.2500000E+00  0.5000000E-01  0.2400000E-01
   1        2.924807      2.936130
   2        4.285535      4.296224
   3        5.003500      5.014482
   4        9.812519      9.821757
   5       10.520156     10.528857
   6       14.951879     14.961499
 
  0.3500000E+00  0.2500000E+00  0.5000000E-01  0.2400000E-01
   1        3.105867      3.117160
   2        4.369613      4.380418
   3        5.244457      5.255084
   4       10.051948     10.061099
   5       10.564740     10.573528
   6       14.375374     14.387396
 
 -0.2500000E+00  0.2500000E+00  0.5000000E-01  0.2400000E-01
   1        0.168561      0.180026
   2        5.257468      5.268762
   3        5.603306      5.614003
   4        8.644827      8.654440
   5        8.963180      8.973981
   6       10.177501     10.186141
 
 -0.1500000E+00  0.2500000E+00  0.5000000E-01  0.2400000E-01
   1       -0.070629     -0.059162
   2        5.620910      5.631735
   3        5.691807      5.703038
   4        8.062391      8.072036
   5        8.469370      8.480279
   6       10.380662     10.389227
 
 -0.3500000E+00  0.3500000E+00  0.5000000E-01  0.2400000E-01
   1        1.206191      1.217520
   2        4.663026      4.674328
   3        5.686670      5.697225
   4        9.177650      9.187370
   5       10.405396     10.413967
   6       11.099323     11.109536
 
 -0.2500000E+00  0.3500000E+00  0.5000000E-01  0.4800000E-01
   1        1.232691      1.244058
   2        4.910896      4.921616
   3        5.342805      5.353825
   4        8.364158      8.374076
   5       10.297950     10.308030
   6       10.683597     10.692590
 
 -0.4500000E+00  0.4500000E+00  0.5000000E-01  0.2400000E-01
   1        1.449249      1.460414
   2        4.331008      4.342315
   3        6.689284      6.699896
   4        9.336841      9.346433
   5       10.774971     10.783599
   6       13.046922     13.056237
 
 -0.3500000E+00  0.4500000E+00  0.5000000E-01  0.4800000E-01
   1        1.889102      1.900272
   2        4.608943      4.620044
   3        5.589982      5.600513
   4        8.903290      8.913139
   5       10.718499     10.727452
   6       12.687099     12.696818
 
 -0.2500000E+00  0.4500000E+00  0.5000000E-01  0.2400000E-01
   1        2.355764      2.367034
   2        4.315765      4.326179
   3        5.348703      5.359749
   4        8.670851      8.680809
   5       10.423987     10.433102
   6       12.758552     12.768368
 
 -0.4500000E+00 -0.4500000E+00  0.5000000E-01  0.2400000E-01
   1        1.945000      1.956062
   2        4.507334      4.518545
   3        6.083874      6.094236
   4        8.857167      8.866925
   5       11.226514     11.235594
   6       13.939081     13.948228
 
 -0.3500000E+00 -0.4500000E+00  0.5000000E-01  0.4800000E-01
   1        2.825832      2.836950
   2        4.373796      4.384466
   3        5.213753      5.224263
   4        9.139901      9.149759
   5       10.644624     10.654045
   6       15.048895     15.058187
 
 -0.3500000E+00 -0.3500000E+00  0.5000000E-01  0.8000000E-02
   1        3.485448      3.496897
   2        4.471664      4.481955
   3        4.471665      4.481956
   4       10.102637     10.112283
   5       10.102638     10.112283
   6       14.666567     14.678356
 
  0.1500000E+00  0.1500000E+00  0.1500000E+00  0.8000000E-02
   1        2.225921      2.237320
   2        4.378062      4.389093
   3        4.378062      4.389093
   4       10.046380     10.055228
   5       10.046380     10.055228
   6       12.775770     12.785861
 
  0.2500000E+00  0.1500000E+00  0.1500000E+00  0.2400000E-01
   1        3.133395      3.144590
   2        4.131956      4.143085
   3        4.776186      4.787126
   4       10.213061     10.221912
   5       10.524088     10.532546
   6       14.962843     14.972518
 
  0.3500000E+00  0.1500000E+00  0.1500000E+00  0.1200000E-01
   1        3.141035      3.152123
   2        4.059937      4.071104
   3        5.598329      5.609164
   4       10.273127     10.281994
   5       10.675958     10.684256
   6       14.361455     14.373554
 
 -0.1500000E+00  0.1500000E+00  0.1500000E+00  0.6000000E-02
   1       -0.375666     -0.364202
   2        6.357387      6.368560
   3        6.357388      6.368561
   4        7.162987      7.172376
   5        7.356359      7.367469
   6       10.576936     10.585410
 
  0.2500000E+00  0.2500000E+00  0.1500000E+00  0.2400000E-01
   1        3.734566      3.745748
   2        4.395362      4.406259
   3        4.823991      4.834932
   4       10.526886     10.535448
   5       10.656646     10.665040
   6       13.653210     13.665693
 
 -0.2500000E+00  0.2500000E+00  0.1500000E+00  0.2400000E-01
   1        0.886809      0.898149
   2        5.506538      5.516716
   3        5.999754      6.010925
   4        7.228383      7.238821
   5        8.716841      8.727663
   6       10.780985     10.789563
 
 -0.3500000E+00  0.3500000E+00  0.1500000E+00  0.2400000E-01
   1        1.931385      1.942520
   2        4.881390      4.891511
   3        5.492097      5.503286
   4        8.032348      8.042680
   5       10.844309     10.854568
   6       10.884871     10.893971
 
 -0.2500000E+00  0.3500000E+00  0.1500000E+00  0.2400000E-01
   1        2.056179      2.067308
   2        4.562740      4.572786
   3        6.134050      6.145112
   4        7.510254      7.520849
   5        9.974767      9.984984
   6       10.945835     10.955222
 
 -0.4500000E+00  0.4500000E+00  0.1500000E+00  0.2400000E-01
   1        2.154505      2.165405
   2        5.193607      5.204805
   3        5.252318      5.262448
   4        8.007726      8.017848
   5       11.982351     11.992012
   6       12.844279     12.853652
 
 -0.3500000E+00  0.4500000E+00  0.1500000E+00  0.4800000E-01
   1        2.761314      2.772128
   2        4.177987      4.188114
   3        5.735851      5.746782
   4        8.144745      8.155155
   5       10.714339     10.724290
   6       12.902663     12.912459
 
 -0.4500000E+00 -0.4500000E+00  0.1500000E+00  0.2400000E-01
   1        2.773407      2.784018
   2        4.556685      4.566728
   3        5.288920      5.299953
   4        8.139564      8.149991
   5       11.750113     11.759894
   6       14.557594     14.567178
 
 -0.3500000E+00 -0.4500000E+00  0.1500000E+00  0.2400000E-01
   1        3.641834      3.652341
   2        3.703516      3.713573
   3        4.965313      4.976272
   4        9.407520      9.417803
   5       10.576460     10.586568
   6       15.362194     15.372227
 
  0.2500000E+00  0.2500000E+00  0.2500000E+00  0.2000000E-02
   1        4.464885      4.475868
   2        4.464885      4.475868
   3        4.464886      4.475868
   4       10.735152     10.743427
   5       10.735152     10.743427
   6       12.737892     12.750729
 
 -0.2500000E+00  0.2500000E+00  0.2500000E+00  0.6000000E-02
   1        1.963563      1.974625
   2        4.779445      4.789173
   3        6.947577      6.958575
   4        6.947577      6.958576
   5        8.875610      8.886357
   6       10.679860     10.689057
 
 -0.3500000E+00  0.3500000E+00  0.2500000E+00  0.2400000E-01
   1        2.786471      2.797128
   2        3.849648      3.859539
   3        7.007463      7.018438
   4        7.598767      7.609499
   5       10.538412     10.548700
   6       10.829118     10.839291
 
 -0.4500000E+00  0.4500000E+00  0.2500000E+00  0.2400000E-01
   1        2.821666      2.831945
   2        3.763406      3.773398
   3        6.837221      6.848206
   4        7.482454      7.493223
   5       12.534237     12.543694
   6       12.816800     12.827479
 
 -0.3500000E+00  0.4500000E+00  0.2500000E+00  0.2400000E-01
   1        3.112999      3.123220
   2        3.175584      3.185517
   3        6.849593      6.860583
   4        8.825917      8.836555
   5       10.808760     10.819217
   6       12.920718     12.930935
 
 -0.4500000E+00 -0.4500000E+00  0.2500000E+00  0.2400000E-01
   1        2.903999      2.914016
   2        3.228150      3.238112
   3        6.572190      6.583321
   4        9.341769      9.352361
   5       11.652857     11.662893
   6       15.263428     15.273882
 
 -0.3500000E+00  0.3500000E+00  0.3500000E+00  0.6000000E-02
   1        2.890439      2.900621
   2        2.990074      2.999969
   3        8.604938      8.615688
   4        8.604938      8.615689
   5       10.760302     10.770435
   6       10.937899     10.949003
 
 -0.4500000E+00  0.4500000E+00  0.3500000E+00  0.2400000E-01
   1        2.510781      2.520740
   2        2.673260      2.683239
   3        9.069805      9.080655
   4        9.076363      9.087030
   5       12.253405     12.262922
   6       13.063833     13.075218
 
 -0.4500000E+00 -0.4500000E+00  0.3500000E+00  0.8000000E-02
   1        2.356901      2.366858
   2        2.356901      2.366859
   3        9.001859      9.012695
   4       11.430502     11.440668
   5       11.430504     11.440668
   6       15.571985     15.583029
 
 -0.4500000E+00  0.4500000E+00  0.4500000E+00  0.6000000E-02
   1        2.054981      2.064944
   2        2.101810      2.111779
   3       11.334148     11.344357
   4       11.334149     11.344357
   5       12.242532     12.251978
   6       13.544969     13.556921
