       N       E                     dE             d eps       ncg     rms          rms(c)
DAV:   1    -0.173345895891E+01   -0.17335E+01   -0.16553E+03   528   0.489E+02
DAV:   2    -0.122914423122E+02   -0.10558E+02   -0.10055E+02   912   0.758E+01
DAV:   3    -0.123441959306E+02   -0.52754E-01   -0.52748E-01   540   0.745E+00
DAV:   4    -0.123442862833E+02   -0.90353E-04   -0.90354E-04   708   0.252E-01
DAV:   5    -0.123442864331E+02   -0.14981E-06   -0.14993E-06   492   0.860E-03    0.323E+00
DAV:   6    -0.120160402083E+02    0.32825E+00   -0.20419E-01   618   0.342E+00    0.172E+00
DAV:   7    -0.118648503160E+02    0.15119E+00   -0.30030E-01   636   0.401E+00    0.126E-01
DAV:   8    -0.118638868024E+02    0.96351E-03   -0.87674E-04   564   0.257E-01    0.276E-02
DAV:   9    -0.118639013395E+02   -0.14537E-04   -0.56242E-05   360   0.572E-02
   1 F= -.11863901E+02 E0= -.11864109E+02  d E =0.622729E-03
