       N       E                     dE             d eps       ncg     rms          rms(c)
DAV:   1     0.116825206961E+02    0.11683E+02   -0.21416E+03  1080   0.620E+02
DAV:   2    -0.111108290826E+01   -0.12794E+02   -0.11322E+02  1902   0.818E+01
DAV:   3    -0.120299165262E+01   -0.91909E-01   -0.91571E-01  1068   0.931E+00
DAV:   4    -0.120371733676E+01   -0.72568E-03   -0.72568E-03  1404   0.423E-01
DAV:   5    -0.120372384312E+01   -0.65064E-05   -0.65072E-05   972   0.251E-02    0.759E+00
DAV:   6    -0.116844631775E+02   -0.10481E+02   -0.35331E+00  1104   0.947E+00    0.399E+00
DAV:   7    -0.117391559654E+02   -0.54693E-01   -0.23882E-02  1248   0.133E+00    0.368E+00
DAV:   8    -0.113491674663E+02    0.38999E+00   -0.31479E-01  1212   0.506E+00    0.461E+00
DAV:   9    -0.118275435429E+02   -0.47838E+00   -0.34362E-01  1218   0.558E+00    0.101E+00
DAV:  10    -0.118435579048E+02   -0.16014E-01   -0.30216E-03  1146   0.488E-01    0.806E-01
DAV:  11    -0.118633155855E+02   -0.19758E-01   -0.28887E-02  1164   0.121E+00    0.194E-01
DAV:  12    -0.118634624906E+02   -0.14691E-03   -0.15298E-03  1194   0.484E-01    0.155E-01
DAV:  13    -0.118635755950E+02   -0.11310E-03   -0.94269E-04  1194   0.229E-01    0.947E-02
DAV:  14    -0.118639083088E+02   -0.33271E-03   -0.81998E-05   528   0.853E-02    0.213E-02
DAV:  15    -0.118638673006E+02    0.41008E-04   -0.50848E-05   558   0.546E-02
   1 F= -.11863867E+02 E0= -.11864070E+02  d E =0.607955E-03  mag=     0.0017
