 vasp.5.2.12 11Nov11 complex                                                    
  
 executed on             LinuxIFC date 2012.10.17  10:12:41
 running on    1 nodes
 distr:  one band on    1 nodes,    1 groups


--------------------------------------------------------------------------------------------------------


 INCAR:
 POTCAR:    PAW_PBE Ta 17Jan2003                  
 POTCAR:    PAW_PBE Ta 17Jan2003                  
   VRHFIN =Ta:  6s5d                                                            
   LEXCH  = PE                                                                  
   EATOM  =   130.6506 eV,    9.6025 Ry                                         
                                                                                
   TITEL  = PAW_PBE Ta 17Jan2003                                                
   LULTRA =        F    use ultrasoft PP ?                                      
   IUNSCR =        1    unscreen: 0-lin 1-nonlin 2-no                           
   RPACOR =    2.330    partial core radius                                     
   POMASS =  180.948; ZVAL   =    5.000    mass and valenz                      
   RCORE  =    2.900    outmost cutoff radius                                   
   RWIGS  =    2.840; RWIGS  =    1.503    wigner-seitz radius (au A)           
   ENMAX  =  223.667; ENMIN  =  167.750 eV                                      
   RCLOC  =    2.205    cutoff for local pot                                    
   LCOR   =        T    correct aug charges                                     
   LPAW   =        T    paw PP                                                  
   EAUG   =  332.075                                                            
   DEXC   =    -.049                                                            
   RMAX   =    3.083    core radius for proj-oper                               
   RAUG   =    1.300    factor for augmentation sphere                          
   RDEP   =    3.060    radius for radial grids                                 
   QCUT   =   -4.055; QGAM   =    8.109    optimization parameters              
                                                                                
   Description                                                                  
     l     E      TYP  RCUT    TYP  RCUT                                        
     2   .000     23  2.500                                                     
     2   .000     23  2.500                                                     
     0   .000     23  2.500                                                     
     0   .000     23  2.500                                                     
     1   .000     23  2.900                                                     
     1  2.000     23  2.900                                                     
     3   .000      7   .000                                                     
  local pseudopotential read in
  partial core-charges read in
  atomic valenz-charges read in
  non local Contribution for L=           2  read in
    real space projection operators read in
  non local Contribution for L=           2  read in
    real space projection operators read in
  non local Contribution for L=           0  read in
    real space projection operators read in
  non local Contribution for L=           0  read in
    real space projection operators read in
  non local Contribution for L=           1  read in
    real space projection operators read in
  non local Contribution for L=           1  read in
    real space projection operators read in
    PAW grid and wavefunctions read in
 
   number of l-projection  operators is LMAX  =           6
   number of lm-projection operators is LMMAX =          18
 
  PAW_PBE Ta 17Jan2003                  :
 energy of atom  1       EATOM= -130.6506
 kinetic energy error for atom=    0.0018 (will be added to EATOM!!)
 
 
 POSCAR: Ta                                      
  positions in cartesian coordinates
  No initial velocities read in
 exchange correlation table for  LEXCH =        8
   RHO(1)=    0.500       N(1)  =     2000
   RHO(2)=  100.500       N(2)  =     4000
 


--------------------------------------------------------------------------------------------------------


 ion  position               nearest neighbor table
   1  0.000  0.000  0.000-
 
  LATTYP: Found a body centered cubic cell.
 ALAT       =     3.3100000000
  
  Lattice vectors:
  
 A1 = (   2.8665440865,   0.0000000000,   0.0000000000)
 A2 = (  -0.9555146955,   2.7026036829,   0.0000000000)
 A3 = (  -0.9555146955,  -1.3513018414,   2.3405234457)
 Subroutine PRICEL returns:
 Original cell was already a primitive cell.
 

Analysis of symmetry for initial positions (statically):

 Routine SETGRP: Setting up the symmetry group for a 
 body centered cubic supercell.


 Subroutine GETGRP returns: Found 48 space group operations
 (whereof 48 operations were pure point group operations)
 out of a pool of 48 trial point group operations.


The static configuration has the point symmetry O_h .

Analysis of symmetry for dynamics (positions and initial velocities):

 Subroutine DYNSYM returns: Found 48 space group operations
 (whereof 48 operations were pure point group operations)
 out of a pool of 48 trial space group operations
 (whereof 48 operations were pure point group operations)
 and found also     1 'primitive' translations


The dynamic configuration has the point symmetry O_h .

Analysis of magnetic symmetry:

 Subroutine MAGSYM returns: Found 48 space group operations
 (whereof 48 operations were pure point group operations)
 out of a pool of 48 trial space group operations
 (whereof 48 operations were pure point group operations)
 and found also     1 'primitive' translations


The magnetic configuration has the point symmetry O_h .
 
 
 KPOINTS: KPOINTS created by Atomic Simulation Env

Automatic generation of k-mesh.
 
 Subroutine IBZKPT returns following result:
 ===========================================
 
 Found     44 irreducible k-points:
 
 Following reciprocal coordinates:
            Coordinates               Weight
  0.050000  0.050000  0.050000      8.000000
  0.150000  0.050000  0.050000     24.000000
  0.250000  0.050000  0.050000     24.000000
  0.350000  0.050000  0.050000     24.000000
  0.450000  0.050000  0.050000     12.000000
 -0.050000  0.050000  0.050000      6.000000
  0.150000  0.150000  0.050000     24.000000
  0.250000  0.150000  0.050000     48.000000
  0.350000  0.150000  0.050000     48.000000
 -0.150000  0.150000  0.050000     24.000000
  0.250000  0.250000  0.050000     24.000000
  0.350000  0.250000  0.050000     24.000000
 -0.250000  0.250000  0.050000     24.000000
 -0.150000  0.250000  0.050000     24.000000
 -0.350000  0.350000  0.050000     24.000000
 -0.250000  0.350000  0.050000     48.000000
 -0.450000  0.450000  0.050000     24.000000
 -0.350000  0.450000  0.050000     48.000000
 -0.250000  0.450000  0.050000     24.000000
 -0.450000 -0.450000  0.050000     24.000000
 -0.350000 -0.450000  0.050000     48.000000
 -0.350000 -0.350000  0.050000      8.000000
  0.150000  0.150000  0.150000      8.000000
  0.250000  0.150000  0.150000     24.000000
  0.350000  0.150000  0.150000     12.000000
 -0.150000  0.150000  0.150000      6.000000
  0.250000  0.250000  0.150000     24.000000
 -0.250000  0.250000  0.150000     24.000000
 -0.350000  0.350000  0.150000     24.000000
 -0.250000  0.350000  0.150000     24.000000
 -0.450000  0.450000  0.150000     24.000000
 -0.350000  0.450000  0.150000     48.000000
 -0.450000 -0.450000  0.150000     24.000000
 -0.350000 -0.450000  0.150000     24.000000
  0.250000  0.250000  0.250000      2.000000
 -0.250000  0.250000  0.250000      6.000000
 -0.350000  0.350000  0.250000     24.000000
 -0.450000  0.450000  0.250000     24.000000
 -0.350000  0.450000  0.250000     24.000000
 -0.450000 -0.450000  0.250000     24.000000
 -0.350000  0.350000  0.350000      6.000000
 -0.450000  0.450000  0.350000     24.000000
 -0.450000 -0.450000  0.350000      8.000000
 -0.450000  0.450000  0.450000      6.000000
 
 Following cartesian coordinates:
            Coordinates               Weight
  0.017443  0.024668  0.042725      8.000000
  0.052328  0.037001  0.064088     24.000000
  0.087213  0.049335  0.085451     24.000000
  0.122098  0.061669  0.106814     24.000000
  0.156983  0.074003  0.128176     12.000000
 -0.017443  0.012334  0.021363      6.000000
  0.052328  0.074003  0.085451     24.000000
  0.087213  0.086336  0.106814     48.000000
  0.122098  0.098670  0.128176     48.000000
 -0.052328  0.037001  0.021363     24.000000
  0.087213  0.123338  0.128176     24.000000
  0.122098  0.135672  0.149539     24.000000
 -0.087213  0.061669  0.021363     24.000000
 -0.052328  0.074003  0.042725     24.000000
 -0.122098  0.086336  0.021363     24.000000
 -0.087213  0.098670  0.042725     48.000000
 -0.156983  0.111004  0.021363     24.000000
 -0.122098  0.123338  0.042725     48.000000
 -0.087213  0.135672  0.064088     24.000000
 -0.156983 -0.222008 -0.170902     24.000000
 -0.122098 -0.209674 -0.149539     48.000000
 -0.122098 -0.172673 -0.128176      8.000000
  0.052328  0.074003  0.128176      8.000000
  0.087213  0.086336  0.149539     24.000000
  0.122098  0.098670  0.170902     12.000000
 -0.052328  0.037001  0.064088      6.000000
  0.087213  0.123338  0.170902     24.000000
 -0.087213  0.061669  0.064088     24.000000
 -0.122098  0.086336  0.064088     24.000000
 -0.087213  0.098670  0.085451     24.000000
 -0.156983  0.111004  0.064088     24.000000
 -0.122098  0.123338  0.085451     48.000000
 -0.156983 -0.222008 -0.128176     24.000000
 -0.122098 -0.209674 -0.106814     24.000000
  0.087213  0.123338  0.213627      2.000000
 -0.087213  0.061669  0.106814      6.000000
 -0.122098  0.086336  0.106814     24.000000
 -0.156983  0.111004  0.106814     24.000000
 -0.122098  0.123338  0.128176     24.000000
 -0.156983 -0.222008 -0.085451     24.000000
 -0.122098  0.086336  0.149539      6.000000
 -0.156983  0.111004  0.149539     24.000000
 -0.156983 -0.222008 -0.042725      8.000000
 -0.156983  0.111004  0.192265      6.000000
 


--------------------------------------------------------------------------------------------------------




 Dimension of arrays:
   k-points           NKPTS =     44   k-points in BZ     NKDIM =     44   number of bands    NBANDS=      6
   number of dos      NEDOS =    301   number of ions     NIONS =      1
   non local maximal  LDIM  =      6   non local SUM 2l+1 LMDIM =     18
   total plane-waves  NPLWV =   8000
   max r-space proj   IRMAX =      1   max aug-charges    IRDMAX=  30229
   dimension x,y,z NGX =    20 NGY =   20 NGZ =   20
   dimension x,y,z NGXF=    40 NGYF=   40 NGZF=   40
   support grid    NGXF=    40 NGYF=   40 NGZF=   40
   ions per type =               1
 NGX,Y,Z   is equivalent  to a cutoff of  11.60, 11.60, 11.60 a.u.
 NGXF,Y,Z  is equivalent  to a cutoff of  23.20, 23.20, 23.20 a.u.


 I would recommend the setting:
   dimension x,y,z NGX =    19 NGY =   19 NGZ =   19
 SYSTEM =  unknown system                          
 POSCAR =  Ta                                      

 Startparameter for this run:
   NWRITE =      2    write-flag & timer
   PREC   = accura    normal or accurate (medium, high low for compatibility)
   ISTART =      0    job   : 0-new  1-cont  2-samecut
   ICHARG =      2    charge: 1-file 2-atom 10-const
   ISPIN  =      2    spin polarized calculation?
   LNONCOLLINEAR =      F non collinear calculations
   LSORBIT =      F    spin-orbit coupling
   INIWAV =      1    electr: 0-lowe 1-rand  2-diag
   LASPH  =      F    aspherical Exc in radial PAW
   METAGGA=      F    non-selfconsistent MetaGGA calc.

 Electronic Relaxation 1
   ENCUT  =  400.0 eV  29.40 Ry    5.42 a.u.   4.67  4.67  4.67*2*pi/ulx,y,z
   ENINI  =  400.0     initial cutoff
   ENAUG  =  332.1 eV  augmentation charge cutoff
   NELM   =     60;   NELMIN=  2; NELMDL= -5     # of ELM steps 
   EDIFF  = 0.1E-03   stopping-criterion for ELM
   LREAL  =      F    real-space projection
   NLSPLINE    = F    spline interpolate recip. space projectors
   LCOMPAT=      F    compatible to vasp.4.4
   GGA_COMPAT  = T    GGA compatible to vasp.4.4-vasp.4.6
   LMAXPAW     = -100 max onsite density
   LMAXMIX     =    2 max onsite mixed and CHGCAR
   VOSKOWN=      0    Vosko Wilk Nusair interpolation
   ROPT   =    0.00000
 Ionic relaxation
   EDIFFG = 0.1E-02   stopping-criterion for IOM
   NSW    =      0    number of steps for IOM
   NBLOCK =      1;   KBLOCK =      1    inner block; outer block 
   IBRION =     -1    ionic relax: 0-MD 1-quasi-New 2-CG
   NFREE  =      0    steps in history (QN), initial steepest desc. (CG)
   ISIF   =      2    stress and relaxation
   IWAVPR =     10    prediction:  0-non 1-charg 2-wave 3-comb
   ISYM   =      2    0-nonsym 1-usesym 2-fastsym
   LCORR  =      T    Harris-Foulkes like correction to forces

   POTIM  = 0.5000    time-step for ionic-motion
   TEIN   =    0.0    initial temperature
   TEBEG  =    0.0;   TEEND  =   0.0 temperature during run
   SMASS  =  -3.00    Nose mass-parameter (am)
   estimated Nose-frequenzy (Omega)   =  0.10E-29 period in steps =****** mass=  -0.188E-27a.u.
   SCALEE = 1.0000    scale energy and forces
   NPACO  =    256;   APACO  = 16.0  distance and # of slots for P.C.
   PSTRESS=    0.0 pullay stress

  Mass of Ions in am
   POMASS = 180.95
  Ionic Valenz
   ZVAL   =   5.00
  Atomic Wigner-Seitz radii
   RWIGS  =  -1.00
  virtual crystal weights 
   VCA    =   1.00
   NELECT =       5.0000    total number of electrons
   NUPDOWN=      -1.0000    fix difference up-down

 DOS related values:
   EMIN   =  10.00;   EMAX   =-10.00  energy-range for DOS
   EFERMI =   0.00
   ISMEAR =     1;   SIGMA  =   0.05  broadening in eV -4-tet -1-fermi 0-gaus

 Electronic relaxation 2 (details)
   IALGO  =     38    algorithm
   LDIAG  =      T    sub-space diagonalisation (order eigenvalues)
   LSUBROT=      T    optimize rotation matrix (better conditioning)
   TURBO    =      0    0=normal 1=particle mesh
   IRESTART =      0    0=no restart 2=restart with 2 vectors
   NREBOOT  =      0    no. of reboots
   NMIN     =      0    reboot dimension
   EREF     =   0.00    reference energy to select bands
   IMIX   =      4    mixing-type and parameters
     AMIX     =   0.40;   BMIX     =  1.00
     AMIX_MAG =   1.60;   BMIX_MAG =  1.00
     AMIN     =   0.10
     WC   =   100.;   INIMIX=   1;  MIXPRE=   1

 Intra band minimization:
   WEIMIN = 0.0000     energy-eigenvalue tresh-hold
   EBREAK =  0.42E-05  absolut break condition
   DEPER  =   0.30     relativ break condition  

   TIME   =   0.40     timestep for ELM

  volume/ion in A,a.u.               =      18.13       122.36
  Fermi-wavevector in a.u.,A,eV,Ry     =   1.065566  2.013627 15.448462  1.135430
  Thomas-Fermi vector in A             =   2.201121
 
 Write flags
   LWAVE  =      T    write WAVECAR
   LCHARG =      T    write CHGCAR
   LVTOT  =      F    write LOCPOT, total local potential
   LVHAR  =      F    write LOCPOT, Hartree potential only
   LELF   =      F    write electronic localiz. function (ELF)
   LORBIT =     11    0 simple, 1 ext, 2 COOP (PROOUT)


 Dipole corrections
   LMONO  =      F    monopole corrections only (constant potential shift)
   LDIPOL =      F    correct potential (dipole corrections)
   IDIPOL =      0    1-x, 2-y, 3-z, 4-all directions 
   EPSILON=  1.0000000 bulk dielectric constant

 Exchange correlation treatment:
   GGA     =    --    GGA type
   LEXCH   =     8    internal setting for exchange type
   VOSKOWN=      0    Vosko Wilk Nusair interpolation
   LHFCALC =     F    Hartree Fock is set to
   LHFONE  =     F    Hartree Fock one center treatment
   AEXX    =    0.0000 exact exchange contribution

 Linear response parameters
   LEPSILON=     F    determine dielectric tensor
   LRPA    =     F    only Hartree local field effects (RPA)
   LNABLA  =     F    use nabla operator in PAW spheres
   LVEL    =     F    velocity operator in full k-point grid
   LINTERFAST=   F  fast interpolation
   KINTER  =     0    interpolate to denser k-point grid
   CSHIFT  =0.1000    complex shift for real part using Kramers Kronig
   OMEGAMAX=  -1.0    maximum frequency
   RTIME   =    0.100 relaxation time in fs

 Orbital magnetization related:
   ORBITALMAG=     F  switch on orbital magnetization
   LCHIMAG   =     F  perturbation theory with respect to B field
   DQ        =  0.001000  dq finite difference perturbation B field



--------------------------------------------------------------------------------------------------------


 Static calculation
 charge density and potential will be updated during run
 spin polarized calculation
 Variant of blocked Davidson
 Davidson routine will perform the subspace rotation
 perform sub-space diagonalisation
    after iterative eigenvector-optimisation
 modified Broyden-mixing scheme, WC =      100.0
 initial mixing is a Kerker type mixing with AMIX =  0.4000 and BMIX =      1.0000
 Hartree-type preconditioning will be used
 using additional bands            3
 reciprocal scheme for non local part
 use partial core corrections
 calculate Harris-corrections to forces 
   (improved forces if not selfconsistent)
 use gradient corrections 
 use of overlap-Matrix (Vanderbilt PP)
 Methfessel and Paxton  Order N= 1 SIGMA  =   0.05


--------------------------------------------------------------------------------------------------------


  energy-cutoff  :      400.00
  volume of cell :       18.13
      direct lattice vectors                 reciprocal lattice vectors
     2.866544087  0.000000000  0.000000000     0.348852126  0.123337852  0.213627426
    -0.955514696  2.702603683  0.000000000     0.000000000  0.370013556  0.213627426
    -0.955514696 -1.351301841  2.340523446     0.000000000  0.000000000  0.427254853

  length of vectors
     2.866544087  2.866544087  2.866544087     0.427254853  0.427254853  0.427254853


 
 k-points in units of 2pi/SCALE and weight: KPOINTS created by Atomic Simulation Env
   0.01744261  0.02466757  0.04272549       0.008
   0.05232782  0.03700136  0.06408823       0.024
   0.08721303  0.04933514  0.08545097       0.024
   0.12209824  0.06166893  0.10681371       0.024
   0.15698346  0.07400271  0.12817646       0.012
  -0.01744261  0.01233379  0.02136274       0.006
   0.05232782  0.07400271  0.08545097       0.024
   0.08721303  0.08633650  0.10681371       0.048
   0.12209824  0.09867028  0.12817646       0.048
  -0.05232782  0.03700136  0.02136274       0.024
   0.08721303  0.12333785  0.12817646       0.024
   0.12209824  0.13567164  0.14953920       0.024
  -0.08721303  0.06166893  0.02136274       0.024
  -0.05232782  0.07400271  0.04272549       0.024
  -0.12209824  0.08633650  0.02136274       0.024
  -0.08721303  0.09867028  0.04272549       0.048
  -0.15698346  0.11100407  0.02136274       0.024
  -0.12209824  0.12333785  0.04272549       0.048
  -0.08721303  0.13567164  0.06408823       0.024
  -0.15698346 -0.22200813 -0.17090194       0.024
  -0.12209824 -0.20967435 -0.14953920       0.048
  -0.12209824 -0.17267299 -0.12817646       0.008
   0.05232782  0.07400271  0.12817646       0.008
   0.08721303  0.08633650  0.14953920       0.024
   0.12209824  0.09867028  0.17090194       0.012
  -0.05232782  0.03700136  0.06408823       0.006
   0.08721303  0.12333785  0.17090194       0.024
  -0.08721303  0.06166893  0.06408823       0.024
  -0.12209824  0.08633650  0.06408823       0.024
  -0.08721303  0.09867028  0.08545097       0.024
  -0.15698346  0.11100407  0.06408823       0.024
  -0.12209824  0.12333785  0.08545097       0.048
  -0.15698346 -0.22200813 -0.12817646       0.024
  -0.12209824 -0.20967435 -0.10681371       0.024
   0.08721303  0.12333785  0.21362743       0.002
  -0.08721303  0.06166893  0.10681371       0.006
  -0.12209824  0.08633650  0.10681371       0.024
  -0.15698346  0.11100407  0.10681371       0.024
  -0.12209824  0.12333785  0.12817646       0.024
  -0.15698346 -0.22200813 -0.08545097       0.024
  -0.12209824  0.08633650  0.14953920       0.006
  -0.15698346  0.11100407  0.14953920       0.024
  -0.15698346 -0.22200813 -0.04272549       0.008
  -0.15698346  0.11100407  0.19226468       0.006
 
 k-points in reciprocal lattice and weights: KPOINTS created by Atomic Simulation Env
   0.05000000  0.05000000  0.05000000       0.008
   0.15000000  0.05000000  0.05000000       0.024
   0.25000000  0.05000000  0.05000000       0.024
   0.35000000  0.05000000  0.05000000       0.024
   0.45000000  0.05000000  0.05000000       0.012
  -0.05000000  0.05000000  0.05000000       0.006
   0.15000000  0.15000000  0.05000000       0.024
   0.25000000  0.15000000  0.05000000       0.048
   0.35000000  0.15000000  0.05000000       0.048
  -0.15000000  0.15000000  0.05000000       0.024
   0.25000000  0.25000000  0.05000000       0.024
   0.35000000  0.25000000  0.05000000       0.024
  -0.25000000  0.25000000  0.05000000       0.024
  -0.15000000  0.25000000  0.05000000       0.024
  -0.35000000  0.35000000  0.05000000       0.024
  -0.25000000  0.35000000  0.05000000       0.048
  -0.45000000  0.45000000  0.05000000       0.024
  -0.35000000  0.45000000  0.05000000       0.048
  -0.25000000  0.45000000  0.05000000       0.024
  -0.45000000 -0.45000000  0.05000000       0.024
  -0.35000000 -0.45000000  0.05000000       0.048
  -0.35000000 -0.35000000  0.05000000       0.008
   0.15000000  0.15000000  0.15000000       0.008
   0.25000000  0.15000000  0.15000000       0.024
   0.35000000  0.15000000  0.15000000       0.012
  -0.15000000  0.15000000  0.15000000       0.006
   0.25000000  0.25000000  0.15000000       0.024
  -0.25000000  0.25000000  0.15000000       0.024
  -0.35000000  0.35000000  0.15000000       0.024
  -0.25000000  0.35000000  0.15000000       0.024
  -0.45000000  0.45000000  0.15000000       0.024
  -0.35000000  0.45000000  0.15000000       0.048
  -0.45000000 -0.45000000  0.15000000       0.024
  -0.35000000 -0.45000000  0.15000000       0.024
   0.25000000  0.25000000  0.25000000       0.002
  -0.25000000  0.25000000  0.25000000       0.006
  -0.35000000  0.35000000  0.25000000       0.024
  -0.45000000  0.45000000  0.25000000       0.024
  -0.35000000  0.45000000  0.25000000       0.024
  -0.45000000 -0.45000000  0.25000000       0.024
  -0.35000000  0.35000000  0.35000000       0.006
  -0.45000000  0.45000000  0.35000000       0.024
  -0.45000000 -0.45000000  0.35000000       0.008
  -0.45000000  0.45000000  0.45000000       0.006
 
 position of ions in fractional coordinates (direct lattice) 
   0.00000000  0.00000000  0.00000000
 
 position of ions in cartesian coordinates  (Angst):
   0.00000000  0.00000000  0.00000000
 


--------------------------------------------------------------------------------------------------------


 k-point  1 :  0.05000.05000.0500  plane waves:     333
 k-point  2 :  0.15000.05000.0500  plane waves:     342
 k-point  3 :  0.25000.05000.0500  plane waves:     332
 k-point  4 :  0.35000.05000.0500  plane waves:     329
 k-point  5 :  0.45000.05000.0500  plane waves:     328
 k-point  6 :  -.05000.05000.0500  plane waves:     329
 k-point  7 :  0.15000.15000.0500  plane waves:     332
 k-point  8 :  0.25000.15000.0500  plane waves:     333
 k-point  9 :  0.35000.15000.0500  plane waves:     324
 k-point 10 :  -.15000.15000.0500  plane waves:     335
 k-point 11 :  0.25000.25000.0500  plane waves:     328
 k-point 12 :  0.35000.25000.0500  plane waves:     324
 k-point 13 :  -.25000.25000.0500  plane waves:     335
 k-point 14 :  -.15000.25000.0500  plane waves:     335
 k-point 15 :  -.35000.35000.0500  plane waves:     329
 k-point 16 :  -.25000.35000.0500  plane waves:     327
 k-point 17 :  -.45000.45000.0500  plane waves:     326
 k-point 18 :  -.35000.45000.0500  plane waves:     323
 k-point 19 :  -.25000.45000.0500  plane waves:     328
 k-point 20 :  -.4500-.45000.0500  plane waves:     330
 k-point 21 :  -.3500-.45000.0500  plane waves:     328
 k-point 22 :  -.3500-.35000.0500  plane waves:     327
 k-point 23 :  0.15000.15000.1500  plane waves:     333
 k-point 24 :  0.25000.15000.1500  plane waves:     331
 k-point 25 :  0.35000.15000.1500  plane waves:     326
 k-point 26 :  -.15000.15000.1500  plane waves:     337
 k-point 27 :  0.25000.25000.1500  plane waves:     326
 k-point 28 :  -.25000.25000.1500  plane waves:     330
 k-point 29 :  -.35000.35000.1500  plane waves:     330
 k-point 30 :  -.25000.35000.1500  plane waves:     330
 k-point 31 :  -.45000.45000.1500  plane waves:     325
 k-point 32 :  -.35000.45000.1500  plane waves:     327
 k-point 33 :  -.4500-.45000.1500  plane waves:     325
 k-point 34 :  -.3500-.45000.1500  plane waves:     328
 k-point 35 :  0.25000.25000.2500  plane waves:     336
 k-point 36 :  -.25000.25000.2500  plane waves:     321
 k-point 37 :  -.35000.35000.2500  plane waves:     329
 k-point 38 :  -.45000.45000.2500  plane waves:     330
 k-point 39 :  -.35000.45000.2500  plane waves:     329
 k-point 40 :  -.4500-.45000.2500  plane waves:     331
 k-point 41 :  -.35000.35000.3500  plane waves:     334
 k-point 42 :  -.45000.45000.3500  plane waves:     334
 k-point 43 :  -.4500-.45000.3500  plane waves:     334
 k-point 44 :  -.45000.45000.4500  plane waves:     338

 maximum and minimum number of plane-waves per node :       342      321

 maximum number of plane-waves:       342
 maximum index in each direction: 
   IXMAX=    5   IYMAX=    5   IZMAX=    4
   IXMIN=   -5   IYMIN=   -5   IZMIN=   -5

 WARNING: aliasing errors must be expected set NGX to  22 to avoid them
 WARNING: aliasing errors must be expected set NGY to  22 to avoid them
 NGZ is ok and might be reduce to  20
 aliasing errors are usually negligible using standard VASP settings
 and one can safely disregard these warnings

 serial   3D FFT for wavefunctions
 parallel 3D FFT for charge:
    minimum data exchange during FFTs selected (reduces bandwidth)


 total amount of memory used by VASP on root node    42968. kBytes
========================================================================

   base      :      30000. kBytes
   nonl-proj :       2172. kBytes
   fftplans  :       2284. kBytes
   grid      :       5440. kBytes
   one-center:         31. kBytes
   wavefun   :       3041. kBytes
 
 Broyden mixing: mesh for mixing (old mesh)
   NGX =  9   NGY =  9   NGZ =  9
  (NGX  = 40   NGY  = 40   NGZ  = 40)
  gives a total of    729 points

 initial charge density was supplied:
 charge density of overlapping atoms calculated
 number of electron       5.0000000 magnetization       6.0000000
 keeping initial charge density in first step


--------------------------------------------------------------------------------------------------------


 Maximum index for augmentation-charges        29123 (set IRDMAX)


--------------------------------------------------------------------------------------------------------


 First call to EWALD:  gamma=   0.675
 Maximum number of real-space cells 3x 3x 3
 Maximum number of reciprocal cells 3x 3x 3

    FEWALD:  cpu time    0.00: real time    0.00


----------------------------------------- Iteration    1(   1)  ---------------------------------------


    POTLOK:  cpu time    0.20: real time    0.20
    SETDIJ:  cpu time    0.04: real time    0.04
     EDDAV:  cpu time    1.39: real time    1.40
       DOS:  cpu time    0.00: real time    0.00
    --------------------------------------------
      LOOP:  cpu time    1.64: real time    1.66

 eigenvalue-minimisations  :  1080
 total energy-change (2. order) : 0.1168252E+02  (-0.2141649E+03)
 number of electron       5.0000000 magnetization       6.0000000
 augmentation part        5.0000000 magnetization       6.0000000

 Free energy of the ion-electron system (eV)
  ---------------------------------------------------
  alpha Z        PSCENC =        30.58334069
  Ewald energy   TEWEN  =      -197.90100875
  -1/2 Hartree   DENC   =        -2.50452612
  -exchange  EXHF       =         0.00000000
  -V(xc)+E(xc)   XCENC  =       -60.66120712
  PAW double counting   =       143.51874798      -69.33493833
  entropy T*S    EENTRO =         0.00006933
  eigenvalues    EBANDS =        37.33320164
  atomic energy  EATOM  =       130.64884137
  ---------------------------------------------------
  free energy    TOTEN  =        11.68252070 eV

  energy without entropy =       11.68245136  energy(sigma->0) =       11.68249758


--------------------------------------------------------------------------------------------------------




----------------------------------------- Iteration    1(   2)  ---------------------------------------


     EDDAV:  cpu time    2.18: real time    2.18
       DOS:  cpu time    0.00: real time    0.00
    --------------------------------------------
      LOOP:  cpu time    2.18: real time    2.20

 eigenvalue-minimisations  :  1902
 total energy-change (2. order) :-0.1279360E+02  (-0.1132170E+02)
 number of electron       5.0000000 magnetization       6.0000000
 augmentation part        5.0000000 magnetization       6.0000000

 Free energy of the ion-electron system (eV)
  ---------------------------------------------------
  alpha Z        PSCENC =        30.58334069
  Ewald energy   TEWEN  =      -197.90100875
  -1/2 Hartree   DENC   =        -2.50452612
  -exchange  EXHF       =         0.00000000
  -V(xc)+E(xc)   XCENC  =       -60.66120712
  PAW double counting   =       143.51874798      -69.33493833
  entropy T*S    EENTRO =        -0.00004908
  eigenvalues    EBANDS =        24.53971645
  atomic energy  EATOM  =       130.64884137
  ---------------------------------------------------
  free energy    TOTEN  =        -1.11108291 eV

  energy without entropy =       -1.11103383  energy(sigma->0) =       -1.11106655


--------------------------------------------------------------------------------------------------------




----------------------------------------- Iteration    1(   3)  ---------------------------------------


     EDDAV:  cpu time    1.38: real time    1.38
       DOS:  cpu time    0.00: real time    0.00
    --------------------------------------------
      LOOP:  cpu time    1.39: real time    1.52

 eigenvalue-minimisations  :  1068
 total energy-change (2. order) :-0.9190874E-01  (-0.9157124E-01)
 number of electron       5.0000000 magnetization       6.0000000
 augmentation part        5.0000000 magnetization       6.0000000

 Free energy of the ion-electron system (eV)
  ---------------------------------------------------
  alpha Z        PSCENC =        30.58334069
  Ewald energy   TEWEN  =      -197.90100875
  -1/2 Hartree   DENC   =        -2.50452612
  -exchange  EXHF       =         0.00000000
  -V(xc)+E(xc)   XCENC  =       -60.66120712
  PAW double counting   =       143.51874798      -69.33493833
  entropy T*S    EENTRO =        -0.00038047
  eigenvalues    EBANDS =        24.44813910
  atomic energy  EATOM  =       130.64884137
  ---------------------------------------------------
  free energy    TOTEN  =        -1.20299165 eV

  energy without entropy =       -1.20261118  energy(sigma->0) =       -1.20286483


--------------------------------------------------------------------------------------------------------




----------------------------------------- Iteration    1(   4)  ---------------------------------------


     EDDAV:  cpu time    1.70: real time    1.70
       DOS:  cpu time    0.00: real time    0.00
    --------------------------------------------
      LOOP:  cpu time    1.70: real time    1.72

 eigenvalue-minimisations  :  1404
 total energy-change (2. order) :-0.7256841E-03  (-0.7256797E-03)
 number of electron       5.0000000 magnetization       6.0000000
 augmentation part        5.0000000 magnetization       6.0000000

 Free energy of the ion-electron system (eV)
  ---------------------------------------------------
  alpha Z        PSCENC =        30.58334069
  Ewald energy   TEWEN  =      -197.90100875
  -1/2 Hartree   DENC   =        -2.50452612
  -exchange  EXHF       =         0.00000000
  -V(xc)+E(xc)   XCENC  =       -60.66120712
  PAW double counting   =       143.51874798      -69.33493833
  entropy T*S    EENTRO =        -0.00038031
  eigenvalues    EBANDS =        24.44741326
  atomic energy  EATOM  =       130.64884137
  ---------------------------------------------------
  free energy    TOTEN  =        -1.20371734 eV

  energy without entropy =       -1.20333702  energy(sigma->0) =       -1.20359057


--------------------------------------------------------------------------------------------------------




----------------------------------------- Iteration    1(   5)  ---------------------------------------


     EDDAV:  cpu time    1.30: real time    1.30
       DOS:  cpu time    0.00: real time    0.00
    CHARGE:  cpu time    0.17: real time    0.17
    MIXING:  cpu time    0.00: real time    0.00
    --------------------------------------------
      LOOP:  cpu time    1.48: real time    1.49

 eigenvalue-minimisations  :   972
 total energy-change (2. order) :-0.6506364E-05  (-0.6507227E-05)
 number of electron       5.0000000 magnetization       2.0081673
 augmentation part        0.4560360 magnetization      -0.8269148

 Broyden mixing:
  rms(total) = 0.75851E+00    rms(broyden)= 0.75851E+00
  rms(prec ) = 0.96647E+00
  weight for this iteration     100.00

 Free energy of the ion-electron system (eV)
  ---------------------------------------------------
  alpha Z        PSCENC =        30.58334069
  Ewald energy   TEWEN  =      -197.90100875
  -1/2 Hartree   DENC   =        -2.50452612
  -exchange  EXHF       =         0.00000000
  -V(xc)+E(xc)   XCENC  =       -60.66120712
  PAW double counting   =       143.51874798      -69.33493833
  entropy T*S    EENTRO =        -0.00038030
  eigenvalues    EBANDS =        24.44740674
  atomic energy  EATOM  =       130.64884137
  ---------------------------------------------------
  free energy    TOTEN  =        -1.20372384 eV

  energy without entropy =       -1.20334354  energy(sigma->0) =       -1.20359708


--------------------------------------------------------------------------------------------------------




----------------------------------------- Iteration    1(   6)  ---------------------------------------


    POTLOK:  cpu time    0.20: real time    0.20
    SETDIJ:  cpu time    0.05: real time    0.06
     EDDAV:  cpu time    1.42: real time    1.42
       DOS:  cpu time    0.00: real time    0.00
    CHARGE:  cpu time    0.15: real time    0.15
    MIXING:  cpu time    0.00: real time    0.00
    --------------------------------------------
      LOOP:  cpu time    1.82: real time    1.84

 eigenvalue-minimisations  :  1104
 total energy-change (2. order) :-0.1048074E+02  (-0.3533149E+00)
 number of electron       5.0000000 magnetization       1.8551514
 augmentation part        0.3686910 magnetization       1.1605552

 Broyden mixing:
  rms(total) = 0.39861E+00    rms(broyden)= 0.39859E+00
  rms(prec ) = 0.11477E+01
  weight for this iteration     100.00

 eigenvalues of (default mixing * dielectric matrix)
  average eigenvalue GAMMA=   1.5366
  1.5366

 Free energy of the ion-electron system (eV)
  ---------------------------------------------------
  alpha Z        PSCENC =        30.58334069
  Ewald energy   TEWEN  =      -197.90100875
  -1/2 Hartree   DENC   =        -2.00051476
  -exchange  EXHF       =         0.00000000
  -V(xc)+E(xc)   XCENC  =       -66.15091487
  PAW double counting   =       163.76436889      -89.81940694
  entropy T*S    EENTRO =         0.00018201
  eigenvalues    EBANDS =        19.19064918
  atomic energy  EATOM  =       130.64884137
  ---------------------------------------------------
  free energy    TOTEN  =       -11.68446318 eV

  energy without entropy =      -11.68464519  energy(sigma->0) =      -11.68452385


--------------------------------------------------------------------------------------------------------




----------------------------------------- Iteration    1(   7)  ---------------------------------------


    POTLOK:  cpu time    0.20: real time    0.20
    SETDIJ:  cpu time    0.05: real time    0.05
     EDDAV:  cpu time    1.55: real time    1.55
       DOS:  cpu time    0.00: real time    0.00
    CHARGE:  cpu time    0.15: real time    0.15
    MIXING:  cpu time    0.00: real time    0.00
    --------------------------------------------
      LOOP:  cpu time    1.95: real time    2.02

 eigenvalue-minimisations  :  1248
 total energy-change (2. order) :-0.5469279E-01  (-0.2388226E-02)
 number of electron       5.0000000 magnetization       2.5354797
 augmentation part        0.3680914 magnetization       1.8567009

 Broyden mixing:
  rms(total) = 0.36770E+00    rms(broyden)= 0.36769E+00
  rms(prec ) = 0.11074E+01
  weight for this iteration     100.00

 eigenvalues of (default mixing * dielectric matrix)
  average eigenvalue GAMMA=   1.0070
  1.0070  1.0070

 Free energy of the ion-electron system (eV)
  ---------------------------------------------------
  alpha Z        PSCENC =        30.58334069
  Ewald energy   TEWEN  =      -197.90100875
  -1/2 Hartree   DENC   =        -1.92593629
  -exchange  EXHF       =         0.00000000
  -V(xc)+E(xc)   XCENC  =       -66.19388374
  PAW double counting   =       165.05195853      -91.12898894
  entropy T*S    EENTRO =        -0.00000407
  eigenvalues    EBANDS =        19.12652522
  atomic energy  EATOM  =       130.64884137
  ---------------------------------------------------
  free energy    TOTEN  =       -11.73915597 eV

  energy without entropy =      -11.73915190  energy(sigma->0) =      -11.73915461


--------------------------------------------------------------------------------------------------------




----------------------------------------- Iteration    1(   8)  ---------------------------------------


    POTLOK:  cpu time    0.20: real time    0.20
    SETDIJ:  cpu time    0.05: real time    0.05
     EDDAV:  cpu time    1.51: real time    1.51
       DOS:  cpu time    0.00: real time    0.00
    CHARGE:  cpu time    0.15: real time    0.15
    MIXING:  cpu time    0.00: real time    0.00
    --------------------------------------------
      LOOP:  cpu time    1.92: real time    1.95

 eigenvalue-minimisations  :  1212
 total energy-change (2. order) : 0.3899885E+00  (-0.3147946E-01)
 number of electron       5.0000000 magnetization       0.6697535
 augmentation part        0.3906150 magnetization      -0.0394724

 Broyden mixing:
  rms(total) = 0.46106E+00    rms(broyden)= 0.46106E+00
  rms(prec ) = 0.63067E+00
  weight for this iteration     100.00

 eigenvalues of (default mixing * dielectric matrix)
  average eigenvalue GAMMA=   1.1943
  1.7542  1.1274  0.7012

 Free energy of the ion-electron system (eV)
  ---------------------------------------------------
  alpha Z        PSCENC =        30.58334069
  Ewald energy   TEWEN  =      -197.90100875
  -1/2 Hartree   DENC   =        -1.02437805
  -exchange  EXHF       =         0.00000000
  -V(xc)+E(xc)   XCENC  =       -65.61300424
  PAW double counting   =       169.25726397      -95.64701993
  entropy T*S    EENTRO =        -0.00017174
  eigenvalues    EBANDS =        18.34696921
  atomic energy  EATOM  =       130.64884137
  ---------------------------------------------------
  free energy    TOTEN  =       -11.34916747 eV

  energy without entropy =      -11.34899573  energy(sigma->0) =      -11.34911022


--------------------------------------------------------------------------------------------------------




----------------------------------------- Iteration    1(   9)  ---------------------------------------


    POTLOK:  cpu time    0.19: real time    0.20
    SETDIJ:  cpu time    0.05: real time    0.05
     EDDAV:  cpu time    1.52: real time    1.52
       DOS:  cpu time    0.00: real time    0.00
    CHARGE:  cpu time    0.15: real time    0.15
    MIXING:  cpu time    0.00: real time    0.00
    --------------------------------------------
      LOOP:  cpu time    1.92: real time    1.93

 eigenvalue-minimisations  :  1218
 total energy-change (2. order) :-0.4783761E+00  (-0.3436187E-01)
 number of electron       5.0000000 magnetization       0.5133518
 augmentation part        0.4092048 magnetization       0.2290170

 Broyden mixing:
  rms(total) = 0.10109E+00    rms(broyden)= 0.10109E+00
  rms(prec ) = 0.20086E+00
  weight for this iteration     100.00

 eigenvalues of (default mixing * dielectric matrix)
  average eigenvalue GAMMA=   1.0778
  2.0755  0.8255  0.7050  0.7050

 Free energy of the ion-electron system (eV)
  ---------------------------------------------------
  alpha Z        PSCENC =        30.58334069
  Ewald energy   TEWEN  =      -197.90100875
  -1/2 Hartree   DENC   =        -0.45242239
  -exchange  EXHF       =         0.00000000
  -V(xc)+E(xc)   XCENC  =       -65.88412809
  PAW double counting   =       186.30993616     -112.90146858
  entropy T*S    EENTRO =        -0.00036857
  eigenvalues    EBANDS =        17.76973462
  atomic energy  EATOM  =       130.64884137
  ---------------------------------------------------
  free energy    TOTEN  =       -11.82754354 eV

  energy without entropy =      -11.82717497  energy(sigma->0) =      -11.82742068


--------------------------------------------------------------------------------------------------------




----------------------------------------- Iteration    1(  10)  ---------------------------------------


    POTLOK:  cpu time    0.19: real time    0.19
    SETDIJ:  cpu time    0.05: real time    0.05
     EDDAV:  cpu time    1.45: real time    1.45
       DOS:  cpu time    0.00: real time    0.00
    CHARGE:  cpu time    0.15: real time    0.15
    MIXING:  cpu time    0.00: real time    0.00
    --------------------------------------------
      LOOP:  cpu time    1.85: real time    1.87

 eigenvalue-minimisations  :  1146
 total energy-change (2. order) :-0.1601436E-01  (-0.3021584E-03)
 number of electron       5.0000000 magnetization       0.1127394
 augmentation part        0.4078965 magnetization      -0.0937600

 Broyden mixing:
  rms(total) = 0.80640E-01    rms(broyden)= 0.80640E-01
  rms(prec ) = 0.15711E+00
  weight for this iteration     100.00

 eigenvalues of (default mixing * dielectric matrix)
  average eigenvalue GAMMA=   1.0696
  1.7597  0.9267  0.9267  1.0971  0.6378

 Free energy of the ion-electron system (eV)
  ---------------------------------------------------
  alpha Z        PSCENC =        30.58334069
  Ewald energy   TEWEN  =      -197.90100875
  -1/2 Hartree   DENC   =        -0.48738971
  -exchange  EXHF       =         0.00000000
  -V(xc)+E(xc)   XCENC  =       -65.92383295
  PAW double counting   =       186.92233375     -113.50605615
  entropy T*S    EENTRO =        -0.00067122
  eigenvalues    EBANDS =        17.82088505
  atomic energy  EATOM  =       130.64884137
  ---------------------------------------------------
  free energy    TOTEN  =       -11.84355790 eV

  energy without entropy =      -11.84288669  energy(sigma->0) =      -11.84333417


--------------------------------------------------------------------------------------------------------




----------------------------------------- Iteration    1(  11)  ---------------------------------------


    POTLOK:  cpu time    0.19: real time    0.19
    SETDIJ:  cpu time    0.05: real time    0.05
     EDDAV:  cpu time    1.47: real time    1.47
       DOS:  cpu time    0.00: real time    0.00
    CHARGE:  cpu time    0.15: real time    0.15
    MIXING:  cpu time    0.00: real time    0.00
    --------------------------------------------
      LOOP:  cpu time    1.87: real time    2.08

 eigenvalue-minimisations  :  1164
 total energy-change (2. order) :-0.1975768E-01  (-0.2888677E-02)
 number of electron       5.0000000 magnetization      -0.0864394
 augmentation part        0.4008855 magnetization      -0.1420464

 Broyden mixing:
  rms(total) = 0.19378E-01    rms(broyden)= 0.19374E-01
  rms(prec ) = 0.54182E-01
  weight for this iteration     100.00

 eigenvalues of (default mixing * dielectric matrix)
  average eigenvalue GAMMA=   1.1314
  1.5828  1.5828  1.1424  1.1424  0.7049  0.6330

 Free energy of the ion-electron system (eV)
  ---------------------------------------------------
  alpha Z        PSCENC =        30.58334069
  Ewald energy   TEWEN  =      -197.90100875
  -1/2 Hartree   DENC   =        -0.63361533
  -exchange  EXHF       =         0.00000000
  -V(xc)+E(xc)   XCENC  =       -66.02956452
  PAW double counting   =       189.39172078     -115.93438906
  entropy T*S    EENTRO =        -0.00020604
  eigenvalues    EBANDS =        18.01156526
  atomic energy  EATOM  =       130.64884137
  ---------------------------------------------------
  free energy    TOTEN  =       -11.86331559 eV

  energy without entropy =      -11.86310955  energy(sigma->0) =      -11.86324691


--------------------------------------------------------------------------------------------------------




----------------------------------------- Iteration    1(  12)  ---------------------------------------


    POTLOK:  cpu time    0.19: real time    0.19
    SETDIJ:  cpu time    0.05: real time    0.05
     EDDAV:  cpu time    1.50: real time    1.50
       DOS:  cpu time    0.00: real time    0.00
    CHARGE:  cpu time    0.15: real time    0.15
    MIXING:  cpu time    0.00: real time    0.00
    --------------------------------------------
      LOOP:  cpu time    1.89: real time    1.92

 eigenvalue-minimisations  :  1194
 total energy-change (2. order) :-0.1469051E-03  (-0.1529817E-03)
 number of electron       5.0000000 magnetization      -0.0584447
 augmentation part        0.4012999 magnetization      -0.0212504

 Broyden mixing:
  rms(total) = 0.15469E-01    rms(broyden)= 0.15467E-01
  rms(prec ) = 0.44455E-01
  weight for this iteration     100.00

 eigenvalues of (default mixing * dielectric matrix)
  average eigenvalue GAMMA=   1.1511
  2.1643  1.2841  1.2841  1.0135  1.0135  0.6489  0.6489

 Free energy of the ion-electron system (eV)
  ---------------------------------------------------
  alpha Z        PSCENC =        30.58334069
  Ewald energy   TEWEN  =      -197.90100875
  -1/2 Hartree   DENC   =        -0.62831856
  -exchange  EXHF       =         0.00000000
  -V(xc)+E(xc)   XCENC  =       -66.02301536
  PAW double counting   =       192.17789721     -118.73423325
  entropy T*S    EENTRO =         0.00003961
  eigenvalues    EBANDS =        18.01299455
  atomic energy  EATOM  =       130.64884137
  ---------------------------------------------------
  free energy    TOTEN  =       -11.86346249 eV

  energy without entropy =      -11.86350210  energy(sigma->0) =      -11.86347569


--------------------------------------------------------------------------------------------------------




----------------------------------------- Iteration    1(  13)  ---------------------------------------


    POTLOK:  cpu time    0.19: real time    0.19
    SETDIJ:  cpu time    0.05: real time    0.05
     EDDAV:  cpu time    1.50: real time    1.50
       DOS:  cpu time    0.01: real time    0.00
    CHARGE:  cpu time    0.15: real time    0.15
    MIXING:  cpu time    0.00: real time    0.00
    --------------------------------------------
      LOOP:  cpu time    1.90: real time    1.92

 eigenvalue-minimisations  :  1194
 total energy-change (2. order) :-0.1131044E-03  (-0.9426899E-04)
 number of electron       5.0000000 magnetization       0.0018424
 augmentation part        0.4025142 magnetization       0.0221395

 Broyden mixing:
  rms(total) = 0.94738E-02    rms(broyden)= 0.94737E-02
  rms(prec ) = 0.13261E-01
  weight for this iteration     100.00

 eigenvalues of (default mixing * dielectric matrix)
  average eigenvalue GAMMA=   1.2016
  2.3841  1.7661  1.2304  1.2304  0.8620  0.8620  0.6599  0.6185

 Free energy of the ion-electron system (eV)
  ---------------------------------------------------
  alpha Z        PSCENC =        30.58334069
  Ewald energy   TEWEN  =      -197.90100875
  -1/2 Hartree   DENC   =        -0.59858473
  -exchange  EXHF       =         0.00000000
  -V(xc)+E(xc)   XCENC  =       -66.00600365
  PAW double counting   =       193.00797265     -119.57883579
  entropy T*S    EENTRO =         0.00040738
  eigenvalues    EBANDS =        17.98029523
  atomic energy  EATOM  =       130.64884137
  ---------------------------------------------------
  free energy    TOTEN  =       -11.86357560 eV

  energy without entropy =      -11.86398297  energy(sigma->0) =      -11.86371139


--------------------------------------------------------------------------------------------------------




----------------------------------------- Iteration    1(  14)  ---------------------------------------


    POTLOK:  cpu time    0.19: real time    0.19
    SETDIJ:  cpu time    0.05: real time    0.05
     EDDAV:  cpu time    0.90: real time    0.90
       DOS:  cpu time    0.00: real time    0.00
    CHARGE:  cpu time    0.15: real time    0.15
    MIXING:  cpu time    0.00: real time    0.01
    --------------------------------------------
      LOOP:  cpu time    1.30: real time    1.31

 eigenvalue-minimisations  :   528
 total energy-change (2. order) :-0.3327138E-03  (-0.8199780E-05)
 number of electron       5.0000000 magnetization       0.0163178
 augmentation part        0.4025222 magnetization       0.0158678

 Broyden mixing:
  rms(total) = 0.21281E-02    rms(broyden)= 0.21278E-02
  rms(prec ) = 0.87913E-02
  weight for this iteration     100.00

 eigenvalues of (default mixing * dielectric matrix)
  average eigenvalue GAMMA=   1.1446
  2.2785  1.5570  1.3056  1.3056  0.9144  0.9144  0.7517  0.6152  0.6590

 Free energy of the ion-electron system (eV)
  ---------------------------------------------------
  alpha Z        PSCENC =        30.58334069
  Ewald energy   TEWEN  =      -197.90100875
  -1/2 Hartree   DENC   =        -0.59796191
  -exchange  EXHF       =         0.00000000
  -V(xc)+E(xc)   XCENC  =       -66.00670454
  PAW double counting   =       192.78937780     -119.35995826
  entropy T*S    EENTRO =         0.00060858
  eigenvalues    EBANDS =        17.97955671
  atomic energy  EATOM  =       130.64884137
  ---------------------------------------------------
  free energy    TOTEN  =       -11.86390831 eV

  energy without entropy =      -11.86451689  energy(sigma->0) =      -11.86411117


--------------------------------------------------------------------------------------------------------




----------------------------------------- Iteration    1(  15)  ---------------------------------------


    POTLOK:  cpu time    0.19: real time    0.19
    SETDIJ:  cpu time    0.05: real time    0.05
     EDDAV:  cpu time    0.93: real time    0.93
       DOS:  cpu time    0.00: real time    0.00
    --------------------------------------------
      LOOP:  cpu time    1.18: real time    1.19

 eigenvalue-minimisations  :   558
 total energy-change (2. order) : 0.4100823E-04  (-0.5084822E-05)
 number of electron       5.0000000 magnetization       0.0163178
 augmentation part        0.4025222 magnetization       0.0158678

 Free energy of the ion-electron system (eV)
  ---------------------------------------------------
  alpha Z        PSCENC =        30.58334069
  Ewald energy   TEWEN  =      -197.90100875
  -1/2 Hartree   DENC   =        -0.59059354
  -exchange  EXHF       =         0.00000000
  -V(xc)+E(xc)   XCENC  =       -66.00301951
  PAW double counting   =       192.64797260     -119.22049219
  entropy T*S    EENTRO =         0.00060796
  eigenvalues    EBANDS =        17.97048406
  atomic energy  EATOM  =       130.64884137
  ---------------------------------------------------
  free energy    TOTEN  =       -11.86386730 eV

  energy without entropy =      -11.86447526  energy(sigma->0) =      -11.86406995


--------------------------------------------------------------------------------------------------------




 average (electrostatic) potential at core
  the test charge radii are     1.2538
  (the norm of the test charge is              1.0000)
       1 -35.0285
 
 
 
 E-fermi :   5.6726     XC(G=0): -12.3694     alpha+bet :-13.5035


 spin component 1

 k-point   1 :       0.0500    0.0500    0.0500
  band No.  band energies     occupation 
      1      -1.5533      1.00000
      2       6.0810      0.00000
      3       6.0810      0.00000
      4       7.1959      0.00000
      5       9.4383      0.00000
      6       9.4383      0.00000

 k-point   2 :       0.1500    0.0500    0.0500
  band No.  band energies     occupation 
      1      -0.4308      1.00000
      2       5.4080      1.00000
      3       5.5915      1.02206
      4       8.5452      0.00000
      5       9.1219      0.00000
      6       9.7061      0.00000

 k-point   3 :       0.2500    0.0500    0.0500
  band No.  band energies     occupation 
      1       0.8949      1.00000
      2       4.7510      1.00000
      3       5.2902      1.00000
      4       9.3402      0.00000
      5      10.0339      0.00000
      6      10.5179      0.00000

 k-point   4 :       0.3500    0.0500    0.0500
  band No.  band energies     occupation 
      1       1.5239      1.00000
      2       4.3014      1.00000
      3       6.1015      0.00000
      4       9.6626      0.00000
      5      10.3978      0.00000
      6      12.6535      0.00000

 k-point   5 :       0.4500    0.0500    0.0500
  band No.  band energies     occupation 
      1       1.5815      1.00000
      2       4.1435      1.00000
      3       6.9771      0.00000
      4       9.6443      0.00000
      5      10.5824      0.00000
      6      13.7996      0.00000

 k-point   6 :      -0.0500    0.0500    0.0500
  band No.  band energies     occupation 
      1      -1.9691      1.00000
      2       6.3996      0.00000
      3       6.3996      0.00000
      4       6.5368      0.00000
      5       9.3019      0.00000
      6       9.7987      0.00000

 k-point   7 :       0.1500    0.1500    0.0500
  band No.  band energies     occupation 
      1       0.8395      1.00000
      2       4.8625      1.00000
      3       4.9347      1.00000
      4       9.1970      0.00000
      5      10.0794      0.00000
      6      10.4422      0.00000

 k-point   8 :       0.2500    0.1500    0.0500
  band No.  band energies     occupation 
      1       2.0058      1.00000
      2       4.3906      1.00000
      3       4.9676      1.00000
      4       9.4980      0.00000
      5      10.4220      0.00000
      6      12.6681      0.00000

 k-point   9 :       0.3500    0.1500    0.0500
  band No.  band energies     occupation 
      1       2.2840      1.00000
      2       4.1762      1.00000
      3       5.9326      0.00000
      4       9.7502      0.00000
      5      10.6236      0.00000
      6      14.5215      0.00000

 k-point  10 :      -0.1500    0.1500    0.0500
  band No.  band energies     occupation 
      1      -1.1528      1.00000
      2       5.9458      0.00000
      3       6.1743      0.00000
      4       7.3498      0.00000
      5       8.6200      0.00000
      6       9.9815      0.00000

 k-point  11 :       0.2500    0.2500    0.0500
  band No.  band energies     occupation 
      1       2.9248      1.00000
      2       4.2855      1.00000
      3       5.0035      1.00000
      4       9.8125      0.00000
      5      10.5202      0.00000
      6      14.9519      0.00000

 k-point  12 :       0.3500    0.2500    0.0500
  band No.  band energies     occupation 
      1       3.1059      1.00000
      2       4.3696      1.00000
      3       5.2445      1.00000
      4      10.0519      0.00000
      5      10.5647      0.00000
      6      14.3754      0.00000

 k-point  13 :      -0.2500    0.2500    0.0500
  band No.  band energies     occupation 
      1       0.1686      1.00000
      2       5.2575      1.00000
      3       5.6033      1.03226
      4       8.6448      0.00000
      5       8.9632      0.00000
      6      10.1775      0.00000

 k-point  14 :      -0.1500    0.2500    0.0500
  band No.  band energies     occupation 
      1      -0.0706      1.00000
      2       5.6209      1.02833
      3       5.6918      0.20033
      4       8.0624      0.00000
      5       8.4694      0.00000
      6      10.3807      0.00000

 k-point  15 :      -0.3500    0.3500    0.0500
  band No.  band energies     occupation 
      1       1.2062      1.00000
      2       4.6630      1.00000
      3       5.6867      0.27239
      4       9.1777      0.00000
      5      10.4054      0.00000
      6      11.0993      0.00000

 k-point  16 :      -0.2500    0.3500    0.0500
  band No.  band energies     occupation 
      1       1.2327      1.00000
      2       4.9109      1.00000
      3       5.3428      1.00000
      4       8.3642      0.00000
      5      10.2979      0.00000
      6      10.6836      0.00000

 k-point  17 :      -0.4500    0.4500    0.0500
  band No.  band energies     occupation 
      1       1.4492      1.00000
      2       4.3310      1.00000
      3       6.6893      0.00000
      4       9.3368      0.00000
      5      10.7750      0.00000
      6      13.0469      0.00000

 k-point  18 :      -0.3500    0.4500    0.0500
  band No.  band energies     occupation 
      1       1.8891      1.00000
      2       4.6089      1.00000
      3       5.5900      1.02064
      4       8.9033      0.00000
      5      10.7185      0.00000
      6      12.6871      0.00000

 k-point  19 :      -0.2500    0.4500    0.0500
  band No.  band energies     occupation 
      1       2.3558      1.00000
      2       4.3158      1.00000
      3       5.3487      1.00000
      4       8.6709      0.00000
      5      10.4240      0.00000
      6      12.7586      0.00000

 k-point  20 :      -0.4500   -0.4500    0.0500
  band No.  band energies     occupation 
      1       1.9450      1.00000
      2       4.5073      1.00000
      3       6.0839      0.00000
      4       8.8572      0.00000
      5      11.2265      0.00000
      6      13.9391      0.00000

 k-point  21 :      -0.3500   -0.4500    0.0500
  band No.  band energies     occupation 
      1       2.8258      1.00000
      2       4.3738      1.00000
      3       5.2138      1.00000
      4       9.1399      0.00000
      5      10.6446      0.00000
      6      15.0489      0.00000

 k-point  22 :      -0.3500   -0.3500    0.0500
  band No.  band energies     occupation 
      1       3.4854      1.00000
      2       4.4717      1.00000
      3       4.4717      1.00000
      4      10.1026      0.00000
      5      10.1026      0.00000
      6      14.6666      0.00000

 k-point  23 :       0.1500    0.1500    0.1500
  band No.  band energies     occupation 
      1       2.2259      1.00000
      2       4.3781      1.00000
      3       4.3781      1.00000
      4      10.0464      0.00000
      5      10.0464      0.00000
      6      12.7758      0.00000

 k-point  24 :       0.2500    0.1500    0.1500
  band No.  band energies     occupation 
      1       3.1334      1.00000
      2       4.1320      1.00000
      3       4.7762      1.00000
      4      10.2131      0.00000
      5      10.5241      0.00000
      6      14.9628      0.00000

 k-point  25 :       0.3500    0.1500    0.1500
  band No.  band energies     occupation 
      1       3.1410      1.00000
      2       4.0599      1.00000
      3       5.5983      1.02827
      4      10.2731      0.00000
      5      10.6760      0.00000
      6      14.3615      0.00000

 k-point  26 :      -0.1500    0.1500    0.1500
  band No.  band energies     occupation 
      1      -0.3757      1.00000
      2       6.3574      0.00000
      3       6.3574      0.00000
      4       7.1630      0.00000
      5       7.3564      0.00000
      6      10.5769      0.00000

 k-point  27 :       0.2500    0.2500    0.1500
  band No.  band energies     occupation 
      1       3.7346      1.00000
      2       4.3954      1.00000
      3       4.8240      1.00000
      4      10.5269      0.00000
      5      10.6566      0.00000
      6      13.6532      0.00000

 k-point  28 :      -0.2500    0.2500    0.1500
  band No.  band energies     occupation 
      1       0.8868      1.00000
      2       5.5065      1.00001
      3       5.9998      0.00000
      4       7.2284      0.00000
      5       8.7168      0.00000
      6      10.7810      0.00000

 k-point  29 :      -0.3500    0.3500    0.1500
  band No.  band energies     occupation 
      1       1.9314      1.00000
      2       4.8814      1.00000
      3       5.4921      1.00000
      4       8.0323      0.00000
      5      10.8443      0.00000
      6      10.8849      0.00000

 k-point  30 :      -0.2500    0.3500    0.1500
  band No.  band energies     occupation 
      1       2.0562      1.00000
      2       4.5627      1.00000
      3       6.1340      0.00000
      4       7.5103      0.00000
      5       9.9748      0.00000
      6      10.9458      0.00000

 k-point  31 :      -0.4500    0.4500    0.1500
  band No.  band energies     occupation 
      1       2.1545      1.00000
      2       5.1936      1.00000
      3       5.2523      1.00000
      4       8.0077      0.00000
      5      11.9824      0.00000
      6      12.8443      0.00000

 k-point  32 :      -0.3500    0.4500    0.1500
  band No.  band energies     occupation 
      1       2.7613      1.00000
      2       4.1780      1.00000
      3       5.7359     -0.03523
      4       8.1447      0.00000
      5      10.7143      0.00000
      6      12.9027      0.00000

 k-point  33 :      -0.4500   -0.4500    0.1500
  band No.  band energies     occupation 
      1       2.7734      1.00000
      2       4.5567      1.00000
      3       5.2889      1.00000
      4       8.1396      0.00000
      5      11.7501      0.00000
      6      14.5576      0.00000

 k-point  34 :      -0.3500   -0.4500    0.1500
  band No.  band energies     occupation 
      1       3.6418      1.00000
      2       3.7035      1.00000
      3       4.9653      1.00000
      4       9.4075      0.00000
      5      10.5765      0.00000
      6      15.3622      0.00000

 k-point  35 :       0.2500    0.2500    0.2500
  band No.  band energies     occupation 
      1       4.4649      1.00000
      2       4.4649      1.00000
      3       4.4649      1.00000
      4      10.7352      0.00000
      5      10.7352      0.00000
      6      12.7379      0.00000

 k-point  36 :      -0.2500    0.2500    0.2500
  band No.  band energies     occupation 
      1       1.9636      1.00000
      2       4.7794      1.00000
      3       6.9476      0.00000
      4       6.9476      0.00000
      5       8.8756      0.00000
      6      10.6799      0.00000

 k-point  37 :      -0.3500    0.3500    0.2500
  band No.  band energies     occupation 
      1       2.7865      1.00000
      2       3.8496      1.00000
      3       7.0075      0.00000
      4       7.5988      0.00000
      5      10.5384      0.00000
      6      10.8291      0.00000

 k-point  38 :      -0.4500    0.4500    0.2500
  band No.  band energies     occupation 
      1       2.8217      1.00000
      2       3.7634      1.00000
      3       6.8372      0.00000
      4       7.4825      0.00000
      5      12.5342      0.00000
      6      12.8168      0.00000

 k-point  39 :      -0.3500    0.4500    0.2500
  band No.  band energies     occupation 
      1       3.1130      1.00000
      2       3.1756      1.00000
      3       6.8496      0.00000
      4       8.8259      0.00000
      5      10.8088      0.00000
      6      12.9207      0.00000

 k-point  40 :      -0.4500   -0.4500    0.2500
  band No.  band energies     occupation 
      1       2.9040      1.00000
      2       3.2282      1.00000
      3       6.5722      0.00000
      4       9.3418      0.00000
      5      11.6529      0.00000
      6      15.2634      0.00000

 k-point  41 :      -0.3500    0.3500    0.3500
  band No.  band energies     occupation 
      1       2.8904      1.00000
      2       2.9901      1.00000
      3       8.6049      0.00000
      4       8.6049      0.00000
      5      10.7603      0.00000
      6      10.9379      0.00000

 k-point  42 :      -0.4500    0.4500    0.3500
  band No.  band energies     occupation 
      1       2.5108      1.00000
      2       2.6733      1.00000
      3       9.0698      0.00000
      4       9.0764      0.00000
      5      12.2534      0.00000
      6      13.0638      0.00000

 k-point  43 :      -0.4500   -0.4500    0.3500
  band No.  band energies     occupation 
      1       2.3569      1.00000
      2       2.3569      1.00000
      3       9.0019      0.00000
      4      11.4305      0.00000
      5      11.4305      0.00000
      6      15.5720      0.00000

 k-point  44 :      -0.4500    0.4500    0.4500
  band No.  band energies     occupation 
      1       2.0550      1.00000
      2       2.1018      1.00000
      3      11.3341      0.00000
      4      11.3341      0.00000
      5      12.2425      0.00000
      6      13.5450      0.00000

 spin component 2

 k-point   1 :       0.0500    0.0500    0.0500
  band No.  band energies     occupation 
      1      -1.5417      1.00000
      2       6.0923      0.00000
      3       6.0923      0.00000
      4       7.2070      0.00000
      5       9.4471      0.00000
      6       9.4471      0.00000

 k-point   2 :       0.1500    0.0500    0.0500
  band No.  band energies     occupation 
      1      -0.4193      1.00000
      2       5.4192      1.00000
      3       5.6025      1.03171
      4       8.5561      0.00000
      5       9.1311      0.00000
      6       9.7149      0.00000

 k-point   3 :       0.2500    0.0500    0.0500
  band No.  band energies     occupation 
      1       0.9064      1.00000
      2       4.7623      1.00000
      3       5.3010      1.00000
      4       9.3496      0.00000
      5      10.0426      0.00000
      6      10.5283      0.00000

 k-point   4 :       0.3500    0.0500    0.0500
  band No.  band energies     occupation 
      1       1.5352      1.00000
      2       4.3127      1.00000
      3       6.1123      0.00000
      4       9.6720      0.00000
      5      10.4063      0.00000
      6      12.6633      0.00000

 k-point   5 :       0.4500    0.0500    0.0500
  band No.  band energies     occupation 
      1       1.5926      1.00000
      2       4.1548      1.00000
      3       6.9880      0.00000
      4       9.6536      0.00000
      5      10.5907      0.00000
      6      13.8088      0.00000

 k-point   6 :      -0.0500    0.0500    0.0500
  band No.  band energies     occupation 
      1      -1.9575      1.00000
      2       6.4108      0.00000
      3       6.4108      0.00000
      4       6.5481      0.00000
      5       9.3108      0.00000
      6       9.8074      0.00000

 k-point   7 :       0.1500    0.1500    0.0500
  band No.  band energies     occupation 
      1       0.8509      1.00000
      2       4.8734      1.00000
      3       4.9459      1.00000
      4       9.2063      0.00000
      5      10.0882      0.00000
      6      10.4527      0.00000

 k-point   8 :       0.2500    0.1500    0.0500
  band No.  band energies     occupation 
      1       2.0171      1.00000
      2       4.4017      1.00000
      3       4.9785      1.00000
      4       9.5073      0.00000
      5      10.4306      0.00000
      6      12.6782      0.00000

 k-point   9 :       0.3500    0.1500    0.0500
  band No.  band energies     occupation 
      1       2.2951      1.00000
      2       4.1874      1.00000
      3       5.9433      0.00000
      4       9.7595      0.00000
      5      10.6321      0.00000
      6      14.5309      0.00000

 k-point  10 :      -0.1500    0.1500    0.0500
  band No.  band energies     occupation 
      1      -1.1412      1.00000
      2       5.9571      0.00000
      3       6.1854      0.00000
      4       7.3609      0.00000
      5       8.6292      0.00000
      6       9.9901      0.00000

 k-point  11 :       0.2500    0.2500    0.0500
  band No.  band energies     occupation 
      1       2.9361      1.00000
      2       4.2962      1.00000
      3       5.0145      1.00000
      4       9.8218      0.00000
      5      10.5289      0.00000
      6      14.9615      0.00000

 k-point  12 :       0.3500    0.2500    0.0500
  band No.  band energies     occupation 
      1       3.1172      1.00000
      2       4.3804      1.00000
      3       5.2551      1.00000
      4      10.0611      0.00000
      5      10.5735      0.00000
      6      14.3874      0.00000

 k-point  13 :      -0.2500    0.2500    0.0500
  band No.  band energies     occupation 
      1       0.1800      1.00000
      2       5.2688      1.00000
      3       5.6140      1.03501
      4       8.6544      0.00000
      5       8.9740      0.00000
      6      10.1861      0.00000

 k-point  14 :      -0.1500    0.2500    0.0500
  band No.  band energies     occupation 
      1      -0.0592      1.00000
      2       5.6317      0.99447
      3       5.7030      0.07633
      4       8.0720      0.00000
      5       8.4803      0.00000
      6      10.3892      0.00000

 k-point  15 :      -0.3500    0.3500    0.0500
  band No.  band energies     occupation 
      1       1.2175      1.00000
      2       4.6743      1.00000
      3       5.6972      0.13435
      4       9.1874      0.00000
      5      10.4140      0.00000
      6      11.1095      0.00000

 k-point  16 :      -0.2500    0.3500    0.0500
  band No.  band energies     occupation 
      1       1.2441      1.00000
      2       4.9216      1.00000
      3       5.3538      1.00000
      4       8.3741      0.00000
      5      10.3080      0.00000
      6      10.6926      0.00000

 k-point  17 :      -0.4500    0.4500    0.0500
  band No.  band energies     occupation 
      1       1.4604      1.00000
      2       4.3423      1.00000
      3       6.6999      0.00000
      4       9.3464      0.00000
      5      10.7836      0.00000
      6      13.0562      0.00000

 k-point  18 :      -0.3500    0.4500    0.0500
  band No.  band energies     occupation 
      1       1.9003      1.00000
      2       4.6200      1.00000
      3       5.6005      1.03013
      4       8.9131      0.00000
      5      10.7275      0.00000
      6      12.6968      0.00000

 k-point  19 :      -0.2500    0.4500    0.0500
  band No.  band energies     occupation 
      1       2.3670      1.00000
      2       4.3262      1.00000
      3       5.3597      1.00000
      4       8.6808      0.00000
      5      10.4331      0.00000
      6      12.7684      0.00000

 k-point  20 :      -0.4500   -0.4500    0.0500
  band No.  band energies     occupation 
      1       1.9561      1.00000
      2       4.5185      1.00000
      3       6.0942      0.00000
      4       8.8669      0.00000
      5      11.2356      0.00000
      6      13.9482      0.00000

 k-point  21 :      -0.3500   -0.4500    0.0500
  band No.  band energies     occupation 
      1       2.8370      1.00000
      2       4.3845      1.00000
      3       5.2243      1.00000
      4       9.1498      0.00000
      5      10.6540      0.00000
      6      15.0582      0.00000

 k-point  22 :      -0.3500   -0.3500    0.0500
  band No.  band energies     occupation 
      1       3.4969      1.00000
      2       4.4820      1.00000
      3       4.4820      1.00000
      4      10.1123      0.00000
      5      10.1123      0.00000
      6      14.6784      0.00000

 k-point  23 :       0.1500    0.1500    0.1500
  band No.  band energies     occupation 
      1       2.2373      1.00000
      2       4.3891      1.00000
      3       4.3891      1.00000
      4      10.0552      0.00000
      5      10.0552      0.00000
      6      12.7859      0.00000

 k-point  24 :       0.2500    0.1500    0.1500
  band No.  band energies     occupation 
      1       3.1446      1.00000
      2       4.1431      1.00000
      3       4.7871      1.00000
      4      10.2219      0.00000
      5      10.5325      0.00000
      6      14.9725      0.00000

 k-point  25 :       0.3500    0.1500    0.1500
  band No.  band energies     occupation 
      1       3.1521      1.00000
      2       4.0711      1.00000
      3       5.6092      1.03517
      4      10.2820      0.00000
      5      10.6843      0.00000
      6      14.3736      0.00000

 k-point  26 :      -0.1500    0.1500    0.1500
  band No.  band energies     occupation 
      1      -0.3642      1.00000
      2       6.3686      0.00000
      3       6.3686      0.00000
      4       7.1724      0.00000
      5       7.3675      0.00000
      6      10.5854      0.00000

 k-point  27 :       0.2500    0.2500    0.1500
  band No.  band energies     occupation 
      1       3.7457      1.00000
      2       4.4063      1.00000
      3       4.8349      1.00000
      4      10.5354      0.00000
      5      10.6650      0.00000
      6      13.6657      0.00000

 k-point  28 :      -0.2500    0.2500    0.1500
  band No.  band energies     occupation 
      1       0.8981      1.00000
      2       5.5167      1.00005
      3       6.0109      0.00000
      4       7.2388      0.00000
      5       8.7277      0.00000
      6      10.7896      0.00000

 k-point  29 :      -0.3500    0.3500    0.1500
  band No.  band energies     occupation 
      1       1.9425      1.00000
      2       4.8915      1.00000
      3       5.5033      1.00001
      4       8.0427      0.00000
      5      10.8546      0.00000
      6      10.8940      0.00000

 k-point  30 :      -0.2500    0.3500    0.1500
  band No.  band energies     occupation 
      1       2.0673      1.00000
      2       4.5728      1.00000
      3       6.1451      0.00000
      4       7.5208      0.00000
      5       9.9850      0.00000
      6      10.9552      0.00000

 k-point  31 :      -0.4500    0.4500    0.1500
  band No.  band energies     occupation 
      1       2.1654      1.00000
      2       5.2048      1.00000
      3       5.2624      1.00000
      4       8.0178      0.00000
      5      11.9920      0.00000
      6      12.8537      0.00000

 k-point  32 :      -0.3500    0.4500    0.1500
  band No.  band energies     occupation 
      1       2.7721      1.00000
      2       4.1881      1.00000
      3       5.7468     -0.02840
      4       8.1552      0.00000
      5      10.7243      0.00000
      6      12.9125      0.00000

 k-point  33 :      -0.4500   -0.4500    0.1500
  band No.  band energies     occupation 
      1       2.7840      1.00000
      2       4.5667      1.00000
      3       5.3000      1.00000
      4       8.1500      0.00000
      5      11.7599      0.00000
      6      14.5672      0.00000

 k-point  34 :      -0.3500   -0.4500    0.1500
  band No.  band energies     occupation 
      1       3.6523      1.00000
      2       3.7136      1.00000
      3       4.9763      1.00000
      4       9.4178      0.00000
      5      10.5866      0.00000
      6      15.3722      0.00000

 k-point  35 :       0.2500    0.2500    0.2500
  band No.  band energies     occupation 
      1       4.4759      1.00000
      2       4.4759      1.00000
      3       4.4759      1.00000
      4      10.7434      0.00000
      5      10.7434      0.00000
      6      12.7507      0.00000

 k-point  36 :      -0.2500    0.2500    0.2500
  band No.  band energies     occupation 
      1       1.9746      1.00000
      2       4.7892      1.00000
      3       6.9586      0.00000
      4       6.9586      0.00000
      5       8.8864      0.00000
      6      10.6891      0.00000

 k-point  37 :      -0.3500    0.3500    0.2500
  band No.  band energies     occupation 
      1       2.7971      1.00000
      2       3.8595      1.00000
      3       7.0184      0.00000
      4       7.6095      0.00000
      5      10.5487      0.00000
      6      10.8393      0.00000

 k-point  38 :      -0.4500    0.4500    0.2500
  band No.  band energies     occupation 
      1       2.8319      1.00000
      2       3.7734      1.00000
      3       6.8482      0.00000
      4       7.4932      0.00000
      5      12.5437      0.00000
      6      12.8275      0.00000

 k-point  39 :      -0.3500    0.4500    0.2500
  band No.  band energies     occupation 
      1       3.1232      1.00000
      2       3.1855      1.00000
      3       6.8606      0.00000
      4       8.8366      0.00000
      5      10.8192      0.00000
      6      12.9309      0.00000

 k-point  40 :      -0.4500   -0.4500    0.2500
  band No.  band energies     occupation 
      1       2.9140      1.00000
      2       3.2381      1.00000
      3       6.5833      0.00000
      4       9.3524      0.00000
      5      11.6629      0.00000
      6      15.2739      0.00000

 k-point  41 :      -0.3500    0.3500    0.3500
  band No.  band energies     occupation 
      1       2.9006      1.00000
      2       3.0000      1.00000
      3       8.6157      0.00000
      4       8.6157      0.00000
      5      10.7704      0.00000
      6      10.9490      0.00000

 k-point  42 :      -0.4500    0.4500    0.3500
  band No.  band energies     occupation 
      1       2.5207      1.00000
      2       2.6832      1.00000
      3       9.0807      0.00000
      4       9.0870      0.00000
      5      12.2629      0.00000
      6      13.0752      0.00000

 k-point  43 :      -0.4500   -0.4500    0.3500
  band No.  band energies     occupation 
      1       2.3669      1.00000
      2       2.3669      1.00000
      3       9.0127      0.00000
      4      11.4407      0.00000
      5      11.4407      0.00000
      6      15.5830      0.00000

 k-point  44 :      -0.4500    0.4500    0.4500
  band No.  band energies     occupation 
      1       2.0649      1.00000
      2       2.1118      1.00000
      3      11.3444      0.00000
      4      11.3444      0.00000
      5      12.2520      0.00000
      6      13.5569      0.00000


--------------------------------------------------------------------------------------------------------


 soft charge-density along one line, spin component           1
         0         1         2         3         4         5         6         7         8         9
 total charge-density along one line
 
 soft charge-density along one line, spin component           2
         0         1         2         3         4         5         6         7         8         9
 total charge-density along one line
 
 pseudopotential strength for first ion, spin component:           1
 -6.576   0.000   0.003   0.000   0.001   0.089   0.000   0.000
  0.000  -6.574   0.000   0.003   0.000   0.000   0.089   0.000
  0.003   0.000  -6.573   0.000  -0.001   0.000   0.000   0.089
  0.000   0.003   0.000  -6.576   0.000   0.000   0.000   0.000
  0.001   0.000  -0.001   0.000  -6.572   0.000   0.000   0.000
  0.089   0.000   0.000   0.000   0.000   0.071   0.000   0.000
  0.000   0.089   0.000   0.000   0.000   0.000   0.071   0.000
  0.000   0.000   0.089   0.000   0.000   0.000   0.000   0.071
  0.000   0.000   0.000   0.089   0.000   0.000   0.000   0.000
  0.000   0.000   0.000   0.000   0.089   0.000   0.000   0.000
  0.000   0.000   0.000   0.000   0.000   0.000   0.000   0.000
  0.000   0.000   0.000   0.000   0.000   0.000   0.000   0.000
  0.000   0.000   0.000   0.000   0.000   0.000   0.000   0.000
  0.000   0.000   0.000   0.000   0.000   0.000   0.000   0.000
  0.000   0.000   0.000   0.000   0.000   0.000   0.000   0.000
  0.000   0.000   0.000   0.000   0.000   0.000   0.000   0.000
  0.000   0.000   0.000   0.000   0.000   0.000   0.000   0.000
  0.000   0.000   0.000   0.000   0.000   0.000   0.000   0.000
 pseudopotential strength for first ion, spin component:           2
 -6.575   0.000   0.003   0.000   0.002   0.090   0.000   0.000
  0.000  -6.573   0.000   0.003   0.000   0.000   0.090   0.000
  0.003   0.000  -6.573   0.000  -0.001   0.000   0.000   0.090
  0.000   0.003   0.000  -6.575   0.000   0.000   0.000   0.000
  0.002   0.000  -0.001   0.000  -6.572   0.000   0.000   0.000
  0.090   0.000   0.000   0.000   0.000   0.071   0.000   0.000
  0.000   0.090   0.000   0.000   0.000   0.000   0.071   0.000
  0.000   0.000   0.090   0.000   0.000   0.000   0.000   0.071
  0.000   0.000   0.000   0.090   0.000   0.000   0.000   0.000
  0.000   0.000   0.000   0.000   0.090   0.000   0.000   0.000
  0.000   0.000   0.000   0.000   0.000   0.000   0.000   0.000
  0.000   0.000   0.000   0.000   0.000   0.000   0.000   0.000
  0.000   0.000   0.000   0.000   0.000   0.000   0.000   0.000
  0.000   0.000   0.000   0.000   0.000   0.000   0.000   0.000
  0.000   0.000   0.000   0.000   0.000   0.000   0.000   0.000
  0.000   0.000   0.000   0.000   0.000   0.000   0.000   0.000
  0.000   0.000   0.000   0.000   0.000   0.000   0.000   0.000
  0.000   0.000   0.000   0.000   0.000   0.000   0.000   0.000
 total augmentation occupancy for first ion, spin component:           1
  0.641   0.000   0.079   0.000   0.046  -0.513   0.000  -0.019   0.000  -0.011   0.000   0.000   0.000   0.000   0.000   0.000
  0.000   0.706   0.000   0.091   0.000   0.000  -0.529   0.000  -0.023   0.000   0.000   0.000   0.000   0.000   0.000   0.000
  0.079   0.000   0.722   0.000  -0.028  -0.019   0.000  -0.533   0.000   0.007   0.000   0.000   0.000   0.000   0.000   0.000
  0.000   0.091   0.000   0.641   0.000   0.000  -0.023   0.000  -0.513   0.000   0.000   0.000   0.000   0.000   0.000   0.000
  0.046   0.000  -0.028   0.000   0.754  -0.011   0.000   0.007   0.000  -0.541   0.000   0.000   0.000   0.000   0.000   0.000
 -0.513   0.000  -0.019   0.000  -0.011   0.456   0.000  -0.014   0.000  -0.008   0.000   0.000   0.000   0.000   0.000   0.000
  0.000  -0.529   0.000  -0.023   0.000   0.000   0.444   0.000  -0.017   0.000   0.000   0.000   0.000   0.000   0.000   0.000
 -0.019   0.000  -0.533   0.000   0.007  -0.014   0.000   0.441   0.000   0.005   0.000   0.000   0.000   0.000   0.000   0.000
  0.000  -0.023   0.000  -0.513   0.000   0.000  -0.017   0.000   0.456   0.000   0.000   0.000   0.000   0.000   0.000   0.000
 -0.011   0.000   0.007   0.000  -0.541  -0.008   0.000   0.005   0.000   0.435   0.000   0.000   0.000   0.000   0.000   0.000
  0.000   0.000   0.000   0.000   0.000   0.000   0.000   0.000   0.000   0.000   1.402  -0.278   0.000   0.000   0.000   0.000
  0.000   0.000   0.000   0.000   0.000   0.000   0.000   0.000   0.000   0.000  -0.278   0.059   0.000   0.000   0.000   0.000
  0.000   0.000   0.000   0.000   0.000   0.000   0.000   0.000   0.000   0.000   0.000   0.000   0.300   0.000   0.000   0.012
  0.000   0.000   0.000   0.000   0.000   0.000   0.000   0.000   0.000   0.000   0.000   0.000   0.000   0.300   0.000   0.000
  0.000   0.000   0.000   0.000   0.000   0.000   0.000   0.000   0.000   0.000   0.000   0.000   0.000   0.000   0.300   0.000
  0.000   0.000   0.000   0.000   0.000   0.000   0.000   0.000   0.000   0.000   0.000   0.000   0.012   0.000   0.000   0.000
  0.000   0.000   0.000   0.000   0.000   0.000   0.000   0.000   0.000   0.000   0.000   0.000   0.000   0.012   0.000   0.000
  0.000   0.000   0.000   0.000   0.000   0.000   0.000   0.000   0.000   0.000   0.000   0.000   0.000   0.000   0.012   0.000
 total augmentation occupancy for first ion, spin component:           2
  0.000   0.000   0.000   0.000   0.000   0.000   0.000   0.000   0.000   0.000   0.000   0.000   0.000   0.000   0.000   0.000
  0.000   0.000   0.000   0.000   0.000   0.000   0.000   0.000   0.000   0.000   0.000   0.000   0.000   0.000   0.000   0.000
  0.000   0.000   0.000   0.000   0.000   0.000   0.000   0.000   0.000   0.000   0.000   0.000   0.000   0.000   0.000   0.000
  0.000   0.000   0.000   0.000   0.000   0.000   0.000   0.000   0.000   0.000   0.000   0.000   0.000   0.000   0.000   0.000
  0.000   0.000   0.000   0.000   0.000   0.000   0.000   0.000   0.000   0.000   0.000   0.000   0.000   0.000   0.000   0.000
  0.000   0.000   0.000   0.000   0.000   0.000   0.000   0.000   0.000   0.000   0.000   0.000   0.000   0.000   0.000   0.000
  0.000   0.000   0.000   0.000   0.000   0.000   0.000   0.000   0.000   0.000   0.000   0.000   0.000   0.000   0.000   0.000
  0.000   0.000   0.000   0.000   0.000   0.000   0.000   0.000   0.000   0.000   0.000   0.000   0.000   0.000   0.000   0.000
  0.000   0.000   0.000   0.000   0.000   0.000   0.000   0.000   0.000   0.000   0.000   0.000   0.000   0.000   0.000   0.000
  0.000   0.000   0.000   0.000   0.000   0.000   0.000   0.000   0.000   0.000   0.000   0.000   0.000   0.000   0.000   0.000
  0.000   0.000   0.000   0.000   0.000   0.000   0.000   0.000   0.000   0.000   0.000   0.001   0.000   0.000   0.000   0.000
  0.000   0.000   0.000   0.000   0.000   0.000   0.000   0.000   0.000   0.000   0.001   0.000   0.000   0.000   0.000   0.000
  0.000   0.000   0.000   0.000   0.000   0.000   0.000   0.000   0.000   0.000   0.000   0.000   0.000   0.000   0.000   0.000
  0.000   0.000   0.000   0.000   0.000   0.000   0.000   0.000   0.000   0.000   0.000   0.000   0.000   0.000   0.000   0.000
  0.000   0.000   0.000   0.000   0.000   0.000   0.000   0.000   0.000   0.000   0.000   0.000   0.000   0.000   0.000   0.000
  0.000   0.000   0.000   0.000   0.000   0.000   0.000   0.000   0.000   0.000   0.000   0.000   0.000   0.000   0.000   0.000
  0.000   0.000   0.000   0.000   0.000   0.000   0.000   0.000   0.000   0.000   0.000   0.000   0.000   0.000   0.000   0.000
  0.000   0.000   0.000   0.000   0.000   0.000   0.000   0.000   0.000   0.000   0.000   0.000   0.000   0.000   0.000   0.000


------------------------ aborting loop because EDIFF is reached ----------------------------------------


 


 total charge     
 
# of ion     s       p       d       tot
----------------------------------------
  1        0.708   0.694   3.345   4.748
 


 magnetization (x)
 
# of ion     s       p       d       tot
----------------------------------------
  1        0.000   0.001   0.004   0.006
 
    CHARGE:  cpu time    0.15: real time    0.15
    FORLOC:  cpu time    0.00: real time    0.00
    FORNL :  cpu time    0.29: real time    0.29
    STRESS:  cpu time    0.55: real time    0.55
    FORCOR:  cpu time    0.19: real time    0.19
    FORHAR:  cpu time    0.02: real time    0.02
    MIXING:  cpu time    0.01: real time    0.01

  FORCE on cell =-STRESS in cart. coord.  units (eV):
  Direction    XX          YY          ZZ          XY          YZ          ZX
  --------------------------------------------------------------------------------------
  Alpha Z    30.58334    30.58334    30.58334
  Ewald     -65.96700   -65.96700   -65.96700     0.00000     0.00000     0.00000
  Hartree     0.19666     0.19666     0.19666     0.00000     0.00000     0.00000
  E(xc)     -22.45526   -22.45526   -22.45526     0.00000     0.00000     0.00000
  Local       3.86505     3.86505     3.86505     0.00000     0.00000     0.00000
  n-local    -8.07062    -8.68146    -5.47846     1.72960    -2.23504    -1.69350
  augment     2.92142     2.92142     2.92142     0.00000     0.00000     0.00000
  Kinetic    59.81286    60.00822    54.66678    -0.48526     2.91663     1.79873
  Fock        0.00000     0.00000     0.00000     0.00000     0.00000     0.00000
  -------------------------------------------------------------------------------------
  Total      -0.10336    -0.10336    -0.10336     0.00000     0.00000     0.00000
  in kB      -9.13266    -9.13266    -9.13266     0.00000     0.00000     0.00000
  external pressure =       -9.13 kB  Pullay stress =        0.00 kB


 VOLUME and BASIS-vectors are now :
 -----------------------------------------------------------------------------
  energy-cutoff  :      400.00
  volume of cell :       18.13
      direct lattice vectors                 reciprocal lattice vectors
     2.866544087  0.000000000  0.000000000     0.348852126  0.123337852  0.213627426
    -0.955514696  2.702603683  0.000000000     0.000000000  0.370013556  0.213627426
    -0.955514696 -1.351301841  2.340523446     0.000000000  0.000000000  0.427254853

  length of vectors
     2.866544087  2.866544087  2.866544087     0.427254853  0.427254853  0.427254853


 FORCES acting on ions
    electron-ion (+dipol)            ewald-force                    non-local-force                 convergence-correction
 -----------------------------------------------------------------------------------------------
   -.192E-14 0.906E-15 -.848E-15   -.279E-15 -.214E-15 0.640E-15   -.310E-24 0.517E-24 0.000E+00   0.314E-15 0.129E-15 0.226E-15
 -----------------------------------------------------------------------------------------------
   -.192E-14 0.906E-15 -.848E-15   -.279E-15 -.214E-15 0.640E-15   -.310E-24 0.517E-24 0.000E+00   0.314E-15 0.129E-15 0.226E-15
 
 
 POSITION                                       TOTAL-FORCE (eV/Angst)
 -----------------------------------------------------------------------------------
      0.00000      0.00000      0.00000         0.000000      0.000000      0.000000
 -----------------------------------------------------------------------------------
    total drift:                                0.000000      0.000000      0.000000


--------------------------------------------------------------------------------------------------------



  FREE ENERGIE OF THE ION-ELECTRON SYSTEM (eV)
  ---------------------------------------------------
  free  energy   TOTEN  =       -11.863867 eV

  energy  without entropy=      -11.864475  energy(sigma->0) =      -11.864070
 


--------------------------------------------------------------------------------------------------------


    POTLOK:  cpu time    0.24: real time    0.24


--------------------------------------------------------------------------------------------------------


 writing wavefunctions
     LOOP+:  cpu time   27.76: real time   28.51
    4ORBIT:  cpu time    0.00: real time    0.00
 


 total charge     
 
# of ion     s       p       d       tot
----------------------------------------
  1        0.708   0.694   3.345   4.748
 


 magnetization (x)
 
# of ion     s       p       d       tot
----------------------------------------
  1        0.000   0.001   0.004   0.006
 

 total amount of memory used by VASP on root node    42968. kBytes
========================================================================

   base      :      30000. kBytes
   nonl-proj :       2172. kBytes
   fftplans  :       2284. kBytes
   grid      :       5440. kBytes
   one-center:         31. kBytes
   wavefun   :       3041. kBytes
 
  
  
 General timing and accounting informations for this job:
 ========================================================
  
                  Total CPU time used (sec):       28.387
                            User time (sec):       28.271
                          System time (sec):        0.116
                         Elapsed time (sec):       29.433
  
                   Maximum memory used (kb):           0.
                   Average memory used (kb):           0.
  
                          Minor page faults:        10307
                          Major page faults:            0
                 Voluntary context switches:         1121
