PROCAR lm decomposed
# of k-points:   44         # of bands:   6         # of ions:   1

 k-point    1 :    0.05000000 0.05000000 0.05000000     weight = 0.00800000

band   1 # energy   -1.55330591 # occ.  1.00000000
 
ion      s     py     pz     px    dxy    dyz    dz2    dxz    dx2    tot
  1  0.815  0.011  0.032  0.005  0.000  0.002  0.001  0.001  0.000  0.867
 
band   2 # energy    6.08104306 # occ.  0.00000000
 
ion      s     py     pz     px    dxy    dyz    dz2    dxz    dx2    tot
  1  0.000  0.002  0.000  0.005  0.098  0.001  0.003  0.016  0.909  1.033
 
band   3 # energy    6.08104306 # occ.  0.00000000
 
ion      s     py     pz     px    dxy    dyz    dz2    dxz    dx2    tot
  1  0.000  0.003  0.002  0.001  0.097  0.229  0.593  0.107  0.001  1.033
 
band   4 # energy    7.19586292 # occ.  0.00000000
 
ion      s     py     pz     px    dxy    dyz    dz2    dxz    dx2    tot
  1  0.000  0.005  0.015  0.003  0.075  0.447  0.252  0.224  0.009  1.030
 
band   5 # energy    9.43826589 # occ.  0.00000000
 
ion      s     py     pz     px    dxy    dyz    dz2    dxz    dx2    tot
  1  0.000  0.000  0.000  0.000  0.000  0.298  0.000  0.583  0.025  0.908
 
band   6 # energy    9.43826589 # occ.  0.00000000
 
ion      s     py     pz     px    dxy    dyz    dz2    dxz    dx2    tot
  1  0.000  0.000  0.000  0.000  0.684  0.002  0.132  0.009  0.080  0.908
 

 k-point    2 :    0.15000000 0.05000000 0.05000000     weight = 0.02400000

band   1 # energy   -0.43077272 # occ.  1.00000000
 
ion      s     py     pz     px    dxy    dyz    dz2    dxz    dx2    tot
  1  0.733  0.020  0.061  0.039  0.006  0.009  0.001  0.017  0.002  0.889
 
band   2 # energy    5.40799340 # occ.  1.00000000
 
ion      s     py     pz     px    dxy    dyz    dz2    dxz    dx2    tot
  1  0.000  0.007  0.002  0.000  0.156  0.202  0.453  0.052  0.151  1.024
 
band   3 # energy    5.59153923 # occ.  1.02206284
 
ion      s     py     pz     px    dxy    dyz    dz2    dxz    dx2    tot
  1  0.003  0.001  0.002  0.049  0.071  0.022  0.102  0.213  0.524  0.985
 
band   4 # energy    8.54518006 # occ.  0.00000000
 
ion      s     py     pz     px    dxy    dyz    dz2    dxz    dx2    tot
  1  0.002  0.015  0.046  0.001  0.075  0.254  0.273  0.225  0.105  0.996
 
band   5 # energy    9.12188261 # occ.  0.00000000
 
ion      s     py     pz     px    dxy    dyz    dz2    dxz    dx2    tot
  1  0.000  0.000  0.001  0.001  0.069  0.429  0.036  0.207  0.182  0.924
 
band   6 # energy    9.70613419 # occ.  0.00000000
 
ion      s     py     pz     px    dxy    dyz    dz2    dxz    dx2    tot
  1  0.000  0.001  0.000  0.000  0.569  0.039  0.087  0.190  0.029  0.916
 

 k-point    3 :    0.25000000 0.05000000 0.05000000     weight = 0.02400000

band   1 # energy    0.89494864 # occ.  1.00000000
 
ion      s     py     pz     px    dxy    dyz    dz2    dxz    dx2    tot
  1  0.568  0.024  0.072  0.052  0.037  0.024  0.000  0.111  0.038  0.925
 
band   2 # energy    4.75099893 # occ.  1.00000000
 
ion      s     py     pz     px    dxy    dyz    dz2    dxz    dx2    tot
  1  0.000  0.009  0.003  0.000  0.177  0.195  0.438  0.059  0.146  1.027
 
band   3 # energy    5.29021797 # occ.  1.00000000
 
ion      s     py     pz     px    dxy    dyz    dz2    dxz    dx2    tot
  1  0.036  0.010  0.030  0.171  0.078  0.001  0.085  0.235  0.289  0.937
 
band   4 # energy    9.34020003 # occ.  0.00000000
 
ion      s     py     pz     px    dxy    dyz    dz2    dxz    dx2    tot
  1  0.004  0.000  0.000  0.009  0.062  0.352  0.003  0.187  0.340  0.958
 
band   5 # energy   10.03391481 # occ.  0.00000000
 
ion      s     py     pz     px    dxy    dyz    dz2    dxz    dx2    tot
  1  0.000  0.002  0.001  0.000  0.554  0.047  0.105  0.185  0.035  0.929
 
band   6 # energy   10.51787492 # occ.  0.00000000
 
ion      s     py     pz     px    dxy    dyz    dz2    dxz    dx2    tot
  1  0.001  0.026  0.079  0.002  0.036  0.318  0.307  0.107  0.095  0.971
 

 k-point    4 :    0.35000000 0.05000000 0.05000000     weight = 0.02400000

band   1 # energy    1.52389888 # occ.  1.00000000
 
ion      s     py     pz     px    dxy    dyz    dz2    dxz    dx2    tot
  1  0.353  0.012  0.037  0.008  0.099  0.028  0.008  0.298  0.120  0.963
 
band   2 # energy    4.30140207 # occ.  1.00000000
 
ion      s     py     pz     px    dxy    dyz    dz2    dxz    dx2    tot
  1  0.000  0.011  0.004  0.000  0.213  0.184  0.414  0.071  0.138  1.035
 
band   3 # energy    6.10154599 # occ.  0.00000000
 
ion      s     py     pz     px    dxy    dyz    dz2    dxz    dx2    tot
  1  0.069  0.039  0.118  0.396  0.025  0.011  0.065  0.075  0.104  0.902
 
band   4 # energy    9.66262495 # occ.  0.00000000
 
ion      s     py     pz     px    dxy    dyz    dz2    dxz    dx2    tot
  1  0.023  0.001  0.004  0.024  0.052  0.416  0.014  0.157  0.288  0.981
 
band   5 # energy   10.39782751 # occ.  0.00000000
 
ion      s     py     pz     px    dxy    dyz    dz2    dxz    dx2    tot
  1  0.000  0.001  0.000  0.000  0.532  0.062  0.140  0.177  0.047  0.960
 
band   6 # energy   12.65354990 # occ.  0.00000000
 
ion      s     py     pz     px    dxy    dyz    dz2    dxz    dx2    tot
  1  0.000  0.025  0.076  0.007  0.032  0.216  0.318  0.096  0.193  0.964
 

 k-point    5 :    0.45000000 0.05000000 0.05000000     weight = 0.01200000

band   1 # energy    1.58145046 # occ.  1.00000000
 
ion      s     py     pz     px    dxy    dyz    dz2    dxz    dx2    tot
  1  0.278  0.003  0.009  0.006  0.123  0.026  0.014  0.368  0.149  0.974
 
band   2 # energy    4.14347428 # occ.  1.00000000
 
ion      s     py     pz     px    dxy    dyz    dz2    dxz    dx2    tot
  1  0.000  0.011  0.004  0.000  0.256  0.170  0.384  0.085  0.128  1.038
 
band   3 # energy    6.97711416 # occ.  0.00000000
 
ion      s     py     pz     px    dxy    dyz    dz2    dxz    dx2    tot
  1  0.000  0.067  0.200  0.534  0.002  0.014  0.032  0.007  0.029  0.886
 
band   4 # energy    9.64425870 # occ.  0.00000000
 
ion      s     py     pz     px    dxy    dyz    dz2    dxz    dx2    tot
  1  0.073  0.000  0.000  0.000  0.058  0.462  0.045  0.173  0.175  0.986
 
band   5 # energy   10.58239120 # occ.  0.00000000
 
ion      s     py     pz     px    dxy    dyz    dz2    dxz    dx2    tot
  1  0.000  0.000  0.000  0.000  0.492  0.082  0.184  0.164  0.061  0.983
 
band   6 # energy   13.79962767 # occ.  0.00000000
 
ion      s     py     pz     px    dxy    dyz    dz2    dxz    dx2    tot
  1  0.000  0.005  0.015  0.040  0.025  0.153  0.344  0.076  0.319  0.977
 

 k-point    6 :   -0.05000000 0.05000000 0.05000000     weight = 0.00600000

band   1 # energy   -1.96908418 # occ.  1.00000000
 
ion      s     py     pz     px    dxy    dyz    dz2    dxz    dx2    tot
  1  0.842  0.003  0.008  0.006  0.000  0.000  0.000  0.000  0.000  0.859
 
band   2 # energy    6.39956843 # occ.  0.00000000
 
ion      s     py     pz     px    dxy    dyz    dz2    dxz    dx2    tot
  1  0.000  0.004  0.001  0.000  0.260  0.173  0.390  0.087  0.130  1.045
 
band   3 # energy    6.39956887 # occ.  0.00000000
 
ion      s     py     pz     px    dxy    dyz    dz2    dxz    dx2    tot
  1  0.000  0.000  0.001  0.004  0.029  0.173  0.390  0.087  0.361  1.045
 
band   4 # energy    6.53679709 # occ.  0.00000000
 
ion      s     py     pz     px    dxy    dyz    dz2    dxz    dx2    tot
  1  0.000  0.000  0.000  0.000  0.058  0.349  0.000  0.174  0.465  1.047
 
band   5 # energy    9.30190386 # occ.  0.00000000
 
ion      s     py     pz     px    dxy    dyz    dz2    dxz    dx2    tot
  1  0.000  0.000  0.000  0.000  0.449  0.075  0.168  0.150  0.056  0.898
 
band   6 # energy    9.79874667 # occ.  0.00000000
 
ion      s     py     pz     px    dxy    dyz    dz2    dxz    dx2    tot
  1  0.000  0.000  0.000  0.000  0.154  0.231  0.058  0.462  0.019  0.925
 

 k-point    7 :    0.15000000 0.15000000 0.05000000     weight = 0.02400000

band   1 # energy    0.83947946 # occ.  1.00000000
 
ion      s     py     pz     px    dxy    dyz    dz2    dxz    dx2    tot
  1  0.623  0.064  0.090  0.032  0.011  0.060  0.000  0.030  0.001  0.912
 
band   2 # energy    4.86247010 # occ.  1.00000000
 
ion      s     py     pz     px    dxy    dyz    dz2    dxz    dx2    tot
  1  0.000  0.023  0.000  0.046  0.083  0.053  0.000  0.106  0.664  0.976
 
band   3 # energy    4.93472400 # occ.  1.00000000
 
ion      s     py     pz     px    dxy    dyz    dz2    dxz    dx2    tot
  1  0.006  0.035  0.000  0.018  0.039  0.230  0.561  0.115  0.005  1.008
 
band   4 # energy    9.19698671 # occ.  0.00000000
 
ion      s     py     pz     px    dxy    dyz    dz2    dxz    dx2    tot
  1  0.000  0.000  0.000  0.001  0.024  0.238  0.000  0.476  0.191  0.930
 
band   5 # energy   10.07943250 # occ.  0.00000000
 
ion      s     py     pz     px    dxy    dyz    dz2    dxz    dx2    tot
  1  0.004  0.001  0.000  0.000  0.726  0.021  0.096  0.010  0.091  0.949
 
band   6 # energy   10.44217413 # occ.  0.00000000
 
ion      s     py     pz     px    dxy    dyz    dz2    dxz    dx2    tot
  1  0.004  0.029  0.093  0.014  0.078  0.308  0.284  0.154  0.010  0.974
 

 k-point    8 :    0.25000000 0.15000000 0.05000000     weight = 0.04800000

band   1 # energy    2.00578755 # occ.  1.00000000
 
ion      s     py     pz     px    dxy    dyz    dz2    dxz    dx2    tot
  1  0.421  0.056  0.089  0.018  0.046  0.094  0.015  0.182  0.027  0.948
 
band   2 # energy    4.39064354 # occ.  1.00000000
 
ion      s     py     pz     px    dxy    dyz    dz2    dxz    dx2    tot
  1  0.000  0.049  0.003  0.024  0.175  0.227  0.225  0.001  0.295  0.999
 
band   3 # energy    4.96758737 # occ.  1.00000000
 
ion      s     py     pz     px    dxy    dyz    dz2    dxz    dx2    tot
  1  0.047  0.031  0.027  0.198  0.006  0.005  0.276  0.176  0.192  0.957
 
band   4 # energy    9.49800188 # occ.  0.00000000
 
ion      s     py     pz     px    dxy    dyz    dz2    dxz    dx2    tot
  1  0.003  0.000  0.000  0.009  0.004  0.311  0.000  0.359  0.265  0.950
 
band   5 # energy   10.42199954 # occ.  0.00000000
 
ion      s     py     pz     px    dxy    dyz    dz2    dxz    dx2    tot
  1  0.014  0.000  0.000  0.000  0.641  0.008  0.191  0.050  0.069  0.974
 
band   6 # energy   12.66812240 # occ.  0.00000000
 
ion      s     py     pz     px    dxy    dyz    dz2    dxz    dx2    tot
  1  0.002  0.053  0.121  0.028  0.104  0.247  0.243  0.101  0.057  0.957
 

 k-point    9 :    0.35000000 0.15000000 0.05000000     weight = 0.04800000

band   1 # energy    2.28396344 # occ.  1.00000000
 
ion      s     py     pz     px    dxy    dyz    dz2    dxz    dx2    tot
  1  0.250  0.031  0.041  0.004  0.072  0.072  0.037  0.360  0.107  0.973
 
band   2 # energy    4.17620870 # occ.  1.00000000
 
ion      s     py     pz     px    dxy    dyz    dz2    dxz    dx2    tot
  1  0.000  0.060  0.003  0.007  0.249  0.215  0.313  0.017  0.153  1.018
 
band   3 # energy    5.93255645 # occ.  0.00000000
 
ion      s     py     pz     px    dxy    dyz    dz2    dxz    dx2    tot
  1  0.025  0.051  0.118  0.389  0.038  0.043  0.080  0.022  0.149  0.916
 
band   4 # energy    9.75022278 # occ.  0.00000000
 
ion      s     py     pz     px    dxy    dyz    dz2    dxz    dx2    tot
  1  0.041  0.000  0.001  0.009  0.021  0.356  0.033  0.256  0.252  0.970
 
band   5 # energy   10.62355859 # occ.  0.00000000
 
ion      s     py     pz     px    dxy    dyz    dz2    dxz    dx2    tot
  1  0.009  0.002  0.002  0.013  0.495  0.011  0.292  0.148  0.012  0.984
 
band   6 # energy   14.52147872 # occ.  0.00000000
 
ion      s     py     pz     px    dxy    dyz    dz2    dxz    dx2    tot
  1  0.000  0.043  0.092  0.073  0.089  0.179  0.227  0.053  0.193  0.947
 

 k-point   10 :   -0.15000000 0.15000000 0.05000000     weight = 0.02400000

band   1 # energy   -1.15277542 # occ.  1.00000000
 
ion      s     py     pz     px    dxy    dyz    dz2    dxz    dx2    tot
  1  0.787  0.023  0.008  0.045  0.005  0.001  0.002  0.001  0.001  0.874
 
band   2 # energy    5.94583467 # occ.  0.00000000
 
ion      s     py     pz     px    dxy    dyz    dz2    dxz    dx2    tot
  1  0.000  0.003  0.000  0.002  0.002  0.675  0.000  0.337  0.015  1.034
 
band   3 # energy    6.17429916 # occ.  0.00000000
 
ion      s     py     pz     px    dxy    dyz    dz2    dxz    dx2    tot
  1  0.001  0.011  0.002  0.021  0.414  0.001  0.504  0.001  0.052  1.007
 
band   4 # energy    7.34977240 # occ.  0.00000000
 
ion      s     py     pz     px    dxy    dyz    dz2    dxz    dx2    tot
  1  0.000  0.013  0.000  0.007  0.109  0.013  0.000  0.006  0.873  1.021
 
band   5 # energy    8.62002572 # occ.  0.00000000
 
ion      s     py     pz     px    dxy    dyz    dz2    dxz    dx2    tot
  1  0.000  0.000  0.000  0.000  0.277  0.056  0.403  0.112  0.035  0.883
 
band   6 # energy    9.98145760 # occ.  0.00000000
 
ion      s     py     pz     px    dxy    dyz    dz2    dxz    dx2    tot
  1  0.002  0.000  0.002  0.000  0.092  0.247  0.081  0.494  0.012  0.929
 

 k-point   11 :    0.25000000 0.25000000 0.05000000     weight = 0.02400000

band   1 # energy    2.92480691 # occ.  1.00000000
 
ion      s     py     pz     px    dxy    dyz    dz2    dxz    dx2    tot
  1  0.239  0.015  0.084  0.007  0.002  0.343  0.122  0.172  0.000  0.984
 
band   2 # energy    4.28553491 # occ.  1.00000000
 
ion      s     py     pz     px    dxy    dyz    dz2    dxz    dx2    tot
  1  0.000  0.069  0.000  0.138  0.059  0.072  0.000  0.143  0.476  0.958
 
band   3 # energy    5.00350009 # occ.  1.00000000
 
ion      s     py     pz     px    dxy    dyz    dz2    dxz    dx2    tot
  1  0.043  0.187  0.053  0.093  0.228  0.017  0.306  0.009  0.028  0.963
 
band   4 # energy    9.81251854 # occ.  0.00000000
 
ion      s     py     pz     px    dxy    dyz    dz2    dxz    dx2    tot
  1  0.000  0.004  0.000  0.009  0.030  0.223  0.000  0.446  0.243  0.956
 
band   5 # energy   10.52015597 # occ.  0.00000000
 
ion      s     py     pz     px    dxy    dyz    dz2    dxz    dx2    tot
  1  0.042  0.003  0.000  0.001  0.473  0.030  0.362  0.015  0.059  0.986
 
band   6 # energy   14.95187948 # occ.  0.00000000
 
ion      s     py     pz     px    dxy    dyz    dz2    dxz    dx2    tot
  1  0.001  0.103  0.131  0.051  0.205  0.161  0.182  0.080  0.026  0.939
 

 k-point   12 :    0.35000000 0.25000000 0.05000000     weight = 0.02400000

band   1 # energy    3.10586683 # occ.  1.00000000
 
ion      s     py     pz     px    dxy    dyz    dz2    dxz    dx2    tot
  1  0.162  0.005  0.038  0.021  0.001  0.238  0.152  0.339  0.044  0.999
 
band   2 # energy    4.36961323 # occ.  1.00000000
 
ion      s     py     pz     px    dxy    dyz    dz2    dxz    dx2    tot
  1  0.001  0.187  0.004  0.037  0.338  0.093  0.117  0.034  0.159  0.969
 
band   3 # energy    5.24445711 # occ.  1.00000000
 
ion      s     py     pz     px    dxy    dyz    dz2    dxz    dx2    tot
  1  0.000  0.037  0.111  0.295  0.134  0.122  0.038  0.000  0.194  0.931
 
band   4 # energy   10.05194794 # occ.  0.00000000
 
ion      s     py     pz     px    dxy    dyz    dz2    dxz    dx2    tot
  1  0.024  0.009  0.001  0.002  0.015  0.303  0.132  0.250  0.230  0.966
 
band   5 # energy   10.56473950 # occ.  0.00000000
 
ion      s     py     pz     px    dxy    dyz    dz2    dxz    dx2    tot
  1  0.000  0.003  0.008  0.021  0.309  0.007  0.403  0.230  0.000  0.981
 
band   6 # energy   14.37537434 # occ.  0.00000000
 
ion      s     py     pz     px    dxy    dyz    dz2    dxz    dx2    tot
  1  0.678  0.000  0.040  0.017  0.000  0.093  0.012  0.037  0.035  0.912
 

 k-point   13 :   -0.25000000 0.25000000 0.05000000     weight = 0.02400000

band   1 # energy    0.16856122 # occ.  1.00000000
 
ion      s     py     pz     px    dxy    dyz    dz2    dxz    dx2    tot
  1  0.665  0.045  0.008  0.090  0.059  0.001  0.025  0.002  0.007  0.904
 
band   2 # energy    5.25746819 # occ.  1.00000000
 
ion      s     py     pz     px    dxy    dyz    dz2    dxz    dx2    tot
  1  0.000  0.003  0.000  0.002  0.000  0.681  0.000  0.340  0.003  1.029
 
band   3 # energy    5.60330560 # occ.  1.03225695
 
ion      s     py     pz     px    dxy    dyz    dz2    dxz    dx2    tot
  1  0.017  0.042  0.001  0.085  0.538  0.005  0.174  0.011  0.067  0.939
 
band   4 # energy    8.64482718 # occ.  0.00000000
 
ion      s     py     pz     px    dxy    dyz    dz2    dxz    dx2    tot
  1  0.000  0.005  0.000  0.010  0.099  0.047  0.656  0.093  0.012  0.923
 
band   5 # energy    8.96318046 # occ.  0.00000000
 
ion      s     py     pz     px    dxy    dyz    dz2    dxz    dx2    tot
  1  0.000  0.032  0.000  0.016  0.103  0.004  0.000  0.002  0.828  0.985
 
band   6 # energy   10.17750130 # occ.  0.00000000
 
ion      s     py     pz     px    dxy    dyz    dz2    dxz    dx2    tot
  1  0.007  0.000  0.003  0.000  0.065  0.251  0.103  0.503  0.008  0.941
 

 k-point   14 :   -0.15000000 0.25000000 0.05000000     weight = 0.02400000

band   1 # energy   -0.07062941 # occ.  1.00000000
 
ion      s     py     pz     px    dxy    dyz    dz2    dxz    dx2    tot
  1  0.700  0.076  0.030  0.041  0.020  0.016  0.005  0.002  0.002  0.894
 
band   2 # energy    5.62091039 # occ.  1.02833281
 
ion      s     py     pz     px    dxy    dyz    dz2    dxz    dx2    tot
  1  0.000  0.004  0.012  0.032  0.205  0.225  0.109  0.004  0.373  0.965
 
band   3 # energy    5.69180708 # occ.  0.20033250
 
ion      s     py     pz     px    dxy    dyz    dz2    dxz    dx2    tot
  1  0.003  0.024  0.002  0.007  0.063  0.517  0.189  0.179  0.033  1.016
 
band   4 # energy    8.06239065 # occ.  0.00000000
 
ion      s     py     pz     px    dxy    dyz    dz2    dxz    dx2    tot
  1  0.000  0.000  0.001  0.003  0.239  0.001  0.423  0.222  0.008  0.897
 
band   5 # energy    8.46937002 # occ.  0.00000000
 
ion      s     py     pz     px    dxy    dyz    dz2    dxz    dx2    tot
  1  0.001  0.050  0.001  0.003  0.236  0.034  0.131  0.023  0.512  0.991
 
band   6 # energy   10.38066232 # occ.  0.00000000
 
ion      s     py     pz     px    dxy    dyz    dz2    dxz    dx2    tot
  1  0.012  0.000  0.002  0.001  0.120  0.165  0.097  0.538  0.022  0.957
 

 k-point   15 :   -0.35000000 0.35000000 0.05000000     weight = 0.02400000

band   1 # energy    1.20619130 # occ.  1.00000000
 
ion      s     py     pz     px    dxy    dyz    dz2    dxz    dx2    tot
  1  0.453  0.030  0.008  0.059  0.277  0.001  0.081  0.002  0.035  0.945
 
band   2 # energy    4.66302629 # occ.  1.00000000
 
ion      s     py     pz     px    dxy    dyz    dz2    dxz    dx2    tot
  1  0.000  0.003  0.000  0.002  0.000  0.685  0.000  0.343  0.001  1.033
 
band   3 # energy    5.68666985 # occ.  0.27239235
 
ion      s     py     pz     px    dxy    dyz    dz2    dxz    dx2    tot
  1  0.067  0.127  0.000  0.253  0.338  0.016  0.026  0.031  0.042  0.899
 
band   4 # energy    9.17765033 # occ.  0.00000000
 
ion      s     py     pz     px    dxy    dyz    dz2    dxz    dx2    tot
  1  0.003  0.021  0.001  0.041  0.079  0.020  0.737  0.041  0.010  0.952
 
band   5 # energy   10.40539642 # occ.  0.00000000
 
ion      s     py     pz     px    dxy    dyz    dz2    dxz    dx2    tot
  1  0.020  0.002  0.003  0.004  0.049  0.276  0.050  0.551  0.006  0.961
 
band   6 # energy   11.09932257 # occ.  0.00000000
 
ion      s     py     pz     px    dxy    dyz    dz2    dxz    dx2    tot
  1  0.000  0.040  0.000  0.020  0.100  0.001  0.000  0.001  0.803  0.965
 

 k-point   16 :   -0.25000000 0.35000000 0.05000000     weight = 0.04800000

band   1 # energy    1.23269075 # occ.  1.00000000
 
ion      s     py     pz     px    dxy    dyz    dz2    dxz    dx2    tot
  1  0.538  0.090  0.028  0.060  0.134  0.030  0.041  0.003  0.002  0.925
 
band   2 # energy    4.91089606 # occ.  1.00000000
 
ion      s     py     pz     px    dxy    dyz    dz2    dxz    dx2    tot
  1  0.004  0.000  0.012  0.067  0.201  0.472  0.010  0.027  0.160  0.954
 
band   3 # energy    5.34280496 # occ.  1.00000000
 
ion      s     py     pz     px    dxy    dyz    dz2    dxz    dx2    tot
  1  0.018  0.055  0.003  0.064  0.145  0.254  0.078  0.267  0.094  0.980
 
band   4 # energy    8.36415806 # occ.  0.00000000
 
ion      s     py     pz     px    dxy    dyz    dz2    dxz    dx2    tot
  1  0.000  0.002  0.000  0.028  0.110  0.002  0.625  0.134  0.025  0.926
 
band   5 # energy   10.29794950 # occ.  0.00000000
 
ion      s     py     pz     px    dxy    dyz    dz2    dxz    dx2    tot
  1  0.004  0.064  0.000  0.000  0.046  0.090  0.136  0.070  0.559  0.971
 
band   6 # energy   10.68359711 # occ.  0.00000000
 
ion      s     py     pz     px    dxy    dyz    dz2    dxz    dx2    tot
  1  0.038  0.037  0.002  0.006  0.224  0.116  0.018  0.471  0.060  0.972
 

 k-point   17 :   -0.45000000 0.45000000 0.05000000     weight = 0.02400000

band   1 # energy    1.44924894 # occ.  1.00000000
 
ion      s     py     pz     px    dxy    dyz    dz2    dxz    dx2    tot
  1  0.300  0.003  0.007  0.006  0.484  0.000  0.107  0.000  0.061  0.969
 
band   2 # energy    4.33100839 # occ.  1.00000000
 
ion      s     py     pz     px    dxy    dyz    dz2    dxz    dx2    tot
  1  0.000  0.003  0.000  0.001  0.000  0.689  0.000  0.344  0.000  1.038
 
band   3 # energy    6.68928383 # occ.  0.00000000
 
ion      s     py     pz     px    dxy    dyz    dz2    dxz    dx2    tot
  1  0.029  0.228  0.000  0.455  0.056  0.035  0.000  0.070  0.007  0.879
 
band   4 # energy    9.33684070 # occ.  0.00000000
 
ion      s     py     pz     px    dxy    dyz    dz2    dxz    dx2    tot
  1  0.057  0.012  0.000  0.024  0.172  0.000  0.679  0.000  0.022  0.965
 
band   5 # energy   10.77497063 # occ.  0.00000000
 
ion      s     py     pz     px    dxy    dyz    dz2    dxz    dx2    tot
  1  0.009  0.031  0.001  0.061  0.008  0.289  0.000  0.579  0.001  0.979
 
band   6 # energy   13.04692234 # occ.  0.00000000
 
ion      s     py     pz     px    dxy    dyz    dz2    dxz    dx2    tot
  1  0.000  0.012  0.000  0.006  0.107  0.000  0.000  0.000  0.857  0.982
 

 k-point   18 :   -0.35000000 0.45000000 0.05000000     weight = 0.04800000

band   1 # energy    1.88910174 # occ.  1.00000000
 
ion      s     py     pz     px    dxy    dyz    dz2    dxz    dx2    tot
  1  0.324  0.047  0.025  0.011  0.403  0.020  0.089  0.000  0.039  0.957
 
band   2 # energy    4.60894281 # occ.  1.00000000
 
ion      s     py     pz     px    dxy    dyz    dz2    dxz    dx2    tot
  1  0.004  0.003  0.014  0.034  0.035  0.717  0.004  0.170  0.024  1.005
 
band   3 # energy    5.58998156 # occ.  1.02064146
 
ion      s     py     pz     px    dxy    dyz    dz2    dxz    dx2    tot
  1  0.044  0.136  0.002  0.261  0.085  0.000  0.005  0.261  0.113  0.906
 
band   4 # energy    8.90329030 # occ.  0.00000000
 
ion      s     py     pz     px    dxy    dyz    dz2    dxz    dx2    tot
  1  0.020  0.010  0.000  0.050  0.134  0.005  0.698  0.018  0.002  0.937
 
band   5 # energy   10.71849916 # occ.  0.00000000
 
ion      s     py     pz     px    dxy    dyz    dz2    dxz    dx2    tot
  1  0.056  0.007  0.001  0.047  0.010  0.229  0.008  0.467  0.158  0.984
 
band   6 # energy   12.68709927 # occ.  0.00000000
 
ion      s     py     pz     px    dxy    dyz    dz2    dxz    dx2    tot
  1  0.006  0.119  0.001  0.018  0.174  0.005  0.012  0.059  0.570  0.963
 

 k-point   19 :   -0.25000000 0.45000000 0.05000000     weight = 0.02400000

band   1 # energy    2.35576409 # occ.  1.00000000
 
ion      s     py     pz     px    dxy    dyz    dz2    dxz    dx2    tot
  1  0.367  0.094  0.026  0.043  0.136  0.215  0.066  0.000  0.003  0.951
 
band   2 # energy    4.31576544 # occ.  1.00000000
 
ion      s     py     pz     px    dxy    dyz    dz2    dxz    dx2    tot
  1  0.000  0.011  0.033  0.088  0.310  0.192  0.010  0.007  0.276  0.927
 
band   3 # energy    5.34870290 # occ.  1.00000000
 
ion      s     py     pz     px    dxy    dyz    dz2    dxz    dx2    tot
  1  0.016  0.122  0.033  0.055  0.000  0.259  0.116  0.305  0.072  0.978
 
band   4 # energy    8.67085091 # occ.  0.00000000
 
ion      s     py     pz     px    dxy    dyz    dz2    dxz    dx2    tot
  1  0.000  0.003  0.009  0.023  0.124  0.008  0.494  0.217  0.056  0.934
 
band   5 # energy   10.42398736 # occ.  0.00000000
 
ion      s     py     pz     px    dxy    dyz    dz2    dxz    dx2    tot
  1  0.083  0.000  0.005  0.002  0.022  0.259  0.133  0.296  0.179  0.979
 
band   6 # energy   12.75855224 # occ.  0.00000000
 
ion      s     py     pz     px    dxy    dyz    dz2    dxz    dx2    tot
  1  0.019  0.167  0.004  0.033  0.282  0.000  0.047  0.122  0.287  0.962
 

 k-point   20 :   -0.45000000-0.45000000 0.05000000     weight = 0.02400000

band   1 # energy    1.94499974 # occ.  1.00000000
 
ion      s     py     pz     px    dxy    dyz    dz2    dxz    dx2    tot
  1  0.247  0.010  0.023  0.005  0.511  0.007  0.096  0.004  0.064  0.966
 
band   2 # energy    4.50733437 # occ.  1.00000000
 
ion      s     py     pz     px    dxy    dyz    dz2    dxz    dx2    tot
  1  0.001  0.014  0.016  0.007  0.014  0.639  0.007  0.320  0.002  1.020
 
band   3 # energy    6.08387446 # occ.  0.00000000
 
ion      s     py     pz     px    dxy    dyz    dz2    dxz    dx2    tot
  1  0.000  0.184  0.000  0.368  0.006  0.094  0.000  0.189  0.044  0.886
 
band   4 # energy    8.85716718 # occ.  0.00000000
 
ion      s     py     pz     px    dxy    dyz    dz2    dxz    dx2    tot
  1  0.086  0.001  0.000  0.000  0.170  0.016  0.632  0.008  0.021  0.935
 
band   5 # energy   11.22651353 # occ.  0.00000000
 
ion      s     py     pz     px    dxy    dyz    dz2    dxz    dx2    tot
  1  0.000  0.065  0.000  0.131  0.017  0.214  0.000  0.427  0.135  0.989
 
band   6 # energy   13.93908086 # occ.  0.00000000
 
ion      s     py     pz     px    dxy    dyz    dz2    dxz    dx2    tot
  1  0.000  0.042  0.000  0.084  0.089  0.020  0.000  0.040  0.708  0.982
 

 k-point   21 :   -0.35000000-0.45000000 0.05000000     weight = 0.04800000

band   1 # energy    2.82583246 # occ.  1.00000000
 
ion      s     py     pz     px    dxy    dyz    dz2    dxz    dx2    tot
  1  0.214  0.050  0.027  0.000  0.405  0.113  0.110  0.016  0.035  0.969
 
band   2 # energy    4.37379604 # occ.  1.00000000
 
ion      s     py     pz     px    dxy    dyz    dz2    dxz    dx2    tot
  1  0.010  0.006  0.042  0.100  0.125  0.525  0.020  0.035  0.091  0.955
 
band   3 # energy    5.21375318 # occ.  1.00000000
 
ion      s     py     pz     px    dxy    dyz    dz2    dxz    dx2    tot
  1  0.003  0.163  0.013  0.174  0.007  0.002  0.021  0.437  0.103  0.924
 
band   4 # energy    9.13990122 # occ.  0.00000000
 
ion      s     py     pz     px    dxy    dyz    dz2    dxz    dx2    tot
  1  0.036  0.002  0.011  0.022  0.132  0.063  0.611  0.062  0.000  0.939
 
band   5 # energy   10.64462429 # occ.  0.00000000
 
ion      s     py     pz     px    dxy    dyz    dz2    dxz    dx2    tot
  1  0.045  0.022  0.002  0.065  0.004  0.213  0.003  0.300  0.323  0.974
 
band   6 # energy   15.04889523 # occ.  0.00000000
 
ion      s     py     pz     px    dxy    dyz    dz2    dxz    dx2    tot
  1  0.032  0.143  0.007  0.104  0.193  0.017  0.029  0.091  0.370  0.986
 

 k-point   22 :   -0.35000000-0.35000000 0.05000000     weight = 0.00800000

band   1 # energy    3.48544793 # occ.  1.00000000
 
ion      s     py     pz     px    dxy    dyz    dz2    dxz    dx2    tot
  1  0.178  0.000  0.000  0.000  0.061  0.367  0.206  0.183  0.008  1.003
 
band   2 # energy    4.47166403 # occ.  1.00000000
 
ion      s     py     pz     px    dxy    dyz    dz2    dxz    dx2    tot
  1  0.000  0.096  0.000  0.191  0.024  0.138  0.000  0.277  0.190  0.915
 
band   3 # energy    4.47166515 # occ.  1.00000000
 
ion      s     py     pz     px    dxy    dyz    dz2    dxz    dx2    tot
  1  0.000  0.127  0.096  0.064  0.495  0.047  0.000  0.024  0.062  0.915
 
band   4 # energy   10.10263708 # occ.  0.00000000
 
ion      s     py     pz     px    dxy    dyz    dz2    dxz    dx2    tot
  1  0.000  0.038  0.028  0.019  0.077  0.099  0.638  0.049  0.010  0.958
 
band   5 # energy   10.10263776 # occ.  0.00000000
 
ion      s     py     pz     px    dxy    dyz    dz2    dxz    dx2    tot
  1  0.000  0.028  0.000  0.057  0.049  0.143  0.000  0.286  0.395  0.958
 
band   6 # energy   14.66656725 # occ.  0.00000000
 
ion      s     py     pz     px    dxy    dyz    dz2    dxz    dx2    tot
  1  0.610  0.013  0.039  0.007  0.016  0.094  0.053  0.047  0.002  0.881
 

 k-point   23 :    0.15000000 0.15000000 0.15000000     weight = 0.00800000

band   1 # energy    2.22592120 # occ.  1.00000000
 
ion      s     py     pz     px    dxy    dyz    dz2    dxz    dx2    tot
  1  0.501  0.058  0.175  0.029  0.012  0.074  0.042  0.037  0.002  0.929
 
band   2 # energy    4.37806165 # occ.  1.00000000
 
ion      s     py     pz     px    dxy    dyz    dz2    dxz    dx2    tot
  1  0.000  0.029  0.000  0.065  0.088  0.024  0.001  0.064  0.723  0.994
 
band   3 # energy    4.37806165 # occ.  1.00000000
 
ion      s     py     pz     px    dxy    dyz    dz2    dxz    dx2    tot
  1  0.000  0.044  0.031  0.018  0.013  0.186  0.616  0.085  0.000  0.994
 
band   4 # energy   10.04637993 # occ.  0.00000000
 
ion      s     py     pz     px    dxy    dyz    dz2    dxz    dx2    tot
  1  0.000  0.000  0.000  0.000  0.002  0.291  0.000  0.533  0.133  0.959
 
band   5 # energy   10.04637993 # occ.  0.00000000
 
ion      s     py     pz     px    dxy    dyz    dz2    dxz    dx2    tot
  1  0.000  0.000  0.000  0.000  0.791  0.015  0.041  0.035  0.078  0.959
 
band   6 # energy   12.77577019 # occ.  0.00000000
 
ion      s     py     pz     px    dxy    dyz    dz2    dxz    dx2    tot
  1  0.004  0.050  0.149  0.025  0.055  0.329  0.185  0.165  0.007  0.968
 

 k-point   24 :    0.25000000 0.15000000 0.15000000     weight = 0.02400000
