<?xml version="1.0" encoding="ISO-8859-1"?>
<modeling>
 <generator>
  <i name="program" type="string">vasp </i>
  <i name="version" type="string">5.2.12  </i>
  <i name="subversion" type="string">11Nov11 complex                                                      parallel </i>
  <i name="platform" type="string">LinuxIFC </i>
  <i name="date" type="string">2012 10 14 </i>
  <i name="time" type="string">15:12:12 </i>
 </generator>
 <incar>
  <i type="string" name="PREC">accurate</i>
  <i name="ENCUT">    400.00000000</i>
  <i type="logical" name="LREAL"> F  </i>
  <i type="int" name="ISMEAR">     1</i>
  <i name="SIGMA">      0.05000000</i>
 </incar>
 <kpoints>
  <generation param="Monkhorst-Pack">
   <v type="int" name="divisions">      10       10       10 </v>
   <v name="usershift">      0.00000000       0.00000000       0.00000000 </v>
   <v name="genvec1">      0.10000000       0.00000000       0.00000000 </v>
   <v name="genvec2">      0.00000000       0.10000000       0.00000000 </v>
   <v name="genvec3">      0.00000000       0.00000000       0.10000000 </v>
   <v name="shift">      0.50000000       0.50000000       0.50000000 </v>
  </generation>
  <varray name="kpointlist" >
   <v>       0.05000000       0.05000000       0.05000000 </v>
   <v>       0.15000000       0.05000000       0.05000000 </v>
   <v>       0.25000000       0.05000000       0.05000000 </v>
   <v>       0.35000000       0.05000000       0.05000000 </v>
   <v>       0.45000000       0.05000000       0.05000000 </v>
   <v>      -0.05000000       0.05000000       0.05000000 </v>
   <v>       0.15000000       0.15000000       0.05000000 </v>
   <v>       0.25000000       0.15000000       0.05000000 </v>
   <v>       0.35000000       0.15000000       0.05000000 </v>
   <v>      -0.15000000       0.15000000       0.05000000 </v>
   <v>       0.25000000       0.25000000       0.05000000 </v>
   <v>       0.35000000       0.25000000       0.05000000 </v>
   <v>      -0.25000000       0.25000000       0.05000000 </v>
   <v>      -0.15000000       0.25000000       0.05000000 </v>
   <v>      -0.35000000       0.35000000       0.05000000 </v>
   <v>      -0.25000000       0.35000000       0.05000000 </v>
   <v>      -0.45000000       0.45000000       0.05000000 </v>
   <v>      -0.35000000       0.45000000       0.05000000 </v>
   <v>      -0.25000000       0.45000000       0.05000000 </v>
   <v>      -0.45000000      -0.45000000       0.05000000 </v>
   <v>      -0.35000000      -0.45000000       0.05000000 </v>
   <v>      -0.35000000      -0.35000000       0.05000000 </v>
   <v>       0.15000000       0.15000000       0.15000000 </v>
   <v>       0.25000000       0.15000000       0.15000000 </v>
   <v>       0.35000000       0.15000000       0.15000000 </v>
   <v>      -0.15000000       0.15000000       0.15000000 </v>
   <v>       0.25000000       0.25000000       0.15000000 </v>
   <v>      -0.25000000       0.25000000       0.15000000 </v>
   <v>      -0.35000000       0.35000000       0.15000000 </v>
   <v>      -0.25000000       0.35000000       0.15000000 </v>
   <v>      -0.45000000       0.45000000       0.15000000 </v>
   <v>      -0.35000000       0.45000000       0.15000000 </v>
   <v>      -0.45000000      -0.45000000       0.15000000 </v>
   <v>      -0.35000000      -0.45000000       0.15000000 </v>
   <v>       0.25000000       0.25000000       0.25000000 </v>
   <v>      -0.25000000       0.25000000       0.25000000 </v>
   <v>      -0.35000000       0.35000000       0.25000000 </v>
   <v>      -0.45000000       0.45000000       0.25000000 </v>
   <v>      -0.35000000       0.45000000       0.25000000 </v>
   <v>      -0.45000000      -0.45000000       0.25000000 </v>
   <v>      -0.35000000       0.35000000       0.35000000 </v>
   <v>      -0.45000000       0.45000000       0.35000000 </v>
   <v>      -0.45000000      -0.45000000       0.35000000 </v>
   <v>      -0.45000000       0.45000000       0.45000000 </v>
  </varray>
  <varray name="weights" >
   <v>       0.00800000 </v>
   <v>       0.02400000 </v>
   <v>       0.02400000 </v>
   <v>       0.02400000 </v>
   <v>       0.01200000 </v>
   <v>       0.00600000 </v>
   <v>       0.02400000 </v>
   <v>       0.04800000 </v>
   <v>       0.04800000 </v>
   <v>       0.02400000 </v>
   <v>       0.02400000 </v>
   <v>       0.02400000 </v>
   <v>       0.02400000 </v>
   <v>       0.02400000 </v>
   <v>       0.02400000 </v>
   <v>       0.04800000 </v>
   <v>       0.02400000 </v>
   <v>       0.04800000 </v>
   <v>       0.02400000 </v>
   <v>       0.02400000 </v>
   <v>       0.04800000 </v>
   <v>       0.00800000 </v>
   <v>       0.00800000 </v>
   <v>       0.02400000 </v>
   <v>       0.01200000 </v>
   <v>       0.00600000 </v>
   <v>       0.02400000 </v>
   <v>       0.02400000 </v>
   <v>       0.02400000 </v>
   <v>       0.02400000 </v>
   <v>       0.02400000 </v>
   <v>       0.04800000 </v>
   <v>       0.02400000 </v>
   <v>       0.02400000 </v>
   <v>       0.00200000 </v>
   <v>       0.00600000 </v>
   <v>       0.02400000 </v>
   <v>       0.02400000 </v>
   <v>       0.02400000 </v>
   <v>       0.02400000 </v>
   <v>       0.00600000 </v>
   <v>       0.02400000 </v>
   <v>       0.00800000 </v>
   <v>       0.00600000 </v>
  </varray>
 </kpoints>
 <parameters>
  <separator name="general" >
   <i type="string" name="SYSTEM">unknown system</i>
   <i type="logical" name="LCOMPAT"> F  </i>
  </separator>
  <separator name="electronic" >
   <i type="string" name="PREC">accura</i>
   <i name="ENMAX">    400.00000000</i>
   <i name="ENAUG">    332.07500000</i>
   <i name="EDIFF">      0.00010000</i>
   <i type="int" name="IALGO">    38</i>
   <i type="int" name="IWAVPR">    10</i>
   <i type="int" name="NBANDS">     6</i>
   <i name="NELECT">      5.00000000</i>
   <i type="int" name="TURBO">     0</i>
   <i type="int" name="IRESTART">     0</i>
   <i type="int" name="NREBOOT">     0</i>
   <i type="int" name="NMIN">     0</i>
   <i name="EREF">      0.00000000</i>
   <separator name="electronic smearing" >
    <i type="int" name="ISMEAR">     1</i>
    <i name="SIGMA">      0.05000000</i>
    <i name="KSPACING">      0.50000000</i>
    <i type="logical" name="KGAMMA"> T  </i>
   </separator>
   <separator name="electronic projectors" >
    <i type="logical" name="LREAL"> F  </i>
    <v name="ROPT">      0.00000000</v>
    <i type="int" name="LMAXPAW">  -100</i>
    <i type="int" name="LMAXMIX">     2</i>
    <i type="logical" name="NLSPLINE"> F  </i>
   </separator>
   <separator name="electronic startup" >
    <i type="int" name="ISTART">     0</i>
    <i type="int" name="ICHARG">     2</i>
    <i type="int" name="INIWAV">     1</i>
   </separator>
   <separator name="electronic spin" >
    <i type="int" name="ISPIN">     1</i>
    <i type="logical" name="LNONCOLLINEAR"> F  </i>
    <v name="MAGMOM">      1.00000000</v>
    <i name="NUPDOWN">     -1.00000000</i>
    <i type="logical" name="LSORBIT"> F  </i>
    <v name="SAXIS">      0.00000000      0.00000000      1.00000000</v>
    <i type="logical" name="LSPIRAL"> F  </i>
    <v name="QSPIRAL">      0.00000000      0.00000000      0.00000000</v>
    <i type="logical" name="LZEROZ"> F  </i>
   </separator>
   <separator name="electronic exchange-correlation" >
    <i type="logical" name="LASPH"> F  </i>
    <i type="logical" name="LMETAGGA"> F  </i>
   </separator>
   <separator name="electronic convergence" >
    <i type="int" name="NELM">    60</i>
    <i type="int" name="NELMDL">    -5</i>
    <i type="int" name="NELMIN">     2</i>
    <i name="ENINI">    400.00000000</i>
    <separator name="electronic convergence detail" >
     <i type="logical" name="LDIAG"> T  </i>
     <i type="logical" name="LSUBROT"> T  </i>
     <i name="WEIMIN">      0.00000000</i>
     <i name="EBREAK">      0.00000417</i>
     <i name="DEPER">      0.30000000</i>
     <i type="int" name="NRMM">     4</i>
     <i name="TIME">      0.40000000</i>
    </separator>
   </separator>
   <separator name="electronic mixer" >
    <i name="AMIX">      0.40000000</i>
    <i name="BMIX">      1.00000000</i>
    <i name="AMIN">      0.10000000</i>
    <i name="AMIX_MAG">      1.60000000</i>
    <i name="BMIX_MAG">      1.00000000</i>
    <separator name="electronic mixer details" >
     <i type="int" name="IMIX">     4</i>
     <i type="int" name="MAXMIX">   -45</i>
     <i name="WC">    100.00000000</i>
     <i type="int" name="INIMIX">     1</i>
     <i type="int" name="MIXPRE">     1</i>
     <i type="int" name="MREMOVE">     5</i>
    </separator>
   </separator>
   <separator name="electronic dipolcorrection" >
    <i type="logical" name="LDIPOL"> F  </i>
    <i type="logical" name="LMONO"> F  </i>
    <i type="int" name="IDIPOL">     0</i>
    <i name="EPSILON">      1.00000000</i>
    <v name="DIPOL">   -100.00000000   -100.00000000   -100.00000000</v>
    <i name="EFIELD">      0.00000000</i>
   </separator>
  </separator>
  <separator name="grids" >
   <i type="int" name="NGX">    20</i>
   <i type="int" name="NGY">    20</i>
   <i type="int" name="NGZ">    20</i>
   <i type="int" name="NGXF">    40</i>
   <i type="int" name="NGYF">    40</i>
   <i type="int" name="NGZF">    40</i>
   <i type="logical" name="ADDGRID"> F  </i>
  </separator>
  <separator name="ionic" >
   <i type="int" name="NSW">     0</i>
   <i type="int" name="IBRION">    -1</i>
   <i type="int" name="ISIF">     2</i>
   <i name="PSTRESS">      0.00000000</i>
   <i name="EDIFFG">      0.00100000</i>
   <i type="int" name="NFREE">     0</i>
   <i name="POTIM">      0.50000000</i>
   <i name="SMASS">     -3.00000000</i>
   <i name="SCALEE">      1.00000000</i>
  </separator>
  <separator name="ionic md" >
   <i name="TEBEG">      0.00010000</i>
   <i name="TEEND">      0.00010000</i>
   <i type="int" name="NBLOCK">     1</i>
   <i type="int" name="KBLOCK">     1</i>
   <i type="int" name="NPACO">   256</i>
   <i name="APACO">     16.00000000</i>
  </separator>
  <separator name="symmetry" >
   <i type="int" name="ISYM">     2</i>
   <i name="SYMPREC">      0.00001000</i>
  </separator>
  <separator name="dos" >
   <i type="logical" name="LORBIT"> F  </i>
   <v name="RWIGS">     -1.00000000</v>
   <i type="int" name="NEDOS">   301</i>
   <i name="EMIN">     10.00000000</i>
   <i name="EMAX">    -10.00000000</i>
   <i name="EFERMI">      0.00000000</i>
  </separator>
  <separator name="writing" >
   <i type="int" name="NWRITE">     2</i>
   <i type="logical" name="LWAVE"> T  </i>
   <i type="logical" name="LCHARG"> T  </i>
   <i type="logical" name="LPARD"> F  </i>
   <i type="logical" name="LVTOT"> F  </i>
   <i type="logical" name="LVHAR"> F  </i>
   <i type="logical" name="LELF"> F  </i>
   <i type="logical" name="LOPTICS"> F  </i>
   <v name="STM">      0.00000000      0.00000000      0.00000000      0.00000000      0.00000000      0.00000000      0.00000000</v>
  </separator>
  <separator name="performance" >
   <i type="int" name="NPAR">     1</i>
   <i type="int" name="NSIM">     4</i>
   <i type="int" name="NBLK">    -1</i>
   <i type="logical" name="LPLANE"> T  </i>
   <i type="logical" name="LSCALAPACK"> F  </i>
   <i type="logical" name="LSCAAWARE"> F  </i>
   <i type="logical" name="LSCALU"> F  </i>
   <i type="logical" name="LASYNC"> F  </i>
   <i type="logical" name="LORBITALREAL"> F  </i>
  </separator>
  <separator name="miscellaneous" >
   <i type="int" name="IDIOT">     3</i>
   <i type="logical" name="LMUSIC"> F  </i>
   <v name="POMASS">    180.94800000</v>
   <v name="DARWINR">      0.00000000</v>
   <v name="DARWINV">      1.00000000</v>
   <i type="logical" name="LCORR"> T  </i>
  </separator>
  <i type="logical" name="GGA_COMPAT"> T  </i>
  <i type="logical" name="LBERRY"> F  </i>
  <i type="int" name="ICORELEVEL">     0</i>
  <i type="logical" name="LDAU"> F  </i>
  <i type="int" name="I_CONSTRAINED_M">     0</i>
  <separator name="electronic exchange-correlation" >
   <i type="string" name="GGA">--</i>
   <i type="int" name="VOSKOWN">     0</i>
   <i type="logical" name="LHFCALC"> F  </i>
   <i type="string" name="PRECFOCK"></i>
   <i type="logical" name="LHFONE"> F  </i>
   <i type="logical" name="LRHFCALC"> F  </i>
   <i type="logical" name="LTHOMAS"> F  </i>
   <i type="logical" name="LMODELHF"> F  </i>
   <i name="ENCUT4O">     -1.00000000</i>
   <i type="int" name="EXXOEP">     0</i>
   <i type="int" name="FOURORBIT">     0</i>
   <i name="AEXX">      0.00000000</i>
   <i name="HFALPHA">      0.00000000</i>
   <i name="ALDAX">      1.00000000</i>
   <i name="AGGAX">      1.00000000</i>
   <i name="ALDAC">      1.00000000</i>
   <i name="AGGAC">      1.00000000</i>
   <i type="int" name="NKREDX">     1</i>
   <i type="int" name="NKREDY">     1</i>
   <i type="int" name="NKREDZ">     1</i>
   <i type="logical" name="SHIFTRED"> F  </i>
   <i type="logical" name="ODDONLY"> F  </i>
   <i type="logical" name="EVENONLY"> F  </i>
   <i type="int" name="LMAXFOCK">     0</i>
   <i type="int" name="NMAXFOCKAE">     0</i>
   <i type="logical" name="LFOCKAEDFT"> F  </i>
   <i name="HFSCREEN">      0.00000000</i>
   <i name="HFSCREENC">      0.00000000</i>
  </separator>
  <separator name="vdW DFT" >
   <i type="logical" name="LUSE_VDW"> F  </i>
   <i name="Zab_VDW">     -0.84910000</i>
   <i name="PARAM1">      0.12340000</i>
   <i name="PARAM2">      1.00000000</i>
   <i name="PARAM3">      0.00000000</i>
  </separator>
  <separator name="model GW" >
   <i type="int" name="MODEL_GW">     0</i>
   <i name="MODEL_EPS0">     10.87940730</i>
   <i name="MODEL_ALPHA">      1.00000000</i>
  </separator>
  <separator name="linear response parameters" >
   <i type="logical" name="LEPSILON"> F  </i>
   <i type="logical" name="LRPA"> F  </i>
   <i type="logical" name="LNABLA"> F  </i>
   <i type="logical" name="LVEL"> F  </i>
   <i type="int" name="KINTER">     0</i>
   <i name="CSHIFT">      0.10000000</i>
   <i name="OMEGAMAX">     -1.00000000</i>
  </separator>
  <separator name="orbital magnetization" >
   <i type="logical" name="NUCIND"> F  </i>
   <v name="MAGPOS">      0.00000000      0.00000000      0.00000000</v>
   <i type="logical" name="LNICSALL"> T  </i>
   <i type="logical" name="ORBITALMAG"> F  </i>
   <i type="logical" name="LMAGBLOCH"> F  </i>
   <i type="logical" name="LCHIMAG"> F  </i>
   <i type="logical" name="LGAUGE"> T  </i>
   <i type="int" name="MAGATOM">     0</i>
   <v name="MAGDIPOL">      0.00000000      0.00000000      0.00000000</v>
   <v name="AVECCONST">      0.00000000      0.00000000      0.00000000</v>
  </separator>
  <separator name="response functions" >
   <i type="logical" name="LADDER"> F  </i>
   <i type="logical" name="LHARTREE"> T  </i>
   <i type="int" name="IBSE">     0</i>
   <i type="logical" name="LTCTE"> F  </i>
   <i type="logical" name="LTETE"> F  </i>
   <i type="logical" name="LFXCEPS"> F  </i>
   <i type="logical" name="L2ORDER"> F  </i>
   <i type="logical" name="LUSEW"> F  </i>
   <i name="ENCUTGW">     -2.00000000</i>
   <i name="ENCUTGWSOFT">     -2.00000000</i>
   <i name="ENCUTLF">     -1.00000000</i>
   <i type="int" name="LMAXMP2">    -1</i>
   <i name="SCISSOR">      0.00000000</i>
   <i type="int" name="NOMEGA">     0</i>
   <i type="int" name="NOMEGAR">     0</i>
   <i type="int" name="NBANDSGW">    -1</i>
   <i type="int" name="NBANDSO">    -1</i>
   <i type="int" name="NBANDSV">    -1</i>
   <i name="OPTEMAX">      0.00000000</i>
   <i type="int" name="NELM">     1</i>
   <i type="int" name="DIM">     3</i>
   <i type="int" name="ANTIRES">     0</i>
   <i name="OMEGAMAX">    -30.00000000</i>
   <i name="OMEGATL">   -200.00000000</i>
   <i type="int" name="OMEGAGRID">     0</i>
   <i name="CSHIFT">     -0.10000000</i>
   <i type="logical" name="SELFENERGY"> F  </i>
   <i type="logical" name="LSPECTRAL"> F  </i>
   <i type="logical" name="ODDONLYGW"> F  </i>
   <i type="logical" name="EVENONLYGW"> F  </i>
   <i type="int" name="NKREDLFX">     1</i>
   <i type="int" name="NKREDLFY">     1</i>
   <i type="int" name="NKREDLFZ">     1</i>
   <i type="int" name="MAXMEM">  1800</i>
   <i type="int" name="TELESCOPE">     0</i>
  </separator>
 </parameters>
 <atominfo>
  <atoms>       1 </atoms>
  <types>       1 </types>
  <array name="atoms" >
   <dimension dim="1">ion</dimension>
   <field type="string">element</field>
   <field type="int">atomtype</field>
   <set>
    <rc><c>Ta</c><c>   1</c></rc>
   </set>
  </array>
  <array name="atomtypes" >
   <dimension dim="1">type</dimension>
   <field type="int">atomspertype</field>
   <field type="string">element</field>
   <field>mass</field>
   <field>valence</field>
   <field type="string">pseudopotential</field>
   <set>
    <rc><c>   1</c><c>Ta</c><c>    180.94800000</c><c>      5.00000000</c><c>  PAW_PBE Ta 17Jan2003                  </c></rc>
   </set>
  </array>
 </atominfo>
 <structure name="initialpos" >
  <crystal>
   <varray name="basis" >
    <v>       2.86654409       0.00000000       0.00000000 </v>
    <v>      -0.95551470       2.70260368       0.00000000 </v>
    <v>      -0.95551470      -1.35130184       2.34052345 </v>
   </varray>
   <i name="volume">     18.13234550 </i>
   <varray name="rec_basis" >
    <v>       0.34885213       0.12333785       0.21362743 </v>
    <v>       0.00000000       0.37001356       0.21362743 </v>
    <v>       0.00000000       0.00000000       0.42725485 </v>
   </varray>
  </crystal>
  <varray name="positions" >
   <v>       0.00000000       0.00000000       0.00000000 </v>
  </varray>
 </structure>
 <calculation>
  <scstep>
   <time name="dav">    0.70    0.79</time>
   <time name="total">    0.81    1.00</time>
   <energy>
    <i name="alphaZ">     30.58334069 </i>
    <i name="ewald">   -197.90100875 </i>
    <i name="hartreedc">     -2.50452612 </i>
    <i name="XCdc">    -66.68582606 </i>
    <i name="pawpsdc">    148.27821850 </i>
    <i name="pawaedc">    -73.99089003 </i>
    <i name="eentropy">      0.00023378 </i>
    <i name="bandstr">     29.83815766 </i>
    <i name="atom">    130.64884137 </i>
    <i name="e_fr_energy">     -1.73345896 </i>
    <i name="e_wo_entrp">     -1.73369274 </i>
    <i name="e_0_energy">     -1.73353689 </i>
   </energy>
  </scstep>
  <scstep>
   <time name="dav">    1.07    1.28</time>
   <time name="total">    1.07    1.38</time>
   <energy>
    <i name="e_fr_energy">    -12.29144231 </i>
    <i name="e_wo_entrp">    -12.29068245 </i>
    <i name="e_0_energy">    -12.29118902 </i>
   </energy>
  </scstep>
  <scstep>
   <time name="dav">    0.73    0.75</time>
   <time name="total">    0.73    0.78</time>
   <energy>
    <i name="e_fr_energy">    -12.34419593 </i>
    <i name="e_wo_entrp">    -12.34356046 </i>
    <i name="e_0_energy">    -12.34398411 </i>
   </energy>
  </scstep>
  <scstep>
   <time name="dav">    0.87    0.87</time>
   <time name="total">    0.87    1.09</time>
   <energy>
    <i name="e_fr_energy">    -12.34428628 </i>
    <i name="e_wo_entrp">    -12.34365110 </i>
    <i name="e_0_energy">    -12.34407455 </i>
   </energy>
  </scstep>
  <scstep>
   <time name="dav">    0.87    0.93</time>
   <time name="total">    0.95    1.09</time>
   <energy>
    <i name="e_fr_energy">    -12.34428643 </i>
    <i name="e_wo_entrp">    -12.34365125 </i>
    <i name="e_0_energy">    -12.34407470 </i>
   </energy>
  </scstep>
  <scstep>
   <time name="dav">    0.93    1.10</time>
   <time name="total">    1.12    1.33</time>
   <energy>
    <i name="e_fr_energy">    -12.01604021 </i>
    <i name="e_wo_entrp">    -12.01593396 </i>
    <i name="e_0_energy">    -12.01600479 </i>
   </energy>
  </scstep>
  <scstep>
   <time name="dav">    0.98    0.98</time>
   <time name="total">    1.17    1.19</time>
   <energy>
    <i name="e_fr_energy">    -11.86485032 </i>
    <i name="e_wo_entrp">    -11.86539395 </i>
    <i name="e_0_energy">    -11.86503153 </i>
   </energy>
  </scstep>
  <scstep>
   <time name="dav">    0.75    0.75</time>
   <time name="total">    1.01    1.09</time>
   <energy>
    <i name="e_fr_energy">    -11.86388680 </i>
    <i name="e_wo_entrp">    -11.86450366 </i>
    <i name="e_0_energy">    -11.86409242 </i>
   </energy>
  </scstep>
  <scstep>
   <time name="dav">    0.70    0.70</time>
   <time name="total">    0.81    0.83</time>
   <energy>
    <i name="alphaZ">     30.58334069 </i>
    <i name="ewald">   -197.90100875 </i>
    <i name="hartreedc">     -0.58985488 </i>
    <i name="XCdc">    -66.00236470 </i>
    <i name="pawpsdc">    192.98499547 </i>
    <i name="pawaedc">   -119.56366542 </i>
    <i name="eentropy">      0.00062273 </i>
    <i name="bandstr">     17.97519214 </i>
    <i name="atom">    130.64884137 </i>
    <i name="e_fr_energy">    -11.86390134 </i>
    <i name="e_wo_entrp">    -11.86452407 </i>
    <i name="e_0_energy">    -11.86410892 </i>
   </energy>
  </scstep>
  <parameters_embedded>
   <separator name="dft+d2" >
    <i type="logical" name="LVDW"> F  </i>
   </separator>
  </parameters_embedded>
  <structure>
   <crystal>
    <varray name="basis" >
     <v>       2.86654409       0.00000000       0.00000000 </v>
     <v>      -0.95551470       2.70260368       0.00000000 </v>
     <v>      -0.95551470      -1.35130184       2.34052345 </v>
    </varray>
    <i name="volume">     18.13234550 </i>
    <varray name="rec_basis" >
     <v>       0.34885213       0.12333785       0.21362743 </v>
     <v>       0.00000000       0.37001356       0.21362743 </v>
     <v>       0.00000000       0.00000000       0.42725485 </v>
    </varray>
   </crystal>
   <varray name="positions" >
    <v>       0.00000000       0.00000000       0.00000000 </v>
   </varray>
  </structure>
  <varray name="forces" >
   <v>       0.00000000       0.00000000       0.00000000 </v>
  </varray>
  <varray name="stress" >
   <v>      -9.24804275       0.00000000       0.00000000 </v>
   <v>       0.00000000      -9.24804275       0.00000000 </v>
   <v>       0.00000000       0.00000000      -9.24804275 </v>
  </varray>
  <energy>
   <i name="e_fr_energy">    -11.86390134 </i>
   <i name="e_wo_entrp">    -11.86410892 </i>
   <i name="e_0_energy">      0.00062273 </i>
  </energy>
  <time name="totalsc">    9.74   12.72</time>
  <eigenvalues>
   <array>
    <dimension dim="1">band</dimension>
    <dimension dim="2">kpoint</dimension>
    <dimension dim="3">spin</dimension>
    <field>eigene</field>
    <field>occ</field>
    <set>
     <set comment="spin 1">
      <set comment="kpoint 1">
       <r>   -1.5463    1.0000 </r>
       <r>    6.0874    0.0000 </r>
       <r>    6.0874    0.0000 </r>
       <r>    7.2023    0.0000 </r>
       <r>    9.4435    0.0000 </r>
       <r>    9.4435    0.0000 </r>
      </set>
      <set comment="kpoint 2">
       <r>   -0.4238    1.0000 </r>
       <r>    5.4143    1.0000 </r>
       <r>    5.5978    1.0267 </r>
       <r>    8.5516    0.0000 </r>
       <r>    9.1274    0.0000 </r>
       <r>    9.7114    0.0000 </r>
      </set>
      <set comment="kpoint 3">
       <r>    0.9019    1.0000 </r>
       <r>    4.7573    1.0000 </r>
       <r>    5.2966    1.0000 </r>
       <r>    9.3458    0.0000 </r>
       <r>   10.0392    0.0000 </r>
       <r>   10.5242    0.0000 </r>
      </set>
      <set comment="kpoint 4">
       <r>    1.5304    1.0000 </r>
       <r>    4.3077    1.0000 </r>
       <r>    6.1085    0.0000 </r>
       <r>    9.6683    0.0000 </r>
       <r>   10.4030    0.0000 </r>
       <r>   12.6596    0.0000 </r>
      </set>
      <set comment="kpoint 5">
       <r>    1.5878    1.0000 </r>
       <r>    4.1498    1.0000 </r>
       <r>    6.9844    0.0000 </r>
       <r>    9.6499    0.0000 </r>
       <r>   10.5875    0.0000 </r>
       <r>   13.8054    0.0000 </r>
      </set>
      <set comment="kpoint 6">
       <r>   -1.9621    1.0000 </r>
       <r>    6.4060    0.0000 </r>
       <r>    6.4060    0.0000 </r>
       <r>    6.5432    0.0000 </r>
       <r>    9.3072    0.0000 </r>
       <r>    9.8040    0.0000 </r>
      </set>
      <set comment="kpoint 7">
       <r>    0.8465    1.0000 </r>
       <r>    4.8687    1.0000 </r>
       <r>    4.9411    1.0000 </r>
       <r>    9.2025    0.0000 </r>
       <r>   10.0847    0.0000 </r>
       <r>   10.4486    0.0000 </r>
      </set>
      <set comment="kpoint 8">
       <r>    2.0126    1.0000 </r>
       <r>    4.3970    1.0000 </r>
       <r>    4.9741    1.0000 </r>
       <r>    9.5036    0.0000 </r>
       <r>   10.4273    0.0000 </r>
       <r>   12.6744    0.0000 </r>
      </set>
      <set comment="kpoint 9">
       <r>    2.2904    1.0000 </r>
       <r>    4.1826    1.0000 </r>
       <r>    5.9395    0.0000 </r>
       <r>    9.7558    0.0000 </r>
       <r>   10.6288    0.0000 </r>
       <r>   14.5275    0.0000 </r>
      </set>
      <set comment="kpoint 10">
       <r>   -1.1458    1.0000 </r>
       <r>    5.9522    0.0000 </r>
       <r>    6.1806    0.0000 </r>
       <r>    7.3562    0.0000 </r>
       <r>    8.6254    0.0000 </r>
       <r>    9.9867    0.0000 </r>
      </set>
      <set comment="kpoint 11">
       <r>    2.9314    1.0000 </r>
       <r>    4.2918    1.0000 </r>
       <r>    5.0102    1.0000 </r>
       <r>    9.8181    0.0000 </r>
       <r>   10.5255    0.0000 </r>
       <r>   14.9581    0.0000 </r>
      </set>
      <set comment="kpoint 12">
       <r>    3.1124    1.0000 </r>
       <r>    4.3760    1.0000 </r>
       <r>    5.2511    1.0000 </r>
       <r>   10.0575    0.0000 </r>
       <r>   10.5701    0.0000 </r>
       <r>   14.3830    0.0000 </r>
      </set>
      <set comment="kpoint 13">
       <r>    0.1756    1.0000 </r>
       <r>    5.2638    1.0000 </r>
       <r>    5.6095    1.0349 </r>
       <r>    8.6505    0.0000 </r>
       <r>    8.9695    0.0000 </r>
       <r>   10.1827    0.0000 </r>
      </set>
      <set comment="kpoint 14">
       <r>   -0.0636    1.0000 </r>
       <r>    5.6271    1.0172 </r>
       <r>    5.6982    0.1379 </r>
       <r>    8.0680    0.0000 </r>
       <r>    8.4757    0.0000 </r>
       <r>   10.3859    0.0000 </r>
      </set>
      <set comment="kpoint 15">
       <r>    1.2129    1.0000 </r>
       <r>    4.6694    1.0000 </r>
       <r>    5.6932    0.1985 </r>
       <r>    9.1835    0.0000 </r>
       <r>   10.4107    0.0000 </r>
       <r>   11.1055    0.0000 </r>
      </set>
      <set comment="kpoint 16">
       <r>    1.2396    1.0000 </r>
       <r>    4.9170    1.0000 </r>
       <r>    5.3492    1.0000 </r>
       <r>    8.3700    0.0000 </r>
       <r>   10.3040    0.0000 </r>
       <r>   10.6891    0.0000 </r>
      </set>
      <set comment="kpoint 17">
       <r>    1.4556    1.0000 </r>
       <r>    4.3373    1.0000 </r>
       <r>    6.6963    0.0000 </r>
       <r>    9.3426    0.0000 </r>
       <r>   10.7804    0.0000 </r>
       <r>   13.0527    0.0000 </r>
      </set>
      <set comment="kpoint 18">
       <r>    1.8956    1.0000 </r>
       <r>    4.6152    1.0000 </r>
       <r>    5.5965    1.0255 </r>
       <r>    8.9091    0.0000 </r>
       <r>   10.7241    0.0000 </r>
       <r>   12.6932    0.0000 </r>
      </set>
      <set comment="kpoint 19">
       <r>    2.3625    1.0000 </r>
       <r>    4.3218    1.0000 </r>
       <r>    5.3552    1.0000 </r>
       <r>    8.6767    0.0000 </r>
       <r>   10.4296    0.0000 </r>
       <r>   12.7648    0.0000 </r>
      </set>
      <set comment="kpoint 20">
       <r>    1.9513    1.0000 </r>
       <r>    4.5137    1.0000 </r>
       <r>    6.0906    0.0000 </r>
       <r>    8.8629    0.0000 </r>
       <r>   11.2323    0.0000 </r>
       <r>   13.9449    0.0000 </r>
      </set>
      <set comment="kpoint 21">
       <r>    2.8323    1.0000 </r>
       <r>    4.3800    1.0000 </r>
       <r>    5.2202    1.0000 </r>
       <r>    9.1458    0.0000 </r>
       <r>   10.6504    0.0000 </r>
       <r>   15.0550    0.0000 </r>
      </set>
      <set comment="kpoint 22">
       <r>    3.4919    1.0000 </r>
       <r>    4.4779    1.0000 </r>
       <r>    4.4779    1.0000 </r>
       <r>   10.1085    0.0000 </r>
       <r>   10.1085    0.0000 </r>
       <r>   14.6740    0.0000 </r>
      </set>
      <set comment="kpoint 23">
       <r>    2.2330    1.0000 </r>
       <r>    4.3844    1.0000 </r>
       <r>    4.3844    1.0000 </r>
       <r>   10.0517    0.0000 </r>
       <r>   10.0517    0.0000 </r>
       <r>   12.7821    0.0000 </r>
      </set>
      <set comment="kpoint 24">
       <r>    3.1401    1.0000 </r>
       <r>    4.1384    1.0000 </r>
       <r>    4.7829    1.0000 </r>
       <r>   10.2184    0.0000 </r>
       <r>   10.5293    0.0000 </r>
       <r>   14.9691    0.0000 </r>
      </set>
      <set comment="kpoint 25">
       <r>    3.1475    1.0000 </r>
       <r>    4.0664    1.0000 </r>
       <r>    5.6052    1.0327 </r>
       <r>   10.2785    0.0000 </r>
       <r>   10.6811    0.0000 </r>
       <r>   14.3692    0.0000 </r>
      </set>
      <set comment="kpoint 26">
       <r>   -0.3686    1.0000 </r>
       <r>    6.3638    0.0000 </r>
       <r>    6.3638    0.0000 </r>
       <r>    7.1684    0.0000 </r>
       <r>    7.3627    0.0000 </r>
       <r>   10.5822    0.0000 </r>
      </set>
      <set comment="kpoint 27">
       <r>    3.7411    1.0000 </r>
       <r>    4.4019    1.0000 </r>
       <r>    4.8307    1.0000 </r>
       <r>   10.5321    0.0000 </r>
       <r>   10.6618    0.0000 </r>
       <r>   13.6611    0.0000 </r>
      </set>
      <set comment="kpoint 28">
       <r>    0.8938    1.0000 </r>
       <r>    5.5124    1.0000 </r>
       <r>    6.0061    0.0000 </r>
       <r>    7.2344    0.0000 </r>
       <r>    8.7231    0.0000 </r>
       <r>   10.7863    0.0000 </r>
      </set>
      <set comment="kpoint 29">
       <r>    1.9381    1.0000 </r>
       <r>    4.8874    1.0000 </r>
       <r>    5.4985    1.0000 </r>
       <r>    8.0385    0.0000 </r>
       <r>   10.8504    0.0000 </r>
       <r>   10.8906    0.0000 </r>
      </set>
      <set comment="kpoint 30">
       <r>    2.0630    1.0000 </r>
       <r>    4.5685    1.0000 </r>
       <r>    6.1405    0.0000 </r>
       <r>    7.5164    0.0000 </r>
       <r>    9.9808    0.0000 </r>
       <r>   10.9517    0.0000 </r>
      </set>
      <set comment="kpoint 31">
       <r>    2.1608    1.0000 </r>
       <r>    5.2000    1.0000 </r>
       <r>    5.2586    1.0000 </r>
       <r>    8.0137    0.0000 </r>
       <r>   11.9888    0.0000 </r>
       <r>   12.8500    0.0000 </r>
      </set>
      <set comment="kpoint 32">
       <r>    2.7677    1.0000 </r>
       <r>    4.1839    1.0000 </r>
       <r>    5.7422   -0.0329 </r>
       <r>    8.1509    0.0000 </r>
       <r>   10.7205    0.0000 </r>
       <r>   12.9089    0.0000 </r>
      </set>
      <set comment="kpoint 33">
       <r>    2.7795    1.0000 </r>
       <r>    4.5628    1.0000 </r>
       <r>    5.2952    1.0000 </r>
       <r>    8.1457    0.0000 </r>
       <r>   11.7563    0.0000 </r>
       <r>   14.5640    0.0000 </r>
      </set>
      <set comment="kpoint 34">
       <r>    3.6480    1.0000 </r>
       <r>    3.7094    1.0000 </r>
       <r>    4.9716    1.0000 </r>
       <r>    9.4137    0.0000 </r>
       <r>   10.5827    0.0000 </r>
       <r>   15.3687    0.0000 </r>
      </set>
      <set comment="kpoint 35">
       <r>    4.4715    1.0000 </r>
       <r>    4.4715    1.0000 </r>
       <r>    4.4715    1.0000 </r>
       <r>   10.7403    0.0000 </r>
       <r>   10.7403    0.0000 </r>
       <r>   12.7460    0.0000 </r>
      </set>
      <set comment="kpoint 36">
       <r>    1.9704    1.0000 </r>
       <r>    4.7849    1.0000 </r>
       <r>    6.9540    0.0000 </r>
       <r>    6.9540    0.0000 </r>
       <r>    8.8818    0.0000 </r>
       <r>   10.6856    0.0000 </r>
      </set>
      <set comment="kpoint 37">
       <r>    2.7930    1.0000 </r>
       <r>    3.8552    1.0000 </r>
       <r>    7.0139    0.0000 </r>
       <r>    7.6051    0.0000 </r>
       <r>   10.5445    0.0000 </r>
       <r>   10.8356    0.0000 </r>
      </set>
      <set comment="kpoint 38">
       <r>    2.8276    1.0000 </r>
       <r>    3.7693    1.0000 </r>
       <r>    6.8436    0.0000 </r>
       <r>    7.4888    0.0000 </r>
       <r>   12.5400    0.0000 </r>
       <r>   12.8239    0.0000 </r>
      </set>
      <set comment="kpoint 39">
       <r>    3.1191    1.0000 </r>
       <r>    3.1812    1.0000 </r>
       <r>    6.8560    0.0000 </r>
       <r>    8.8323    0.0000 </r>
       <r>   10.8152    0.0000 </r>
       <r>   12.9273    0.0000 </r>
      </set>
      <set comment="kpoint 40">
       <r>    2.9097    1.0000 </r>
       <r>    3.2339    1.0000 </r>
       <r>    6.5787    0.0000 </r>
       <r>    9.3482    0.0000 </r>
       <r>   11.6591    0.0000 </r>
       <r>   15.2705    0.0000 </r>
      </set>
      <set comment="kpoint 41">
       <r>    2.8965    1.0000 </r>
       <r>    2.9956    1.0000 </r>
       <r>    8.6114    0.0000 </r>
       <r>    8.6114    0.0000 </r>
       <r>   10.7663    0.0000 </r>
       <r>   10.9450    0.0000 </r>
      </set>
      <set comment="kpoint 42">
       <r>    2.5163    1.0000 </r>
       <r>    2.6790    1.0000 </r>
       <r>    9.0764    0.0000 </r>
       <r>    9.0828    0.0000 </r>
       <r>   12.2592    0.0000 </r>
       <r>   13.0714    0.0000 </r>
      </set>
      <set comment="kpoint 43">
       <r>    2.3625    1.0000 </r>
       <r>    2.3625    1.0000 </r>
       <r>    9.0084    0.0000 </r>
       <r>   11.4368    0.0000 </r>
       <r>   11.4368    0.0000 </r>
       <r>   15.5794    0.0000 </r>
      </set>
      <set comment="kpoint 44">
       <r>    2.0605    1.0000 </r>
       <r>    2.1074    1.0000 </r>
       <r>   11.3405    0.0000 </r>
       <r>   11.3405    0.0000 </r>
       <r>   12.2483    0.0000 </r>
       <r>   13.5529    0.0000 </r>
      </set>
     </set>
    </set>
   </array>
  </eigenvalues>
  <separator name="orbital magnetization" >
   <v name="MAGDIPOLOUT">      0.00000000      0.00000000      0.00000000</v>
  </separator>
  <dos>
   <i name="efermi">      5.67391480 </i>
   <total>
    <array>
     <dimension dim="1">gridpoints</dimension>
     <dimension dim="2">spin</dimension>
     <field>energy</field>
     <field>total</field>
     <field>integrated</field>
     <set>
      <set comment="spin 1">
       <r>    -2.8392     0.0000     0.0000 </r>
       <r>    -2.7749     0.0000     0.0000 </r>
       <r>    -2.7106     0.0000     0.0000 </r>
       <r>    -2.6463     0.0000     0.0000 </r>
       <r>    -2.5820     0.0000     0.0000 </r>
       <r>    -2.5176     0.0000     0.0000 </r>
       <r>    -2.4533     0.0000     0.0000 </r>
       <r>    -2.3890     0.0000     0.0000 </r>
       <r>    -2.3247     0.0000     0.0000 </r>
       <r>    -2.2604     0.0000     0.0000 </r>
       <r>    -2.1960     0.0000     0.0000 </r>
       <r>    -2.1317     0.0000     0.0000 </r>
       <r>    -2.0674    -0.0010    -0.0001 </r>
       <r>    -2.0031     0.0020     0.0001 </r>
       <r>    -1.9388     0.1579     0.0102 </r>
       <r>    -1.8744     0.0307     0.0122 </r>
       <r>    -1.8101    -0.0030     0.0120 </r>
       <r>    -1.7458     0.0000     0.0120 </r>
       <r>    -1.6815    -0.0001     0.0120 </r>
       <r>    -1.6172    -0.0076     0.0115 </r>
       <r>    -1.5528     0.1050     0.0183 </r>
       <r>    -1.4885     0.1601     0.0286 </r>
       <r>    -1.4242    -0.0083     0.0280 </r>
       <r>    -1.3599    -0.0004     0.0280 </r>
       <r>    -1.2956    -0.0001     0.0280 </r>
       <r>    -1.2313    -0.0135     0.0271 </r>
       <r>    -1.1669     0.1443     0.0364 </r>
       <r>    -1.1026     0.6189     0.0762 </r>
       <r>    -1.0383     0.0002     0.0762 </r>
       <r>    -0.9740    -0.0036     0.0760 </r>
       <r>    -0.9097     0.0000     0.0760 </r>
       <r>    -0.8453     0.0000     0.0760 </r>
       <r>    -0.7810     0.0000     0.0760 </r>
       <r>    -0.7167     0.0000     0.0760 </r>
       <r>    -0.6524     0.0000     0.0760 </r>
       <r>    -0.5881     0.0000     0.0760 </r>
       <r>    -0.5237    -0.0060     0.0756 </r>
       <r>    -0.4594     0.0299     0.0775 </r>
       <r>    -0.3951     0.6747     0.1209 </r>
       <r>    -0.3308     0.2393     0.1363 </r>
       <r>    -0.2665    -0.0038     0.1361 </r>
       <r>    -0.2021    -0.0016     0.1360 </r>
       <r>    -0.1378    -0.0209     0.1346 </r>
       <r>    -0.0735     0.2720     0.1521 </r>
       <r>    -0.0092     0.5194     0.1855 </r>
       <r>     0.0551    -0.0237     0.1840 </r>
       <r>     0.1195    -0.0253     0.1824 </r>
       <r>     0.1838     0.5005     0.2146 </r>
       <r>     0.2481     0.2931     0.2334 </r>
       <r>     0.3124    -0.0219     0.2320 </r>
       <r>     0.3767    -0.0003     0.2320 </r>
       <r>     0.4410     0.0000     0.2320 </r>
       <r>     0.5054     0.0000     0.2320 </r>
       <r>     0.5697     0.0000     0.2320 </r>
       <r>     0.6340     0.0000     0.2320 </r>
       <r>     0.6983    -0.0001     0.2320 </r>
       <r>     0.7626    -0.0152     0.2310 </r>
       <r>     0.8270     0.1152     0.2384 </r>
       <r>     0.8913     1.2381     0.3181 </r>
       <r>     0.9556     0.9538     0.3794 </r>
       <r>     1.0199    -0.0506     0.3762 </r>
       <r>     1.0842    -0.0031     0.3760 </r>
       <r>     1.1486    -0.0457     0.3730 </r>
       <r>     1.2129     0.5855     0.4107 </r>
       <r>     1.2772     1.6909     0.5194 </r>
       <r>     1.3415     0.0178     0.5206 </r>
       <r>     1.4058    -0.0283     0.5188 </r>
       <r>     1.4702     0.5402     0.5535 </r>
       <r>     1.5345     0.6557     0.5957 </r>
       <r>     1.5988     0.5946     0.6339 </r>
       <r>     1.6631     0.1051     0.6407 </r>
       <r>     1.7274    -0.0106     0.6400 </r>
       <r>     1.7917    -0.0094     0.6394 </r>
       <r>     1.8561     0.0032     0.6396 </r>
       <r>     1.9204     1.4946     0.7357 </r>
       <r>     1.9847     1.7543     0.8486 </r>
       <r>     2.0490     1.6428     0.9542 </r>
       <r>     2.1133     0.8452     1.0086 </r>
       <r>     2.1777     0.6217     1.0486 </r>
       <r>     2.2420     0.3212     1.0692 </r>
       <r>     2.3063     1.1961     1.1462 </r>
       <r>     2.3706     1.2261     1.2250 </r>
       <r>     2.4349     0.4405     1.2534 </r>
       <r>     2.4993     0.1499     1.2630 </r>
       <r>     2.5636     0.5870     1.3008 </r>
       <r>     2.6279    -0.0299     1.2988 </r>
       <r>     2.6922     0.4931     1.3305 </r>
       <r>     2.7565     0.8349     1.3842 </r>
       <r>     2.8209     3.1259     1.5853 </r>
       <r>     2.8852     1.7695     1.6991 </r>
       <r>     2.9495     1.2827     1.7816 </r>
       <r>     3.0138     0.3171     1.8020 </r>
       <r>     3.0781     0.0296     1.8039 </r>
       <r>     3.1424     1.8842     1.9251 </r>
       <r>     3.2068     1.5223     2.0230 </r>
       <r>     3.2711     0.6920     2.0675 </r>
       <r>     3.3354     0.0128     2.0683 </r>
       <r>     3.3997    -0.0086     2.0678 </r>
       <r>     3.4640     0.0280     2.0696 </r>
       <r>     3.5284     0.2150     2.0834 </r>
       <r>     3.5927    -0.0156     2.0824 </r>
       <r>     3.6570     0.4700     2.1127 </r>
       <r>     3.7213     0.9703     2.1751 </r>
       <r>     3.7856     1.3944     2.2647 </r>
       <r>     3.8500     0.5020     2.2970 </r>
       <r>     3.9143     0.4456     2.3257 </r>
       <r>     3.9786    -0.0314     2.3237 </r>
       <r>     4.0429     0.0495     2.3269 </r>
       <r>     4.1072     0.2984     2.3460 </r>
       <r>     4.1716     1.9672     2.4726 </r>
       <r>     4.2359     2.2030     2.6143 </r>
       <r>     4.3002     0.7889     2.6650 </r>
       <r>     4.3645     2.9368     2.8539 </r>
       <r>     4.4288     4.0718     3.1158 </r>
       <r>     4.4931     0.7772     3.1658 </r>
       <r>     4.5575     1.2911     3.2488 </r>
       <r>     4.6218     1.9298     3.3730 </r>
       <r>     4.6861     1.1337     3.4459 </r>
       <r>     4.7504     0.4946     3.4777 </r>
       <r>     4.8147     1.4302     3.5697 </r>
       <r>     4.8791     1.4342     3.6619 </r>
       <r>     4.9434     2.6428     3.8319 </r>
       <r>     5.0077     2.8403     4.0146 </r>
       <r>     5.0720     0.5027     4.0469 </r>
       <r>     5.1363    -0.1041     4.0402 </r>
       <r>     5.2007     0.6444     4.0817 </r>
       <r>     5.2650     3.1439     4.2839 </r>
       <r>     5.3293     2.5973     4.4510 </r>
       <r>     5.3936     2.0253     4.5812 </r>
       <r>     5.4579     0.5997     4.6198 </r>
       <r>     5.5223     1.0544     4.6876 </r>
       <r>     5.5866     1.3998     4.7777 </r>
       <r>     5.6509     3.0776     4.9756 </r>
       <r>     5.7152     1.4510     5.0689 </r>
       <r>     5.7795     1.5947     5.1715 </r>
       <r>     5.8438    -0.0002     5.1715 </r>
       <r>     5.9082     0.0979     5.1778 </r>
       <r>     5.9725     1.9624     5.3040 </r>
       <r>     6.0368     0.8419     5.3581 </r>
       <r>     6.1011     1.2359     5.4376 </r>
       <r>     6.1654     1.7436     5.5498 </r>
       <r>     6.2298     0.6240     5.5899 </r>
       <r>     6.2941    -0.0407     5.5873 </r>
       <r>     6.3584     0.1564     5.5974 </r>
       <r>     6.4227     0.5263     5.6312 </r>
       <r>     6.4870     0.0671     5.6355 </r>
       <r>     6.5514     0.2044     5.6487 </r>
       <r>     6.6157     0.7043     5.6940 </r>
       <r>     6.6800     0.2158     5.7079 </r>
       <r>     6.7443     0.5685     5.7444 </r>
       <r>     6.8086     0.0120     5.7452 </r>
       <r>     6.8730     1.2279     5.8242 </r>
       <r>     6.9373     0.3323     5.8455 </r>
       <r>     7.0016     0.8059     5.8974 </r>
       <r>     7.0659     0.6302     5.9379 </r>
       <r>     7.1302    -0.0359     5.9356 </r>
       <r>     7.1946     0.2712     5.9530 </r>
       <r>     7.2589     0.8180     6.0056 </r>
       <r>     7.3232     0.1541     6.0156 </r>
       <r>     7.3875     0.7959     6.0667 </r>
       <r>     7.4518     0.0865     6.0723 </r>
       <r>     7.5161     1.0212     6.1380 </r>
       <r>     7.5805     0.6024     6.1767 </r>
       <r>     7.6448     0.6024     6.2155 </r>
       <r>     7.7091     0.0126     6.2163 </r>
       <r>     7.7734    -0.0046     6.2160 </r>
       <r>     7.8377     0.0000     6.2160 </r>
       <r>     7.9021    -0.0029     6.2158 </r>
       <r>     7.9664    -0.0388     6.2133 </r>
       <r>     8.0307     0.9073     6.2717 </r>
       <r>     8.0950     1.2644     6.3530 </r>
       <r>     8.1593     1.6155     6.4569 </r>
       <r>     8.2237     0.7948     6.5080 </r>
       <r>     8.2880    -0.0936     6.5020 </r>
       <r>     8.3523     0.3594     6.5251 </r>
       <r>     8.4166     1.1625     6.5999 </r>
       <r>     8.4809     0.4217     6.6270 </r>
       <r>     8.5453     0.6098     6.6662 </r>
       <r>     8.6096     0.8245     6.7193 </r>
       <r>     8.6739     1.7443     6.8315 </r>
       <r>     8.7382     1.0919     6.9017 </r>
       <r>     8.8025     0.2014     6.9146 </r>
       <r>     8.8668     1.1370     6.9878 </r>
       <r>     8.9312     1.7912     7.1030 </r>
       <r>     8.9955     0.9288     7.1627 </r>
       <r>     9.0598     0.5235     7.1964 </r>
       <r>     9.1241     1.7908     7.3116 </r>
       <r>     9.1884     2.3610     7.4634 </r>
       <r>     9.2528     0.8348     7.5171 </r>
       <r>     9.3171     0.3146     7.5374 </r>
       <r>     9.3814     2.0449     7.6689 </r>
       <r>     9.4457     0.9810     7.7320 </r>
       <r>     9.5100     1.2437     7.8120 </r>
       <r>     9.5744     0.5878     7.8498 </r>
       <r>     9.6387     0.1271     7.8580 </r>
       <r>     9.7030     1.1646     7.9329 </r>
       <r>     9.7673     1.5922     8.0353 </r>
       <r>     9.8316     1.1933     8.1120 </r>
       <r>     9.8960     0.1832     8.1238 </r>
       <r>     9.9603     0.1923     8.1362 </r>
       <r>    10.0246     1.5487     8.2358 </r>
       <r>    10.0889     2.2218     8.3787 </r>
       <r>    10.1532     0.8464     8.4331 </r>
       <r>    10.2175     0.9608     8.4949 </r>
       <r>    10.2819     0.9285     8.5547 </r>
       <r>    10.3462     1.3069     8.6387 </r>
       <r>    10.4105     2.0809     8.7726 </r>
       <r>    10.4748     3.1119     8.9727 </r>
       <r>    10.5391     2.4970     9.1333 </r>
       <r>    10.6035     3.2991     9.3455 </r>
       <r>    10.6678     3.5083     9.5712 </r>
       <r>    10.7321     4.4307     9.8561 </r>
       <r>    10.7964     2.5198    10.0182 </r>
       <r>    10.8607     2.2096    10.1603 </r>
       <r>    10.9251     1.1117    10.2318 </r>
       <r>    10.9894     0.8006    10.2833 </r>
       <r>    11.0537    -0.0047    10.2830 </r>
       <r>    11.1180     0.5393    10.3177 </r>
       <r>    11.1823     0.2227    10.3320 </r>
       <r>    11.2467     0.5413    10.3669 </r>
       <r>    11.3110     0.2535    10.3832 </r>
       <r>    11.3753     0.2910    10.4019 </r>
       <r>    11.4396     0.3084    10.4217 </r>
       <r>    11.5039     0.2387    10.4371 </r>
       <r>    11.5682    -0.0267    10.4354 </r>
       <r>    11.6326     0.0936    10.4414 </r>
       <r>    11.6969     0.6197    10.4812 </r>
       <r>    11.7612     0.4826    10.5123 </r>
       <r>    11.8255     0.3307    10.5336 </r>
       <r>    11.8898    -0.0301    10.5316 </r>
       <r>    11.9542     0.0380    10.5341 </r>
       <r>    12.0185     0.6526    10.5760 </r>
       <r>    12.0828     0.0702    10.5806 </r>
       <r>    12.1471    -0.0125    10.5797 </r>
       <r>    12.2114    -0.0056    10.5794 </r>
       <r>    12.2758     0.7470    10.6274 </r>
       <r>    12.3401     0.2144    10.6412 </r>
       <r>    12.4044    -0.0192    10.6400 </r>
       <r>    12.4687    -0.0228    10.6385 </r>
       <r>    12.5330     0.3078    10.6583 </r>
       <r>    12.5974     0.4067    10.6845 </r>
       <r>    12.6617     0.9841    10.7478 </r>
       <r>    12.7260     2.7934    10.9274 </r>
       <r>    12.7903     0.9096    10.9860 </r>
       <r>    12.8546     1.2271    11.0649 </r>
       <r>    12.9190     1.7173    11.1753 </r>
       <r>    12.9833     0.9749    11.2380 </r>
       <r>    13.0476     0.3866    11.2629 </r>
       <r>    13.1119     1.0952    11.3333 </r>
       <r>    13.1762    -0.0155    11.3323 </r>
       <r>    13.2405    -0.0053    11.3320 </r>
       <r>    13.3049     0.0000    11.3320 </r>
       <r>    13.3692     0.0000    11.3320 </r>
       <r>    13.4335    -0.0003    11.3320 </r>
       <r>    13.4978    -0.0058    11.3316 </r>
       <r>    13.5621     0.1216    11.3394 </r>
       <r>    13.6265     0.1081    11.3464 </r>
       <r>    13.6908     0.6461    11.3879 </r>
       <r>    13.7551     0.0622    11.3919 </r>
       <r>    13.8194     0.2717    11.4094 </r>
       <r>    13.8837     0.0851    11.4149 </r>
       <r>    13.9481     0.4301    11.4426 </r>
       <r>    14.0124     0.3584    11.4656 </r>
       <r>    14.0767    -0.0245    11.4640 </r>
       <r>    14.1410    -0.0005    11.4640 </r>
       <r>    14.2053     0.0000    11.4640 </r>
       <r>    14.2697    -0.0054    11.4637 </r>
       <r>    14.3340     0.0026    11.4638 </r>
       <r>    14.3983     0.8982    11.5216 </r>
       <r>    14.4626     0.1888    11.5337 </r>
       <r>    14.5269     0.7861    11.5843 </r>
       <r>    14.5912     1.4561    11.6779 </r>
       <r>    14.6556     0.0953    11.6841 </r>
       <r>    14.7199     0.1890    11.6962 </r>
       <r>    14.7842    -0.0026    11.6961 </r>
       <r>    14.8485    -0.0053    11.6957 </r>
       <r>    14.9128    -0.0304    11.6938 </r>
       <r>    14.9772     1.0658    11.7623 </r>
       <r>    15.0415     0.9164    11.8213 </r>
       <r>    15.1058     1.0778    11.8906 </r>
       <r>    15.1701    -0.0420    11.8879 </r>
       <r>    15.2344     0.0259    11.8896 </r>
       <r>    15.2988     0.6265    11.9298 </r>
       <r>    15.3631     0.4072    11.9560 </r>
       <r>    15.4274     0.4609    11.9857 </r>
       <r>    15.4917    -0.0292    11.9838 </r>
       <r>    15.5560     0.0399    11.9864 </r>
       <r>    15.6204     0.2106    11.9999 </r>
       <r>    15.6847     0.0027    12.0001 </r>
       <r>    15.7490    -0.0014    12.0000 </r>
       <r>    15.8133     0.0000    12.0000 </r>
       <r>    15.8776     0.0000    12.0000 </r>
       <r>    15.9419     0.0000    12.0000 </r>
       <r>    16.0063     0.0000    12.0000 </r>
       <r>    16.0706     0.0000    12.0000 </r>
       <r>    16.1349     0.0000    12.0000 </r>
       <r>    16.1992     0.0000    12.0000 </r>
       <r>    16.2635     0.0000    12.0000 </r>
       <r>    16.3279     0.0000    12.0000 </r>
       <r>    16.3922     0.0000    12.0000 </r>
       <r>    16.4565     0.0000    12.0000 </r>
      </set>
     </set>
    </array>
   </total>
  </dos>
 </calculation>
 <structure name="finalpos" >
  <crystal>
   <varray name="basis" >
    <v>       2.86654409       0.00000000       0.00000000 </v>
    <v>      -0.95551470       2.70260368       0.00000000 </v>
    <v>      -0.95551470      -1.35130184       2.34052345 </v>
   </varray>
   <i name="volume">     18.13234550 </i>
   <varray name="rec_basis" >
    <v>       0.34885213       0.12333785       0.21362743 </v>
    <v>       0.00000000       0.37001356       0.21362743 </v>
    <v>       0.00000000       0.00000000       0.42725485 </v>
   </varray>
  </crystal>
  <varray name="positions" >
   <v>       0.00000000       0.00000000       0.00000000 </v>
  </varray>
 </structure>
</modeling>
