<?xml version="1.0" encoding="ISO-8859-1"?>
<modeling>
 <generator>
  <i name="program" type="string">vasp </i>
  <i name="version" type="string">5.2.12  </i>
  <i name="subversion" type="string">11Nov11 complex                                                      parallel </i>
  <i name="platform" type="string">LinuxIFC </i>
  <i name="date" type="string">2012 10 17 </i>
  <i name="time" type="string">10:12:41 </i>
 </generator>
 <incar>
  <i type="int" name="ISTART">     0</i>
  <i type="string" name="PREC">accurate</i>
  <i type="int" name="ISPIN">     2</i>
  <i name="ENCUT">    400.00000000</i>
  <i type="int" name="NBANDS">     6</i>
  <v name="MAGMOM">      6.00000000</v>
  <i type="logical" name="LREAL"> F  </i>
  <i type="int" name="ISMEAR">     1</i>
  <i name="SIGMA">      0.05000000</i>
  <i type="logical" name="LORBIT"> F  </i>
 </incar>
 <kpoints>
  <generation param="Monkhorst-Pack">
   <v type="int" name="divisions">      10       10       10 </v>
   <v name="usershift">      0.00000000       0.00000000       0.00000000 </v>
   <v name="genvec1">      0.10000000       0.00000000       0.00000000 </v>
   <v name="genvec2">      0.00000000       0.10000000       0.00000000 </v>
   <v name="genvec3">      0.00000000       0.00000000       0.10000000 </v>
   <v name="shift">      0.50000000       0.50000000       0.50000000 </v>
  </generation>
  <varray name="kpointlist" >
   <v>       0.05000000       0.05000000       0.05000000 </v>
   <v>       0.15000000       0.05000000       0.05000000 </v>
   <v>       0.25000000       0.05000000       0.05000000 </v>
   <v>       0.35000000       0.05000000       0.05000000 </v>
   <v>       0.45000000       0.05000000       0.05000000 </v>
   <v>      -0.05000000       0.05000000       0.05000000 </v>
   <v>       0.15000000       0.15000000       0.05000000 </v>
   <v>       0.25000000       0.15000000       0.05000000 </v>
   <v>       0.35000000       0.15000000       0.05000000 </v>
   <v>      -0.15000000       0.15000000       0.05000000 </v>
   <v>       0.25000000       0.25000000       0.05000000 </v>
   <v>       0.35000000       0.25000000       0.05000000 </v>
   <v>      -0.25000000       0.25000000       0.05000000 </v>
   <v>      -0.15000000       0.25000000       0.05000000 </v>
   <v>      -0.35000000       0.35000000       0.05000000 </v>
   <v>      -0.25000000       0.35000000       0.05000000 </v>
   <v>      -0.45000000       0.45000000       0.05000000 </v>
   <v>      -0.35000000       0.45000000       0.05000000 </v>
   <v>      -0.25000000       0.45000000       0.05000000 </v>
   <v>      -0.45000000      -0.45000000       0.05000000 </v>
   <v>      -0.35000000      -0.45000000       0.05000000 </v>
   <v>      -0.35000000      -0.35000000       0.05000000 </v>
   <v>       0.15000000       0.15000000       0.15000000 </v>
   <v>       0.25000000       0.15000000       0.15000000 </v>
   <v>       0.35000000       0.15000000       0.15000000 </v>
   <v>      -0.15000000       0.15000000       0.15000000 </v>
   <v>       0.25000000       0.25000000       0.15000000 </v>
   <v>      -0.25000000       0.25000000       0.15000000 </v>
   <v>      -0.35000000       0.35000000       0.15000000 </v>
   <v>      -0.25000000       0.35000000       0.15000000 </v>
   <v>      -0.45000000       0.45000000       0.15000000 </v>
   <v>      -0.35000000       0.45000000       0.15000000 </v>
   <v>      -0.45000000      -0.45000000       0.15000000 </v>
   <v>      -0.35000000      -0.45000000       0.15000000 </v>
   <v>       0.25000000       0.25000000       0.25000000 </v>
   <v>      -0.25000000       0.25000000       0.25000000 </v>
   <v>      -0.35000000       0.35000000       0.25000000 </v>
   <v>      -0.45000000       0.45000000       0.25000000 </v>
   <v>      -0.35000000       0.45000000       0.25000000 </v>
   <v>      -0.45000000      -0.45000000       0.25000000 </v>
   <v>      -0.35000000       0.35000000       0.35000000 </v>
   <v>      -0.45000000       0.45000000       0.35000000 </v>
   <v>      -0.45000000      -0.45000000       0.35000000 </v>
   <v>      -0.45000000       0.45000000       0.45000000 </v>
  </varray>
  <varray name="weights" >
   <v>       0.00800000 </v>
   <v>       0.02400000 </v>
   <v>       0.02400000 </v>
   <v>       0.02400000 </v>
   <v>       0.01200000 </v>
   <v>       0.00600000 </v>
   <v>       0.02400000 </v>
   <v>       0.04800000 </v>
   <v>       0.04800000 </v>
   <v>       0.02400000 </v>
   <v>       0.02400000 </v>
   <v>       0.02400000 </v>
   <v>       0.02400000 </v>
   <v>       0.02400000 </v>
   <v>       0.02400000 </v>
   <v>       0.04800000 </v>
   <v>       0.02400000 </v>
   <v>       0.04800000 </v>
   <v>       0.02400000 </v>
   <v>       0.02400000 </v>
   <v>       0.04800000 </v>
   <v>       0.00800000 </v>
   <v>       0.00800000 </v>
   <v>       0.02400000 </v>
   <v>       0.01200000 </v>
   <v>       0.00600000 </v>
   <v>       0.02400000 </v>
   <v>       0.02400000 </v>
   <v>       0.02400000 </v>
   <v>       0.02400000 </v>
   <v>       0.02400000 </v>
   <v>       0.04800000 </v>
   <v>       0.02400000 </v>
   <v>       0.02400000 </v>
   <v>       0.00200000 </v>
   <v>       0.00600000 </v>
   <v>       0.02400000 </v>
   <v>       0.02400000 </v>
   <v>       0.02400000 </v>
   <v>       0.02400000 </v>
   <v>       0.00600000 </v>
   <v>       0.02400000 </v>
   <v>       0.00800000 </v>
   <v>       0.00600000 </v>
  </varray>
 </kpoints>
 <parameters>
  <separator name="general" >
   <i type="string" name="SYSTEM">unknown system</i>
   <i type="logical" name="LCOMPAT"> F  </i>
  </separator>
  <separator name="electronic" >
   <i type="string" name="PREC">accura</i>
   <i name="ENMAX">    400.00000000</i>
   <i name="ENAUG">    332.07500000</i>
   <i name="EDIFF">      0.00010000</i>
   <i type="int" name="IALGO">    38</i>
   <i type="int" name="IWAVPR">    10</i>
   <i type="int" name="NBANDS">     6</i>
   <i name="NELECT">      5.00000000</i>
   <i type="int" name="TURBO">     0</i>
   <i type="int" name="IRESTART">     0</i>
   <i type="int" name="NREBOOT">     0</i>
   <i type="int" name="NMIN">     0</i>
   <i name="EREF">      0.00000000</i>
   <separator name="electronic smearing" >
    <i type="int" name="ISMEAR">     1</i>
    <i name="SIGMA">      0.05000000</i>
    <i name="KSPACING">      0.50000000</i>
    <i type="logical" name="KGAMMA"> T  </i>
   </separator>
   <separator name="electronic projectors" >
    <i type="logical" name="LREAL"> F  </i>
    <v name="ROPT">      0.00000000</v>
    <i type="int" name="LMAXPAW">  -100</i>
    <i type="int" name="LMAXMIX">     2</i>
    <i type="logical" name="NLSPLINE"> F  </i>
   </separator>
   <separator name="electronic startup" >
    <i type="int" name="ISTART">     0</i>
    <i type="int" name="ICHARG">     2</i>
    <i type="int" name="INIWAV">     1</i>
   </separator>
   <separator name="electronic spin" >
    <i type="int" name="ISPIN">     2</i>
    <i type="logical" name="LNONCOLLINEAR"> F  </i>
    <v name="MAGMOM">      6.00000000</v>
    <i name="NUPDOWN">     -1.00000000</i>
    <i type="logical" name="LSORBIT"> F  </i>
    <v name="SAXIS">      0.00000000      0.00000000      1.00000000</v>
    <i type="logical" name="LSPIRAL"> F  </i>
    <v name="QSPIRAL">      0.00000000      0.00000000      0.00000000</v>
    <i type="logical" name="LZEROZ"> F  </i>
   </separator>
   <separator name="electronic exchange-correlation" >
    <i type="logical" name="LASPH"> F  </i>
    <i type="logical" name="LMETAGGA"> F  </i>
   </separator>
   <separator name="electronic convergence" >
    <i type="int" name="NELM">    60</i>
    <i type="int" name="NELMDL">    -5</i>
    <i type="int" name="NELMIN">     2</i>
    <i name="ENINI">    400.00000000</i>
    <separator name="electronic convergence detail" >
     <i type="logical" name="LDIAG"> T  </i>
     <i type="logical" name="LSUBROT"> T  </i>
     <i name="WEIMIN">      0.00000000</i>
     <i name="EBREAK">      0.00000417</i>
     <i name="DEPER">      0.30000000</i>
     <i type="int" name="NRMM">     4</i>
     <i name="TIME">      0.40000000</i>
    </separator>
   </separator>
   <separator name="electronic mixer" >
    <i name="AMIX">      0.40000000</i>
    <i name="BMIX">      1.00000000</i>
    <i name="AMIN">      0.10000000</i>
    <i name="AMIX_MAG">      1.60000000</i>
    <i name="BMIX_MAG">      1.00000000</i>
    <separator name="electronic mixer details" >
     <i type="int" name="IMIX">     4</i>
     <i type="int" name="MAXMIX">   -45</i>
     <i name="WC">    100.00000000</i>
     <i type="int" name="INIMIX">     1</i>
     <i type="int" name="MIXPRE">     1</i>
     <i type="int" name="MREMOVE">     5</i>
    </separator>
   </separator>
   <separator name="electronic dipolcorrection" >
    <i type="logical" name="LDIPOL"> F  </i>
    <i type="logical" name="LMONO"> F  </i>
    <i type="int" name="IDIPOL">     0</i>
    <i name="EPSILON">      1.00000000</i>
    <v name="DIPOL">   -100.00000000   -100.00000000   -100.00000000</v>
    <i name="EFIELD">      0.00000000</i>
   </separator>
  </separator>
  <separator name="grids" >
   <i type="int" name="NGX">    20</i>
   <i type="int" name="NGY">    20</i>
   <i type="int" name="NGZ">    20</i>
   <i type="int" name="NGXF">    40</i>
   <i type="int" name="NGYF">    40</i>
   <i type="int" name="NGZF">    40</i>
   <i type="logical" name="ADDGRID"> F  </i>
  </separator>
  <separator name="ionic" >
   <i type="int" name="NSW">     0</i>
   <i type="int" name="IBRION">    -1</i>
   <i type="int" name="ISIF">     2</i>
   <i name="PSTRESS">      0.00000000</i>
   <i name="EDIFFG">      0.00100000</i>
   <i type="int" name="NFREE">     0</i>
   <i name="POTIM">      0.50000000</i>
   <i name="SMASS">     -3.00000000</i>
   <i name="SCALEE">      1.00000000</i>
  </separator>
  <separator name="ionic md" >
   <i name="TEBEG">      0.00010000</i>
   <i name="TEEND">      0.00010000</i>
   <i type="int" name="NBLOCK">     1</i>
   <i type="int" name="KBLOCK">     1</i>
   <i type="int" name="NPACO">   256</i>
   <i name="APACO">     16.00000000</i>
  </separator>
  <separator name="symmetry" >
   <i type="int" name="ISYM">     2</i>
   <i name="SYMPREC">      0.00001000</i>
  </separator>
  <separator name="dos" >
   <i type="logical" name="LORBIT"> F  </i>
   <v name="RWIGS">     -1.00000000</v>
   <i type="int" name="NEDOS">   301</i>
   <i name="EMIN">     10.00000000</i>
   <i name="EMAX">    -10.00000000</i>
   <i name="EFERMI">      0.00000000</i>
  </separator>
  <separator name="writing" >
   <i type="int" name="NWRITE">     2</i>
   <i type="logical" name="LWAVE"> T  </i>
   <i type="logical" name="LCHARG"> T  </i>
   <i type="logical" name="LPARD"> F  </i>
   <i type="logical" name="LVTOT"> F  </i>
   <i type="logical" name="LVHAR"> F  </i>
   <i type="logical" name="LELF"> F  </i>
   <i type="logical" name="LOPTICS"> F  </i>
   <v name="STM">      0.00000000      0.00000000      0.00000000      0.00000000      0.00000000      0.00000000      0.00000000</v>
  </separator>
  <separator name="performance" >
   <i type="int" name="NPAR">     1</i>
   <i type="int" name="NSIM">     4</i>
   <i type="int" name="NBLK">    -1</i>
   <i type="logical" name="LPLANE"> T  </i>
   <i type="logical" name="LSCALAPACK"> F  </i>
   <i type="logical" name="LSCAAWARE"> F  </i>
   <i type="logical" name="LSCALU"> F  </i>
   <i type="logical" name="LASYNC"> F  </i>
   <i type="logical" name="LORBITALREAL"> F  </i>
  </separator>
  <separator name="miscellaneous" >
   <i type="int" name="IDIOT">     3</i>
   <i type="logical" name="LMUSIC"> F  </i>
   <v name="POMASS">    180.94800000</v>
   <v name="DARWINR">      0.00000000</v>
   <v name="DARWINV">      1.00000000</v>
   <i type="logical" name="LCORR"> T  </i>
  </separator>
  <i type="logical" name="GGA_COMPAT"> T  </i>
  <i type="logical" name="LBERRY"> F  </i>
  <i type="int" name="ICORELEVEL">     0</i>
  <i type="logical" name="LDAU"> F  </i>
  <i type="int" name="I_CONSTRAINED_M">     0</i>
  <separator name="electronic exchange-correlation" >
   <i type="string" name="GGA">--</i>
   <i type="int" name="VOSKOWN">     0</i>
   <i type="logical" name="LHFCALC"> F  </i>
   <i type="string" name="PRECFOCK"></i>
   <i type="logical" name="LHFONE"> F  </i>
   <i type="logical" name="LRHFCALC"> F  </i>
   <i type="logical" name="LTHOMAS"> F  </i>
   <i type="logical" name="LMODELHF"> F  </i>
   <i name="ENCUT4O">     -1.00000000</i>
   <i type="int" name="EXXOEP">     0</i>
   <i type="int" name="FOURORBIT">     0</i>
   <i name="AEXX">      0.00000000</i>
   <i name="HFALPHA">      0.00000000</i>
   <i name="ALDAX">      1.00000000</i>
   <i name="AGGAX">      1.00000000</i>
   <i name="ALDAC">      1.00000000</i>
   <i name="AGGAC">      1.00000000</i>
   <i type="int" name="NKREDX">     1</i>
   <i type="int" name="NKREDY">     1</i>
   <i type="int" name="NKREDZ">     1</i>
   <i type="logical" name="SHIFTRED"> F  </i>
   <i type="logical" name="ODDONLY"> F  </i>
   <i type="logical" name="EVENONLY"> F  </i>
   <i type="int" name="LMAXFOCK">     0</i>
   <i type="int" name="NMAXFOCKAE">     0</i>
   <i type="logical" name="LFOCKAEDFT"> F  </i>
   <i name="HFSCREEN">      0.00000000</i>
   <i name="HFSCREENC">      0.00000000</i>
  </separator>
  <separator name="vdW DFT" >
   <i type="logical" name="LUSE_VDW"> F  </i>
   <i name="Zab_VDW">     -0.84910000</i>
   <i name="PARAM1">      0.12340000</i>
   <i name="PARAM2">      1.00000000</i>
   <i name="PARAM3">      0.00000000</i>
  </separator>
  <separator name="model GW" >
   <i type="int" name="MODEL_GW">     0</i>
   <i name="MODEL_EPS0">     10.87940730</i>
   <i name="MODEL_ALPHA">      1.00000000</i>
  </separator>
  <separator name="linear response parameters" >
   <i type="logical" name="LEPSILON"> F  </i>
   <i type="logical" name="LRPA"> F  </i>
   <i type="logical" name="LNABLA"> F  </i>
   <i type="logical" name="LVEL"> F  </i>
   <i type="int" name="KINTER">     0</i>
   <i name="CSHIFT">      0.10000000</i>
   <i name="OMEGAMAX">     -1.00000000</i>
  </separator>
  <separator name="orbital magnetization" >
   <i type="logical" name="NUCIND"> F  </i>
   <v name="MAGPOS">      0.00000000      0.00000000      0.00000000</v>
   <i type="logical" name="LNICSALL"> T  </i>
   <i type="logical" name="ORBITALMAG"> F  </i>
   <i type="logical" name="LMAGBLOCH"> F  </i>
   <i type="logical" name="LCHIMAG"> F  </i>
   <i type="logical" name="LGAUGE"> T  </i>
   <i type="int" name="MAGATOM">     0</i>
   <v name="MAGDIPOL">      0.00000000      0.00000000      0.00000000</v>
   <v name="AVECCONST">      0.00000000      0.00000000      0.00000000</v>
  </separator>
  <separator name="response functions" >
   <i type="logical" name="LADDER"> F  </i>
   <i type="logical" name="LHARTREE"> T  </i>
   <i type="int" name="IBSE">     0</i>
   <i type="logical" name="LTCTE"> F  </i>
   <i type="logical" name="LTETE"> F  </i>
   <i type="logical" name="LFXCEPS"> F  </i>
   <i type="logical" name="L2ORDER"> F  </i>
   <i type="logical" name="LUSEW"> F  </i>
   <i name="ENCUTGW">     -2.00000000</i>
   <i name="ENCUTGWSOFT">     -2.00000000</i>
   <i name="ENCUTLF">     -1.00000000</i>
   <i type="int" name="LMAXMP2">    -1</i>
   <i name="SCISSOR">      0.00000000</i>
   <i type="int" name="NOMEGA">     0</i>
   <i type="int" name="NOMEGAR">     0</i>
   <i type="int" name="NBANDSGW">    -1</i>
   <i type="int" name="NBANDSO">    -1</i>
   <i type="int" name="NBANDSV">    -1</i>
   <i name="OPTEMAX">      0.00000000</i>
   <i type="int" name="NELM">     1</i>
   <i type="int" name="DIM">     3</i>
   <i type="int" name="ANTIRES">     0</i>
   <i name="OMEGAMAX">    -30.00000000</i>
   <i name="OMEGATL">   -200.00000000</i>
   <i type="int" name="OMEGAGRID">     0</i>
   <i name="CSHIFT">     -0.10000000</i>
   <i type="logical" name="SELFENERGY"> F  </i>
   <i type="logical" name="LSPECTRAL"> F  </i>
   <i type="logical" name="ODDONLYGW"> F  </i>
   <i type="logical" name="EVENONLYGW"> F  </i>
   <i type="int" name="NKREDLFX">     1</i>
   <i type="int" name="NKREDLFY">     1</i>
   <i type="int" name="NKREDLFZ">     1</i>
   <i type="int" name="MAXMEM">  1800</i>
   <i type="int" name="TELESCOPE">     0</i>
  </separator>
 </parameters>
 <atominfo>
  <atoms>       1 </atoms>
  <types>       1 </types>
  <array name="atoms" >
   <dimension dim="1">ion</dimension>
   <field type="string">element</field>
   <field type="int">atomtype</field>
   <set>
    <rc><c>Ta</c><c>   1</c></rc>
   </set>
  </array>
  <array name="atomtypes" >
   <dimension dim="1">type</dimension>
   <field type="int">atomspertype</field>
   <field type="string">element</field>
   <field>mass</field>
   <field>valence</field>
   <field type="string">pseudopotential</field>
   <set>
    <rc><c>   1</c><c>Ta</c><c>    180.94800000</c><c>      5.00000000</c><c>  PAW_PBE Ta 17Jan2003                  </c></rc>
   </set>
  </array>
 </atominfo>
 <structure name="initialpos" >
  <crystal>
   <varray name="basis" >
    <v>       2.86654409       0.00000000       0.00000000 </v>
    <v>      -0.95551470       2.70260368       0.00000000 </v>
    <v>      -0.95551470      -1.35130184       2.34052345 </v>
   </varray>
   <i name="volume">     18.13234550 </i>
   <varray name="rec_basis" >
    <v>       0.34885213       0.12333785       0.21362743 </v>
    <v>       0.00000000       0.37001356       0.21362743 </v>
    <v>       0.00000000       0.00000000       0.42725485 </v>
   </varray>
  </crystal>
  <varray name="positions" >
   <v>       0.00000000       0.00000000       0.00000000 </v>
  </varray>
 </structure>
 <calculation>
  <scstep>
   <time name="dav">    1.39    1.40</time>
   <time name="total">    1.64    1.66</time>
   <energy>
    <i name="alphaZ">     30.58334069 </i>
    <i name="ewald">   -197.90100875 </i>
    <i name="hartreedc">     -2.50452612 </i>
    <i name="XCdc">    -60.66120712 </i>
    <i name="pawpsdc">    143.51874798 </i>
    <i name="pawaedc">    -69.33493833 </i>
    <i name="eentropy">      0.00006933 </i>
    <i name="bandstr">     37.33320164 </i>
    <i name="atom">    130.64884137 </i>
    <i name="e_fr_energy">     11.68252070 </i>
    <i name="e_wo_entrp">     11.68245136 </i>
    <i name="e_0_energy">     11.68249758 </i>
   </energy>
  </scstep>
  <scstep>
   <time name="dav">    2.18    2.18</time>
   <time name="total">    2.18    2.20</time>
   <energy>
    <i name="e_fr_energy">     -1.11108291 </i>
    <i name="e_wo_entrp">     -1.11103383 </i>
    <i name="e_0_energy">     -1.11106655 </i>
   </energy>
  </scstep>
  <scstep>
   <time name="dav">    1.38    1.38</time>
   <time name="total">    1.39    1.52</time>
   <energy>
    <i name="e_fr_energy">     -1.20299165 </i>
    <i name="e_wo_entrp">     -1.20261118 </i>
    <i name="e_0_energy">     -1.20286483 </i>
   </energy>
  </scstep>
  <scstep>
   <time name="dav">    1.70    1.70</time>
   <time name="total">    1.70    1.72</time>
   <energy>
    <i name="e_fr_energy">     -1.20371734 </i>
    <i name="e_wo_entrp">     -1.20333702 </i>
    <i name="e_0_energy">     -1.20359057 </i>
   </energy>
  </scstep>
  <scstep>
   <time name="dav">    1.30    1.30</time>
   <time name="total">    1.48    1.49</time>
   <energy>
    <i name="e_fr_energy">     -1.20372384 </i>
    <i name="e_wo_entrp">     -1.20334354 </i>
    <i name="e_0_energy">     -1.20359708 </i>
   </energy>
  </scstep>
  <scstep>
   <time name="dav">    1.42    1.42</time>
   <time name="total">    1.82    1.84</time>
   <energy>
    <i name="e_fr_energy">    -11.68446318 </i>
    <i name="e_wo_entrp">    -11.68464519 </i>
    <i name="e_0_energy">    -11.68452385 </i>
   </energy>
  </scstep>
  <scstep>
   <time name="dav">    1.55    1.55</time>
   <time name="total">    1.95    2.02</time>
   <energy>
    <i name="e_fr_energy">    -11.73915597 </i>
    <i name="e_wo_entrp">    -11.73915190 </i>
    <i name="e_0_energy">    -11.73915461 </i>
   </energy>
  </scstep>
  <scstep>
   <time name="dav">    1.51    1.51</time>
   <time name="total">    1.92    1.95</time>
   <energy>
    <i name="e_fr_energy">    -11.34916747 </i>
    <i name="e_wo_entrp">    -11.34899573 </i>
    <i name="e_0_energy">    -11.34911022 </i>
   </energy>
  </scstep>
  <scstep>
   <time name="dav">    1.52    1.52</time>
   <time name="total">    1.92    1.93</time>
   <energy>
    <i name="e_fr_energy">    -11.82754354 </i>
    <i name="e_wo_entrp">    -11.82717497 </i>
    <i name="e_0_energy">    -11.82742068 </i>
   </energy>
  </scstep>
  <scstep>
   <time name="dav">    1.45    1.45</time>
   <time name="total">    1.85    1.87</time>
   <energy>
    <i name="e_fr_energy">    -11.84355790 </i>
    <i name="e_wo_entrp">    -11.84288669 </i>
    <i name="e_0_energy">    -11.84333417 </i>
   </energy>
  </scstep>
  <scstep>
   <time name="dav">    1.47    1.47</time>
   <time name="total">    1.87    2.08</time>
   <energy>
    <i name="e_fr_energy">    -11.86331559 </i>
    <i name="e_wo_entrp">    -11.86310955 </i>
    <i name="e_0_energy">    -11.86324691 </i>
   </energy>
  </scstep>
  <scstep>
   <time name="dav">    1.50    1.50</time>
   <time name="total">    1.89    1.92</time>
   <energy>
    <i name="e_fr_energy">    -11.86346249 </i>
    <i name="e_wo_entrp">    -11.86350210 </i>
    <i name="e_0_energy">    -11.86347569 </i>
   </energy>
  </scstep>
  <scstep>
   <time name="dav">    1.50    1.50</time>
   <time name="total">    1.90    1.92</time>
   <energy>
    <i name="e_fr_energy">    -11.86357560 </i>
    <i name="e_wo_entrp">    -11.86398297 </i>
    <i name="e_0_energy">    -11.86371139 </i>
   </energy>
  </scstep>
  <scstep>
   <time name="dav">    0.90    0.90</time>
   <time name="total">    1.30    1.31</time>
   <energy>
    <i name="e_fr_energy">    -11.86390831 </i>
    <i name="e_wo_entrp">    -11.86451689 </i>
    <i name="e_0_energy">    -11.86411117 </i>
   </energy>
  </scstep>
  <scstep>
   <time name="dav">    0.93    0.93</time>
   <time name="total">    1.18    1.19</time>
   <energy>
    <i name="alphaZ">     30.58334069 </i>
    <i name="ewald">   -197.90100875 </i>
    <i name="hartreedc">     -0.59059354 </i>
    <i name="XCdc">    -66.00301951 </i>
    <i name="pawpsdc">    192.64797260 </i>
    <i name="pawaedc">   -119.22049219 </i>
    <i name="eentropy">      0.00060796 </i>
    <i name="bandstr">     17.97048406 </i>
    <i name="atom">    130.64884137 </i>
    <i name="e_fr_energy">    -11.86386730 </i>
    <i name="e_wo_entrp">    -11.86447526 </i>
    <i name="e_0_energy">    -11.86406995 </i>
   </energy>
  </scstep>
  <parameters_embedded>
   <separator name="dft+d2" >
    <i type="logical" name="LVDW"> F  </i>
   </separator>
  </parameters_embedded>
  <structure>
   <crystal>
    <varray name="basis" >
     <v>       2.86654409       0.00000000       0.00000000 </v>
     <v>      -0.95551470       2.70260368       0.00000000 </v>
     <v>      -0.95551470      -1.35130184       2.34052345 </v>
    </varray>
    <i name="volume">     18.13234550 </i>
    <varray name="rec_basis" >
     <v>       0.34885213       0.12333785       0.21362743 </v>
     <v>       0.00000000       0.37001356       0.21362743 </v>
     <v>       0.00000000       0.00000000       0.42725485 </v>
    </varray>
   </crystal>
   <varray name="positions" >
    <v>       0.00000000       0.00000000       0.00000000 </v>
   </varray>
  </structure>
  <varray name="forces" >
   <v>       0.00000000       0.00000000       0.00000000 </v>
  </varray>
  <varray name="stress" >
   <v>      -9.13266484       0.00000000       0.00000000 </v>
   <v>       0.00000000      -9.13266484       0.00000000 </v>
   <v>       0.00000000       0.00000000      -9.13266484 </v>
  </varray>
  <energy>
   <i name="e_fr_energy">    -11.86386730 </i>
   <i name="e_wo_entrp">    -11.86406995 </i>
   <i name="e_0_energy">      0.00060796 </i>
  </energy>
  <time name="totalsc">   27.76   28.51</time>
  <eigenvalues>
   <array>
    <dimension dim="1">band</dimension>
    <dimension dim="2">kpoint</dimension>
    <dimension dim="3">spin</dimension>
    <field>eigene</field>
    <field>occ</field>
    <set>
     <set comment="spin 1">
      <set comment="kpoint 1">
       <r>   -1.5533    1.0000 </r>
       <r>    6.0810    0.0000 </r>
       <r>    6.0810    0.0000 </r>
       <r>    7.1959    0.0000 </r>
       <r>    9.4383    0.0000 </r>
       <r>    9.4383    0.0000 </r>
      </set>
      <set comment="kpoint 2">
       <r>   -0.4308    1.0000 </r>
       <r>    5.4080    1.0000 </r>
       <r>    5.5915    1.0221 </r>
       <r>    8.5452    0.0000 </r>
       <r>    9.1219    0.0000 </r>
       <r>    9.7061    0.0000 </r>
      </set>
      <set comment="kpoint 3">
       <r>    0.8949    1.0000 </r>
       <r>    4.7510    1.0000 </r>
       <r>    5.2902    1.0000 </r>
       <r>    9.3402    0.0000 </r>
       <r>   10.0339    0.0000 </r>
       <r>   10.5179    0.0000 </r>
      </set>
      <set comment="kpoint 4">
       <r>    1.5239    1.0000 </r>
       <r>    4.3014    1.0000 </r>
       <r>    6.1015    0.0000 </r>
       <r>    9.6626    0.0000 </r>
       <r>   10.3978    0.0000 </r>
       <r>   12.6535    0.0000 </r>
      </set>
      <set comment="kpoint 5">
       <r>    1.5815    1.0000 </r>
       <r>    4.1435    1.0000 </r>
       <r>    6.9771    0.0000 </r>
       <r>    9.6443    0.0000 </r>
       <r>   10.5824    0.0000 </r>
       <r>   13.7996    0.0000 </r>
      </set>
      <set comment="kpoint 6">
       <r>   -1.9691    1.0000 </r>
       <r>    6.3996    0.0000 </r>
       <r>    6.3996    0.0000 </r>
       <r>    6.5368    0.0000 </r>
       <r>    9.3019    0.0000 </r>
       <r>    9.7987    0.0000 </r>
      </set>
      <set comment="kpoint 7">
       <r>    0.8395    1.0000 </r>
       <r>    4.8625    1.0000 </r>
       <r>    4.9347    1.0000 </r>
       <r>    9.1970    0.0000 </r>
       <r>   10.0794    0.0000 </r>
       <r>   10.4422    0.0000 </r>
      </set>
      <set comment="kpoint 8">
       <r>    2.0058    1.0000 </r>
       <r>    4.3906    1.0000 </r>
       <r>    4.9676    1.0000 </r>
       <r>    9.4980    0.0000 </r>
       <r>   10.4220    0.0000 </r>
       <r>   12.6681    0.0000 </r>
      </set>
      <set comment="kpoint 9">
       <r>    2.2840    1.0000 </r>
       <r>    4.1762    1.0000 </r>
       <r>    5.9326    0.0000 </r>
       <r>    9.7502    0.0000 </r>
       <r>   10.6236    0.0000 </r>
       <r>   14.5215    0.0000 </r>
      </set>
      <set comment="kpoint 10">
       <r>   -1.1528    1.0000 </r>
       <r>    5.9458    0.0000 </r>
       <r>    6.1743    0.0000 </r>
       <r>    7.3498    0.0000 </r>
       <r>    8.6200    0.0000 </r>
       <r>    9.9815    0.0000 </r>
      </set>
      <set comment="kpoint 11">
       <r>    2.9248    1.0000 </r>
       <r>    4.2855    1.0000 </r>
       <r>    5.0035    1.0000 </r>
       <r>    9.8125    0.0000 </r>
       <r>   10.5202    0.0000 </r>
       <r>   14.9519    0.0000 </r>
      </set>
      <set comment="kpoint 12">
       <r>    3.1059    1.0000 </r>
       <r>    4.3696    1.0000 </r>
       <r>    5.2445    1.0000 </r>
       <r>   10.0519    0.0000 </r>
       <r>   10.5647    0.0000 </r>
       <r>   14.3754    0.0000 </r>
      </set>
      <set comment="kpoint 13">
       <r>    0.1686    1.0000 </r>
       <r>    5.2575    1.0000 </r>
       <r>    5.6033    1.0323 </r>
       <r>    8.6448    0.0000 </r>
       <r>    8.9632    0.0000 </r>
       <r>   10.1775    0.0000 </r>
      </set>
      <set comment="kpoint 14">
       <r>   -0.0706    1.0000 </r>
       <r>    5.6209    1.0283 </r>
       <r>    5.6918    0.2003 </r>
       <r>    8.0624    0.0000 </r>
       <r>    8.4694    0.0000 </r>
       <r>   10.3807    0.0000 </r>
      </set>
      <set comment="kpoint 15">
       <r>    1.2062    1.0000 </r>
       <r>    4.6630    1.0000 </r>
       <r>    5.6867    0.2724 </r>
       <r>    9.1777    0.0000 </r>
       <r>   10.4054    0.0000 </r>
       <r>   11.0993    0.0000 </r>
      </set>
      <set comment="kpoint 16">
       <r>    1.2327    1.0000 </r>
       <r>    4.9109    1.0000 </r>
       <r>    5.3428    1.0000 </r>
       <r>    8.3642    0.0000 </r>
       <r>   10.2979    0.0000 </r>
       <r>   10.6836    0.0000 </r>
      </set>
      <set comment="kpoint 17">
       <r>    1.4492    1.0000 </r>
       <r>    4.3310    1.0000 </r>
       <r>    6.6893    0.0000 </r>
       <r>    9.3368    0.0000 </r>
       <r>   10.7750    0.0000 </r>
       <r>   13.0469    0.0000 </r>
      </set>
      <set comment="kpoint 18">
       <r>    1.8891    1.0000 </r>
       <r>    4.6089    1.0000 </r>
       <r>    5.5900    1.0206 </r>
       <r>    8.9033    0.0000 </r>
       <r>   10.7185    0.0000 </r>
       <r>   12.6871    0.0000 </r>
      </set>
      <set comment="kpoint 19">
       <r>    2.3558    1.0000 </r>
       <r>    4.3158    1.0000 </r>
       <r>    5.3487    1.0000 </r>
       <r>    8.6709    0.0000 </r>
       <r>   10.4240    0.0000 </r>
       <r>   12.7586    0.0000 </r>
      </set>
      <set comment="kpoint 20">
       <r>    1.9450    1.0000 </r>
       <r>    4.5073    1.0000 </r>
       <r>    6.0839    0.0000 </r>
       <r>    8.8572    0.0000 </r>
       <r>   11.2265    0.0000 </r>
       <r>   13.9391    0.0000 </r>
      </set>
      <set comment="kpoint 21">
       <r>    2.8258    1.0000 </r>
       <r>    4.3738    1.0000 </r>
       <r>    5.2138    1.0000 </r>
       <r>    9.1399    0.0000 </r>
       <r>   10.6446    0.0000 </r>
       <r>   15.0489    0.0000 </r>
      </set>
      <set comment="kpoint 22">
       <r>    3.4854    1.0000 </r>
       <r>    4.4717    1.0000 </r>
       <r>    4.4717    1.0000 </r>
       <r>   10.1026    0.0000 </r>
       <r>   10.1026    0.0000 </r>
       <r>   14.6666    0.0000 </r>
      </set>
      <set comment="kpoint 23">
       <r>    2.2259    1.0000 </r>
       <r>    4.3781    1.0000 </r>
       <r>    4.3781    1.0000 </r>
       <r>   10.0464    0.0000 </r>
       <r>   10.0464    0.0000 </r>
       <r>   12.7758    0.0000 </r>
      </set>
      <set comment="kpoint 24">
       <r>    3.1334    1.0000 </r>
       <r>    4.1320    1.0000 </r>
       <r>    4.7762    1.0000 </r>
       <r>   10.2131    0.0000 </r>
       <r>   10.5241    0.0000 </r>
       <r>   14.9628    0.0000 </r>
      </set>
      <set comment="kpoint 25">
       <r>    3.1410    1.0000 </r>
       <r>    4.0599    1.0000 </r>
       <r>    5.5983    1.0283 </r>
       <r>   10.2731    0.0000 </r>
       <r>   10.6760    0.0000 </r>
       <r>   14.3615    0.0000 </r>
      </set>
      <set comment="kpoint 26">
       <r>   -0.3757    1.0000 </r>
       <r>    6.3574    0.0000 </r>
       <r>    6.3574    0.0000 </r>
       <r>    7.1630    0.0000 </r>
       <r>    7.3564    0.0000 </r>
       <r>   10.5769    0.0000 </r>
      </set>
      <set comment="kpoint 27">
       <r>    3.7346    1.0000 </r>
       <r>    4.3954    1.0000 </r>
       <r>    4.8240    1.0000 </r>
       <r>   10.5269    0.0000 </r>
       <r>   10.6566    0.0000 </r>
       <r>   13.6532    0.0000 </r>
      </set>
      <set comment="kpoint 28">
       <r>    0.8868    1.0000 </r>
       <r>    5.5065    1.0000 </r>
       <r>    5.9998    0.0000 </r>
       <r>    7.2284    0.0000 </r>
       <r>    8.7168    0.0000 </r>
       <r>   10.7810    0.0000 </r>
      </set>
      <set comment="kpoint 29">
       <r>    1.9314    1.0000 </r>
       <r>    4.8814    1.0000 </r>
       <r>    5.4921    1.0000 </r>
       <r>    8.0323    0.0000 </r>
       <r>   10.8443    0.0000 </r>
       <r>   10.8849    0.0000 </r>
      </set>
      <set comment="kpoint 30">
       <r>    2.0562    1.0000 </r>
       <r>    4.5627    1.0000 </r>
       <r>    6.1340    0.0000 </r>
       <r>    7.5103    0.0000 </r>
       <r>    9.9748    0.0000 </r>
       <r>   10.9458    0.0000 </r>
      </set>
      <set comment="kpoint 31">
       <r>    2.1545    1.0000 </r>
       <r>    5.1936    1.0000 </r>
       <r>    5.2523    1.0000 </r>
       <r>    8.0077    0.0000 </r>
       <r>   11.9824    0.0000 </r>
       <r>   12.8443    0.0000 </r>
      </set>
      <set comment="kpoint 32">
       <r>    2.7613    1.0000 </r>
       <r>    4.1780    1.0000 </r>
       <r>    5.7359   -0.0352 </r>
       <r>    8.1447    0.0000 </r>
       <r>   10.7143    0.0000 </r>
       <r>   12.9027    0.0000 </r>
      </set>
      <set comment="kpoint 33">
       <r>    2.7734    1.0000 </r>
       <r>    4.5567    1.0000 </r>
       <r>    5.2889    1.0000 </r>
       <r>    8.1396    0.0000 </r>
       <r>   11.7501    0.0000 </r>
       <r>   14.5576    0.0000 </r>
      </set>
      <set comment="kpoint 34">
       <r>    3.6418    1.0000 </r>
       <r>    3.7035    1.0000 </r>
       <r>    4.9653    1.0000 </r>
       <r>    9.4075    0.0000 </r>
       <r>   10.5765    0.0000 </r>
       <r>   15.3622    0.0000 </r>
      </set>
      <set comment="kpoint 35">
       <r>    4.4649    1.0000 </r>
       <r>    4.4649    1.0000 </r>
       <r>    4.4649    1.0000 </r>
       <r>   10.7352    0.0000 </r>
       <r>   10.7352    0.0000 </r>
       <r>   12.7379    0.0000 </r>
      </set>
      <set comment="kpoint 36">
       <r>    1.9636    1.0000 </r>
       <r>    4.7794    1.0000 </r>
       <r>    6.9476    0.0000 </r>
       <r>    6.9476    0.0000 </r>
       <r>    8.8756    0.0000 </r>
       <r>   10.6799    0.0000 </r>
      </set>
      <set comment="kpoint 37">
       <r>    2.7865    1.0000 </r>
       <r>    3.8496    1.0000 </r>
       <r>    7.0075    0.0000 </r>
       <r>    7.5988    0.0000 </r>
       <r>   10.5384    0.0000 </r>
       <r>   10.8291    0.0000 </r>
      </set>
      <set comment="kpoint 38">
       <r>    2.8217    1.0000 </r>
       <r>    3.7634    1.0000 </r>
       <r>    6.8372    0.0000 </r>
       <r>    7.4825    0.0000 </r>
       <r>   12.5342    0.0000 </r>
       <r>   12.8168    0.0000 </r>
      </set>
      <set comment="kpoint 39">
       <r>    3.1130    1.0000 </r>
       <r>    3.1756    1.0000 </r>
       <r>    6.8496    0.0000 </r>
       <r>    8.8259    0.0000 </r>
       <r>   10.8088    0.0000 </r>
       <r>   12.9207    0.0000 </r>
      </set>
      <set comment="kpoint 40">
       <r>    2.9040    1.0000 </r>
       <r>    3.2282    1.0000 </r>
       <r>    6.5722    0.0000 </r>
       <r>    9.3418    0.0000 </r>
       <r>   11.6529    0.0000 </r>
       <r>   15.2634    0.0000 </r>
      </set>
      <set comment="kpoint 41">
       <r>    2.8904    1.0000 </r>
       <r>    2.9901    1.0000 </r>
       <r>    8.6049    0.0000 </r>
       <r>    8.6049    0.0000 </r>
       <r>   10.7603    0.0000 </r>
       <r>   10.9379    0.0000 </r>
      </set>
      <set comment="kpoint 42">
       <r>    2.5108    1.0000 </r>
       <r>    2.6733    1.0000 </r>
       <r>    9.0698    0.0000 </r>
       <r>    9.0764    0.0000 </r>
       <r>   12.2534    0.0000 </r>
       <r>   13.0638    0.0000 </r>
      </set>
      <set comment="kpoint 43">
       <r>    2.3569    1.0000 </r>
       <r>    2.3569    1.0000 </r>
       <r>    9.0019    0.0000 </r>
       <r>   11.4305    0.0000 </r>
       <r>   11.4305    0.0000 </r>
       <r>   15.5720    0.0000 </r>
      </set>
      <set comment="kpoint 44">
       <r>    2.0550    1.0000 </r>
       <r>    2.1018    1.0000 </r>
       <r>   11.3341    0.0000 </r>
       <r>   11.3341    0.0000 </r>
       <r>   12.2425    0.0000 </r>
       <r>   13.5450    0.0000 </r>
      </set>
     </set>
     <set comment="spin 2">
      <set comment="kpoint 1">
       <r>   -1.5417    1.0000 </r>
       <r>    6.0923    0.0000 </r>
       <r>    6.0923    0.0000 </r>
       <r>    7.2070    0.0000 </r>
       <r>    9.4471    0.0000 </r>
       <r>    9.4471    0.0000 </r>
      </set>
      <set comment="kpoint 2">
       <r>   -0.4193    1.0000 </r>
       <r>    5.4192    1.0000 </r>
       <r>    5.6025    1.0317 </r>
       <r>    8.5561    0.0000 </r>
       <r>    9.1311    0.0000 </r>
       <r>    9.7149    0.0000 </r>
      </set>
      <set comment="kpoint 3">
       <r>    0.9064    1.0000 </r>
       <r>    4.7623    1.0000 </r>
       <r>    5.3010    1.0000 </r>
       <r>    9.3496    0.0000 </r>
       <r>   10.0426    0.0000 </r>
       <r>   10.5283    0.0000 </r>
      </set>
      <set comment="kpoint 4">
       <r>    1.5352    1.0000 </r>
       <r>    4.3127    1.0000 </r>
       <r>    6.1123    0.0000 </r>
       <r>    9.6720    0.0000 </r>
       <r>   10.4063    0.0000 </r>
       <r>   12.6633    0.0000 </r>
      </set>
      <set comment="kpoint 5">
       <r>    1.5926    1.0000 </r>
       <r>    4.1548    1.0000 </r>
       <r>    6.9880    0.0000 </r>
       <r>    9.6536    0.0000 </r>
       <r>   10.5907    0.0000 </r>
       <r>   13.8088    0.0000 </r>
      </set>
      <set comment="kpoint 6">
       <r>   -1.9575    1.0000 </r>
       <r>    6.4108    0.0000 </r>
       <r>    6.4108    0.0000 </r>
       <r>    6.5481    0.0000 </r>
       <r>    9.3108    0.0000 </r>
       <r>    9.8074    0.0000 </r>
      </set>
      <set comment="kpoint 7">
       <r>    0.8509    1.0000 </r>
       <r>    4.8734    1.0000 </r>
       <r>    4.9459    1.0000 </r>
       <r>    9.2063    0.0000 </r>
       <r>   10.0882    0.0000 </r>
       <r>   10.4527    0.0000 </r>
      </set>
      <set comment="kpoint 8">
       <r>    2.0171    1.0000 </r>
       <r>    4.4017    1.0000 </r>
       <r>    4.9785    1.0000 </r>
       <r>    9.5073    0.0000 </r>
       <r>   10.4306    0.0000 </r>
       <r>   12.6782    0.0000 </r>
      </set>
      <set comment="kpoint 9">
       <r>    2.2951    1.0000 </r>
       <r>    4.1874    1.0000 </r>
       <r>    5.9433    0.0000 </r>
       <r>    9.7595    0.0000 </r>
       <r>   10.6321    0.0000 </r>
       <r>   14.5309    0.0000 </r>
      </set>
      <set comment="kpoint 10">
       <r>   -1.1412    1.0000 </r>
       <r>    5.9571    0.0000 </r>
       <r>    6.1854    0.0000 </r>
       <r>    7.3609    0.0000 </r>
       <r>    8.6292    0.0000 </r>
       <r>    9.9901    0.0000 </r>
      </set>
      <set comment="kpoint 11">
       <r>    2.9361    1.0000 </r>
       <r>    4.2962    1.0000 </r>
       <r>    5.0145    1.0000 </r>
       <r>    9.8218    0.0000 </r>
       <r>   10.5289    0.0000 </r>
       <r>   14.9615    0.0000 </r>
      </set>
      <set comment="kpoint 12">
       <r>    3.1172    1.0000 </r>
       <r>    4.3804    1.0000 </r>
       <r>    5.2551    1.0000 </r>
       <r>   10.0611    0.0000 </r>
       <r>   10.5735    0.0000 </r>
       <r>   14.3874    0.0000 </r>
      </set>
      <set comment="kpoint 13">
       <r>    0.1800    1.0000 </r>
       <r>    5.2688    1.0000 </r>
       <r>    5.6140    1.0350 </r>
       <r>    8.6544    0.0000 </r>
       <r>    8.9740    0.0000 </r>
       <r>   10.1861    0.0000 </r>
      </set>
      <set comment="kpoint 14">
       <r>   -0.0592    1.0000 </r>
       <r>    5.6317    0.9945 </r>
       <r>    5.7030    0.0763 </r>
       <r>    8.0720    0.0000 </r>
       <r>    8.4803    0.0000 </r>
       <r>   10.3892    0.0000 </r>
      </set>
      <set comment="kpoint 15">
       <r>    1.2175    1.0000 </r>
       <r>    4.6743    1.0000 </r>
       <r>    5.6972    0.1344 </r>
       <r>    9.1874    0.0000 </r>
       <r>   10.4140    0.0000 </r>
       <r>   11.1095    0.0000 </r>
      </set>
      <set comment="kpoint 16">
       <r>    1.2441    1.0000 </r>
       <r>    4.9216    1.0000 </r>
       <r>    5.3538    1.0000 </r>
       <r>    8.3741    0.0000 </r>
       <r>   10.3080    0.0000 </r>
       <r>   10.6926    0.0000 </r>
      </set>
      <set comment="kpoint 17">
       <r>    1.4604    1.0000 </r>
       <r>    4.3423    1.0000 </r>
       <r>    6.6999    0.0000 </r>
       <r>    9.3464    0.0000 </r>
       <r>   10.7836    0.0000 </r>
       <r>   13.0562    0.0000 </r>
      </set>
      <set comment="kpoint 18">
       <r>    1.9003    1.0000 </r>
       <r>    4.6200    1.0000 </r>
       <r>    5.6005    1.0301 </r>
       <r>    8.9131    0.0000 </r>
       <r>   10.7275    0.0000 </r>
       <r>   12.6968    0.0000 </r>
      </set>
      <set comment="kpoint 19">
       <r>    2.3670    1.0000 </r>
       <r>    4.3262    1.0000 </r>
       <r>    5.3597    1.0000 </r>
       <r>    8.6808    0.0000 </r>
       <r>   10.4331    0.0000 </r>
       <r>   12.7684    0.0000 </r>
      </set>
      <set comment="kpoint 20">
       <r>    1.9561    1.0000 </r>
       <r>    4.5185    1.0000 </r>
       <r>    6.0942    0.0000 </r>
       <r>    8.8669    0.0000 </r>
       <r>   11.2356    0.0000 </r>
       <r>   13.9482    0.0000 </r>
      </set>
      <set comment="kpoint 21">
       <r>    2.8370    1.0000 </r>
       <r>    4.3845    1.0000 </r>
       <r>    5.2243    1.0000 </r>
       <r>    9.1498    0.0000 </r>
       <r>   10.6540    0.0000 </r>
       <r>   15.0582    0.0000 </r>
      </set>
      <set comment="kpoint 22">
       <r>    3.4969    1.0000 </r>
       <r>    4.4820    1.0000 </r>
       <r>    4.4820    1.0000 </r>
       <r>   10.1123    0.0000 </r>
       <r>   10.1123    0.0000 </r>
       <r>   14.6784    0.0000 </r>
      </set>
      <set comment="kpoint 23">
       <r>    2.2373    1.0000 </r>
       <r>    4.3891    1.0000 </r>
       <r>    4.3891    1.0000 </r>
       <r>   10.0552    0.0000 </r>
       <r>   10.0552    0.0000 </r>
       <r>   12.7859    0.0000 </r>
      </set>
      <set comment="kpoint 24">
       <r>    3.1446    1.0000 </r>
       <r>    4.1431    1.0000 </r>
       <r>    4.7871    1.0000 </r>
       <r>   10.2219    0.0000 </r>
       <r>   10.5325    0.0000 </r>
       <r>   14.9725    0.0000 </r>
      </set>
      <set comment="kpoint 25">
       <r>    3.1521    1.0000 </r>
       <r>    4.0711    1.0000 </r>
       <r>    5.6092    1.0352 </r>
       <r>   10.2820    0.0000 </r>
       <r>   10.6843    0.0000 </r>
       <r>   14.3736    0.0000 </r>
      </set>
      <set comment="kpoint 26">
       <r>   -0.3642    1.0000 </r>
       <r>    6.3686    0.0000 </r>
       <r>    6.3686    0.0000 </r>
       <r>    7.1724    0.0000 </r>
       <r>    7.3675    0.0000 </r>
       <r>   10.5854    0.0000 </r>
      </set>
      <set comment="kpoint 27">
       <r>    3.7457    1.0000 </r>
       <r>    4.4063    1.0000 </r>
       <r>    4.8349    1.0000 </r>
       <r>   10.5354    0.0000 </r>
       <r>   10.6650    0.0000 </r>
       <r>   13.6657    0.0000 </r>
      </set>
      <set comment="kpoint 28">
       <r>    0.8981    1.0000 </r>
       <r>    5.5167    1.0000 </r>
       <r>    6.0109    0.0000 </r>
       <r>    7.2388    0.0000 </r>
       <r>    8.7277    0.0000 </r>
       <r>   10.7896    0.0000 </r>
      </set>
      <set comment="kpoint 29">
       <r>    1.9425    1.0000 </r>
       <r>    4.8915    1.0000 </r>
       <r>    5.5033    1.0000 </r>
       <r>    8.0427    0.0000 </r>
       <r>   10.8546    0.0000 </r>
       <r>   10.8940    0.0000 </r>
      </set>
      <set comment="kpoint 30">
       <r>    2.0673    1.0000 </r>
       <r>    4.5728    1.0000 </r>
       <r>    6.1451    0.0000 </r>
       <r>    7.5208    0.0000 </r>
       <r>    9.9850    0.0000 </r>
       <r>   10.9552    0.0000 </r>
      </set>
      <set comment="kpoint 31">
       <r>    2.1654    1.0000 </r>
       <r>    5.2048    1.0000 </r>
       <r>    5.2624    1.0000 </r>
       <r>    8.0178    0.0000 </r>
       <r>   11.9920    0.0000 </r>
       <r>   12.8537    0.0000 </r>
      </set>
      <set comment="kpoint 32">
       <r>    2.7721    1.0000 </r>
       <r>    4.1881    1.0000 </r>
       <r>    5.7468   -0.0284 </r>
       <r>    8.1552    0.0000 </r>
       <r>   10.7243    0.0000 </r>
       <r>   12.9125    0.0000 </r>
      </set>
      <set comment="kpoint 33">
       <r>    2.7840    1.0000 </r>
       <r>    4.5667    1.0000 </r>
       <r>    5.3000    1.0000 </r>
       <r>    8.1500    0.0000 </r>
       <r>   11.7599    0.0000 </r>
       <r>   14.5672    0.0000 </r>
      </set>
      <set comment="kpoint 34">
       <r>    3.6523    1.0000 </r>
       <r>    3.7136    1.0000 </r>
       <r>    4.9763    1.0000 </r>
       <r>    9.4178    0.0000 </r>
       <r>   10.5866    0.0000 </r>
       <r>   15.3722    0.0000 </r>
      </set>
      <set comment="kpoint 35">
       <r>    4.4759    1.0000 </r>
       <r>    4.4759    1.0000 </r>
       <r>    4.4759    1.0000 </r>
       <r>   10.7434    0.0000 </r>
       <r>   10.7434    0.0000 </r>
       <r>   12.7507    0.0000 </r>
      </set>
      <set comment="kpoint 36">
       <r>    1.9746    1.0000 </r>
       <r>    4.7892    1.0000 </r>
       <r>    6.9586    0.0000 </r>
       <r>    6.9586    0.0000 </r>
       <r>    8.8864    0.0000 </r>
       <r>   10.6891    0.0000 </r>
      </set>
      <set comment="kpoint 37">
       <r>    2.7971    1.0000 </r>
       <r>    3.8595    1.0000 </r>
       <r>    7.0184    0.0000 </r>
       <r>    7.6095    0.0000 </r>
       <r>   10.5487    0.0000 </r>
       <r>   10.8393    0.0000 </r>
      </set>
      <set comment="kpoint 38">
       <r>    2.8319    1.0000 </r>
       <r>    3.7734    1.0000 </r>
       <r>    6.8482    0.0000 </r>
       <r>    7.4932    0.0000 </r>
       <r>   12.5437    0.0000 </r>
       <r>   12.8275    0.0000 </r>
      </set>
      <set comment="kpoint 39">
       <r>    3.1232    1.0000 </r>
       <r>    3.1855    1.0000 </r>
       <r>    6.8606    0.0000 </r>
       <r>    8.8366    0.0000 </r>
       <r>   10.8192    0.0000 </r>
       <r>   12.9309    0.0000 </r>
      </set>
      <set comment="kpoint 40">
       <r>    2.9140    1.0000 </r>
       <r>    3.2381    1.0000 </r>
       <r>    6.5833    0.0000 </r>
       <r>    9.3524    0.0000 </r>
       <r>   11.6629    0.0000 </r>
       <r>   15.2739    0.0000 </r>
      </set>
      <set comment="kpoint 41">
       <r>    2.9006    1.0000 </r>
       <r>    3.0000    1.0000 </r>
       <r>    8.6157    0.0000 </r>
       <r>    8.6157    0.0000 </r>
       <r>   10.7704    0.0000 </r>
       <r>   10.9490    0.0000 </r>
      </set>
      <set comment="kpoint 42">
       <r>    2.5207    1.0000 </r>
       <r>    2.6832    1.0000 </r>
       <r>    9.0807    0.0000 </r>
       <r>    9.0870    0.0000 </r>
       <r>   12.2629    0.0000 </r>
       <r>   13.0752    0.0000 </r>
      </set>
      <set comment="kpoint 43">
       <r>    2.3669    1.0000 </r>
       <r>    2.3669    1.0000 </r>
       <r>    9.0127    0.0000 </r>
       <r>   11.4407    0.0000 </r>
       <r>   11.4407    0.0000 </r>
       <r>   15.5830    0.0000 </r>
      </set>
      <set comment="kpoint 44">
       <r>    2.0649    1.0000 </r>
       <r>    2.1118    1.0000 </r>
       <r>   11.3444    0.0000 </r>
       <r>   11.3444    0.0000 </r>
       <r>   12.2520    0.0000 </r>
       <r>   13.5569    0.0000 </r>
      </set>
     </set>
    </set>
   </array>
  </eigenvalues>
  <separator name="orbital magnetization" >
   <v name="MAGDIPOLOUT">      0.00000000      0.00000000      0.00000000</v>
  </separator>
  <dos>
   <i name="efermi">      5.67262688 </i>
   <total>
    <array>
     <dimension dim="1">gridpoints</dimension>
     <dimension dim="2">spin</dimension>
     <field>energy</field>
     <field>total</field>
     <field>integrated</field>
     <set>
      <set comment="spin 1">
       <r>    -2.8467     0.0000     0.0000 </r>
       <r>    -2.7823     0.0000     0.0000 </r>
       <r>    -2.7180     0.0000     0.0000 </r>
       <r>    -2.6536     0.0000     0.0000 </r>
       <r>    -2.5893     0.0000     0.0000 </r>
       <r>    -2.5249     0.0000     0.0000 </r>
       <r>    -2.4605     0.0000     0.0000 </r>
       <r>    -2.3962     0.0000     0.0000 </r>
       <r>    -2.3318     0.0000     0.0000 </r>
       <r>    -2.2675     0.0000     0.0000 </r>
       <r>    -2.2031     0.0000     0.0000 </r>
       <r>    -2.1388     0.0000     0.0000 </r>
       <r>    -2.0744    -0.0005     0.0000 </r>
       <r>    -2.0100     0.0010     0.0000 </r>
       <r>    -1.9457     0.0789     0.0051 </r>
       <r>    -1.8813     0.0153     0.0061 </r>
       <r>    -1.8170    -0.0015     0.0060 </r>
       <r>    -1.7526     0.0000     0.0060 </r>
       <r>    -1.6883    -0.0001     0.0060 </r>
       <r>    -1.6239    -0.0038     0.0057 </r>
       <r>    -1.5595     0.0531     0.0092 </r>
       <r>    -1.4952     0.0795     0.0143 </r>
       <r>    -1.4308    -0.0041     0.0140 </r>
       <r>    -1.3665    -0.0002     0.0140 </r>
       <r>    -1.3021     0.0000     0.0140 </r>
       <r>    -1.2377    -0.0069     0.0136 </r>
       <r>    -1.1734     0.0747     0.0184 </r>
       <r>    -1.1090     0.3076     0.0382 </r>
       <r>    -1.0447    -0.0008     0.0381 </r>
       <r>    -0.9803    -0.0017     0.0380 </r>
       <r>    -0.9160     0.0000     0.0380 </r>
       <r>    -0.8516     0.0000     0.0380 </r>
       <r>    -0.7872     0.0000     0.0380 </r>
       <r>    -0.7229     0.0000     0.0380 </r>
       <r>    -0.6585     0.0000     0.0380 </r>
       <r>    -0.5942     0.0000     0.0380 </r>
       <r>    -0.5298    -0.0032     0.0378 </r>
       <r>    -0.4655     0.0176     0.0389 </r>
       <r>    -0.4011     0.3392     0.0608 </r>
       <r>    -0.3367     0.1153     0.0682 </r>
       <r>    -0.2724    -0.0022     0.0680 </r>
       <r>    -0.2080    -0.0007     0.0680 </r>
       <r>    -0.1437    -0.0108     0.0673 </r>
       <r>    -0.0793     0.1435     0.0765 </r>
       <r>    -0.0149     0.2527     0.0928 </r>
       <r>     0.0494    -0.0125     0.0920 </r>
       <r>     0.1138    -0.0120     0.0912 </r>
       <r>     0.1781     0.2577     0.1078 </r>
       <r>     0.2425     0.1380     0.1167 </r>
       <r>     0.3068    -0.0105     0.1160 </r>
       <r>     0.3712    -0.0001     0.1160 </r>
       <r>     0.4356     0.0000     0.1160 </r>
       <r>     0.4999     0.0000     0.1160 </r>
       <r>     0.5643     0.0000     0.1160 </r>
       <r>     0.6286     0.0000     0.1160 </r>
       <r>     0.6930    -0.0001     0.1160 </r>
       <r>     0.7573    -0.0082     0.1155 </r>
       <r>     0.8217     0.0662     0.1197 </r>
       <r>     0.8861     0.6342     0.1605 </r>
       <r>     0.9504     0.4534     0.1897 </r>
       <r>     1.0148    -0.0258     0.1881 </r>
       <r>     1.0791    -0.0014     0.1880 </r>
       <r>     1.1435    -0.0240     0.1864 </r>
       <r>     1.2078     0.3195     0.2070 </r>
       <r>     1.2722     0.8271     0.2602 </r>
       <r>     1.3366     0.0002     0.2602 </r>
       <r>     1.4009    -0.0121     0.2595 </r>
       <r>     1.4653     0.2770     0.2773 </r>
       <r>     1.5296     0.3299     0.2985 </r>
       <r>     1.5940     0.2907     0.3172 </r>
       <r>     1.6584     0.0481     0.3203 </r>
       <r>     1.7227    -0.0050     0.3200 </r>
       <r>     1.7871    -0.0053     0.3197 </r>
       <r>     1.8514     0.0089     0.3202 </r>
       <r>     1.9158     0.7715     0.3699 </r>
       <r>     1.9801     0.8706     0.4259 </r>
       <r>     2.0445     0.8194     0.4787 </r>
       <r>     2.1089     0.4029     0.5046 </r>
       <r>     2.1732     0.3153     0.5249 </r>
       <r>     2.2376     0.1600     0.5352 </r>
       <r>     2.3019     0.6118     0.5745 </r>
       <r>     2.3663     0.6079     0.6137 </r>
       <r>     2.4306     0.2007     0.6266 </r>
       <r>     2.4950     0.0833     0.6319 </r>
       <r>     2.5594     0.2876     0.6505 </r>
       <r>     2.6237    -0.0152     0.6495 </r>
       <r>     2.6881     0.2514     0.6657 </r>
       <r>     2.7524     0.4512     0.6947 </r>
       <r>     2.8168     1.5742     0.7960 </r>
       <r>     2.8811     0.8467     0.8505 </r>
       <r>     2.9455     0.6427     0.8919 </r>
       <r>     3.0099     0.1419     0.9010 </r>
       <r>     3.0742     0.0261     0.9027 </r>
       <r>     3.1386     0.9771     0.9656 </r>
       <r>     3.2029     0.7266     1.0123 </r>
       <r>     3.2673     0.3369     1.0340 </r>
       <r>     3.3317     0.0024     1.0342 </r>
       <r>     3.3960    -0.0042     1.0339 </r>
       <r>     3.4604     0.0179     1.0350 </r>
       <r>     3.5247     0.1057     1.0418 </r>
       <r>     3.5891    -0.0089     1.0413 </r>
       <r>     3.6534     0.2499     1.0573 </r>
       <r>     3.7178     0.4988     1.0894 </r>
       <r>     3.7822     0.6815     1.1333 </r>
       <r>     3.8465     0.2485     1.1493 </r>
       <r>     3.9109     0.2105     1.1629 </r>
       <r>     3.9752    -0.0164     1.1618 </r>
       <r>     4.0396     0.0312     1.1638 </r>
       <r>     4.1039     0.1553     1.1738 </r>
       <r>     4.1683     1.0537     1.2416 </r>
       <r>     4.2327     1.0207     1.3073 </r>
       <r>     4.2970     0.4446     1.3359 </r>
       <r>     4.3614     1.5220     1.4339 </r>
       <r>     4.4257     1.9671     1.5605 </r>
       <r>     4.4901     0.3743     1.5846 </r>
       <r>     4.5545     0.6592     1.6270 </r>
       <r>     4.6188     0.9693     1.6894 </r>
       <r>     4.6832     0.5344     1.7238 </r>
       <r>     4.7475     0.2671     1.7410 </r>
       <r>     4.8119     0.7161     1.7870 </r>
       <r>     4.8762     0.7365     1.8344 </r>
       <r>     4.9406     1.3523     1.9215 </r>
       <r>     5.0050     1.3830     2.0105 </r>
       <r>     5.0693     0.1992     2.0233 </r>
       <r>     5.1337    -0.0527     2.0199 </r>
       <r>     5.1980     0.3908     2.0450 </r>
       <r>     5.2624     1.6035     2.1482 </r>
       <r>     5.3267     1.2700     2.2300 </r>
       <r>     5.3911     0.9751     2.2927 </r>
       <r>     5.4555     0.2799     2.3107 </r>
       <r>     5.5198     0.5422     2.3456 </r>
       <r>     5.5842     0.7788     2.3958 </r>
       <r>     5.6485     1.4677     2.4902 </r>
       <r>     5.7129     0.7561     2.5389 </r>
       <r>     5.7772     0.7419     2.5866 </r>
       <r>     5.8416    -0.0180     2.5855 </r>
       <r>     5.9060     0.0922     2.5914 </r>
       <r>     5.9703     0.9972     2.6556 </r>
       <r>     6.0347     0.3779     2.6799 </r>
       <r>     6.0990     0.6835     2.7239 </r>
       <r>     6.1634     0.8311     2.7774 </r>
       <r>     6.2278     0.2746     2.7950 </r>
       <r>     6.2921    -0.0228     2.7936 </r>
       <r>     6.3565     0.0961     2.7998 </r>
       <r>     6.4208     0.2573     2.8163 </r>
       <r>     6.4852     0.0207     2.8177 </r>
       <r>     6.5495     0.1298     2.8260 </r>
       <r>     6.6139     0.3333     2.8475 </r>
       <r>     6.6783     0.1291     2.8558 </r>
       <r>     6.7426     0.2577     2.8724 </r>
       <r>     6.8070     0.0235     2.8739 </r>
       <r>     6.8713     0.6309     2.9145 </r>
       <r>     6.9357     0.1420     2.9236 </r>
       <r>     7.0000     0.4341     2.9515 </r>
       <r>     7.0644     0.2712     2.9690 </r>
       <r>     7.1288    -0.0177     2.9678 </r>
       <r>     7.1931     0.1589     2.9781 </r>
       <r>     7.2575     0.4009     3.0039 </r>
       <r>     7.3218     0.0787     3.0089 </r>
       <r>     7.3862     0.3972     3.0345 </r>
       <r>     7.4505     0.0377     3.0369 </r>
       <r>     7.5149     0.5448     3.0720 </r>
       <r>     7.5793     0.2755     3.0897 </r>
       <r>     7.6436     0.2883     3.1083 </r>
       <r>     7.7080    -0.0027     3.1081 </r>
       <r>     7.7723    -0.0016     3.1080 </r>
       <r>     7.8367     0.0000     3.1080 </r>
       <r>     7.9011    -0.0021     3.1079 </r>
       <r>     7.9654    -0.0144     3.1069 </r>
       <r>     8.0298     0.5165     3.1402 </r>
       <r>     8.0941     0.5897     3.1781 </r>
       <r>     8.1585     0.8695     3.2341 </r>
       <r>     8.2228     0.3041     3.2537 </r>
       <r>     8.2872    -0.0449     3.2508 </r>
       <r>     8.3516     0.2376     3.2661 </r>
       <r>     8.4159     0.5367     3.3006 </r>
       <r>     8.4803     0.2327     3.3156 </r>
       <r>     8.5446     0.3040     3.3351 </r>
       <r>     8.6090     0.4355     3.3632 </r>
       <r>     8.6733     0.8796     3.4198 </r>
       <r>     8.7377     0.5077     3.4525 </r>
       <r>     8.8021     0.0951     3.4586 </r>
       <r>     8.8664     0.6234     3.4987 </r>
       <r>     8.9308     0.8783     3.5552 </r>
       <r>     8.9951     0.4317     3.5830 </r>
       <r>     9.0595     0.2951     3.6020 </r>
       <r>     9.1239     0.9363     3.6623 </r>
       <r>     9.1882     1.1557     3.7366 </r>
       <r>     9.2526     0.3364     3.7583 </r>
       <r>     9.3169     0.2360     3.7735 </r>
       <r>     9.3813     1.0043     3.8381 </r>
       <r>     9.4456     0.4719     3.8685 </r>
       <r>     9.5100     0.6467     3.9101 </r>
       <r>     9.5744     0.2240     3.9245 </r>
       <r>     9.6387     0.1061     3.9313 </r>
       <r>     9.7031     0.6002     3.9700 </r>
       <r>     9.7674     0.8123     4.0222 </r>
       <r>     9.8318     0.5549     4.0579 </r>
       <r>     9.8961     0.0552     4.0615 </r>
       <r>     9.9605     0.1533     4.0714 </r>
       <r>    10.0249     0.8064     4.1233 </r>
       <r>    10.0892     1.1053     4.1944 </r>
       <r>    10.1536     0.3657     4.2179 </r>
       <r>    10.2179     0.5033     4.2503 </r>
       <r>    10.2823     0.4976     4.2824 </r>
       <r>    10.3466     0.5986     4.3209 </r>
       <r>    10.4110     1.2175     4.3992 </r>
       <r>    10.4754     1.4025     4.4895 </r>
       <r>    10.5397     1.4053     4.5799 </r>
       <r>    10.6041     1.5628     4.6805 </r>
       <r>    10.6684     1.8473     4.7994 </r>
       <r>    10.7328     2.1740     4.9393 </r>
       <r>    10.7972     1.2027     5.0167 </r>
       <r>    10.8615     1.0733     5.0858 </r>
       <r>    10.9259     0.5170     5.1191 </r>
       <r>    10.9902     0.3630     5.1424 </r>
       <r>    11.0546    -0.0088     5.1419 </r>
       <r>    11.1189     0.3006     5.1612 </r>
       <r>    11.1833     0.0798     5.1664 </r>
       <r>    11.2477     0.2989     5.1856 </r>
       <r>    11.3120     0.1051     5.1924 </r>
       <r>    11.3764     0.1421     5.2015 </r>
       <r>    11.4407     0.1751     5.2128 </r>
       <r>    11.5051     0.0882     5.2184 </r>
       <r>    11.5694    -0.0143     5.2175 </r>
       <r>    11.6338     0.0818     5.2228 </r>
       <r>    11.6982     0.2924     5.2416 </r>
       <r>    11.7625     0.2697     5.2590 </r>
       <r>    11.8269     0.1189     5.2666 </r>
       <r>    11.8912    -0.0147     5.2657 </r>
       <r>    11.9556     0.0464     5.2687 </r>
       <r>    12.0199     0.3228     5.2894 </r>
       <r>    12.0843     0.0113     5.2902 </r>
       <r>    12.1487    -0.0059     5.2898 </r>
       <r>    12.2130     0.0141     5.2907 </r>
       <r>    12.2774     0.3987     5.3164 </r>
       <r>    12.3417     0.0632     5.3204 </r>
       <r>    12.4061    -0.0070     5.3200 </r>
       <r>    12.4705    -0.0128     5.3192 </r>
       <r>    12.5348     0.2020     5.3322 </r>
       <r>    12.5992     0.1488     5.3417 </r>
       <r>    12.6635     0.7023     5.3869 </r>
       <r>    12.7279     1.2588     5.4679 </r>
       <r>    12.7922     0.4616     5.4977 </r>
       <r>    12.8566     0.6180     5.5374 </r>
       <r>    12.9210     0.9204     5.5967 </r>
       <r>    12.9853     0.3377     5.6184 </r>
       <r>    13.0497     0.2990     5.6376 </r>
       <r>    13.1140     0.4628     5.6674 </r>
       <r>    13.1784    -0.0208     5.6661 </r>
       <r>    13.2427    -0.0013     5.6660 </r>
       <r>    13.3071     0.0000     5.6660 </r>
       <r>    13.3715     0.0000     5.6660 </r>
       <r>    13.4358    -0.0004     5.6660 </r>
       <r>    13.5002    -0.0006     5.6659 </r>
       <r>    13.5645     0.0703     5.6705 </r>
       <r>    13.6289     0.0771     5.6754 </r>
       <r>    13.6933     0.3152     5.6957 </r>
       <r>    13.7576     0.0069     5.6961 </r>
       <r>    13.8220     0.1534     5.7060 </r>
       <r>    13.8863     0.0228     5.7075 </r>
       <r>    13.9507     0.2655     5.7246 </r>
       <r>    14.0150     0.1253     5.7326 </r>
       <r>    14.0794    -0.0099     5.7320 </r>
       <r>    14.1438    -0.0001     5.7320 </r>
       <r>    14.2081     0.0000     5.7320 </r>
       <r>    14.2725    -0.0053     5.7317 </r>
       <r>    14.3368     0.0369     5.7340 </r>
       <r>    14.4012     0.4792     5.7649 </r>
       <r>    14.4655     0.0253     5.7665 </r>
       <r>    14.5299     0.5388     5.8012 </r>
       <r>    14.5943     0.6107     5.8405 </r>
       <r>    14.6586     0.0412     5.8431 </r>
       <r>    14.7230     0.0798     5.8483 </r>
       <r>    14.7873    -0.0040     5.8480 </r>
       <r>    14.8517    -0.0045     5.8477 </r>
       <r>    14.9160     0.0103     5.8484 </r>
       <r>    14.9804     0.5976     5.8868 </r>
       <r>    15.0448     0.4757     5.9175 </r>
       <r>    15.1091     0.4388     5.9457 </r>
       <r>    15.1735    -0.0309     5.9437 </r>
       <r>    15.2378     0.0501     5.9469 </r>
       <r>    15.3022     0.3080     5.9668 </r>
       <r>    15.3666     0.2356     5.9819 </r>
       <r>    15.4309     0.1688     5.9928 </r>
       <r>    15.4953    -0.0152     5.9918 </r>
       <r>    15.5596     0.0401     5.9944 </r>
       <r>    15.6240     0.0909     6.0002 </r>
       <r>    15.6883    -0.0033     6.0000 </r>
       <r>    15.7527    -0.0003     6.0000 </r>
       <r>    15.8171     0.0000     6.0000 </r>
       <r>    15.8814     0.0000     6.0000 </r>
       <r>    15.9458     0.0000     6.0000 </r>
       <r>    16.0101     0.0000     6.0000 </r>
       <r>    16.0745     0.0000     6.0000 </r>
       <r>    16.1388     0.0000     6.0000 </r>
       <r>    16.2032     0.0000     6.0000 </r>
       <r>    16.2676     0.0000     6.0000 </r>
       <r>    16.3319     0.0000     6.0000 </r>
       <r>    16.3963     0.0000     6.0000 </r>
       <r>    16.4606     0.0000     6.0000 </r>
      </set>
      <set comment="spin 2">
       <r>    -2.8467     0.0000     0.0000 </r>
       <r>    -2.7823     0.0000     0.0000 </r>
       <r>    -2.7180     0.0000     0.0000 </r>
       <r>    -2.6536     0.0000     0.0000 </r>
       <r>    -2.5893     0.0000     0.0000 </r>
       <r>    -2.5249     0.0000     0.0000 </r>
       <r>    -2.4605     0.0000     0.0000 </r>
       <r>    -2.3962     0.0000     0.0000 </r>
       <r>    -2.3318     0.0000     0.0000 </r>
       <r>    -2.2675     0.0000     0.0000 </r>
       <r>    -2.2031     0.0000     0.0000 </r>
       <r>    -2.1388     0.0000     0.0000 </r>
       <r>    -2.0744    -0.0002     0.0000 </r>
       <r>    -2.0100    -0.0025    -0.0002 </r>
       <r>    -1.9457     0.0675     0.0042 </r>
       <r>    -1.8813     0.0310     0.0062 </r>
       <r>    -1.8170    -0.0025     0.0060 </r>
       <r>    -1.7526     0.0000     0.0060 </r>
       <r>    -1.6883     0.0000     0.0060 </r>
       <r>    -1.6239    -0.0026     0.0058 </r>
       <r>    -1.5595     0.0299     0.0078 </r>
       <r>    -1.4952     0.0991     0.0141 </r>
       <r>    -1.4308    -0.0016     0.0140 </r>
       <r>    -1.3665    -0.0005     0.0140 </r>
       <r>    -1.3021     0.0000     0.0140 </r>
       <r>    -1.2377    -0.0037     0.0138 </r>
       <r>    -1.1734     0.0267     0.0155 </r>
       <r>    -1.1090     0.3271     0.0365 </r>
       <r>    -1.0447     0.0265     0.0382 </r>
       <r>    -0.9803    -0.0037     0.0380 </r>
       <r>    -0.9160     0.0000     0.0380 </r>
       <r>    -0.8516     0.0000     0.0380 </r>
       <r>    -0.7872     0.0000     0.0380 </r>
       <r>    -0.7229     0.0000     0.0380 </r>
       <r>    -0.6585     0.0000     0.0380 </r>
       <r>    -0.5942     0.0000     0.0380 </r>
       <r>    -0.5298    -0.0014     0.0379 </r>
       <r>    -0.4655    -0.0050     0.0376 </r>
       <r>    -0.4011     0.3021     0.0570 </r>
       <r>    -0.3367     0.1684     0.0679 </r>
       <r>    -0.2724     0.0032     0.0681 </r>
       <r>    -0.2080    -0.0013     0.0680 </r>
       <r>    -0.1437    -0.0070     0.0675 </r>
       <r>    -0.0793     0.0771     0.0725 </r>
       <r>    -0.0149     0.3061     0.0922 </r>
       <r>     0.0494    -0.0018     0.0921 </r>
       <r>     0.1138    -0.0141     0.0912 </r>
       <r>     0.1781     0.1872     0.1032 </r>
       <r>     0.2425     0.2116     0.1168 </r>
       <r>     0.3068    -0.0128     0.1160 </r>
       <r>     0.3712    -0.0004     0.1160 </r>
       <r>     0.4356     0.0000     0.1160 </r>
       <r>     0.4999     0.0000     0.1160 </r>
       <r>     0.5643     0.0000     0.1160 </r>
       <r>     0.6286     0.0000     0.1160 </r>
       <r>     0.6930     0.0000     0.1160 </r>
       <r>     0.7573    -0.0045     0.1157 </r>
       <r>     0.8217     0.0201     0.1170 </r>
       <r>     0.8861     0.5245     0.1508 </r>
       <r>     0.9504     0.5956     0.1891 </r>
       <r>     1.0148    -0.0144     0.1882 </r>
       <r>     1.0791    -0.0027     0.1880 </r>
       <r>     1.1435    -0.0162     0.1869 </r>
       <r>     1.2078     0.1669     0.1977 </r>
       <r>     1.2722     0.9077     0.2561 </r>
       <r>     1.3366     0.0701     0.2606 </r>
       <r>     1.4009    -0.0229     0.2591 </r>
       <r>     1.4653     0.2182     0.2732 </r>
       <r>     1.5296     0.3253     0.2941 </r>
       <r>     1.5940     0.3264     0.3151 </r>
       <r>     1.6584     0.0825     0.3204 </r>
       <r>     1.7227    -0.0068     0.3200 </r>
       <r>     1.7871    -0.0025     0.3198 </r>
       <r>     1.8514    -0.0219     0.3184 </r>
       <r>     1.9158     0.6189     0.3583 </r>
       <r>     1.9801     0.9208     0.4175 </r>
       <r>     2.0445     0.8197     0.4703 </r>
       <r>     2.1089     0.5006     0.5025 </r>
       <r>     2.1732     0.2897     0.5211 </r>
       <r>     2.2376     0.1853     0.5331 </r>
       <r>     2.3019     0.5174     0.5664 </r>
       <r>     2.3663     0.6318     0.6070 </r>
       <r>     2.4306     0.3115     0.6271 </r>
       <r>     2.4950     0.0292     0.6290 </r>
       <r>     2.5594     0.3200     0.6496 </r>
       <r>     2.6237    -0.0039     0.6493 </r>
       <r>     2.6881     0.2076     0.6627 </r>
       <r>     2.7524     0.3305     0.6839 </r>
       <r>     2.8168     1.4810     0.7792 </r>
       <r>     2.8811     1.0310     0.8456 </r>
       <r>     2.9455     0.6323     0.8863 </r>
       <r>     3.0099     0.2246     0.9007 </r>
       <r>     3.0742    -0.0054     0.9004 </r>
       <r>     3.1386     0.8037     0.9521 </r>
       <r>     3.2029     0.8636     1.0077 </r>
       <r>     3.2673     0.3851     1.0325 </r>
       <r>     3.3317     0.0280     1.0343 </r>
       <r>     3.3960    -0.0054     1.0339 </r>
       <r>     3.4604     0.0046     1.0342 </r>
       <r>     3.5247     0.1078     1.0412 </r>
       <r>     3.5891     0.0008     1.0412 </r>
       <r>     3.6534     0.1868     1.0533 </r>
       <r>     3.7178     0.4486     1.0821 </r>
       <r>     3.7822     0.7278     1.1290 </r>
       <r>     3.8465     0.2618     1.1458 </r>
       <r>     3.9109     0.2621     1.1627 </r>
       <r>     3.9752    -0.0114     1.1619 </r>
       <r>     4.0396     0.0104     1.1626 </r>
       <r>     4.1039     0.1377     1.1715 </r>
       <r>     4.1683     0.7939     1.2226 </r>
       <r>     4.2327     1.2953     1.3059 </r>
       <r>     4.2970     0.2908     1.3246 </r>
       <r>     4.3614     1.3485     1.4114 </r>
       <r>     4.4257     2.1524     1.5500 </r>
       <r>     4.4901     0.4569     1.5794 </r>
       <r>     4.5545     0.6061     1.6184 </r>
       <r>     4.6188     0.9489     1.6794 </r>
       <r>     4.6832     0.6398     1.7206 </r>
       <r>     4.7475     0.2221     1.7349 </r>
       <r>     4.8119     0.7084     1.7805 </r>
       <r>     4.8762     0.6729     1.8238 </r>
       <r>     4.9406     1.2586     1.9048 </r>
       <r>     5.0050     1.4853     2.0004 </r>
       <r>     5.0693     0.3630     2.0238 </r>
       <r>     5.1337    -0.0496     2.0206 </r>
       <r>     5.1980     0.2108     2.0341 </r>
       <r>     5.2624     1.4945     2.1303 </r>
       <r>     5.3267     1.3529     2.2174 </r>
       <r>     5.3911     1.0680     2.2861 </r>
       <r>     5.4555     0.3476     2.3085 </r>
       <r>     5.5198     0.4844     2.3397 </r>
       <r>     5.5842     0.6084     2.3788 </r>
       <r>     5.6485     1.6163     2.4828 </r>
       <r>     5.7129     0.6912     2.5273 </r>
       <r>     5.7772     0.8745     2.5836 </r>
       <r>     5.8416     0.0394     2.5861 </r>
       <r>     5.9060     0.0042     2.5864 </r>
       <r>     5.9703     0.9270     2.6461 </r>
       <r>     6.0347     0.4916     2.6777 </r>
       <r>     6.0990     0.5358     2.7122 </r>
       <r>     6.1634     0.9105     2.7708 </r>
       <r>     6.2278     0.3701     2.7946 </r>
       <r>     6.2921    -0.0127     2.7938 </r>
       <r>     6.3565     0.0537     2.7972 </r>
       <r>     6.4208     0.2655     2.8143 </r>
       <r>     6.4852     0.0561     2.8179 </r>
       <r>     6.5495     0.0682     2.8223 </r>
       <r>     6.6139     0.3676     2.8460 </r>
       <r>     6.6783     0.0985     2.8523 </r>
       <r>     6.7426     0.3039     2.8719 </r>
       <r>     6.8070    -0.0065     2.8715 </r>
       <r>     6.8713     0.5738     2.9084 </r>
       <r>     6.9357     0.2123     2.9221 </r>
       <r>     7.0000     0.3629     2.9454 </r>
       <r>     7.0644     0.3619     2.9687 </r>
       <r>     7.1288    -0.0145     2.9678 </r>
       <r>     7.1931     0.1090     2.9748 </r>
       <r>     7.2575     0.4099     3.0012 </r>
       <r>     7.3218     0.0873     3.0068 </r>
       <r>     7.3862     0.3855     3.0316 </r>
       <r>     7.4505     0.0631     3.0357 </r>
       <r>     7.5149     0.4606     3.0653 </r>
       <r>     7.5793     0.3393     3.0871 </r>
       <r>     7.6436     0.3075     3.1069 </r>
       <r>     7.7080     0.0200     3.1082 </r>
       <r>     7.7723    -0.0033     3.1080 </r>
       <r>     7.8367     0.0000     3.1080 </r>
       <r>     7.9011    -0.0010     3.1079 </r>
       <r>     7.9654    -0.0215     3.1066 </r>
       <r>     8.0298     0.3880     3.1315 </r>
       <r>     8.0941     0.6736     3.1749 </r>
       <r>     8.1585     0.7412     3.2226 </r>
       <r>     8.2228     0.4930     3.2543 </r>
       <r>     8.2872    -0.0479     3.2512 </r>
       <r>     8.3516     0.1299     3.2596 </r>
       <r>     8.4159     0.6141     3.2991 </r>
       <r>     8.4803     0.1941     3.3116 </r>
       <r>     8.5446     0.3076     3.3314 </r>
       <r>     8.6090     0.3946     3.3568 </r>
       <r>     8.6733     0.8581     3.4120 </r>
       <r>     8.7377     0.5777     3.4492 </r>
       <r>     8.8021     0.1158     3.4566 </r>
       <r>     8.8664     0.5194     3.4901 </r>
       <r>     8.9308     0.9044     3.5483 </r>
       <r>     8.9951     0.4911     3.5799 </r>
       <r>     9.0595     0.2476     3.5958 </r>
       <r>     9.1239     0.8569     3.6510 </r>
       <r>     9.1882     1.1927     3.7277 </r>
       <r>     9.2526     0.4805     3.7586 </r>
       <r>     9.3169     0.1115     3.7658 </r>
       <r>     9.3813     1.0217     3.8316 </r>
       <r>     9.4456     0.5073     3.8642 </r>
       <r>     9.5100     0.6028     3.9030 </r>
       <r>     9.5744     0.3433     3.9251 </r>
       <r>     9.6387     0.0398     3.9277 </r>
       <r>     9.7031     0.5674     3.9642 </r>
       <r>     9.7674     0.7836     4.0146 </r>
       <r>     9.8318     0.6219     4.0547 </r>
       <r>     9.8961     0.1162     4.0621 </r>
       <r>     9.9605     0.0658     4.0664 </r>
       <r>    10.0249     0.7540     4.1149 </r>
       <r>    10.0892     1.1088     4.1863 </r>
       <r>    10.1536     0.4606     4.2159 </r>
       <r>    10.2179     0.4652     4.2458 </r>
       <r>    10.2823     0.4505     4.2748 </r>
       <r>    10.3466     0.6775     4.3184 </r>
       <r>    10.4110     0.9592     4.3802 </r>
       <r>    10.4754     1.6229     4.4846 </r>
       <r>    10.5397     1.1738     4.5602 </r>
       <r>    10.6041     1.6949     4.6692 </r>
       <r>    10.6684     1.7137     4.7795 </r>
       <r>    10.7328     2.2249     4.9227 </r>
       <r>    10.7972     1.2936     5.0060 </r>
       <r>    10.8615     1.1101     5.0774 </r>
       <r>    10.9259     0.5797     5.1147 </r>
       <r>    10.9902     0.4117     5.1412 </r>
       <r>    11.0546     0.0035     5.1415 </r>
       <r>    11.1189     0.2523     5.1577 </r>
       <r>    11.1833     0.1289     5.1660 </r>
       <r>    11.2477     0.2587     5.1826 </r>
       <r>    11.3120     0.1353     5.1913 </r>
       <r>    11.3764     0.1453     5.2007 </r>
       <r>    11.4407     0.1467     5.2101 </r>
       <r>    11.5051     0.1308     5.2186 </r>
       <r>    11.5694    -0.0129     5.2177 </r>
       <r>    11.6338     0.0368     5.2201 </r>
       <r>    11.6982     0.3129     5.2402 </r>
       <r>    11.7625     0.2335     5.2553 </r>
       <r>    11.8269     0.1794     5.2668 </r>
       <r>    11.8912    -0.0152     5.2658 </r>
       <r>    11.9556     0.0140     5.2667 </r>
       <r>    12.0199     0.3245     5.2876 </r>
       <r>    12.0843     0.0418     5.2903 </r>
       <r>    12.1487    -0.0064     5.2899 </r>
       <r>    12.2130    -0.0062     5.2895 </r>
       <r>    12.2774     0.3630     5.3129 </r>
       <r>    12.3417     0.1214     5.3207 </r>
       <r>    12.4061    -0.0104     5.3200 </r>
       <r>    12.4705    -0.0108     5.3193 </r>
       <r>    12.5348     0.1418     5.3284 </r>
       <r>    12.5992     0.2165     5.3424 </r>
       <r>    12.6635     0.4470     5.3711 </r>
       <r>    12.7279     1.4216     5.4626 </r>
       <r>    12.7922     0.4579     5.4921 </r>
       <r>    12.8566     0.6116     5.5314 </r>
       <r>    12.9210     0.8464     5.5859 </r>
       <r>    12.9853     0.5157     5.6191 </r>
       <r>    13.0497     0.1755     5.6304 </r>
       <r>    13.1140     0.5600     5.6664 </r>
       <r>    13.1784    -0.0039     5.6662 </r>
       <r>    13.2427    -0.0030     5.6660 </r>
       <r>    13.3071     0.0000     5.6660 </r>
       <r>    13.3715     0.0000     5.6660 </r>
       <r>    13.4358    -0.0002     5.6660 </r>
       <r>    13.5002    -0.0030     5.6658 </r>
       <r>    13.5645     0.0589     5.6696 </r>
       <r>    13.6289     0.0508     5.6729 </r>
       <r>    13.6933     0.3207     5.6935 </r>
       <r>    13.7576     0.0386     5.6960 </r>
       <r>    13.8220     0.1332     5.7046 </r>
       <r>    13.8863     0.0450     5.7075 </r>
       <r>    13.9507     0.2105     5.7210 </r>
       <r>    14.0150     0.1836     5.7328 </r>
       <r>    14.0794    -0.0124     5.7320 </r>
       <r>    14.1438    -0.0002     5.7320 </r>
       <r>    14.2081     0.0000     5.7320 </r>
       <r>    14.2725    -0.0024     5.7318 </r>
       <r>    14.3368    -0.0020     5.7317 </r>
       <r>    14.4012     0.4412     5.7601 </r>
       <r>    14.4655     0.1059     5.7669 </r>
       <r>    14.5299     0.3864     5.7918 </r>
       <r>    14.5943     0.7328     5.8389 </r>
       <r>    14.6586     0.0460     5.8419 </r>
       <r>    14.7230     0.0959     5.8481 </r>
       <r>    14.7873    -0.0007     5.8480 </r>
       <r>    14.8517    -0.0027     5.8479 </r>
       <r>    14.9160    -0.0155     5.8469 </r>
       <r>    14.9804     0.5313     5.8811 </r>
       <r>    15.0448     0.4609     5.9107 </r>
       <r>    15.1091     0.5374     5.9453 </r>
       <r>    15.1735    -0.0212     5.9439 </r>
       <r>    15.2378     0.0131     5.9448 </r>
       <r>    15.3022     0.3132     5.9649 </r>
       <r>    15.3666     0.2031     5.9780 </r>
       <r>    15.4309     0.2304     5.9928 </r>
       <r>    15.4953    -0.0146     5.9919 </r>
       <r>    15.5596     0.0199     5.9932 </r>
       <r>    15.6240     0.1053     6.0000 </r>
       <r>    15.6883     0.0013     6.0000 </r>
       <r>    15.7527    -0.0007     6.0000 </r>
       <r>    15.8171     0.0000     6.0000 </r>
       <r>    15.8814     0.0000     6.0000 </r>
       <r>    15.9458     0.0000     6.0000 </r>
       <r>    16.0101     0.0000     6.0000 </r>
       <r>    16.0745     0.0000     6.0000 </r>
       <r>    16.1388     0.0000     6.0000 </r>
       <r>    16.2032     0.0000     6.0000 </r>
       <r>    16.2676     0.0000     6.0000 </r>
       <r>    16.3319     0.0000     6.0000 </r>
       <r>    16.3963     0.0000     6.0000 </r>
       <r>    16.4606     0.0000     6.0000 </r>
      </set>
     </set>
    </array>
   </total>
   <partial>
    <array>
     <dimension dim="1">gridpoints</dimension>
     <dimension dim="2">spin</dimension>
     <dimension dim="3">ion</dimension>
     <field>energy</field>
     <field>  s</field>
     <field> py</field>
     <field> pz</field>
     <field> px</field>
     <field>dxy</field>
     <field>dyz</field>
     <field>dz2</field>
     <field>dxz</field>
     <field>dx2</field>
     <set>
      <set comment="ion 1">
       <set comment="spin 1">
        <r>    -2.8467     0.0000     0.0000     0.0000     0.0000     0.0000     0.0000     0.0000     0.0000     0.0000 </r>
        <r>    -2.7823     0.0000     0.0000     0.0000     0.0000     0.0000     0.0000     0.0000     0.0000     0.0000 </r>
        <r>    -2.7180     0.0000     0.0000     0.0000     0.0000     0.0000     0.0000     0.0000     0.0000     0.0000 </r>
        <r>    -2.6536     0.0000     0.0000     0.0000     0.0000     0.0000     0.0000     0.0000     0.0000     0.0000 </r>
        <r>    -2.5893     0.0000     0.0000     0.0000     0.0000     0.0000     0.0000     0.0000     0.0000     0.0000 </r>
        <r>    -2.5249     0.0000     0.0000     0.0000     0.0000     0.0000     0.0000     0.0000     0.0000     0.0000 </r>
        <r>    -2.4605     0.0000     0.0000     0.0000     0.0000     0.0000     0.0000     0.0000     0.0000     0.0000 </r>
        <r>    -2.3962     0.0000     0.0000     0.0000     0.0000     0.0000     0.0000     0.0000     0.0000     0.0000 </r>
        <r>    -2.3318     0.0000     0.0000     0.0000     0.0000     0.0000     0.0000     0.0000     0.0000     0.0000 </r>
        <r>    -2.2675     0.0000     0.0000     0.0000     0.0000     0.0000     0.0000     0.0000     0.0000     0.0000 </r>
        <r>    -2.2031     0.0000     0.0000     0.0000     0.0000     0.0000     0.0000     0.0000     0.0000     0.0000 </r>
        <r>    -2.1388     0.0000     0.0000     0.0000     0.0000     0.0000     0.0000     0.0000     0.0000     0.0000 </r>
        <r>    -2.0744    -0.0004     0.0000     0.0000     0.0000     0.0000     0.0000     0.0000     0.0000     0.0000 </r>
        <r>    -2.0100     0.0008     0.0000     0.0000     0.0000     0.0000     0.0000     0.0000     0.0000     0.0000 </r>
        <r>    -1.9457     0.0665     0.0002     0.0007     0.0004     0.0000     0.0000     0.0000     0.0000     0.0000 </r>
        <r>    -1.8813     0.0129     0.0000     0.0001     0.0001     0.0000     0.0000     0.0000     0.0000     0.0000 </r>
[...]
       </set>
       <set comment="band 2">
        <r>  0.0000  0.1274  0.0955  0.0637  0.4956  0.0475  0.0000  0.0237  0.0619 </r>
       </set>
       <set comment="band 3">
        <r>  0.0000  0.0955  0.0000  0.1910  0.0237  0.1384  0.0000  0.2768  0.1898 </r>
       </set>
       <set comment="band 4">
        <r>  0.0000  0.0283  0.0000  0.0566  0.0494  0.1430  0.0000  0.2861  0.3951 </r>
       </set>
       <set comment="band 5">
        <r>  0.0000  0.0377  0.0283  0.0189  0.0774  0.0988  0.6384  0.0494  0.0097 </r>
       </set>
       <set comment="band 6">
        <r>  0.6119  0.0131  0.0394  0.0066  0.0157  0.0944  0.0531  0.0472  0.0020 </r>
       </set>
      </set>
      <set comment="kpoint 23">
       <set comment="band 1">
        <r>  0.5008  0.0583  0.1749  0.0292  0.0123  0.0739  0.0415  0.0369  0.0015 </r>
       </set>
       <set comment="band 2">
        <r>  0.0000  0.0283  0.0001  0.0656  0.0875  0.0236  0.0011  0.0649  0.7231 </r>
       </set>
       <set comment="band 3">
        <r>  0.0000  0.0448  0.0313  0.0180  0.0136  0.1862  0.6162  0.0841  0.0000 </r>
       </set>
       <set comment="band 4">
        <r>  0.0000  0.0000  0.0000  0.0001  0.0014  0.2911  0.0004  0.5325  0.1335 </r>
       </set>
       <set comment="band 5">
        <r>  0.0000  0.0001  0.0001  0.0000  0.7908  0.0142  0.0406  0.0354  0.0778 </r>
       </set>
       <set comment="band 6">
        <r>  0.0037  0.0497  0.1492  0.0249  0.0549  0.3293  0.1852  0.1647  0.0069 </r>
       </set>
      </set>
      <set comment="kpoint 24">
       <set comment="band 1">
        <r>  0.2502  0.0492  0.1476  0.0007  0.0764  0.0836  0.0002  0.2292  0.1266 </r>
       </set>
       <set comment="band 2">
        <r>  0.0000  0.0851  0.0284  0.0000  0.1252  0.1819  0.4094  0.0417  0.1365 </r>
       </set>
       <set comment="band 3">
        <r>  0.0615  0.0170  0.0509  0.2677  0.0051  0.0229  0.1867  0.0154  0.3292 </r>
       </set>
       <set comment="band 4">
        <r>  0.0083  0.0000  0.0000  0.0030  0.0964  0.3529  0.0175  0.2892  0.2086 </r>
       </set>
       <set comment="band 5">
        <r>  0.0000  0.0000  0.0000  0.0000  0.6157  0.0398  0.0894  0.2052  0.0298 </r>
       </set>
       <set comment="band 6">
        <r>  0.0001  0.0561  0.1683  0.0592  0.0418  0.2392  0.2083  0.1253  0.0510 </r>
       </set>
      </set>
      <set comment="kpoint 25">
       <set comment="band 1">
        <r>  0.1616  0.0250  0.0751  0.0501  0.0969  0.0691  0.0069  0.2908  0.2005 </r>
       </set>
       <set comment="band 2">
        <r>  0.0000  0.0907  0.0302  0.0000  0.2230  0.1487  0.3346  0.0743  0.1115 </r>
       </set>
       <set comment="band 3">
        <r>  0.0000  0.0434  0.1301  0.3469  0.0116  0.0697  0.1569  0.0349  0.1452 </r>
       </set>
       <set comment="band 4">
        <r>  0.0355  0.0002  0.0005  0.0003  0.0838  0.4288  0.0517  0.2515  0.1313 </r>
       </set>
       <set comment="band 5">
        <r>  0.0000  0.0000  0.0000  0.0000  0.4945  0.0824  0.1854  0.1648  0.0618 </r>
       </set>
       <set comment="band 6">
        <r>  0.7022  0.0106  0.0318  0.0212  0.0083  0.0569  0.0000  0.0248  0.0734 </r>
       </set>
      </set>
      <set comment="kpoint 26">
       <set comment="band 1">
        <r>  0.7280  0.0229  0.0687  0.0458  0.0033  0.0049  0.0012  0.0098  0.0004 </r>
       </set>
       <set comment="band 2">
        <r>  0.0000  0.0342  0.0114  0.0000  0.2409  0.1606  0.3613  0.0803  0.1204 </r>
       </set>
       <set comment="band 3">
        <r>  0.0000  0.0038  0.0114  0.0304  0.0268  0.1606  0.3613  0.0803  0.3345 </r>
       </set>
       <set comment="band 4">
        <r>  0.0000  0.0000  0.0000  0.0000  0.4175  0.0696  0.1565  0.1392  0.0522 </r>
       </set>
       <set comment="band 5">
        <r>  0.0000  0.0000  0.0000  0.0000  0.0562  0.3371  0.0000  0.1685  0.4494 </r>
       </set>
       <set comment="band 6">
        <r>  0.0165  0.0008  0.0024  0.0016  0.1576  0.2364  0.0591  0.4728  0.0197 </r>
       </set>
      </set>
      <set comment="kpoint 27">
       <set comment="band 1">
        <r>  0.0788  0.0086  0.1420  0.0043  0.0127  0.3795  0.1806  0.1897  0.0016 </r>
       </set>
       <set comment="band 2">
        <r>  0.0000  0.0892  0.0000  0.1784  0.0717  0.0208  0.0000  0.0417  0.5734 </r>
       </set>
       <set comment="band 3">
        <r>  0.0354  0.1919  0.0904  0.0960  0.1656  0.0331  0.3113  0.0166  0.0207 </r>
       </set>
       <set comment="band 4">
        <r>  0.0000  0.0012  0.0000  0.0024  0.0097  0.2976  0.0000  0.5951  0.0778 </r>
       </set>
       <set comment="band 5">
        <r>  0.0071  0.0004  0.0004  0.0002  0.6043  0.0147  0.2795  0.0074  0.0755 </r>
       </set>
       <set comment="band 6">
        <r>  0.8033  0.0033  0.0533  0.0016  0.0005  0.0506  0.0004  0.0253  0.0001 </r>
       </set>
      </set>
      <set comment="kpoint 28">
       <set comment="band 1">
        <r>  0.5996  0.0474  0.0688  0.0949  0.0456  0.0128  0.0056  0.0257  0.0057 </r>
       </set>
       <set comment="band 2">
        <r>  0.0034  0.0180  0.0055  0.0359  0.5906  0.0454  0.0265  0.0908  0.0738 </r>
       </set>
       <set comment="band 3">
        <r>  0.0000  0.0298  0.0000  0.0149  0.0061  0.6026  0.0000  0.3013  0.0486 </r>
       </set>
       <set comment="band 4">
        <r>  0.0008  0.0174  0.0042  0.0349  0.0017  0.0232  0.8056  0.0464  0.0002 </r>
       </set>
       <set comment="band 5">
        <r>  0.0000  0.0216  0.0000  0.0108  0.0965  0.0506  0.0000  0.0253  0.7717 </r>
       </set>
       <set comment="band 6">
        <r>  0.0595  0.0023  0.0034  0.0046  0.1355  0.2332  0.0687  0.4664  0.0169 </r>
       </set>
      </set>
      <set comment="kpoint 29">
       <set comment="band 1">
        <r>  0.3902  0.0357  0.0647  0.0714  0.2696  0.0110  0.0352  0.0220  0.0337 </r>
       </set>
       <set comment="band 2">
        <r>  0.0301  0.0640  0.0003  0.1279  0.3564  0.0854  0.0000  0.1708  0.0445 </r>
       </set>
       <set comment="band 3">
        <r>  0.0000  0.0270  0.0000  0.0135  0.0011  0.6371  0.0000  0.3186  0.0087 </r>
       </set>
       <set comment="band 4">
        <r>  0.0046  0.0383  0.0008  0.0766  0.0135  0.0003  0.7923  0.0007  0.0017 </r>
       </set>
       <set comment="band 5">
        <r>  0.0000  0.0359  0.0000  0.0180  0.0978  0.0146  0.0000  0.0073  0.7823 </r>
       </set>
       <set comment="band 6">
        <r>  0.1274  0.0257  0.0033  0.0514  0.1172  0.2156  0.0044  0.4312  0.0146 </r>
       </set>
      </set>
      <set comment="kpoint 30">
       <set comment="band 1">
        <r>  0.4319  0.0764  0.0930  0.0810  0.0876  0.1131  0.0065  0.0311  0.0004 </r>
       </set>
       <set comment="band 2">
        <r>  0.0000  0.0044  0.0132  0.0352  0.4110  0.1640  0.0084  0.0433  0.2024 </r>
       </set>
       <set comment="band 3">
        <r>  0.0012  0.0963  0.0007  0.0158  0.0300  0.3078  0.2295  0.2898  0.0103 </r>
       </set>
       <set comment="band 4">
        <r>  0.0000  0.0064  0.0191  0.0509  0.0292  0.0444  0.4809  0.1729  0.1419 </r>
       </set>
       <set comment="band 5">
        <r>  0.0268  0.0260  0.0052  0.0002  0.0468  0.2132  0.1316  0.0130  0.4933 </r>
       </set>
       <set comment="band 6">
        <r>  0.1290  0.0577  0.0049  0.0164  0.2681  0.0961  0.0021  0.3770  0.0340 </r>
       </set>
      </set>
      <set comment="kpoint 31">
       <set comment="band 1">
        <r>  0.2270  0.0037  0.0547  0.0074  0.5416  0.0010  0.0448  0.0020  0.0677 </r>
       </set>
       <set comment="band 2">
        <r>  0.0000  0.0260  0.0000  0.0130  0.0001  0.6466  0.0000  0.3233  0.0007 </r>
       </set>
       <set comment="band 3">
        <r>  0.0173  0.1255  0.0002  0.2511  0.0461  0.1434  0.0039  0.2869  0.0058 </r>
       </set>
       <set comment="band 4">
        <r>  0.0915  0.0098  0.0013  0.0196  0.0926  0.0036  0.6722  0.0071  0.0116 </r>
       </set>
       <set comment="band 5">
        <r>  0.0508  0.1286  0.0019  0.2572  0.0291  0.1708  0.0101  0.3416  0.0036 </r>
       </set>
       <set comment="band 6">
        <r>  0.0000  0.0121  0.0000  0.0061  0.1060  0.0023  0.0000  0.0011  0.8479 </r>
       </set>
      </set>
      <set comment="kpoint 32">
       <set comment="band 1">
        <r>  0.2258  0.0507  0.0836  0.0241  0.4287  0.0605  0.0163  0.0089  0.0348 </r>
       </set>
       <set comment="band 2">
        <r>  0.0237  0.0148  0.0008  0.1446  0.1709  0.3047  0.0177  0.1135  0.1022 </r>
       </set>
       <set comment="band 3">
        <r>  0.0050  0.1090  0.0039  0.0090  0.0000  0.2624  0.0954  0.4834  0.0004 </r>
       </set>
       <set comment="band 4">
        <r>  0.0347  0.0001  0.0182  0.0611  0.0358  0.0977  0.6304  0.0353  0.0179 </r>
       </set>
       <set comment="band 5">
        <r>  0.1199  0.0120  0.0052  0.0846  0.0000  0.1920  0.0003  0.1433  0.4057 </r>
       </set>
       <set comment="band 6">
        <r>  0.0582  0.1510  0.0050  0.0515  0.2279  0.0124  0.0256  0.1273  0.3188 </r>
       </set>
      </set>
      <set comment="kpoint 33">
       <set comment="band 1">
        <r>  0.1360  0.0090  0.0732  0.0045  0.6157  0.0058  0.0109  0.0029  0.0770 </r>
       </set>
       <set comment="band 2">
        <r>  0.0000  0.0984  0.0000  0.1968  0.0024  0.1905  0.0000  0.3811  0.0195 </r>
       </set>
       <set comment="band 3">
        <r>  0.0449  0.0356  0.0014  0.0178  0.0219  0.4842  0.1237  0.2421  0.0027 </r>
       </set>
       <set comment="band 4">
        <r>  0.0955  0.0142  0.0239  0.0071  0.0377  0.1167  0.5658  0.0583  0.0047 </r>
       </set>
       <set comment="band 5">
        <r>  0.0000  0.0791  0.0000  0.1582  0.0557  0.0788  0.0000  0.1576  0.4455 </r>
       </set>
       <set comment="band 6">
        <r>  0.0000  0.1238  0.0000  0.2476  0.0521  0.0537  0.0000  0.1074  0.4171 </r>
       </set>
      </set>
      <set comment="kpoint 34">
       <set comment="band 1">
        <r>  0.1009  0.0770  0.0477  0.0538  0.2289  0.3104  0.0135  0.0904  0.0003 </r>
       </set>
       <set comment="band 2">
        <r>  0.0000  0.0116  0.0349  0.0932  0.3935  0.1327  0.0247  0.0575  0.1524 </r>
       </set>
       <set comment="band 3">
        <r>  0.0841  0.0768  0.0003  0.0077  0.0001  0.1229  0.2003  0.4522  0.0121 </r>
       </set>
       <set comment="band 4">
        <r>  0.0000  0.0114  0.0343  0.0914  0.0292  0.0395  0.4468  0.1619  0.1282 </r>
       </set>
       <set comment="band 5">
        <r>  0.0594  0.0796  0.0275  0.0405  0.0120  0.2440  0.0921  0.0248  0.3737 </r>
       </set>
       <set comment="band 6">
        <r>  0.2772  0.0373  0.0518  0.0431  0.2312  0.0399  0.1132  0.0088  0.1546 </r>
       </set>
      </set>
      <set comment="kpoint 35">
       <set comment="band 1">
        <r>  0.0000  0.0789  0.0007  0.2127  0.0620  0.0011  0.0024  0.0005  0.6228 </r>
       </set>
       <set comment="band 2">
        <r>  0.0000  0.1485  0.0967  0.0471  0.1166  0.1520  0.3420  0.0760  0.0022 </r>
       </set>
       <set comment="band 3">
        <r>  0.0000  0.0650  0.1949  0.0325  0.0510  0.3061  0.1722  0.1531  0.0064 </r>
       </set>
       <set comment="band 4">
        <r>  0.0000  0.0000  0.0000  0.0000  0.0001  0.3309  0.0000  0.6618  0.0000 </r>
       </set>
       <set comment="band 5">
        <r>  0.0000  0.0000  0.0000  0.0000  0.6618  0.0000  0.2482  0.0001  0.0827 </r>
       </set>
       <set comment="band 6">
        <r>  0.9536  0.0000  0.0000  0.0000  0.0000  0.0000  0.0000  0.0000  0.0000 </r>
       </set>
      </set>
      <set comment="kpoint 36">
       <set comment="band 1">
        <r>  0.4482  0.0481  0.1442  0.0961  0.0291  0.0436  0.0109  0.0873  0.0036 </r>
       </set>
       <set comment="band 2">
        <r>  0.0000  0.0000  0.0000  0.0000  0.4225  0.0704  0.1584  0.1408  0.0528 </r>
       </set>
       <set comment="band 3">
        <r>  0.0000  0.0868  0.0289  0.0000  0.2142  0.1428  0.3213  0.0714  0.1071 </r>
       </set>
       <set comment="band 4">
        <r>  0.0000  0.0096  0.0289  0.0771  0.0238  0.1428  0.3213  0.0714  0.2975 </r>
       </set>
       <set comment="band 5">
        <r>  0.0000  0.0000  0.0000  0.0000  0.0535  0.3212  0.0000  0.1606  0.4283 </r>
       </set>
       <set comment="band 6">
        <r>  0.1760  0.0047  0.0142  0.0095  0.1298  0.1947  0.0487  0.3894  0.0162 </r>
       </set>
      </set>
      <set comment="kpoint 37">
       <set comment="band 1">
        <r>  0.2369  0.0463  0.1200  0.0926  0.2136  0.0594  0.0014  0.1189  0.0267 </r>
       </set>
       <set comment="band 2">
        <r>  0.0051  0.0134  0.0004  0.0267  0.4055  0.1070  0.0485  0.2140  0.0507 </r>
       </set>
       <set comment="band 3">
        <r>  0.0000  0.0742  0.0000  0.0371  0.0063  0.5329  0.0000  0.2664  0.0505 </r>
       </set>
       <set comment="band 4">
        <r>  0.0270  0.0288  0.0417  0.0577  0.0167  0.0051  0.7515  0.0102  0.0021 </r>
       </set>
       <set comment="band 5">
        <r>  0.0000  0.0230  0.0000  0.0115  0.0904  0.0656  0.0000  0.0328  0.7229 </r>
       </set>
       <set comment="band 6">
        <r>  0.2738  0.0482  0.0162  0.0965  0.1257  0.1281  0.0014  0.2562  0.0157 </r>
       </set>
      </set>
      <set comment="kpoint 38">
       <set comment="band 1">
        <r>  0.0784  0.0037  0.0786  0.0073  0.6464  0.0027  0.0107  0.0054  0.0808 </r>
       </set>
       <set comment="band 2">
        <r>  0.0115  0.0619  0.0023  0.1238  0.0263  0.2180  0.0075  0.4360  0.0033 </r>
       </set>
       <set comment="band 3">
        <r>  0.0000  0.0678  0.0000  0.0339  0.0004  0.5753  0.0000  0.2877  0.0034 </r>
       </set>
       <set comment="band 4">
        <r>  0.1583  0.0039  0.0599  0.0078  0.0014  0.0041  0.6728  0.0082  0.0002 </r>
       </set>
       <set comment="band 5">
        <r>  0.0000  0.0120  0.0000  0.0060  0.1040  0.0086  0.0000  0.0043  0.8318 </r>
       </set>
       <set comment="band 6">
        <r>  0.1168  0.1718  0.0096  0.3435  0.0473  0.0799  0.0345  0.1599  0.0059 </r>
       </set>
      </set>
      <set comment="kpoint 39">
       <set comment="band 1">
        <r>  0.0769  0.0596  0.0739  0.0639  0.1623  0.2126  0.0079  0.2490  0.0029 </r>
       </set>
       <set comment="band 2">
        <r>  0.0000  0.0031  0.0093  0.0247  0.4485  0.1081  0.0864  0.1050  0.1044 </r>
       </set>
       <set comment="band 3">
        <r>  0.0804  0.0669  0.0348  0.0005  0.0246  0.1905  0.2443  0.3047  0.0002 </r>
       </set>
       <set comment="band 4">
        <r>  0.0000  0.0150  0.0449  0.1198  0.0001  0.0806  0.3722  0.1096  0.1982 </r>
       </set>
       <set comment="band 5">
        <r>  0.1511  0.0442  0.0483  0.0437  0.0081  0.2771  0.0359  0.0006  0.3306 </r>
       </set>
       <set comment="band 6">
        <r>  0.1188  0.1749  0.0239  0.0588  0.2360  0.0031  0.0426  0.0906  0.2126 </r>
       </set>
      </set>
      <set comment="kpoint 40">
       <set comment="band 1">
        <r>  0.0138  0.0136  0.0495  0.0068  0.6615  0.0003  0.0744  0.0002  0.0827 </r>
       </set>
       <set comment="band 2">
        <r>  0.0000  0.0429  0.0000  0.0859  0.0009  0.2539  0.0000  0.5078  0.0076 </r>
       </set>
       <set comment="band 3">
        <r>  0.1264  0.0337  0.0482  0.0168  0.0124  0.3169  0.2331  0.1584  0.0015 </r>
       </set>
       <set comment="band 4">
        <r>  0.0387  0.0612  0.0812  0.0306  0.0036  0.2124  0.4004  0.1062  0.0005 </r>
       </set>
       <set comment="band 5">
        <r>  0.0000  0.0686  0.0000  0.1371  0.0754  0.0230  0.0000  0.0460  0.6033 </r>
       </set>
       <set comment="band 6">
        <r>  0.0000  0.1921  0.0000  0.3843  0.0335  0.0348  0.0000  0.0697  0.2681 </r>
       </set>
      </set>
      <set comment="kpoint 41">
       <set comment="band 1">
        <r>  0.0744  0.0324  0.0972  0.0648  0.1068  0.1602  0.0401  0.3205  0.0134 </r>
       </set>
       <set comment="band 2">
        <r>  0.0000  0.0000  0.0000  0.0000  0.4425  0.0738  0.1660  0.1475  0.0553 </r>
       </set>
       <set comment="band 3">
        <r>  0.0000  0.1475  0.0492  0.0000  0.1862  0.1242  0.2794  0.0621  0.0931 </r>
       </set>
       <set comment="band 4">
        <r>  0.0000  0.0164  0.0492  0.1311  0.0207  0.1242  0.2794  0.0621  0.2587 </r>
       </set>
       <set comment="band 5">
        <r>  0.0000  0.0000  0.0000  0.0000  0.0523  0.3139  0.0000  0.1570  0.4185 </r>
       </set>
       <set comment="band 6">
        <r>  0.3883  0.0472  0.1417  0.0945  0.0421  0.0632  0.0158  0.1264  0.0053 </r>
       </set>
      </set>
      <set comment="kpoint 42">
       <set comment="band 1">
        <r>  0.0043  0.0001  0.0221  0.0001  0.6294  0.0066  0.1493  0.0133  0.0787 </r>
       </set>
       <set comment="band 2">
        <r>  0.0072  0.0246  0.0132  0.0492  0.0099  0.2669  0.0014  0.5339  0.0012 </r>
       </set>
       <set comment="band 3">
        <r>  0.1055  0.0028  0.1951  0.0056  0.0543  0.0010  0.5517  0.0020  0.0068 </r>
       </set>
       <set comment="band 4">
        <r>  0.0000  0.1174  0.0000  0.0587  0.0024  0.4930  0.0000  0.2465  0.0191 </r>
       </set>
       <set comment="band 5">
        <r>  0.0000  0.0101  0.0000  0.0050  0.0995  0.0332  0.0000  0.0166  0.7963 </r>
       </set>
       <set comment="band 6">
        <r>  0.1697  0.1731  0.0548  0.3463  0.0479  0.0270  0.0394  0.0540  0.0060 </r>
       </set>
      </set>
      <set comment="kpoint 43">
       <set comment="band 1">
        <r>  0.0000  0.0143  0.0107  0.0071  0.6107  0.0004  0.1904  0.0002  0.0763 </r>
       </set>
       <set comment="band 2">
        <r>  0.0000  0.0107  0.0000  0.0214  0.0002  0.2920  0.0000  0.5841  0.0018 </r>
       </set>
       <set comment="band 3">
        <r>  0.0752  0.0426  0.1279  0.0213  0.0489  0.2935  0.1651  0.1468  0.0061 </r>
       </set>
       <set comment="band 4">
        <r>  0.0000  0.0667  0.0000  0.1342  0.0805  0.0046  0.0000  0.0095  0.6458 </r>
       </set>
       <set comment="band 5">
        <r>  0.0000  0.0896  0.0670  0.0444  0.0536  0.1615  0.4382  0.0806  0.0064 </r>
       </set>
       <set comment="band 6">
        <r>  0.0000  0.2132  0.0000  0.4372  0.0286  0.0094  0.0000  0.0170  0.2307 </r>
       </set>
      </set>
      <set comment="kpoint 44">
       <set comment="band 1">
        <r>  0.0000  0.0000  0.0000  0.0000  0.4575  0.0762  0.1715  0.1525  0.0572 </r>
       </set>
       <set comment="band 2">
        <r>  0.0007  0.0035  0.0106  0.0071  0.1491  0.2237  0.0559  0.4474  0.0186 </r>
       </set>
       <set comment="band 3">
        <r>  0.0000  0.1516  0.0505  0.0000  0.1838  0.1226  0.2758  0.0613  0.0919 </r>
       </set>
       <set comment="band 4">
        <r>  0.0000  0.0168  0.0505  0.1347  0.0204  0.1226  0.2758  0.0613  0.2553 </r>
       </set>
       <set comment="band 5">
        <r>  0.0000  0.0000  0.0000  0.0000  0.0535  0.3210  0.0000  0.1605  0.4280 </r>
       </set>
       <set comment="band 6">
        <r>  0.1265  0.1215  0.3645  0.2430  0.0037  0.0056  0.0014  0.0112  0.0005 </r>
       </set>
      </set>
     </set>
    </set>
   </array>
  </projected>
 </calculation>
 <structure name="finalpos" >
  <crystal>
   <varray name="basis" >
    <v>       2.86654409       0.00000000       0.00000000 </v>
    <v>      -0.95551470       2.70260368       0.00000000 </v>
    <v>      -0.95551470      -1.35130184       2.34052345 </v>
   </varray>
   <i name="volume">     18.13234550 </i>
   <varray name="rec_basis" >
    <v>       0.34885213       0.12333785       0.21362743 </v>
    <v>       0.00000000       0.37001356       0.21362743 </v>
    <v>       0.00000000       0.00000000       0.42725485 </v>
   </varray>
  </crystal>
  <varray name="positions" >
   <v>       0.00000000       0.00000000       0.00000000 </v>
  </varray>
 </structure>
</modeling>
