   1   1   1   0
  0.1839001E+02  0.2962777E-09  0.2962777E-09  0.2962777E-09  0.5000000E-15
  1.000000000000000E-004
  CAR 
 unknown system                          
     24.56148247     -3.35422715  301      5.93044262      1.00000000
     -3.354  0.0000E+00  0.0000E+00  0.0000E+00  0.0000E+00
     -3.261  0.0000E+00  0.0000E+00  0.0000E+00  0.0000E+00
     -3.168  0.0000E+00  0.0000E+00  0.0000E+00  0.0000E+00
     -3.075  0.0000E+00  0.0000E+00  0.0000E+00  0.0000E+00
     -2.982  0.0000E+00  0.0000E+00  0.0000E+00  0.0000E+00
     -2.889  0.0000E+00  0.0000E+00  0.0000E+00  0.0000E+00
     -2.796  0.0000E+00  0.0000E+00  0.0000E+00  0.0000E+00
     -2.703  0.0000E+00  0.0000E+00  0.0000E+00  0.0000E+00
     -2.610  0.0000E+00  0.0000E+00  0.0000E+00  0.0000E+00
     -2.517 -0.2332E-33 -0.4740E-33 -0.2170E-34 -0.4410E-34
     -2.424 -0.5931E-21 -0.1033E-20 -0.5519E-22 -0.9608E-22
     -2.331 -0.1314E-11 -0.1956E-11 -0.1223E-12 -0.1821E-12
     -2.238 -0.2396E-05 -0.3036E-05 -0.2229E-06 -0.2825E-06
     -2.145 -0.1486E-02 -0.1474E-02 -0.1385E-03 -0.1375E-03
     -2.051  0.4075E-01  0.4142E-01  0.3653E-02  0.3717E-02
     -1.958  0.2766E-02  0.2077E-02  0.3911E-02  0.3910E-02
     -1.865 -0.4943E-04 -0.4107E-04  0.3906E-02  0.3906E-02
     -1.772 -0.1140E-02 -0.1295E-02  0.3800E-02  0.3786E-02
     -1.679  0.5354E-01  0.5805E-01  0.8782E-02  0.9188E-02
     -1.586  0.7555E-01  0.7098E-01  0.1581E-01  0.1579E-01
     -1.493 -0.2010E-02 -0.1804E-02  0.1563E-01  0.1563E-01
     -1.400 -0.4610E-03 -0.5389E-03  0.1558E-01  0.1557E-01
     -1.307  0.2760E-01  0.3133E-01  0.1815E-01  0.1849E-01
     -1.214  0.1023E+00  0.9839E-01  0.2767E-01  0.2765E-01
     -1.121 -0.3480E-02 -0.3243E-02  0.2734E-01  0.2734E-01
     -1.028 -0.8287E-03 -0.9347E-03  0.2727E-01  0.2726E-01
     -0.935  0.3471E-01  0.3868E-01  0.3050E-01  0.3086E-01
     -0.842  0.1389E+00  0.1349E+00  0.4342E-01  0.4341E-01
     -0.749 -0.4832E-02 -0.4717E-02  0.4297E-01  0.4297E-01
     -0.656 -0.2792E-02 -0.3148E-02  0.4271E-01  0.4268E-01
     -0.563  0.1215E+00  0.1308E+00  0.5402E-01  0.5485E-01
     -0.470  0.1365E+00  0.1272E+00  0.6672E-01  0.6669E-01
     -0.377 -0.4511E-02 -0.4298E-02  0.6630E-01  0.6629E-01
     -0.283  0.5334E-01  0.5809E-01  0.7126E-01  0.7169E-01
     -0.190  0.7575E-01  0.7094E-01  0.7831E-01  0.7829E-01
     -0.097 -0.2019E-02 -0.1803E-02  0.7813E-01  0.7813E-01
     -0.004 -0.1994E-02 -0.2266E-02  0.7794E-01  0.7791E-01
      0.089  0.9275E-01  0.1012E+00  0.8657E-01  0.8733E-01
      0.182  0.1625E+00  0.1537E+00  0.1017E+00  0.1016E+00
      0.275  0.9883E-01  0.1032E+00  0.1109E+00  0.1112E+00
      0.368  0.3052E-01  0.2984E-01  0.1137E+00  0.1140E+00
      0.461  0.2551E+00  0.2525E+00  0.1375E+00  0.1375E+00
      0.554 -0.7891E-02 -0.6744E-02  0.1367E+00  0.1369E+00
      0.647  0.1688E+00  0.1684E+00  0.1524E+00  0.1525E+00
      0.740 -0.9663E-03 -0.2135E-02  0.1523E+00  0.1523E+00
      0.833 -0.2716E-03 -0.3112E-03  0.1523E+00  0.1523E+00
      0.926 -0.1695E-02  0.3183E-02  0.1522E+00  0.1526E+00
      1.019  0.5127E+00  0.5129E+00  0.1999E+00  0.2003E+00
      1.112  0.2251E+00  0.2229E+00  0.2208E+00  0.2211E+00
      1.205  0.2384E-01  0.2285E-01  0.2230E+00  0.2232E+00
      1.298  0.1495E+00  0.1505E+00  0.2369E+00  0.2372E+00
      1.391  0.1854E+00  0.1958E+00  0.2542E+00  0.2554E+00
      1.484  0.2830E+00  0.2761E+00  0.2805E+00  0.2811E+00
      1.578  0.2470E+00  0.2403E+00  0.3035E+00  0.3035E+00
      1.671  0.5741E+00  0.5929E+00  0.3569E+00  0.3587E+00
      1.764  0.3350E+00  0.3271E+00  0.3881E+00  0.3891E+00
      1.857  0.2613E+00  0.2552E+00  0.4124E+00  0.4128E+00
      1.950  0.5627E+00  0.5634E+00  0.4648E+00  0.4653E+00
      2.043  0.4647E+00  0.4672E+00  0.5080E+00  0.5088E+00
      2.136  0.3048E+00  0.3015E+00  0.5364E+00  0.5368E+00
      2.229  0.4619E+00  0.4646E+00  0.5794E+00  0.5800E+00
      2.322  0.2412E+00  0.2350E+00  0.6018E+00  0.6019E+00
      2.415  0.9542E-01  0.1101E+00  0.6107E+00  0.6122E+00
      2.508  0.5802E+00  0.5752E+00  0.6647E+00  0.6657E+00
      2.601  0.4711E+00  0.4699E+00  0.7085E+00  0.7094E+00
      2.694  0.6949E+00  0.7054E+00  0.7732E+00  0.7750E+00
      2.787  0.4714E+00  0.4610E+00  0.8171E+00  0.8179E+00
      2.880  0.4613E+00  0.4641E+00  0.8600E+00  0.8611E+00
      2.973  0.2563E+00  0.2480E+00  0.8838E+00  0.8842E+00
      3.066  0.2870E+00  0.2923E+00  0.9105E+00  0.9114E+00
      3.159  0.4665E+00  0.4616E+00  0.9540E+00  0.9544E+00
      3.252  0.5099E+00  0.5246E+00  0.1001E+01  0.1003E+01
      3.346  0.6711E+00  0.6606E+00  0.1064E+01  0.1065E+01
      3.439  0.4930E+00  0.5094E+00  0.1110E+01  0.1112E+01
      3.532  0.4687E+00  0.4424E+00  0.1153E+01  0.1153E+01
      3.625  0.2103E+00  0.2426E+00  0.1173E+01  0.1176E+01
      3.718  0.3207E+00  0.2970E+00  0.1203E+01  0.1203E+01
      3.811  0.4381E+00  0.4384E+00  0.1244E+01  0.1244E+01
      3.904  0.4647E+00  0.4800E+00  0.1287E+01  0.1289E+01
      3.997  0.9387E+00  0.9291E+00  0.1374E+01  0.1375E+01
      4.090  0.1236E+00  0.1098E+00  0.1386E+01  0.1386E+01
      4.183  0.4743E+00  0.4998E+00  0.1430E+01  0.1432E+01
      4.276  0.9782E+00  0.9731E+00  0.1521E+01  0.1523E+01
      4.369  0.4184E+00  0.3986E+00  0.1560E+01  0.1560E+01
      4.462  0.1480E+00  0.1582E+00  0.1573E+01  0.1574E+01
      4.555  0.3605E+00  0.3684E+00  0.1607E+01  0.1609E+01
      4.648  0.3739E+00  0.3835E+00  0.1642E+01  0.1644E+01
      4.741  0.9696E+00  0.9688E+00  0.1732E+01  0.1735E+01
      4.834  0.5747E+00  0.5633E+00  0.1786E+01  0.1787E+01
      4.927  0.1290E+00  0.1229E+00  0.1798E+01  0.1798E+01
      5.020  0.8347E+00  0.8367E+00  0.1875E+01  0.1876E+01
      5.114  0.2189E+00  0.2246E+00  0.1896E+01  0.1897E+01
      5.207  0.9868E+00  0.1004E+01  0.1987E+01  0.1991E+01
      5.300  0.8656E+00  0.8564E+00  0.2068E+01  0.2070E+01
      5.393  0.4218E+00  0.4225E+00  0.2107E+01  0.2110E+01
      5.486  0.1054E+01  0.1047E+01  0.2205E+01  0.2207E+01
      5.579  0.2885E+00  0.2833E+00  0.2232E+01  0.2233E+01
      5.672  0.5706E+00  0.5779E+00  0.2285E+01  0.2287E+01
      5.765  0.9087E+00  0.9275E+00  0.2370E+01  0.2373E+01
      5.858  0.8596E+00  0.8347E+00  0.2450E+01  0.2451E+01
      5.951  0.6647E+00  0.6609E+00  0.2512E+01  0.2513E+01
      6.044  0.2404E+00  0.2332E+00  0.2534E+01  0.2534E+01
      6.137  0.4401E+00  0.4434E+00  0.2575E+01  0.2576E+01
      6.230  0.7137E+00  0.7391E+00  0.2641E+01  0.2644E+01
      6.323  0.6210E+00  0.5925E+00  0.2699E+01  0.2699E+01
      6.416  0.7888E+00  0.8045E+00  0.2772E+01  0.2774E+01
      6.509  0.4213E+00  0.4038E+00  0.2812E+01  0.2812E+01
      6.602  0.4439E+00  0.4615E+00  0.2853E+01  0.2855E+01
      6.695  0.7464E+00  0.7459E+00  0.2922E+01  0.2924E+01
      6.788  0.4558E+00  0.4629E+00  0.2965E+01  0.2967E+01
      6.882  0.1023E+01  0.1013E+01  0.3060E+01  0.3062E+01
      6.975  0.2546E+00  0.2507E+00  0.3084E+01  0.3085E+01
      7.068  0.6033E+00  0.6044E+00  0.3140E+01  0.3141E+01
      7.161  0.4459E+00  0.4504E+00  0.3181E+01  0.3183E+01
      7.254  0.5045E+00  0.4895E+00  0.3228E+01  0.3229E+01
      7.347  0.1501E+00  0.1568E+00  0.3242E+01  0.3243E+01
      7.440  0.4695E+00  0.4601E+00  0.3286E+01  0.3286E+01
      7.533  0.1088E+00  0.1131E+00  0.3296E+01  0.3297E+01
      7.626  0.6113E+00  0.6200E+00  0.3353E+01  0.3354E+01
      7.719  0.5521E+00  0.5458E+00  0.3404E+01  0.3405E+01
      7.812  0.6295E+00  0.6278E+00  0.3463E+01  0.3463E+01
      7.905  0.2305E+00  0.2267E+00  0.3484E+01  0.3485E+01
      7.998  0.1289E+00  0.1327E+00  0.3496E+01  0.3497E+01
      8.091  0.3333E+00  0.3304E+00  0.3527E+01  0.3528E+01
      8.184  0.6554E+00  0.6583E+00  0.3588E+01  0.3589E+01
      8.277  0.7340E+00  0.7269E+00  0.3657E+01  0.3657E+01
      8.370  0.5121E+00  0.5113E+00  0.3704E+01  0.3704E+01
      8.463  0.4023E+00  0.4223E+00  0.3742E+01  0.3743E+01
      8.556  0.1018E+01  0.1006E+01  0.3836E+01  0.3837E+01
      8.650  0.6451E-01  0.5793E-01  0.3842E+01  0.3842E+01
      8.743  0.3713E+00  0.3839E+00  0.3877E+01  0.3878E+01
      8.836  0.5747E+00  0.5620E+00  0.3930E+01  0.3930E+01
      8.929  0.2392E+00  0.2409E+00  0.3953E+01  0.3953E+01
      9.022  0.1255E-02  0.2969E-03  0.3953E+01  0.3953E+01
      9.115  0.1376E+00  0.1430E+00  0.3966E+01  0.3966E+01
      9.208  0.4321E+00  0.4303E+00  0.4006E+01  0.4006E+01
      9.301  0.7469E+00  0.7591E+00  0.4075E+01  0.4077E+01
      9.394  0.8366E+00  0.8226E+00  0.4153E+01  0.4153E+01
      9.487  0.2609E+00  0.2738E+00  0.4177E+01  0.4179E+01
      9.580  0.5047E+00  0.4889E+00  0.4224E+01  0.4224E+01
      9.673  0.2042E-01  0.2108E-01  0.4226E+01  0.4226E+01
      9.766  0.1124E+00  0.1251E+00  0.4237E+01  0.4238E+01
      9.859  0.1892E+00  0.1821E+00  0.4254E+01  0.4255E+01
      9.952  0.4262E+00  0.4210E+00  0.4294E+01  0.4294E+01
     10.045  0.2560E+00  0.2548E+00  0.4318E+01  0.4318E+01
     10.138  0.1949E+00  0.1985E+00  0.4336E+01  0.4336E+01
     10.231  0.2657E+00  0.2688E+00  0.4361E+01  0.4361E+01
     10.324  0.7841E-01  0.8347E-01  0.4368E+01  0.4369E+01
     10.418  0.1166E+01  0.1201E+01  0.4477E+01  0.4481E+01
     10.511  0.4714E+00  0.4407E+00  0.4520E+01  0.4522E+01
     10.604  0.5480E+00  0.5520E+00  0.4571E+01  0.4573E+01
     10.697  0.6098E+00  0.5984E+00  0.4628E+01  0.4629E+01
     10.790  0.1051E+00  0.1050E+00  0.4638E+01  0.4639E+01
     10.883  0.2408E+00  0.2319E+00  0.4660E+01  0.4660E+01
     10.976  0.7843E-01  0.7855E-01  0.4668E+01  0.4668E+01
     11.069  0.2203E+00  0.2451E+00  0.4688E+01  0.4690E+01
     11.162  0.3950E+00  0.3896E+00  0.4725E+01  0.4727E+01
     11.255  0.3439E+00  0.3352E+00  0.4757E+01  0.4758E+01
     11.348  0.5447E+00  0.5554E+00  0.4808E+01  0.4809E+01
     11.441  0.1277E+01  0.1315E+01  0.4926E+01  0.4932E+01
     11.534  0.8669E+00  0.8067E+00  0.5007E+01  0.5007E+01
     11.627  0.5971E+00  0.6634E+00  0.5063E+01  0.5069E+01
     11.720  0.7881E+00  0.7400E+00  0.5136E+01  0.5137E+01
     11.813  0.2505E+00  0.2408E+00  0.5159E+01  0.5160E+01
     11.906  0.1869E+00  0.1837E+00  0.5177E+01  0.5177E+01
     11.999  0.4308E+00  0.4558E+00  0.5217E+01  0.5219E+01
     12.092  0.3163E+00  0.2959E+00  0.5246E+01  0.5247E+01
     12.186  0.5393E+00  0.5459E+00  0.5296E+01  0.5298E+01
     12.279  0.4088E+00  0.4398E+00  0.5334E+01  0.5339E+01
     12.372  0.6916E+00  0.6645E+00  0.5399E+01  0.5400E+01
     12.465  0.5512E+00  0.5369E+00  0.5450E+01  0.5450E+01
     12.558 -0.8919E-02 -0.1262E-01  0.5449E+01  0.5449E+01
     12.651 -0.4323E-02 -0.4488E-02  0.5449E+01  0.5449E+01
     12.744  0.1070E+00  0.1133E+00  0.5459E+01  0.5459E+01
     12.837  0.2661E+00  0.2618E+00  0.5484E+01  0.5484E+01
     12.930  0.3468E+00  0.3721E+00  0.5516E+01  0.5518E+01
     13.023  0.4287E+00  0.4009E+00  0.5556E+01  0.5556E+01
     13.116  0.4978E-01  0.6838E-01  0.5560E+01  0.5562E+01
     13.209  0.8654E+00  0.8566E+00  0.5641E+01  0.5642E+01
     13.302  0.3335E+00  0.3422E+00  0.5672E+01  0.5674E+01
     13.395  0.2584E+00  0.2403E+00  0.5696E+01  0.5696E+01
     13.488 -0.1755E-01 -0.1816E-01  0.5694E+01  0.5694E+01
     13.581  0.3545E+00  0.3832E+00  0.5727E+01  0.5730E+01
     13.674  0.5560E+00  0.5271E+00  0.5779E+01  0.5779E+01
     13.767 -0.2702E-01 -0.2548E-01  0.5777E+01  0.5777E+01
     13.860  0.2325E+00  0.2391E+00  0.5798E+01  0.5799E+01
     13.954  0.4407E+00  0.4498E+00  0.5839E+01  0.5841E+01
     14.047  0.2983E+00  0.2882E+00  0.5867E+01  0.5867E+01
     14.140  0.1402E+00  0.1453E+00  0.5880E+01  0.5881E+01
     14.233  0.3788E+00  0.3743E+00  0.5915E+01  0.5916E+01
     14.326  0.9456E-01  0.9241E-01  0.5924E+01  0.5924E+01
     14.419  0.6255E-01  0.5770E-01  0.5930E+01  0.5930E+01
     14.512 -0.1480E-02 -0.1297E-02  0.5930E+01  0.5930E+01
     14.605 -0.5421E-06 -0.6828E-06  0.5930E+01  0.5930E+01
     14.698 -0.3882E-02 -0.4379E-02  0.5929E+01  0.5929E+01
     14.791  0.1481E+00  0.1586E+00  0.5943E+01  0.5944E+01
     14.884  0.9842E-01  0.8851E-01  0.5952E+01  0.5952E+01
     14.977  0.3542E+00  0.3729E+00  0.5985E+01  0.5987E+01
     15.070  0.2937E+00  0.2745E+00  0.6013E+01  0.6013E+01
     15.163  0.4383E-01  0.5399E-01  0.6017E+01  0.6018E+01
     15.256  0.2104E+00  0.2029E+00  0.6036E+01  0.6036E+01
     15.349  0.2480E+00  0.2460E+00  0.6059E+01  0.6059E+01
     15.442  0.2148E-01  0.2691E-01  0.6061E+01  0.6062E+01
     15.535  0.3180E+00  0.3195E+00  0.6091E+01  0.6092E+01
     15.628  0.1933E+00  0.1921E+00  0.6109E+01  0.6109E+01
     15.722  0.8263E-01  0.7726E-01  0.6117E+01  0.6117E+01
     15.815  0.3996E+00  0.4205E+00  0.6154E+01  0.6156E+01
     15.908  0.4910E+00  0.4688E+00  0.6199E+01  0.6199E+01
     16.001  0.2805E+00  0.3059E+00  0.6226E+01  0.6228E+01
     16.094  0.3722E+00  0.3598E+00  0.6260E+01  0.6261E+01
     16.187  0.2292E+00  0.2182E+00  0.6281E+01  0.6282E+01
     16.280  0.4387E-02  0.8642E-02  0.6282E+01  0.6282E+01
     16.373  0.2660E+00  0.2641E+00  0.6307E+01  0.6307E+01
     16.466  0.1195E+00  0.1212E+00  0.6318E+01  0.6318E+01
     16.559  0.5362E+00  0.5346E+00  0.6368E+01  0.6368E+01
     16.652 -0.8156E-02 -0.1090E-01  0.6367E+01  0.6367E+01
     16.745  0.4004E+00  0.4163E+00  0.6404E+01  0.6406E+01
     16.838  0.2335E+00  0.2160E+00  0.6426E+01  0.6426E+01
     16.931  0.1886E+00  0.1964E+00  0.6443E+01  0.6444E+01
     17.024  0.3231E+00  0.3343E+00  0.6474E+01  0.6475E+01
     17.117  0.2767E+00  0.2635E+00  0.6499E+01  0.6500E+01
     17.210  0.9545E-01  0.8992E-01  0.6508E+01  0.6508E+01
     17.303 -0.1358E-01 -0.1276E-01  0.6507E+01  0.6507E+01
     17.396  0.3490E+00  0.3551E+00  0.6539E+01  0.6540E+01
     17.490  0.5007E-01  0.4665E-01  0.6544E+01  0.6544E+01
     17.583  0.3077E+00  0.3104E+00  0.6573E+01  0.6573E+01
     17.676  0.3109E+00  0.3171E+00  0.6602E+01  0.6603E+01
     17.769  0.4472E+00  0.4458E+00  0.6643E+01  0.6644E+01
     17.862  0.2988E+00  0.2989E+00  0.6671E+01  0.6672E+01
     17.955  0.2006E+00  0.1939E+00  0.6690E+01  0.6690E+01
     18.048  0.5777E+00  0.5849E+00  0.6743E+01  0.6744E+01
     18.141  0.2888E+00  0.2776E+00  0.6770E+01  0.6770E+01
     18.234 -0.8168E-02 -0.8229E-02  0.6770E+01  0.6770E+01
     18.327  0.1346E-01  0.1821E-01  0.6771E+01  0.6771E+01
     18.420  0.2580E+00  0.2570E+00  0.6795E+01  0.6795E+01
     18.513  0.1542E+00  0.1557E+00  0.6809E+01  0.6810E+01
     18.606  0.1238E+00  0.1181E+00  0.6821E+01  0.6821E+01
     18.699  0.3854E-01  0.4582E-01  0.6824E+01  0.6825E+01
     18.792  0.2192E+00  0.2130E+00  0.6845E+01  0.6845E+01
     18.885  0.9372E-01  0.9844E-01  0.6853E+01  0.6854E+01
     18.978  0.3841E+00  0.3899E+00  0.6889E+01  0.6890E+01
     19.071  0.5335E+00  0.5317E+00  0.6939E+01  0.6940E+01
     19.164  0.3342E+00  0.3411E+00  0.6970E+01  0.6971E+01
     19.257  0.6905E+00  0.6768E+00  0.7034E+01  0.7034E+01
     19.351  0.2112E+00  0.2178E+00  0.7054E+01  0.7055E+01
     19.444  0.1884E+00  0.1926E+00  0.7071E+01  0.7073E+01
     19.537  0.4500E+00  0.4195E+00  0.7113E+01  0.7112E+01
     19.630  0.6892E+01  0.7562E+01  0.7754E+01  0.7815E+01
     19.723  0.4310E+01  0.3649E+01  0.8155E+01  0.8155E+01
     19.816  0.2558E+00  0.2650E+00  0.8179E+01  0.8179E+01
     19.909  0.9854E-02  0.3545E-02  0.8180E+01  0.8180E+01
     20.002  0.1595E+00  0.1695E+00  0.8195E+01  0.8196E+01
     20.095  0.2087E+00  0.2039E+00  0.8214E+01  0.8215E+01
     20.188  0.4492E-01  0.5919E-01  0.8219E+01  0.8220E+01
     20.281  0.5935E+00  0.5785E+00  0.8274E+01  0.8274E+01
     20.374  0.4694E+00  0.4769E+00  0.8318E+01  0.8318E+01
     20.467  0.2395E+00  0.2377E+00  0.8340E+01  0.8340E+01
     20.560  0.2741E+00  0.2734E+00  0.8365E+01  0.8366E+01
     20.653  0.5140E-01  0.5606E-01  0.8370E+01  0.8371E+01
     20.746  0.4433E+00  0.4499E+00  0.8411E+01  0.8413E+01
     20.839  0.4283E+00  0.4162E+00  0.8451E+01  0.8452E+01
     20.932  0.6066E+00  0.6269E+00  0.8508E+01  0.8510E+01
     21.025  0.3838E+00  0.3602E+00  0.8543E+01  0.8543E+01
     21.119  0.6471E+00  0.6740E+00  0.8604E+01  0.8606E+01
     21.212  0.2362E+00  0.2068E+00  0.8626E+01  0.8625E+01
     21.305  0.2024E-01  0.3315E-01  0.8627E+01  0.8629E+01
     21.398  0.2346E+00  0.2229E+00  0.8649E+01  0.8649E+01
     21.491  0.2583E-01  0.2556E-01  0.8652E+01  0.8652E+01
     21.584  0.2294E+00  0.2401E+00  0.8673E+01  0.8674E+01
     21.677  0.4057E+00  0.4110E+00  0.8711E+01  0.8712E+01
     21.770  0.4274E+00  0.4187E+00  0.8751E+01  0.8751E+01
     21.863  0.6110E+00  0.6103E+00  0.8807E+01  0.8808E+01
     21.956  0.3088E-01  0.2925E-01  0.8810E+01  0.8811E+01
     22.049  0.1330E+00  0.1330E+00  0.8823E+01  0.8823E+01
     22.142  0.9852E-01  0.9268E-01  0.8832E+01  0.8832E+01
     22.235  0.1901E+00  0.2017E+00  0.8849E+01  0.8850E+01
     22.328  0.1578E+00  0.1532E+00  0.8864E+01  0.8865E+01
     22.421  0.6218E-01  0.6264E-01  0.8870E+01  0.8871E+01
     22.514  0.9842E-01  0.9122E-01  0.8879E+01  0.8879E+01
     22.607  0.5992E-01  0.6779E-01  0.8885E+01  0.8885E+01
     22.700  0.1521E+00  0.1518E+00  0.8899E+01  0.8899E+01
     22.793  0.1364E+00  0.1231E+00  0.8912E+01  0.8911E+01
     22.887  0.4043E+00  0.4202E+00  0.8949E+01  0.8950E+01
     22.980  0.1746E+00  0.1643E+00  0.8965E+01  0.8965E+01
     23.073 -0.7073E-02 -0.6633E-02  0.8965E+01  0.8965E+01
     23.166  0.5700E-01  0.6494E-01  0.8970E+01  0.8971E+01
     23.259  0.8426E-01  0.8366E-01  0.8978E+01  0.8979E+01
     23.352  0.2467E+00  0.2397E+00  0.9001E+01  0.9001E+01
     23.445 -0.8846E-02 -0.8882E-02  0.9000E+01  0.9000E+01
     23.538 -0.1821E-04 -0.1203E-04  0.9000E+01  0.9000E+01
     23.631 -0.1174E-10 -0.5862E-11  0.9000E+01  0.9000E+01
     23.724  0.0000E+00  0.0000E+00  0.9000E+01  0.9000E+01
     23.817  0.0000E+00  0.0000E+00  0.9000E+01  0.9000E+01
     23.910  0.0000E+00  0.0000E+00  0.9000E+01  0.9000E+01
     24.003  0.0000E+00  0.0000E+00  0.9000E+01  0.9000E+01
     24.096  0.0000E+00  0.0000E+00  0.9000E+01  0.9000E+01
     24.189  0.0000E+00  0.0000E+00  0.9000E+01  0.9000E+01
     24.282  0.0000E+00  0.0000E+00  0.9000E+01  0.9000E+01
     24.375  0.0000E+00  0.0000E+00  0.9000E+01  0.9000E+01
     24.468  0.0000E+00  0.0000E+00  0.9000E+01  0.9000E+01
     24.561  0.0000E+00  0.0000E+00  0.9000E+01  0.9000E+01
     24.56148247     -3.35422715  301      5.93044262      1.00000000
     -3.354  0.0000E+00  0.0000E+00  0.0000E+00  0.0000E+00  0.0000E+00  0.0000E+00  0.0000E+00  0.0000E+00  0.0000E+00  0.0000E+00  0.0000E+00  0.0000E+00  0.0000E+00  0.0000E+00  0.0000E+00  0.0000E+00  0.0000E+00  0.0000E+00
     -3.261  0.0000E+00  0.0000E+00  0.0000E+00  0.0000E+00  0.0000E+00  0.0000E+00  0.0000E+00  0.0000E+00  0.0000E+00  0.0000E+00  0.0000E+00  0.0000E+00  0.0000E+00  0.0000E+00  0.0000E+00  0.0000E+00  0.0000E+00  0.0000E+00
     -3.168  0.0000E+00  0.0000E+00  0.0000E+00  0.0000E+00  0.0000E+00  0.0000E+00  0.0000E+00  0.0000E+00  0.0000E+00  0.0000E+00  0.0000E+00  0.0000E+00  0.0000E+00  0.0000E+00  0.0000E+00  0.0000E+00  0.0000E+00  0.0000E+00
     -3.075  0.0000E+00  0.0000E+00  0.0000E+00  0.0000E+00  0.0000E+00  0.0000E+00  0.0000E+00  0.0000E+00  0.0000E+00  0.0000E+00  0.0000E+00  0.0000E+00  0.0000E+00  0.0000E+00  0.0000E+00  0.0000E+00  0.0000E+00  0.0000E+00
     -2.982  0.0000E+00  0.0000E+00  0.0000E+00  0.0000E+00  0.0000E+00  0.0000E+00  0.0000E+00  0.0000E+00  0.0000E+00  0.0000E+00  0.0000E+00  0.0000E+00  0.0000E+00  0.0000E+00  0.0000E+00  0.0000E+00  0.0000E+00  0.0000E+00
     -2.889  0.0000E+00  0.0000E+00  0.0000E+00  0.0000E+00  0.0000E+00  0.0000E+00  0.0000E+00  0.0000E+00  0.0000E+00  0.0000E+00  0.0000E+00  0.0000E+00  0.0000E+00  0.0000E+00  0.0000E+00  0.0000E+00  0.0000E+00  0.0000E+00
     -2.796  0.0000E+00  0.0000E+00  0.0000E+00  0.0000E+00  0.0000E+00  0.0000E+00  0.0000E+00  0.0000E+00  0.0000E+00  0.0000E+00  0.0000E+00  0.0000E+00  0.0000E+00  0.0000E+00  0.0000E+00  0.0000E+00  0.0000E+00  0.0000E+00
     -2.703  0.0000E+00  0.0000E+00  0.0000E+00  0.0000E+00  0.0000E+00  0.0000E+00  0.0000E+00  0.0000E+00  0.0000E+00  0.0000E+00  0.0000E+00  0.0000E+00  0.0000E+00  0.0000E+00  0.0000E+00  0.0000E+00  0.0000E+00  0.0000E+00
     -2.610  0.0000E+00  0.0000E+00  0.0000E+00  0.0000E+00  0.0000E+00  0.0000E+00  0.0000E+00  0.0000E+00  0.0000E+00  0.0000E+00  0.0000E+00  0.0000E+00  0.0000E+00  0.0000E+00  0.0000E+00  0.0000E+00  0.0000E+00  0.0000E+00
     -2.517 -0.1953E-33 -0.3970E-33 -0.9325E-36 -0.1896E-35 -0.9325E-36 -0.1896E-35 -0.9325E-36 -0.1896E-35 -0.1978E-37 -0.4021E-37 -0.1978E-37 -0.4021E-37 -0.1957E-45 -0.6988E-47 -0.1978E-37 -0.4021E-37 -0.1641E-46 -0.2455E-47
     -2.424 -0.4967E-21 -0.8648E-21 -0.2372E-23 -0.4131E-23 -0.2372E-23 -0.4131E-23 -0.2372E-23 -0.4131E-23 -0.5030E-25 -0.8759E-25 -0.5030E-25 -0.8759E-25 -0.4979E-33 -0.1522E-34 -0.5030E-25 -0.8759E-25 -0.4175E-34 -0.5347E-35
     -2.331 -0.1101E-11 -0.1639E-11 -0.5257E-14 -0.7827E-14 -0.5257E-14 -0.7827E-14 -0.5257E-14 -0.7827E-14 -0.1115E-15 -0.1660E-15 -0.1115E-15 -0.1660E-15 -0.1103E-23 -0.2884E-25 -0.1115E-15 -0.1660E-15 -0.9252E-25 -0.1013E-25
     -2.238 -0.2006E-05 -0.2543E-05 -0.9582E-08 -0.1214E-07 -0.9582E-08 -0.1214E-07 -0.9582E-08 -0.1214E-07 -0.2032E-09 -0.2575E-09 -0.2032E-09 -0.2575E-09 -0.2011E-17 -0.4475E-19 -0.2032E-09 -0.2575E-09 -0.1686E-18 -0.1572E-19
     -2.145 -0.1245E-02 -0.1235E-02 -0.5944E-05 -0.5898E-05 -0.5944E-05 -0.5898E-05 -0.5944E-05 -0.5898E-05 -0.1260E-06 -0.1251E-06 -0.1261E-06 -0.1251E-06 -0.1248E-14 -0.2173E-16 -0.1260E-06 -0.1251E-06 -0.1046E-15 -0.7635E-17
     -2.051  0.3413E-01  0.3469E-01  0.1630E-03  0.1657E-03  0.1630E-03  0.1657E-03  0.1630E-03  0.1657E-03  0.3456E-05  0.3514E-05  0.3457E-05  0.3514E-05  0.3421E-13  0.6106E-15  0.3456E-05  0.3514E-05  0.2869E-14  0.2145E-15
     -1.958  0.2317E-02  0.1740E-02  0.1106E-04  0.8310E-05  0.1106E-04  0.8310E-05  0.1106E-04  0.8310E-05  0.2346E-06  0.1762E-06  0.2346E-06  0.1762E-06  0.2322E-14  0.2993E-16  0.2346E-06  0.1762E-06  0.1934E-15  0.8663E-17
     -1.865 -0.4140E-04 -0.3439E-04 -0.1977E-06 -0.1643E-06 -0.1977E-06 -0.1643E-06 -0.1995E-06 -0.1667E-06 -0.4230E-08 -0.3535E-08 -0.4194E-08 -0.3486E-08 -0.1372E-10 -0.1855E-10 -0.4230E-08 -0.3535E-08 -0.4117E-10 -0.5566E-10
     -1.772 -0.9259E-03 -0.1051E-02 -0.4267E-05 -0.4845E-05 -0.4267E-05 -0.4845E-05 -0.4012E-04 -0.4555E-04 -0.8387E-06 -0.9525E-06 -0.1253E-06 -0.1423E-06 -0.2723E-06 -0.3089E-06 -0.8387E-06 -0.9525E-06 -0.8169E-06 -0.9268E-06
     -1.679  0.4347E-01  0.4713E-01  0.2003E-03  0.2172E-03  0.2003E-03  0.2172E-03  0.1883E-02  0.2043E-02  0.3938E-04  0.4271E-04  0.5882E-05  0.6380E-05  0.1278E-04  0.1385E-04  0.3937E-04  0.4271E-04  0.3835E-04  0.4156E-04
     -1.586  0.6134E-01  0.5763E-01  0.2826E-03  0.2656E-03  0.2826E-03  0.2656E-03  0.2658E-02  0.2498E-02  0.5557E-04  0.5222E-04  0.8301E-05  0.7802E-05  0.1804E-04  0.1694E-04  0.5556E-04  0.5222E-04  0.5412E-04  0.5082E-04
     -1.493 -0.1632E-02 -0.1465E-02 -0.7520E-05 -0.6752E-05 -0.7520E-05 -0.6752E-05 -0.7071E-04 -0.6349E-04 -0.1478E-05 -0.1328E-05 -0.2209E-06 -0.1984E-06 -0.4799E-06 -0.4306E-06 -0.1478E-05 -0.1328E-05 -0.1440E-05 -0.1292E-05
     -1.400 -0.3626E-03 -0.4238E-03 -0.1517E-04 -0.1774E-04 -0.1517E-04 -0.1774E-04 -0.1563E-05 -0.1824E-05 -0.4420E-06 -0.5170E-06 -0.2960E-05 -0.3463E-05 -0.8787E-07 -0.1027E-06 -0.4420E-06 -0.5170E-06 -0.2636E-06 -0.3080E-06
     -1.307  0.2171E-01  0.2464E-01  0.9085E-03  0.1031E-02  0.9085E-03  0.1031E-02  0.9309E-04  0.1057E-03  0.2646E-04  0.3005E-04  0.1773E-03  0.2013E-03  0.5259E-05  0.5968E-05  0.2646E-04  0.3005E-04  0.1578E-04  0.1790E-04
     -1.214  0.8044E-01  0.7738E-01  0.3367E-02  0.3239E-02  0.3367E-02  0.3239E-02  0.3450E-03  0.3319E-03  0.9807E-04  0.9440E-04  0.6570E-03  0.6324E-03  0.1949E-04  0.1874E-04  0.9807E-04  0.9440E-04  0.5847E-04  0.5623E-04
     -1.121 -0.2737E-02 -0.2550E-02 -0.1146E-03 -0.1068E-03 -0.1146E-03 -0.1068E-03 -0.1174E-04 -0.1094E-04 -0.3338E-05 -0.3112E-05 -0.2236E-04 -0.2084E-04 -0.6632E-06 -0.6178E-06 -0.3338E-05 -0.3112E-05 -0.1990E-05 -0.1853E-05
     -1.028 -0.6292E-03 -0.7096E-03 -0.2014E-04 -0.2241E-04 -0.3495E-04 -0.4013E-04 -0.2010E-04 -0.2238E-04 -0.5550E-05 -0.6174E-05 -0.5837E-05 -0.6515E-05 -0.1665E-05 -0.1990E-05 -0.5830E-05 -0.6509E-05 -0.7749E-09 -0.5929E-09
     -0.935  0.2635E-01  0.2935E-01  0.7709E-03  0.8245E-03  0.1637E-02  0.1906E-02  0.7709E-03  0.8245E-03  0.2104E-03  0.2239E-03  0.2268E-03  0.2443E-03  0.9731E-04  0.1214E-03  0.2268E-03  0.2443E-03  0.2977E-14  0.2707E-16
     -0.842  0.1052E+00  0.1022E+00  0.9309E-03  0.8779E-03  0.1169E-01  0.1142E-01  0.9309E-03  0.8779E-03  0.1727E-03  0.1597E-03  0.3759E-03  0.3589E-03  0.1209E-02  0.1184E-02  0.3759E-03  0.3589E-03  0.1586E-13  0.3240E-15
     -0.749 -0.3661E-02 -0.3573E-02 -0.2606E-04 -0.2441E-04 -0.4218E-03 -0.4142E-03 -0.2607E-04 -0.2442E-04 -0.4044E-05 -0.3630E-05 -0.1152E-04 -0.1099E-04 -0.4448E-04 -0.4378E-04 -0.1152E-04 -0.1099E-04 -0.6398E-09 -0.8636E-09
     -0.656 -0.2046E-02 -0.2307E-02 -0.8058E-04 -0.9093E-04 -0.8128E-05 -0.8976E-05 -0.2413E-03 -0.2723E-03 -0.4607E-04 -0.5202E-04 -0.4468E-05 -0.5041E-05 -0.8638E-05 -0.9721E-05 -0.6871E-05 -0.7754E-05 -0.9597E-05 -0.1082E-04
     -0.563  0.8903E-01  0.9585E-01  0.3514E-02  0.3783E-02  0.3297E-03  0.3549E-03  0.1053E-01  0.1133E-01  0.2010E-02  0.2165E-02  0.1944E-03  0.2094E-03  0.3741E-03  0.4025E-03  0.2992E-03  0.3223E-03  0.4187E-03  0.4504E-03
     -0.470  0.1000E+00  0.9321E-01  0.3949E-02  0.3679E-02  0.3704E-03  0.3451E-03  0.1183E-01  0.1102E-01  0.2258E-02  0.2105E-02  0.2184E-03  0.2036E-03  0.4204E-03  0.3914E-03  0.3362E-03  0.3134E-03  0.4704E-03  0.4380E-03
     -0.377 -0.3273E-02 -0.3112E-02 -0.1244E-03 -0.1173E-03 -0.3587E-04 -0.3867E-04 -0.3801E-03 -0.3601E-03 -0.8019E-04 -0.7750E-04 -0.2099E-04 -0.2263E-04 -0.1141E-04 -0.1039E-04 -0.3265E-04 -0.3523E-04 -0.1468E-04 -0.1381E-04
     -0.283  0.3755E-01  0.4089E-01  0.1256E-02  0.1368E-02  0.1256E-02  0.1368E-02  0.4121E-02  0.4488E-02  0.1145E-02  0.1248E-02  0.7332E-03  0.7990E-03  0.4774E-04  0.5195E-04  0.1145E-02  0.1248E-02  0.1432E-03  0.1559E-03
     -0.190  0.5332E-01  0.4994E-01  0.1784E-02  0.1670E-02  0.1784E-02  0.1670E-02  0.5853E-02  0.5481E-02  0.1626E-02  0.1523E-02  0.1041E-02  0.9757E-03  0.6780E-04  0.6344E-04  0.1626E-02  0.1523E-02  0.2034E-03  0.1903E-03
     -0.097 -0.1421E-02 -0.1269E-02 -0.4757E-04 -0.4246E-04 -0.4757E-04 -0.4246E-04 -0.1560E-03 -0.1393E-03 -0.4334E-04 -0.3871E-04 -0.2776E-04 -0.2480E-04 -0.1808E-05 -0.1613E-05 -0.4334E-04 -0.3871E-04 -0.5422E-05 -0.4836E-05
     -0.004 -0.1349E-02 -0.1533E-02 -0.1157E-03 -0.1307E-03 -0.1925E-03 -0.2196E-03 -0.3968E-05 -0.4512E-05 -0.6438E-05 -0.7281E-05 -0.6758E-04 -0.7642E-04 -0.2696E-04 -0.3113E-04 -0.7703E-05 -0.8748E-05 -0.5416E-05 -0.6112E-05
      0.089  0.6264E-01  0.6831E-01  0.4925E-02  0.5303E-02  0.9469E-02  0.1041E-01  0.1904E-03  0.2087E-03  0.2757E-03  0.2973E-03  0.2888E-02  0.3113E-02  0.1565E-02  0.1754E-02  0.3506E-03  0.3816E-03  0.2295E-03  0.2466E-03
      0.182  0.1090E+00  0.1031E+00  0.5043E-02  0.4651E-02  0.2075E-01  0.1977E-01  0.3410E-03  0.3187E-03  0.1871E-03  0.1574E-03  0.2979E-02  0.2744E-02  0.5222E-02  0.5021E-02  0.4460E-03  0.4069E-03  0.2304E-03  0.2125E-03
      0.275  0.6364E-01  0.6647E-01  0.6150E-02  0.6404E-02  0.5602E-02  0.5888E-02  0.1506E-02  0.1565E-02  0.3566E-02  0.3706E-02  0.5658E-02  0.5891E-02 -0.1282E-03 -0.1156E-03  0.3557E-02  0.3698E-02  0.1519E-03  0.1585E-03
      0.368  0.1967E-01  0.1923E-01  0.1682E-02  0.1527E-02  0.2253E-02  0.2497E-02  0.3887E-03  0.3386E-03  0.9093E-03  0.7888E-03  0.1559E-02  0.1434E-02  0.1859E-03  0.3042E-03  0.9126E-03  0.7943E-03  0.4019E-04  0.3486E-04
      0.461  0.1639E+00  0.1622E+00  0.6209E-02  0.6146E-02  0.3857E-01  0.3817E-01  0.4808E-03  0.4758E-03  0.8350E-03  0.8280E-03  0.6900E-02  0.6836E-02  0.9792E-02  0.9681E-02  0.1020E-02  0.1011E-02  0.4164E-04  0.4126E-04
      0.554 -0.5200E-02 -0.4547E-02 -0.1191E-03 -0.8254E-04 -0.1554E-02 -0.1514E-02  0.6170E-04  0.1087E-03  0.1726E-03  0.2725E-03 -0.4712E-04  0.4587E-04 -0.4039E-03 -0.4068E-03  0.1381E-03  0.2420E-03 -0.1330E-05 -0.1406E-05
      0.647  0.1022E+00  0.1019E+00  0.3550E-02  0.3519E-02  0.1872E-01  0.1877E-01  0.3550E-02  0.3520E-02  0.6770E-02  0.6705E-02  0.7812E-02  0.7752E-02  0.3485E-02  0.3500E-02  0.7813E-02  0.7753E-02 -0.5149E-08 -0.4095E-08
      0.740 -0.5421E-03 -0.1260E-02 -0.4542E-04 -0.6355E-04  0.1394E-04 -0.1467E-03 -0.4542E-04 -0.6355E-04 -0.1044E-03 -0.1345E-03 -0.1003E-03 -0.1403E-03  0.1364E-04 -0.1907E-04 -0.1003E-03 -0.1403E-03 -0.5537E-11 -0.8189E-11
      0.833 -0.1609E-03 -0.1837E-03 -0.1322E-04 -0.1598E-04 -0.8537E-05 -0.7017E-05 -0.2776E-04 -0.3411E-04 -0.1869E-04 -0.2257E-04 -0.6654E-05 -0.7410E-05 -0.3553E-05 -0.3689E-05 -0.6051E-05 -0.6639E-05 -0.1834E-05 -0.2281E-05
      0.926 -0.7221E-03  0.2130E-02  0.5189E-04  0.3297E-03 -0.3498E-04 -0.2554E-04 -0.9169E-05  0.6056E-03 -0.2395E-03  0.1581E-03 -0.3925E-03 -0.2765E-03  0.1594E-04  0.5909E-04 -0.3472E-03 -0.2472E-03  0.4691E-05  0.4664E-04
      1.019  0.2948E+00  0.2946E+00  0.2656E-01  0.2644E-01  0.9203E-03  0.9234E-03  0.6112E-01  0.6096E-01  0.4404E-01  0.4421E-01  0.1901E-01  0.1936E-01  0.3290E-02  0.3230E-02  0.1659E-01  0.1692E-01  0.4076E-02  0.4056E-02
      1.112  0.1114E+00  0.1101E+00  0.1585E-02  0.1432E-02  0.2170E-01  0.2218E-01  0.6913E-02  0.6477E-02  0.1493E-01  0.1442E-01  0.1620E-01  0.1580E-01  0.2007E-01  0.2055E-01  0.1571E-01  0.1533E-01  0.2824E-03  0.2558E-03
      1.205  0.1151E-01  0.1079E-01 -0.8039E-04 -0.8135E-04  0.4405E-02  0.3917E-02 -0.1671E-03 -0.1776E-03  0.4304E-03  0.7696E-03  0.3981E-03  0.7292E-03  0.4572E-02  0.4070E-02  0.4838E-03  0.8166E-03 -0.1483E-04 -0.1539E-04
      1.298  0.6155E-01  0.6203E-01  0.3206E-02  0.3278E-02  0.2484E-02  0.2504E-02  0.2820E-03  0.2736E-03  0.2586E-01  0.2600E-01  0.2762E-01  0.2781E-01 -0.6686E-03 -0.7160E-03  0.2587E-01  0.2601E-01  0.6368E-04  0.6534E-04