    1    1    1    2
  0.1839001E+02  0.2962777E-09  0.2962777E-09  0.2962777E-09  0.5000000E-15
  1.000000000000000E-004
  CAR 
 unknown system                          
    5   60    9
 
  0.6250000E-01  0.6250000E-01  0.6250000E-01  0.3906250E-02
   1       -2.083267     -2.085331
   2        6.261551      6.256680
   3        6.478772      6.473856
   4        6.478772      6.473856
   5        9.392199      9.393076
   6        9.392199      9.393076
   7       18.822106     18.818643
   8       19.617824     19.613504
   9       22.612343     22.611977
 
  0.1875000E+00  0.6250000E-01  0.6250000E-01  0.1171875E-01
   1       -1.289028     -1.291111
   2        5.656718      5.652022
   3        6.790386      6.785943
   4        6.822184      6.817330
   5        8.797239      8.798054
   6        9.519318      9.519810
   7       19.616376     19.612054
   8       20.218464     20.215442
   9       21.069668     21.067490
 
  0.3125000E+00  0.6250000E-01  0.6250000E-01  0.1171875E-01
   1        0.255845      0.253521
   2        5.121560      5.117425
   3        6.651490      6.648878
   4        6.877977      6.875446
   5        9.157780      9.156269
   6       10.335951     10.334655
   7       18.523845     18.521684
   8       19.619890     19.615591
   9       22.438257     22.434597
 
  0.4375000E+00  0.6250000E-01  0.6250000E-01  0.1171875E-01
   1        1.269302      1.266156
   2        5.786872      5.784689
   3        6.227099      6.224829
   4        6.417380      6.416021
   5       10.797250     10.794532
   6       11.778072     11.775748
   7       16.894161     16.891391
   8       19.480376     19.476880
   9       19.648203     19.643986
 
 -0.4375000E+00  0.6250000E-01  0.6250000E-01  0.1171875E-01
   1        1.409177      1.405734
   2        5.847648      5.846726
   3        6.300659      6.299347
   4        6.640216      6.637493
   5       11.885872     11.883124
   6       11.990704     11.988121
   7       16.143609     16.140175
   8       18.449003     18.445929
   9       19.622559     19.618242
 
 -0.3125000E+00  0.6250000E-01  0.6250000E-01  0.1171875E-01
   1        1.057514      1.054663
   2        5.411595      5.408488
   3        6.278517      6.276783
   4        6.612730      6.610836
   5       10.446506     10.444009
   6       11.136453     11.134393
   7       17.383952     17.381462
   8       19.615466     19.611170
   9       20.538086     20.534560
 
 -0.1875000E+00  0.6250000E-01  0.6250000E-01  0.1171875E-01
   1       -0.278422     -0.280599
   2        5.173311      5.168904
   3        6.810475      6.807478
   4        6.969385      6.965820
   5        8.896939      8.895919
   6        9.871976      9.871611
   7       19.187644     19.185562
   8       19.623348     19.619086
   9       22.313571     22.309927
 
 -0.6250000E-01  0.6250000E-01  0.6250000E-01  0.1171875E-01
   1       -1.674298     -1.676365
   2        5.871439      5.866633
   3        6.699035      6.694174
   4        6.712185      6.707337
   5        8.875055      8.875896
   6        9.566595      9.567454
   7       19.617202     19.612883
   8       19.658175     19.654686
   9       21.839027     21.837626
 
  0.1875000E+00  0.1875000E+00  0.6250000E-01  0.1171875E-01
   1       -0.904406     -0.906464
   2        5.209651      5.204924
   3        7.095834      7.091663
   4        7.175992      7.171280
   5        8.099833      8.099953
   6        9.899445      9.900267
   7       19.616739     19.612418
   8       21.093384     21.090187
   9       21.614657     21.612192
 
  0.3125000E+00  0.1875000E+00  0.6250000E-01  0.2343750E-01
   1        0.406500      0.404438
   2        4.561006      4.556452
   3        6.449592      6.448365
   4        7.751981      7.748347
   5        8.499109      8.496540
   6       10.644719     10.644208
   7       19.612763     19.608448
   8       20.443261     20.441014
   9       23.292587     23.288994
 
  0.4375000E+00  0.1875000E+00  0.6250000E-01  0.2343750E-01
   1        1.770543      1.767910
   2        4.633586      4.630617
   3        5.622767      5.620791
   4        7.391041      7.389388
   5       10.394423     10.391465
   6       12.100425     12.098217
   7       17.874757     17.872221
   8       19.622953     19.618650
   9       21.127207     21.124010
 
 -0.4375000E+00  0.1875000E+00  0.6250000E-01  0.2343750E-01
   1        2.192315      2.188822
   2        4.777954      4.777594
   3        6.107330      6.103640
   4        7.036266      7.035269
   5       11.610333     11.607140
   6       13.171582     13.169297
   7       15.509037     15.505847
   8       19.621386     19.617070
   9       20.216743     20.213549
 
 -0.3125000E+00  0.1875000E+00  0.6250000E-01  0.2343750E-01
   1        2.073941      2.070822
   2        4.977109      4.975966
   3        5.563669      5.560260
   4        7.131643      7.130763
   5       10.371303     10.367956
   6       12.925864     12.923338
   7       17.024726     17.022216
   8       19.622178     19.617868
   9       20.676851     20.673553
 
 -0.1875000E+00  0.1875000E+00  0.6250000E-01  0.2343750E-01
   1        0.964424      0.962190
   2        4.683708      4.679326
   3        6.069918      6.068313
   4        7.628209      7.626572
   5        8.518844      8.515943
   6       11.430899     11.429163
   7       19.518963     19.515809
   8       19.676801     19.673296
   9       22.899455     22.896064
 
 -0.6250000E-01  0.1875000E+00  0.6250000E-01  0.2343750E-01
   1       -0.560963     -0.563062
   2        5.170700      5.166085
   3        6.847295      6.843990
   4        7.199484      7.194950
   5        8.351464      8.351401
   6        9.961240      9.961221
   7       19.614507     19.610187
   8       20.340486     20.338396
   9       21.807265     21.803794
 
  0.3125000E+00  0.3125000E+00  0.6250000E-01  0.1171875E-01
   1        1.092229      1.090595
   2        3.781796      3.777193
   3        6.323296      6.322988
   4        8.748069      8.743883
   5        9.135243      9.130789
   6       10.895291     10.895843
   7       19.614753     19.610439
   8       21.655354     21.653354
   9       22.799203     22.797915
 
  0.4375000E+00  0.3125000E+00  0.6250000E-01  0.2343750E-01
   1        1.970171      1.969128
   2        3.460884      3.456451
   3        5.968657      5.966879
   4        9.301508      9.299738
   5       10.502522     10.498753
   6       12.173707     12.171603
   7       18.720995     18.718821
   8       19.626990     19.622702
   9       20.947279     20.945242
 
 -0.4375000E+00  0.3125000E+00  0.6250000E-01  0.2343750E-01
   1        2.702333      2.700741
   2        3.771612      3.768873
   3        5.759623      5.756130
   4        8.673266      8.672928
   5       11.714677     11.710674
   6       14.145060     14.142261
   7       15.181655     15.178861
   8       19.618193     19.613881
   9       20.916366     20.914344
 
 -0.3125000E+00  0.3125000E+00  0.6250000E-01  0.2343750E-01
   1        3.399831      3.396456
   2        3.961260      3.960912
   3        5.264281      5.260191
   4        8.192327      8.192962
   5       10.606239     10.601209
   6       13.287955     13.285076
   7       17.564906     17.562920
   8       19.609239     19.605034
   9       19.749404     19.746433
 
 -0.1875000E+00  0.3125000E+00  0.6250000E-01  0.2343750E-01
   1        2.501493      2.498822
   2        4.671953      4.668558
   3        4.988878      4.987165
   4        7.768385      7.768662
   5        9.461745      9.457190
   6       13.155882     13.153159
   7       18.016457     18.014459
   8       19.624788     19.620481
   9       21.823695     21.820315
 
 -0.6250000E-01  0.3125000E+00  0.6250000E-01  0.2343750E-01
   1        0.976994      0.974491
   2        4.956664      4.952854
   3        6.193842      6.192128
   4        6.998273      6.996267
   5        9.526880      9.524351
   6       11.234004     11.232224
   7       18.360186     18.357873
   8       19.620503     19.616206
   9       21.710295     21.706803
 
  0.4375000E+00  0.4375000E+00  0.6250000E-01  0.1171875E-01
   1        1.667850      1.667521
   2        2.826215      2.821673
   3        7.556270      7.554094
   4       10.822301     10.820351
   5       11.674902     11.670135
   6       11.967713     11.965965
   7       18.088988     18.087049
   8       19.015018     19.013144
   9       19.609461     19.604912
 
 -0.4375000E+00  0.4375000E+00  0.6250000E-01  0.2343750E-01
   1        1.906015      1.905889
   2        2.918156      2.913710
   3        7.584782      7.581461
   4       10.573277     10.574218
   5       12.333286     12.327884
   6       13.827297     13.822722
   7       15.861526     15.860015
   8       18.052760     18.051282
   9       19.607019     19.603455
 
 -0.3125000E+00  0.4375000E+00  0.6250000E-01  0.2343750E-01
   1        2.679800      2.678968
   2        3.636284      3.632850
   3        6.199456      6.195644
   4        9.117616      9.118326
   5       11.646945     11.641687
   6       13.920084     13.918020
   7       16.005945     16.002087
   8       19.465191     19.463200
   9       19.663519     19.659853
 
 -0.1875000E+00  0.4375000E+00  0.6250000E-01  0.2343750E-01
   1        2.842304      2.838752
   2        4.236937      4.236707
   3        5.717361      5.713421
   4        7.638041      7.637638
   5       11.161457     11.157546
   6       13.615305     13.612667
   7       15.806299     15.803716
   8       19.620506     19.616190
   9       21.101979     21.098932
 
 -0.6250000E-01  0.4375000E+00  0.6250000E-01  0.2343750E-01
   1        1.648554      1.645199
   2        5.433895      5.433161
   3        6.240504      6.237195
   4        6.598585      6.597327
   5       11.327631     11.324762
   6       12.419047     12.416621
   7       16.316591     16.313488
   8       19.330796     19.327607
   9       19.624442     19.620128
 
 -0.4375000E+00 -0.4375000E+00  0.6250000E-01  0.1171875E-01
   1        1.566804      1.566701
   2        2.624659      2.620126
   3        8.498485      8.495712
   4       11.488723     11.489674
   5       12.421867     12.416822
   6       12.792432     12.787210
   7       16.686640     16.685066
   8       17.747408     17.745917
   9       19.168203     19.167200
 
 -0.3125000E+00 -0.4375000E+00  0.6250000E-01  0.2343750E-01
   1        2.013497      2.013117
   2        3.102442      3.098009
   3        6.762773      6.760048
   4       10.128349     10.127981
   5       11.632943     11.628745
   6       12.965856     12.962264
   7       17.021799     17.019924
   8       19.206750     19.204815
   9       19.620367     19.616074
 
 -0.1875000E+00 -0.4375000E+00  0.6250000E-01  0.2343750E-01
   1        2.429696      2.427238
   2        4.147269      4.145101
   3        5.446446      5.443466
   4        7.996784      7.995617
   5       11.390735     11.387619
   6       12.915148     12.912355
   7       16.519176     16.516570
   8       19.621377     19.617064
   9       21.557986     21.554670
 
 -0.3125000E+00 -0.3125000E+00  0.6250000E-01  0.1171875E-01
   1        1.636089      1.635178
   2        3.219537      3.214973
   3        6.569887      6.568650
   4        9.784037      9.780470
   5       10.341161     10.336592
   6       11.448264     11.448259
   7       19.603737     19.599480
   8       20.061597     20.059532
   9       20.869502     20.867637
 
 -0.1875000E+00 -0.3125000E+00  0.6250000E-01  0.2343750E-01
   1        1.386889      1.385107
   2        3.964102      3.959613
   3        5.904882      5.903955
   4        8.454431      8.451698
   5        9.353106      9.349564
   6       11.411137     11.410010
   7       19.605833     19.601548
   8       20.224508     20.222262
   9       22.831910     22.839467
 
 -0.1875000E+00 -0.1875000E+00  0.6250000E-01  0.1171875E-01
   1        0.105887      0.103913
   2        4.470360      4.465702
   3        6.832885      6.832574
   4        7.861519      7.857016
   5        8.193202      8.189281
   6       10.358545     10.359285
   7       19.616029     19.611710
   8       21.662364     21.659959
   9       23.168984     23.165348
 
  0.1875000E+00  0.1875000E+00  0.1875000E+00  0.3906250E-02
   1       -0.939586     -0.941705
   2        5.510050      5.505508
   3        6.837648      6.833406
   4        6.837648      6.833406
   5        9.200418      9.200660
   6        9.200418      9.200660
   7       19.561996     19.559089
   8       19.647339     19.643941
   9       21.439837     21.436443
 
  0.3125000E+00  0.1875000E+00  0.1875000E+00  0.1171875E-01
   1        0.089108      0.086935
   2        5.002528      4.998050
   3        6.578224      6.575566
   4        7.364392      7.360768
   5        8.267224      8.266780
   6       10.532123     10.530969
   7       19.596822     19.592674
   8       19.788557     19.786156
   9       22.615760     22.612288
 
  0.4375000E+00  0.1875000E+00  0.1875000E+00  0.1171875E-01
   1        1.697577      1.695107
   2        4.747947      4.743760
   3        5.619592      5.618136
   4        7.507063      7.507066
   5        8.784133      8.779984
   6       12.401441     12.399180
   7       18.882186     18.879839
   8       19.630170     19.625896
   9       21.980146     21.976848
 
 -0.4375000E+00  0.1875000E+00  0.1875000E+00  0.1171875E-01
   1        2.425937      2.422495
   2        4.739562      4.739168
   3        5.747821      5.744002
   4        7.204771      7.204211
   5       10.690686     10.687029
   6       13.301915     13.299213
   7       16.400329     16.397924
   8       19.621738     19.617423
   9       20.872303     20.868831
 
 -0.3125000E+00  0.1875000E+00  0.1875000E+00  0.1171875E-01
   1        2.279031      2.275836
   2        4.506936      4.506170
   3        5.820328      5.816695
   4        7.374399      7.373206
   5       11.995224     11.992322
   6       12.719207     12.716689
   7       15.764945     15.761840
   8       19.621202     19.616887
   9       20.706611     20.703585
 
 -0.1875000E+00  0.1875000E+00  0.1875000E+00  0.1171875E-01
   1        1.527244      1.525130
   2        4.205510      4.201541
   3        5.790983      5.789704
   4        7.814233      7.811803
   5       10.215158     10.211819
   6       11.435749     11.434382
   7       18.974225     18.971825
   8       19.629714     19.625448
   9       22.071077     22.067895
 
  0.3125000E+00  0.3125000E+00  0.1875000E+00  0.1171875E-01
   1        0.605710      0.603487
   2        4.708016      4.703753
   3        6.356325      6.354937
   4        7.288517      7.285530
   5        9.229938      9.227199
   6       10.666370     10.665513
   7       19.235677     19.233430
   8       19.627594     19.623364
   9       22.709327     22.705771
 
  0.4375000E+00  0.3125000E+00  0.1875000E+00  0.2343750E-01
   1        1.905370      1.903246
   2        4.293629      4.289392
   3        5.405445      5.404165
   4        8.111880      8.111017
   5        9.333935      9.330058
   6       12.349422     12.347190
   7       18.939139     18.936831
   8       19.632062     19.627794
   9       22.219140     22.215950
 
 -0.4375000E+00  0.3125000E+00  0.1875000E+00  0.2343750E-01
   1        3.224775      3.222433
   2        4.220265      4.218757
   3        4.728456      4.724589
   4        8.272868      8.273296
   5       10.405983     10.401165
   6       13.554303     13.551194
   7       17.355663     17.354009
   8       19.621881     19.617569
   9       20.338743     20.335781
 
 -0.3125000E+00  0.3125000E+00  0.1875000E+00  0.2343750E-01
   1        3.269228      3.266537
   2        3.872233      3.871098
   3        5.379584      5.375570
   4        8.154549      8.154576
   5       11.298465     11.293924
   6       14.786679     14.784279
   7       15.010597     15.007818
   8       19.618850     19.614536
   9       20.936025     20.933578
 
 -0.1875000E+00  0.3125000E+00  0.1875000E+00  0.2343750E-01
   1        2.566034      2.564629
   2        3.908904      3.904846
   3        5.168468      5.166336
   4        8.780773      8.780537
   5       10.404451     10.400170
   6       13.139937     13.136970
   7       17.666182     17.664225
   8       19.623060     19.618751
   9       20.782634     20.780161
 
  0.4375000E+00  0.4375000E+00  0.1875000E+00  0.1171875E-01
   1        2.141683      2.140090
   2        3.727624      3.723946
   3        5.746559      5.744398
   4        8.524079      8.522295
   5       11.609257     11.605785
   6       11.999475     11.997398
   7       17.513977     17.511483
   8       19.622081     19.617771
   9       21.725200     21.724748
 
 -0.4375000E+00  0.4375000E+00  0.1875000E+00  0.2343750E-01
   1        2.635056      2.634590
   2        3.620499      3.616292
   3        5.695320      5.692194
   4        9.275284      9.275705
   5       11.462463     11.457533
   6       13.940115     13.936519
   7       16.506906     16.505296
   8       19.169451     19.167186
   9       19.623779     19.619484
 
 -0.3125000E+00  0.4375000E+00  0.1875000E+00  0.2343750E-01
   1        3.092029      3.092019
   2        4.235778      4.231574
   3        5.240722      5.236691
   4        8.242447      8.242884
   5       12.266594     12.261086
   6       15.295005     15.293086
   7       16.088274     16.085369
   8       17.756454     17.754301
   9       19.623668     19.619357
 
 -0.1875000E+00  0.4375000E+00  0.1875000E+00  0.2343750E-01
   1        3.320830      3.320516
   2        4.161386      4.157627
   3        4.836587      4.832765
   4        8.474579      8.475039
   5       11.404738     11.399548
   6       14.207487     14.204574
   7       16.724170     16.722237
   8       19.024614     19.022097
   9       19.625296     19.621001
 
 -0.4375000E+00 -0.4375000E+00  0.1875000E+00  0.1171875E-01
   1        2.171806      2.171351
   2        3.193433      3.189414
   3        7.058888      7.055359
   4       10.026378     10.027093
   5       11.997822     11.992725
   6       14.325076     14.322828
   7       14.964868     14.960839
   8       19.590542     19.586502
   9       19.943271     19.947830
 
 -0.3125000E+00 -0.4375000E+00  0.1875000E+00  0.2343750E-01
   1        2.503017      2.502887
   2        3.477676      3.473368
   3        6.386777      6.383056
   4        9.265129      9.265798
   5       12.280925     12.275418
   6       14.940832     14.936982
   7       15.619881     15.618361
   8       17.981363     17.979594
   9       19.621609     19.617304
 
 -0.3125000E+00 -0.3125000E+00  0.1875000E+00  0.1171875E-01
   1        2.252989      2.252139
   2        3.369638      3.365809
   3        6.375655      6.372628
   4        9.338493      9.337681
   5       12.174977     12.171672
   6       13.220589     13.217049
   7       15.800932     15.798454
   8       19.617490     19.613186
   9       20.517784     20.516312
 
  0.3125000E+00  0.3125000E+00  0.3125000E+00  0.3906250E-02
   1        0.583242      0.580668
   2        5.308312      5.304621
   3        6.613567      6.611400
   4        6.613567      6.611400
   5       10.172154     10.170328
   6       10.172154     10.170328
   7       17.667190     17.664915
   8       19.617336     19.613031
   9       21.648980     21.645354
 
  0.4375000E+00  0.3125000E+00  0.3125000E+00  0.1171875E-01
   1        1.479544      1.476714
   2        5.171924      5.168752
   3        5.893985      5.892017
   4        6.874503      6.873396
   5        9.756279      9.753268
   6       12.155019     12.152811
   7       17.818359     17.815916
   8       19.620555     19.616255
   9       20.742879     20.739499
 
 -0.4375000E+00  0.3125000E+00  0.3125000E+00  0.1171875E-01
   1        3.018173      3.014914
   2        4.456478      4.456090
   3        5.080487      5.076375
   4        7.803166      7.803754
   5        9.891982      9.887134
   6       13.341229     13.338240
   7       17.673152     17.671523
   8       19.622855     19.618543
   9       20.774737     20.771393
 
 -0.3125000E+00  0.3125000E+00  0.3125000E+00  0.1171875E-01
   1        3.008798      3.006835
   2        3.866864      3.864830
   3        5.805737      5.801786
   4        8.663277      8.663976
   5       11.053893     11.048819
   6       13.131762     13.129205
   7       17.134809     17.131552
   8       19.534002     19.531247
   9       19.673766     19.670454
 
  0.4375000E+00  0.4375000E+00  0.3125000E+00  0.1171875E-01
   1        1.647209      1.644121
   2        5.124537      5.123044
   3        5.932733      5.929843
   4        6.874644      6.873039
   5       11.350734     11.348049
   6       11.824837     11.822477
   7       16.926160     16.923300
   8       19.618262     19.613973
   9       20.013651     20.010434
 
 -0.4375000E+00  0.4375000E+00  0.3125000E+00  0.2343750E-01
   1        2.715069      2.711782
   2        4.344686      4.344191
   3        5.473383      5.469495
   4        7.651960      7.651363
   5       11.067761     11.064058
   6       13.597077     13.594327
   7       15.986639     15.984188
   8       19.621258     19.616943
   9       21.332209     21.327895
 
 -0.3125000E+00  0.4375000E+00  0.3125000E+00  0.2343750E-01
   1        3.326827      3.326318
   2        3.957801      3.954383
   3        5.298116      5.294017
   4        8.364270      8.364816
   5       11.453045     11.447770
   6       14.025474     14.023167
   7       16.761501     16.758564
   8       19.079700     19.077654
   9       19.629510     19.625235
 
 -0.4375000E+00 -0.4375000E+00  0.3125000E+00  0.1171875E-01
   1        2.797294      2.794405
   2        4.024579      4.023531
   3        5.788759      5.784893
   4        8.042411      8.041912
   5       11.615599     11.611835
   6       13.589851     13.587423
   7       15.454800     15.451731
   8       19.619424     19.615109
   9       21.058837     21.056273
 
  0.4375000E+00  0.4375000E+00  0.4375000E+00  0.3906250E-02
   1        1.225028      1.221691
   2        6.221335      6.219935
   3        6.221335      6.219935
   4        6.407452      6.405056
   5       11.608685     11.606049
   6       11.608685     11.606049
   7       16.471960     16.468839
   8       18.545406     18.542156
   9       19.624358     19.620039
 
 -0.4375000E+00  0.4375000E+00  0.4375000E+00  0.1171875E-01
   1        1.826299      1.822817
   2        5.255864      5.255315
   3        6.384746      6.381360
   4        6.644298      6.643213
   5       11.503951     11.500903
   6       12.794986     12.792625
   7       15.839340     15.836146
   8       19.426166     19.422962
   9       19.622139     19.617823
