       N       E                     dE             d eps       ncg     rms          rms(c)
DAV:   1     0.899649862162E+01    0.89965E+01   -0.21481E+03  2233   0.410E+02
DAV:   2    -0.172832225900E+01   -0.10725E+02   -0.93420E+01  2947   0.611E+01
DAV:   3    -0.189808734253E+01   -0.16977E+00   -0.16783E+00  2547   0.734E+00
DAV:   4    -0.189835282779E+01   -0.26549E-03   -0.26545E-03  2959   0.260E-01
DAV:   5    -0.189835294529E+01   -0.11750E-06   -0.11678E-06  2481   0.459E-03    0.701E+00
DAV:   6    -0.112143089391E+02   -0.93160E+01   -0.26465E+00  2372   0.541E+00    0.438E+00
DAV:   7    -0.111597174829E+02    0.54591E-01   -0.61515E-02  2767   0.118E+00    0.458E+00
DAV:   8    -0.114006801676E+02   -0.24096E+00   -0.33631E-01  2338   0.373E+00    0.258E+00
DAV:   9    -0.115425362094E+02   -0.14186E+00   -0.12386E-01  2357   0.198E+00    0.140E+00
DAV:  10    -0.116070236868E+02   -0.64487E-01   -0.51335E-02  2489   0.119E+00    0.488E-01
DAV:  11    -0.116125637856E+02   -0.55401E-02   -0.20153E-03  2790   0.253E-01    0.268E-01
DAV:  12    -0.116133464572E+02   -0.78267E-03   -0.21205E-03  2247   0.291E-01    0.241E-01
DAV:  13    -0.116142882194E+02   -0.94176E-03   -0.32792E-03  2385   0.289E-01    0.380E-02
DAV:  14    -0.116142613172E+02    0.26902E-04   -0.10904E-04  1561   0.554E-02
   1 F= -.11614261E+02 E0= -.11614225E+02  d E =-.109393E-03  mag=     0.0088
