 vasp.5.2.12 11Nov11 complex                                                    
  
 executed on             LinuxIFC date 2012.10.17  11:07:02
 running on    1 nodes
 distr:  one band on    1 nodes,    1 groups


--------------------------------------------------------------------------------------------------------


 INCAR:
 POTCAR:    PAW_PBE Ta 17Jan2003                  
 POTCAR:    PAW_PBE Ta 17Jan2003                  
   VRHFIN =Ta:  6s5d                                                            
   LEXCH  = PE                                                                  
   EATOM  =   130.6506 eV,    9.6025 Ry                                         
                                                                                
   TITEL  = PAW_PBE Ta 17Jan2003                                                
   LULTRA =        F    use ultrasoft PP ?                                      
   IUNSCR =        1    unscreen: 0-lin 1-nonlin 2-no                           
   RPACOR =    2.330    partial core radius                                     
   POMASS =  180.948; ZVAL   =    5.000    mass and valenz                      
   RCORE  =    2.900    outmost cutoff radius                                   
   RWIGS  =    2.840; RWIGS  =    1.503    wigner-seitz radius (au A)           
   ENMAX  =  223.667; ENMIN  =  167.750 eV                                      
   RCLOC  =    2.205    cutoff for local pot                                    
   LCOR   =        T    correct aug charges                                     
   LPAW   =        T    paw PP                                                  
   EAUG   =  332.075                                                            
   DEXC   =    -.049                                                            
   RMAX   =    3.083    core radius for proj-oper                               
   RAUG   =    1.300    factor for augmentation sphere                          
   RDEP   =    3.060    radius for radial grids                                 
   QCUT   =   -4.055; QGAM   =    8.109    optimization parameters              
                                                                                
   Description                                                                  
     l     E      TYP  RCUT    TYP  RCUT                                        
     2   .000     23  2.500                                                     
     2   .000     23  2.500                                                     
     0   .000     23  2.500                                                     
     0   .000     23  2.500                                                     
     1   .000     23  2.900                                                     
     1  2.000     23  2.900                                                     
     3   .000      7   .000                                                     
  local pseudopotential read in
  partial core-charges read in
  atomic valenz-charges read in
  non local Contribution for L=           2  read in
    real space projection operators read in
  non local Contribution for L=           2  read in
    real space projection operators read in
  non local Contribution for L=           0  read in
    real space projection operators read in
  non local Contribution for L=           0  read in
    real space projection operators read in
  non local Contribution for L=           1  read in
    real space projection operators read in
  non local Contribution for L=           1  read in
    real space projection operators read in
    PAW grid and wavefunctions read in
 
   number of l-projection  operators is LMAX  =           6
   number of lm-projection operators is LMMAX =          18
 
  PAW_PBE Ta 17Jan2003                  :
 energy of atom  1       EATOM= -130.6506
 kinetic energy error for atom=    0.0018 (will be added to EATOM!!)
 
 
 POSCAR: Ta                                      
  positions in cartesian coordinates
  No initial velocities read in
 exchange correlation table for  LEXCH =        8
   RHO(1)=    0.500       N(1)  =     2000
   RHO(2)=  100.500       N(2)  =     4000
 


--------------------------------------------------------------------------------------------------------


 ion  position               nearest neighbor table
   1  0.000  0.000  0.000-
 
  LATTYP: Found a face centered cubic cell.
 ALAT       =     4.1900000000
  
  Lattice vectors:
  
 A1 = (   0.0000000000,   2.0950000000,   2.0950000000)
 A2 = (   2.0950000000,   0.0000000000,   2.0950000000)
 A3 = (   2.0950000000,   2.0950000000,   0.0000000000)
 Subroutine PRICEL returns:
 Original cell was already a primitive cell.
 

Analysis of symmetry for initial positions (statically):

 Routine SETGRP: Setting up the symmetry group for a 
 face centered cubic supercell.


 Subroutine GETGRP returns: Found 48 space group operations
 (whereof 48 operations were pure point group operations)
 out of a pool of 48 trial point group operations.


The static configuration has the point symmetry O_h .

Analysis of symmetry for dynamics (positions and initial velocities):

 Subroutine DYNSYM returns: Found 48 space group operations
 (whereof 48 operations were pure point group operations)
 out of a pool of 48 trial space group operations
 (whereof 48 operations were pure point group operations)
 and found also     1 'primitive' translations


The dynamic configuration has the point symmetry O_h .

Analysis of magnetic symmetry:

 Subroutine MAGSYM returns: Found 48 space group operations
 (whereof 48 operations were pure point group operations)
 out of a pool of 48 trial space group operations
 (whereof 48 operations were pure point group operations)
 and found also     1 'primitive' translations


The magnetic configuration has the point symmetry O_h .
 
 
 KPOINTS: KPOINTS created by Atomic Simulation Env

Automatic generation of k-mesh.
 
 Subroutine IBZKPT returns following result:
 ===========================================
 
 Found     60 irreducible k-points:
 
 Following reciprocal coordinates:
            Coordinates               Weight
  0.062500  0.062500  0.062500     96.000000
  0.187500  0.062500  0.062500    288.000000
  0.312500  0.062500  0.062500    288.000000
  0.437500  0.062500  0.062500    288.000000
 -0.437500  0.062500  0.062500    288.000000
 -0.312500  0.062500  0.062500    288.000000
 -0.187500  0.062500  0.062500    288.000000
 -0.062500  0.062500  0.062500    288.000000
  0.187500  0.187500  0.062500    288.000000
  0.312500  0.187500  0.062500    576.000000
  0.437500  0.187500  0.062500    576.000000
 -0.437500  0.187500  0.062500    576.000000
 -0.312500  0.187500  0.062500    576.000000
 -0.187500  0.187500  0.062500    576.000000
 -0.062500  0.187500  0.062500    576.000000
  0.312500  0.312500  0.062500    288.000000
  0.437500  0.312500  0.062500    576.000000
 -0.437500  0.312500  0.062500    576.000000
 -0.312500  0.312500  0.062500    576.000000
 -0.187500  0.312500  0.062500    576.000000
 -0.062500  0.312500  0.062500    576.000000
  0.437500  0.437500  0.062500    288.000000
 -0.437500  0.437500  0.062500    576.000000
 -0.312500  0.437500  0.062500    576.000000
 -0.187500  0.437500  0.062500    576.000000
 -0.062500  0.437500  0.062500    576.000000
 -0.437500 -0.437500  0.062500    288.000000
 -0.312500 -0.437500  0.062500    576.000000
 -0.187500 -0.437500  0.062500    576.000000
 -0.312500 -0.312500  0.062500    288.000000
 -0.187500 -0.312500  0.062500    576.000000
 -0.187500 -0.187500  0.062500    288.000000
  0.187500  0.187500  0.187500     96.000000
  0.312500  0.187500  0.187500    288.000000
  0.437500  0.187500  0.187500    288.000000
 -0.437500  0.187500  0.187500    288.000000
 -0.312500  0.187500  0.187500    288.000000
 -0.187500  0.187500  0.187500    288.000000
  0.312500  0.312500  0.187500    288.000000
  0.437500  0.312500  0.187500    576.000000
 -0.437500  0.312500  0.187500    576.000000
 -0.312500  0.312500  0.187500    576.000000
 -0.187500  0.312500  0.187500    576.000000
  0.437500  0.437500  0.187500    288.000000
 -0.437500  0.437500  0.187500    576.000000
 -0.312500  0.437500  0.187500    576.000000
 -0.187500  0.437500  0.187500    576.000000
 -0.437500 -0.437500  0.187500    288.000000
 -0.312500 -0.437500  0.187500    576.000000
 -0.312500 -0.312500  0.187500    288.000000
  0.312500  0.312500  0.312500     96.000000
  0.437500  0.312500  0.312500    288.000000
 -0.437500  0.312500  0.312500    288.000000
 -0.312500  0.312500  0.312500    288.000000
  0.437500  0.437500  0.312500    288.000000
 -0.437500  0.437500  0.312500    576.000000
 -0.312500  0.437500  0.312500    576.000000
 -0.437500 -0.437500  0.312500    288.000000
  0.437500  0.437500  0.437500     96.000000
 -0.437500  0.437500  0.437500    288.000000
 
 Following cartesian coordinates:
            Coordinates               Weight
  0.014916  0.014916  0.014916     96.000000
 -0.014916  0.044749  0.044749    288.000000
 -0.044749  0.074582  0.074582    288.000000
 -0.074582  0.104415  0.104415    288.000000
  0.134248 -0.104415 -0.104415    288.000000
  0.104415 -0.074582 -0.074582    288.000000
  0.074582 -0.044749 -0.044749    288.000000
  0.044749 -0.014916 -0.014916    288.000000
  0.014916  0.014916  0.074582    288.000000
 -0.014916  0.044749  0.104415    576.000000
 -0.044749  0.074582  0.134248    576.000000
  0.164081 -0.134248 -0.074582    576.000000
  0.134248 -0.104415 -0.044749    576.000000
  0.104415 -0.074582 -0.014916    576.000000
  0.074582 -0.044749  0.014916    576.000000
  0.014916  0.014916  0.134248    288.000000
 -0.014916  0.044749  0.164081    576.000000
  0.193914 -0.164081 -0.044749    576.000000
  0.164081 -0.134248 -0.014916    576.000000
  0.134248 -0.104415  0.014916    576.000000
  0.104415 -0.074582  0.044749    576.000000
  0.014916  0.014916  0.193914    288.000000
  0.223747 -0.193914 -0.014916    576.000000
  0.193914 -0.164081  0.014916    576.000000
  0.164081 -0.134248  0.044749    576.000000
  0.134248 -0.104415  0.074582    576.000000
  0.014916  0.014916 -0.223747    288.000000
 -0.014916  0.044749 -0.193914    576.000000
 -0.044749  0.074582 -0.164081    576.000000
  0.014916  0.014916 -0.164081    288.000000
 -0.014916  0.044749 -0.134248    576.000000
  0.014916  0.014916 -0.104415    288.000000
  0.044749  0.044749  0.044749     96.000000
  0.014916  0.074582  0.074582    288.000000
 -0.014916  0.104415  0.104415    288.000000
  0.193914 -0.104415 -0.104415    288.000000
  0.164081 -0.074582 -0.074582    288.000000
  0.134248 -0.044749 -0.044749    288.000000
  0.044749  0.044749  0.104415    288.000000
  0.014916  0.074582  0.134248    576.000000
  0.223747 -0.134248 -0.074582    576.000000
  0.193914 -0.104415 -0.044749    576.000000
  0.164081 -0.074582 -0.014916    576.000000
  0.044749  0.044749  0.164081    288.000000
  0.253580 -0.164081 -0.044749    576.000000
  0.223747 -0.134248 -0.014916    576.000000
  0.193914 -0.104415  0.014916    576.000000
  0.044749  0.044749 -0.253580    288.000000
  0.014916  0.074582 -0.223747    576.000000
  0.044749  0.044749 -0.193914    288.000000
  0.074582  0.074582  0.074582     96.000000
  0.044749  0.104415  0.104415    288.000000
  0.253580 -0.104415 -0.104415    288.000000
  0.223747 -0.074582 -0.074582    288.000000
  0.074582  0.074582  0.134248    288.000000
  0.283413 -0.134248 -0.074582    576.000000
  0.253580 -0.104415 -0.044749    576.000000
  0.074582  0.074582 -0.283413    288.000000
  0.104415  0.104415  0.104415     96.000000
  0.313246 -0.104415 -0.104415    288.000000
 


--------------------------------------------------------------------------------------------------------




 Dimension of arrays:
   k-points           NKPTS =     60   k-points in BZ     NKDIM =     60   number of bands    NBANDS=      9
   number of dos      NEDOS =    301   number of ions     NIONS =      1
   non local maximal  LDIM  =      6   non local SUM 2l+1 LMDIM =     18
   total plane-waves  NPLWV =   8000
   max r-space proj   IRMAX =      1   max aug-charges    IRDMAX=  29808
   dimension x,y,z NGX =    20 NGY =   20 NGZ =   20
   dimension x,y,z NGXF=    40 NGYF=   40 NGZF=   40
   support grid    NGXF=    40 NGYF=   40 NGZF=   40
   ions per type =               1
 NGX,Y,Z   is equivalent  to a cutoff of  11.22, 11.22, 11.22 a.u.
 NGXF,Y,Z  is equivalent  to a cutoff of  22.44, 22.44, 22.44 a.u.


 I would recommend the setting:
   dimension x,y,z NGX =    19 NGY =   19 NGZ =   19
 SYSTEM =  unknown system                          
 POSCAR =  Ta                                      

 Startparameter for this run:
   NWRITE =      2    write-flag & timer
   PREC   = accura    normal or accurate (medium, high low for compatibility)
   ISTART =      0    job   : 0-new  1-cont  2-samecut
   ICHARG =      2    charge: 1-file 2-atom 10-const
   ISPIN  =      2    spin polarized calculation?
   LNONCOLLINEAR =      F non collinear calculations
   LSORBIT =      F    spin-orbit coupling
   INIWAV =      1    electr: 0-lowe 1-rand  2-diag
   LASPH  =      F    aspherical Exc in radial PAW
   METAGGA=      F    non-selfconsistent MetaGGA calc.

 Electronic Relaxation 1
   ENCUT  =  400.0 eV  29.40 Ry    5.42 a.u.   4.83  4.83  4.83*2*pi/ulx,y,z
   ENINI  =  400.0     initial cutoff
   ENAUG  =  332.1 eV  augmentation charge cutoff
   NELM   =     60;   NELMIN=  2; NELMDL= -5     # of ELM steps 
   EDIFF  = 0.1E-03   stopping-criterion for ELM
   LREAL  =      F    real-space projection
   NLSPLINE    = F    spline interpolate recip. space projectors
   LCOMPAT=      F    compatible to vasp.4.4
   GGA_COMPAT  = T    GGA compatible to vasp.4.4-vasp.4.6
   LMAXPAW     = -100 max onsite density
   LMAXMIX     =    2 max onsite mixed and CHGCAR
   VOSKOWN=      0    Vosko Wilk Nusair interpolation
   ROPT   =    0.00000
 Ionic relaxation
   EDIFFG = 0.1E-02   stopping-criterion for IOM
   NSW    =      0    number of steps for IOM
   NBLOCK =      1;   KBLOCK =      1    inner block; outer block 
   IBRION =     -1    ionic relax: 0-MD 1-quasi-New 2-CG
   NFREE  =      0    steps in history (QN), initial steepest desc. (CG)
   ISIF   =      2    stress and relaxation
   IWAVPR =     10    prediction:  0-non 1-charg 2-wave 3-comb
   ISYM   =      2    0-nonsym 1-usesym 2-fastsym
   LCORR  =      T    Harris-Foulkes like correction to forces

   POTIM  = 0.5000    time-step for ionic-motion
   TEIN   =    0.0    initial temperature
   TEBEG  =    0.0;   TEEND  =   0.0 temperature during run
   SMASS  =  -3.00    Nose mass-parameter (am)
   estimated Nose-frequenzy (Omega)   =  0.10E-29 period in steps =****** mass=  -0.201E-27a.u.
   SCALEE = 1.0000    scale energy and forces
   NPACO  =    256;   APACO  = 16.0  distance and # of slots for P.C.
   PSTRESS=    0.0 pullay stress

  Mass of Ions in am
   POMASS = 180.95
  Ionic Valenz
   ZVAL   =   5.00
  Atomic Wigner-Seitz radii
   RWIGS  =  -1.00
  virtual crystal weights 
   VCA    =   1.00
   NELECT =       5.0000    total number of electrons
   NUPDOWN=      -1.0000    fix difference up-down

 DOS related values:
   EMIN   =  10.00;   EMAX   =-10.00  energy-range for DOS
   EFERMI =   0.00
   ISMEAR =     1;   SIGMA  =   0.05  broadening in eV -4-tet -1-fermi 0-gaus

 Electronic relaxation 2 (details)
   IALGO  =     38    algorithm
   LDIAG  =      T    sub-space diagonalisation (order eigenvalues)
   LSUBROT=      T    optimize rotation matrix (better conditioning)
   TURBO    =      0    0=normal 1=particle mesh
   IRESTART =      0    0=no restart 2=restart with 2 vectors
   NREBOOT  =      0    no. of reboots
   NMIN     =      0    reboot dimension
   EREF     =   0.00    reference energy to select bands
   IMIX   =      4    mixing-type and parameters
     AMIX     =   0.40;   BMIX     =  1.00
     AMIX_MAG =   1.60;   BMIX_MAG =  1.00
     AMIN     =   0.10
     WC   =   100.;   INIMIX=   1;  MIXPRE=   1

 Intra band minimization:
   WEIMIN = 0.0000     energy-eigenvalue tresh-hold
   EBREAK =  0.28E-05  absolut break condition
   DEPER  =   0.30     relativ break condition  

   TIME   =   0.40     timestep for ELM

  volume/ion in A,a.u.               =      18.39       124.10
  Fermi-wavevector in a.u.,A,eV,Ry     =   1.060565  2.004178 15.303820  1.124799
  Thomas-Fermi vector in A             =   2.195951
 
 Write flags
   LWAVE  =      T    write WAVECAR
   LCHARG =      T    write CHGCAR
   LVTOT  =      F    write LOCPOT, total local potential
   LVHAR  =      F    write LOCPOT, Hartree potential only
   LELF   =      F    write electronic localiz. function (ELF)
   LORBIT =     11    0 simple, 1 ext, 2 COOP (PROOUT)


 Dipole corrections
   LMONO  =      F    monopole corrections only (constant potential shift)
   LDIPOL =      F    correct potential (dipole corrections)
   IDIPOL =      0    1-x, 2-y, 3-z, 4-all directions 
   EPSILON=  1.0000000 bulk dielectric constant

 Exchange correlation treatment:
   GGA     =    --    GGA type
   LEXCH   =     8    internal setting for exchange type
   VOSKOWN=      0    Vosko Wilk Nusair interpolation
   LHFCALC =     F    Hartree Fock is set to
   LHFONE  =     F    Hartree Fock one center treatment
   AEXX    =    0.0000 exact exchange contribution

 Linear response parameters
   LEPSILON=     F    determine dielectric tensor
   LRPA    =     F    only Hartree local field effects (RPA)
   LNABLA  =     F    use nabla operator in PAW spheres
   LVEL    =     F    velocity operator in full k-point grid
   LINTERFAST=   F  fast interpolation
   KINTER  =     0    interpolate to denser k-point grid
   CSHIFT  =0.1000    complex shift for real part using Kramers Kronig
   OMEGAMAX=  -1.0    maximum frequency
   RTIME   =    0.100 relaxation time in fs

 Orbital magnetization related:
   ORBITALMAG=     F  switch on orbital magnetization
   LCHIMAG   =     F  perturbation theory with respect to B field
   DQ        =  0.001000  dq finite difference perturbation B field



--------------------------------------------------------------------------------------------------------


 Static calculation
 charge density and potential will be updated during run
 spin polarized calculation
 Variant of blocked Davidson
 Davidson routine will perform the subspace rotation
 perform sub-space diagonalisation
    after iterative eigenvector-optimisation
 modified Broyden-mixing scheme, WC =      100.0
 initial mixing is a Kerker type mixing with AMIX =  0.4000 and BMIX =      1.0000
 Hartree-type preconditioning will be used
 using additional bands            6
 reciprocal scheme for non local part
 use partial core corrections
 calculate Harris-corrections to forces 
   (improved forces if not selfconsistent)
 use gradient corrections 
 use of overlap-Matrix (Vanderbilt PP)
 Methfessel and Paxton  Order N= 1 SIGMA  =   0.05


--------------------------------------------------------------------------------------------------------


  energy-cutoff  :      400.00
  volume of cell :       18.39
      direct lattice vectors                 reciprocal lattice vectors
     0.000000000  2.095000000  2.095000000    -0.238663484  0.238663484  0.238663484
     2.095000000  0.000000000  2.095000000     0.238663484 -0.238663484  0.238663484
     2.095000000  2.095000000  0.000000000     0.238663484  0.238663484 -0.238663484

  length of vectors
     2.962777413  2.962777413  2.962777413     0.413377281  0.413377281  0.413377281


 
 k-points in units of 2pi/SCALE and weight: KPOINTS created by Atomic Simulation Env
   0.01491647  0.01491647  0.01491647       0.004
  -0.01491647  0.04474940  0.04474940       0.012
  -0.04474940  0.07458234  0.07458234       0.012
  -0.07458234  0.10441527  0.10441527       0.012
   0.13424821 -0.10441527 -0.10441527       0.012
   0.10441527 -0.07458234 -0.07458234       0.012
   0.07458234 -0.04474940 -0.04474940       0.012
   0.04474940 -0.01491647 -0.01491647       0.012
   0.01491647  0.01491647  0.07458234       0.012
  -0.01491647  0.04474940  0.10441527       0.023
  -0.04474940  0.07458234  0.13424821       0.023
   0.16408115 -0.13424821 -0.07458234       0.023
   0.13424821 -0.10441527 -0.04474940       0.023
   0.10441527 -0.07458234 -0.01491647       0.023
   0.07458234 -0.04474940  0.01491647       0.023
   0.01491647  0.01491647  0.13424821       0.012
  -0.01491647  0.04474940  0.16408115       0.023
   0.19391408 -0.16408115 -0.04474940       0.023
   0.16408115 -0.13424821 -0.01491647       0.023
   0.13424821 -0.10441527  0.01491647       0.023
   0.10441527 -0.07458234  0.04474940       0.023
   0.01491647  0.01491647  0.19391408       0.012
   0.22374702 -0.19391408 -0.01491647       0.023
   0.19391408 -0.16408115  0.01491647       0.023
   0.16408115 -0.13424821  0.04474940       0.023
   0.13424821 -0.10441527  0.07458234       0.023
   0.01491647  0.01491647 -0.22374702       0.012
  -0.01491647  0.04474940 -0.19391408       0.023
  -0.04474940  0.07458234 -0.16408115       0.023
   0.01491647  0.01491647 -0.16408115       0.012
  -0.01491647  0.04474940 -0.13424821       0.023
   0.01491647  0.01491647 -0.10441527       0.012
   0.04474940  0.04474940  0.04474940       0.004
   0.01491647  0.07458234  0.07458234       0.012
  -0.01491647  0.10441527  0.10441527       0.012
   0.19391408 -0.10441527 -0.10441527       0.012
   0.16408115 -0.07458234 -0.07458234       0.012
   0.13424821 -0.04474940 -0.04474940       0.012
   0.04474940  0.04474940  0.10441527       0.012
   0.01491647  0.07458234  0.13424821       0.023
   0.22374702 -0.13424821 -0.07458234       0.023
   0.19391408 -0.10441527 -0.04474940       0.023
   0.16408115 -0.07458234 -0.01491647       0.023
   0.04474940  0.04474940  0.16408115       0.012
   0.25357995 -0.16408115 -0.04474940       0.023
   0.22374702 -0.13424821 -0.01491647       0.023
   0.19391408 -0.10441527  0.01491647       0.023
   0.04474940  0.04474940 -0.25357995       0.012
   0.01491647  0.07458234 -0.22374702       0.023
   0.04474940  0.04474940 -0.19391408       0.012
   0.07458234  0.07458234  0.07458234       0.004
   0.04474940  0.10441527  0.10441527       0.012
   0.25357995 -0.10441527 -0.10441527       0.012
   0.22374702 -0.07458234 -0.07458234       0.012
   0.07458234  0.07458234  0.13424821       0.012
   0.28341289 -0.13424821 -0.07458234       0.023
   0.25357995 -0.10441527 -0.04474940       0.023
   0.07458234  0.07458234 -0.28341289       0.012
   0.10441527  0.10441527  0.10441527       0.004
   0.31324582 -0.10441527 -0.10441527       0.012
 
 k-points in reciprocal lattice and weights: KPOINTS created by Atomic Simulation Env
   0.06250000  0.06250000  0.06250000       0.004
   0.18750000  0.06250000  0.06250000       0.012
   0.31250000  0.06250000  0.06250000       0.012
   0.43750000  0.06250000  0.06250000       0.012
  -0.43750000  0.06250000  0.06250000       0.012
  -0.31250000  0.06250000  0.06250000       0.012
  -0.18750000  0.06250000  0.06250000       0.012
  -0.06250000  0.06250000  0.06250000       0.012
   0.18750000  0.18750000  0.06250000       0.012
   0.31250000  0.18750000  0.06250000       0.023
   0.43750000  0.18750000  0.06250000       0.023
  -0.43750000  0.18750000  0.06250000       0.023
  -0.31250000  0.18750000  0.06250000       0.023
  -0.18750000  0.18750000  0.06250000       0.023
  -0.06250000  0.18750000  0.06250000       0.023
   0.31250000  0.31250000  0.06250000       0.012
   0.43750000  0.31250000  0.06250000       0.023
  -0.43750000  0.31250000  0.06250000       0.023
  -0.31250000  0.31250000  0.06250000       0.023
  -0.18750000  0.31250000  0.06250000       0.023
  -0.06250000  0.31250000  0.06250000       0.023
   0.43750000  0.43750000  0.06250000       0.012
  -0.43750000  0.43750000  0.06250000       0.023
  -0.31250000  0.43750000  0.06250000       0.023
  -0.18750000  0.43750000  0.06250000       0.023
  -0.06250000  0.43750000  0.06250000       0.023
  -0.43750000 -0.43750000  0.06250000       0.012
  -0.31250000 -0.43750000  0.06250000       0.023
  -0.18750000 -0.43750000  0.06250000       0.023
  -0.31250000 -0.31250000  0.06250000       0.012
  -0.18750000 -0.31250000  0.06250000       0.023
  -0.18750000 -0.18750000  0.06250000       0.012
   0.18750000  0.18750000  0.18750000       0.004
   0.31250000  0.18750000  0.18750000       0.012
   0.43750000  0.18750000  0.18750000       0.012
  -0.43750000  0.18750000  0.18750000       0.012
  -0.31250000  0.18750000  0.18750000       0.012
  -0.18750000  0.18750000  0.18750000       0.012
   0.31250000  0.31250000  0.18750000       0.012
   0.43750000  0.31250000  0.18750000       0.023
  -0.43750000  0.31250000  0.18750000       0.023
  -0.31250000  0.31250000  0.18750000       0.023
  -0.18750000  0.31250000  0.18750000       0.023
   0.43750000  0.43750000  0.18750000       0.012
  -0.43750000  0.43750000  0.18750000       0.023
  -0.31250000  0.43750000  0.18750000       0.023
  -0.18750000  0.43750000  0.18750000       0.023
  -0.43750000 -0.43750000  0.18750000       0.012
  -0.31250000 -0.43750000  0.18750000       0.023
  -0.31250000 -0.31250000  0.18750000       0.012
   0.31250000  0.31250000  0.31250000       0.004
   0.43750000  0.31250000  0.31250000       0.012
  -0.43750000  0.31250000  0.31250000       0.012
  -0.31250000  0.31250000  0.31250000       0.012
   0.43750000  0.43750000  0.31250000       0.012
  -0.43750000  0.43750000  0.31250000       0.023
  -0.31250000  0.43750000  0.31250000       0.023
  -0.43750000 -0.43750000  0.31250000       0.012
   0.43750000  0.43750000  0.43750000       0.004
  -0.43750000  0.43750000  0.43750000       0.012
 
 position of ions in fractional coordinates (direct lattice) 
   0.00000000  0.00000000  0.00000000
 
 position of ions in cartesian coordinates  (Angst):
   0.00000000  0.00000000  0.00000000
 


--------------------------------------------------------------------------------------------------------


 k-point  1 :  0.06250.06250.0625  plane waves:     332
 k-point  2 :  0.18750.06250.0625  plane waves:     329
 k-point  3 :  0.31250.06250.0625  plane waves:     331
 k-point  4 :  0.43750.06250.0625  plane waves:     334
 k-point  5 :  -.43750.06250.0625  plane waves:     338
 k-point  6 :  -.31250.06250.0625  plane waves:     333
 k-point  7 :  -.18750.06250.0625  plane waves:     329
 k-point  8 :  -.06250.06250.0625  plane waves:     333
 k-point  9 :  0.18750.18750.0625  plane waves:     331
 k-point 10 :  0.31250.18750.0625  plane waves:     332
 k-point 11 :  0.43750.18750.0625  plane waves:     331
 k-point 12 :  -.43750.18750.0625  plane waves:     335
 k-point 13 :  -.31250.18750.0625  plane waves:     335
 k-point 14 :  -.18750.18750.0625  plane waves:     332
 k-point 15 :  -.06250.18750.0625  plane waves:     327
 k-point 16 :  0.31250.31250.0625  plane waves:     331
 k-point 17 :  0.43750.31250.0625  plane waves:     332
 k-point 18 :  -.43750.31250.0625  plane waves:     338
 k-point 19 :  -.31250.31250.0625  plane waves:     336
 k-point 20 :  -.18750.31250.0625  plane waves:     334
 k-point 21 :  -.06250.31250.0625  plane waves:     333
 k-point 22 :  0.43750.43750.0625  plane waves:     329
 k-point 23 :  -.43750.43750.0625  plane waves:     334
 k-point 24 :  -.31250.43750.0625  plane waves:     338
 k-point 25 :  -.18750.43750.0625  plane waves:     338
 k-point 26 :  -.06250.43750.0625  plane waves:     338
 k-point 27 :  -.4375-.43750.0625  plane waves:     338
 k-point 28 :  -.3125-.43750.0625  plane waves:     332
 k-point 29 :  -.1875-.43750.0625  plane waves:     333
 k-point 30 :  -.3125-.31250.0625  plane waves:     329
 k-point 31 :  -.1875-.31250.0625  plane waves:     330
 k-point 32 :  -.1875-.18750.0625  plane waves:     333
 k-point 33 :  0.18750.18750.1875  plane waves:     329
 k-point 34 :  0.31250.18750.1875  plane waves:     329
 k-point 35 :  0.43750.18750.1875  plane waves:     331
 k-point 36 :  -.43750.18750.1875  plane waves:     335
 k-point 37 :  -.31250.18750.1875  plane waves:     333
 k-point 38 :  -.18750.18750.1875  plane waves:     329
 k-point 39 :  0.31250.31250.1875  plane waves:     334
 k-point 40 :  0.43750.31250.1875  plane waves:     331
 k-point 41 :  -.43750.31250.1875  plane waves:     335
 k-point 42 :  -.31250.31250.1875  plane waves:     337
 k-point 43 :  -.18750.31250.1875  plane waves:     334
 k-point 44 :  0.43750.43750.1875  plane waves:     332
 k-point 45 :  -.43750.43750.1875  plane waves:     339
 k-point 46 :  -.31250.43750.1875  plane waves:     336
 k-point 47 :  -.18750.43750.1875  plane waves:     337
 k-point 48 :  -.4375-.43750.1875  plane waves:     335
 k-point 49 :  -.3125-.43750.1875  plane waves:     337
 k-point 50 :  -.3125-.31250.1875  plane waves:     336
 k-point 51 :  0.31250.31250.3125  plane waves:     338
 k-point 52 :  0.43750.31250.3125  plane waves:     336
 k-point 53 :  -.43750.31250.3125  plane waves:     337
 k-point 54 :  -.31250.31250.3125  plane waves:     339
 k-point 55 :  0.43750.43750.3125  plane waves:     337
 k-point 56 :  -.43750.43750.3125  plane waves:     332
 k-point 57 :  -.31250.43750.3125  plane waves:     336
 k-point 58 :  -.4375-.43750.3125  plane waves:     339
 k-point 59 :  0.43750.43750.4375  plane waves:     338
 k-point 60 :  -.43750.43750.4375  plane waves:     335

 maximum and minimum number of plane-waves per node :       339      327

 maximum number of plane-waves:       339
 maximum index in each direction: 
   IXMAX=    5   IYMAX=    5   IZMAX=    4
   IXMIN=   -5   IYMIN=   -5   IZMIN=   -5

 WARNING: aliasing errors must be expected set NGX to  22 to avoid them
 WARNING: aliasing errors must be expected set NGY to  22 to avoid them
 NGZ is ok and might be reduce to  20
 aliasing errors are usually negligible using standard VASP settings
 and one can safely disregard these warnings

 serial   3D FFT for wavefunctions
 parallel 3D FFT for charge:
    minimum data exchange during FFTs selected (reduces bandwidth)


 total amount of memory used by VASP on root node    46857. kBytes
========================================================================

   base      :      30000. kBytes
   nonl-proj :       2934. kBytes
   fftplans  :       2284. kBytes
   grid      :       5440. kBytes
   one-center:         31. kBytes
   wavefun   :       6168. kBytes
 
 Broyden mixing: mesh for mixing (old mesh)
   NGX =  9   NGY =  9   NGZ =  9
  (NGX  = 40   NGY  = 40   NGZ  = 40)
  gives a total of    729 points

 initial charge density was supplied:
 charge density of overlapping atoms calculated
 number of electron       5.0000000 magnetization       6.0000000
 keeping initial charge density in first step


--------------------------------------------------------------------------------------------------------


 Maximum index for augmentation-charges        28675 (set IRDMAX)


--------------------------------------------------------------------------------------------------------


 First call to EWALD:  gamma=   0.672
 Maximum number of real-space cells 3x 3x 3
 Maximum number of reciprocal cells 3x 3x 3

    FEWALD:  cpu time    0.00: real time    0.00


----------------------------------------- Iteration    1(   1)  ---------------------------------------


    POTLOK:  cpu time    0.20: real time    0.20
    SETDIJ:  cpu time    0.04: real time    0.04
     EDDAV:  cpu time    2.92: real time    2.92
       DOS:  cpu time    0.01: real time    0.01
    --------------------------------------------
      LOOP:  cpu time    3.17: real time    3.17

 eigenvalue-minimisations  :  2233
 total energy-change (2. order) : 0.8996499E+01  (-0.2148055E+03)
 number of electron       5.0000000 magnetization       6.0000000
 augmentation part        5.0000000 magnetization       6.0000000

 Free energy of the ion-electron system (eV)
  ---------------------------------------------------
  alpha Z        PSCENC =        30.15482628
  Ewald energy   TEWEN  =      -196.96013737
  -1/2 Hartree   DENC   =        -2.62452757
  -exchange  EXHF       =         0.00000000
  -V(xc)+E(xc)   XCENC  =       -60.71023667
  PAW double counting   =       143.51874798      -69.33493833
  entropy T*S    EENTRO =        -0.00001177
  eigenvalues    EBANDS =        34.30393472
  atomic energy  EATOM  =       130.64884137
  ---------------------------------------------------
  free energy    TOTEN  =         8.99649862 eV

  energy without entropy =        8.99651039  energy(sigma->0) =        8.99650254


--------------------------------------------------------------------------------------------------------




----------------------------------------- Iteration    1(   2)  ---------------------------------------


     EDDAV:  cpu time    3.61: real time    3.61
       DOS:  cpu time    0.01: real time    0.01
    --------------------------------------------
      LOOP:  cpu time    3.61: real time    3.62

 eigenvalue-minimisations  :  2947
 total energy-change (2. order) :-0.1072482E+02  (-0.9342027E+01)
 number of electron       5.0000000 magnetization       6.0000000
 augmentation part        5.0000000 magnetization       6.0000000

 Free energy of the ion-electron system (eV)
  ---------------------------------------------------
  alpha Z        PSCENC =        30.15482628
  Ewald energy   TEWEN  =      -196.96013737
  -1/2 Hartree   DENC   =        -2.62452757
  -exchange  EXHF       =         0.00000000
  -V(xc)+E(xc)   XCENC  =       -60.71023667
  PAW double counting   =       143.51874798      -69.33493833
  entropy T*S    EENTRO =        -0.00005737
  eigenvalues    EBANDS =        23.57915943
  atomic energy  EATOM  =       130.64884137
  ---------------------------------------------------
  free energy    TOTEN  =        -1.72832226 eV

  energy without entropy =       -1.72826489  energy(sigma->0) =       -1.72830314


--------------------------------------------------------------------------------------------------------




----------------------------------------- Iteration    1(   3)  ---------------------------------------


     EDDAV:  cpu time    3.21: real time    3.21
       DOS:  cpu time    0.01: real time    0.01
    --------------------------------------------
      LOOP:  cpu time    3.21: real time    3.25

 eigenvalue-minimisations  :  2547
 total energy-change (2. order) :-0.1697651E+00  (-0.1678348E+00)
 number of electron       5.0000000 magnetization       6.0000000
 augmentation part        5.0000000 magnetization       6.0000000

 Free energy of the ion-electron system (eV)
  ---------------------------------------------------
  alpha Z        PSCENC =        30.15482628
  Ewald energy   TEWEN  =      -196.96013737
  -1/2 Hartree   DENC   =        -2.62452757
  -exchange  EXHF       =         0.00000000
  -V(xc)+E(xc)   XCENC  =       -60.71023667
  PAW double counting   =       143.51874798      -69.33493833
  entropy T*S    EENTRO =         0.00040929
  eigenvalues    EBANDS =        23.40892770
  atomic energy  EATOM  =       130.64884137
  ---------------------------------------------------
  free energy    TOTEN  =        -1.89808734 eV

  energy without entropy =       -1.89849663  energy(sigma->0) =       -1.89822377


--------------------------------------------------------------------------------------------------------




----------------------------------------- Iteration    1(   4)  ---------------------------------------


     EDDAV:  cpu time    3.65: real time    3.65
       DOS:  cpu time    0.01: real time    0.01
    --------------------------------------------
      LOOP:  cpu time    3.66: real time    3.67

 eigenvalue-minimisations  :  2959
 total energy-change (2. order) :-0.2654853E-03  (-0.2654542E-03)
 number of electron       5.0000000 magnetization       6.0000000
 augmentation part        5.0000000 magnetization       6.0000000

 Free energy of the ion-electron system (eV)
  ---------------------------------------------------
  alpha Z        PSCENC =        30.15482628
  Ewald energy   TEWEN  =      -196.96013737
  -1/2 Hartree   DENC   =        -2.62452757
  -exchange  EXHF       =         0.00000000
  -V(xc)+E(xc)   XCENC  =       -60.71023667
  PAW double counting   =       143.51874798      -69.33493833
  entropy T*S    EENTRO =         0.00041181
  eigenvalues    EBANDS =        23.40865969
  atomic energy  EATOM  =       130.64884137
  ---------------------------------------------------
  free energy    TOTEN  =        -1.89835283 eV

  energy without entropy =       -1.89876463  energy(sigma->0) =       -1.89849010


--------------------------------------------------------------------------------------------------------




----------------------------------------- Iteration    1(   5)  ---------------------------------------


     EDDAV:  cpu time    3.13: real time    3.13
       DOS:  cpu time    0.01: real time    0.01
    CHARGE:  cpu time    0.19: real time    0.19
    MIXING:  cpu time    0.00: real time    0.00
    --------------------------------------------
      LOOP:  cpu time    3.34: real time    3.35

 eigenvalue-minimisations  :  2481
 total energy-change (2. order) :-0.1174984E-06  (-0.1167829E-06)
 number of electron       5.0000000 magnetization       2.3785552
 augmentation part        0.4524491 magnetization      -0.6791176

 Broyden mixing:
  rms(total) = 0.70127E+00    rms(broyden)= 0.70125E+00
  rms(prec ) = 0.91842E+00
  weight for this iteration     100.00

 Free energy of the ion-electron system (eV)
  ---------------------------------------------------
  alpha Z        PSCENC =        30.15482628
  Ewald energy   TEWEN  =      -196.96013737
  -1/2 Hartree   DENC   =        -2.62452757
  -exchange  EXHF       =         0.00000000
  -V(xc)+E(xc)   XCENC  =       -60.71023667
  PAW double counting   =       143.51874798      -69.33493833
  entropy T*S    EENTRO =         0.00041181
  eigenvalues    EBANDS =        23.40865957
  atomic energy  EATOM  =       130.64884137
  ---------------------------------------------------
  free energy    TOTEN  =        -1.89835295 eV

  energy without entropy =       -1.89876475  energy(sigma->0) =       -1.89849021


--------------------------------------------------------------------------------------------------------




----------------------------------------- Iteration    1(   6)  ---------------------------------------


    POTLOK:  cpu time    0.21: real time    0.21
    SETDIJ:  cpu time    0.06: real time    0.06
     EDDAV:  cpu time    3.04: real time    3.04
       DOS:  cpu time    0.01: real time    0.01
    CHARGE:  cpu time    0.20: real time    0.20
    MIXING:  cpu time    0.00: real time    0.00
    --------------------------------------------
      LOOP:  cpu time    3.53: real time    3.55

 eigenvalue-minimisations  :  2372
 total energy-change (2. order) :-0.9315956E+01  (-0.2646524E+00)
 number of electron       5.0000000 magnetization       2.4958164
 augmentation part        0.3677421 magnetization       1.6470530

 Broyden mixing:
  rms(total) = 0.43840E+00    rms(broyden)= 0.43838E+00
  rms(prec ) = 0.11228E+01
  weight for this iteration     100.00

 eigenvalues of (default mixing * dielectric matrix)
  average eigenvalue GAMMA=   1.6545
  1.6545

 Free energy of the ion-electron system (eV)
  ---------------------------------------------------
  alpha Z        PSCENC =        30.15482628
  Ewald energy   TEWEN  =      -196.96013737
  -1/2 Hartree   DENC   =        -2.11079519
  -exchange  EXHF       =         0.00000000
  -V(xc)+E(xc)   XCENC  =       -66.00617336
  PAW double counting   =       162.99118616      -89.05188323
  entropy T*S    EENTRO =        -0.00019756
  eigenvalues    EBANDS =        19.12002396
  atomic energy  EATOM  =       130.64884137
  ---------------------------------------------------
  free energy    TOTEN  =       -11.21430894 eV

  energy without entropy =      -11.21411138  energy(sigma->0) =      -11.21424309


--------------------------------------------------------------------------------------------------------




----------------------------------------- Iteration    1(   7)  ---------------------------------------


    POTLOK:  cpu time    0.21: real time    0.21
    SETDIJ:  cpu time    0.05: real time    0.05
     EDDAV:  cpu time    3.40: real time    3.40
       DOS:  cpu time    0.01: real time    0.01
    CHARGE:  cpu time    0.20: real time    0.20
    MIXING:  cpu time    0.00: real time    0.00
    --------------------------------------------
      LOOP:  cpu time    3.87: real time    3.89

 eigenvalue-minimisations  :  2767
 total energy-change (2. order) : 0.5459146E-01  (-0.6151484E-02)
 number of electron       5.0000000 magnetization       1.0966402
 augmentation part        0.3663099 magnetization       0.2135028

 Broyden mixing:
  rms(total) = 0.45778E+00    rms(broyden)= 0.45778E+00
  rms(prec ) = 0.11558E+01
  weight for this iteration     100.00

 eigenvalues of (default mixing * dielectric matrix)
  average eigenvalue GAMMA=   1.0464
  1.4621  0.6308

 Free energy of the ion-electron system (eV)
  ---------------------------------------------------
  alpha Z        PSCENC =        30.15482628
  Ewald energy   TEWEN  =      -196.96013737
  -1/2 Hartree   DENC   =        -2.16095004
  -exchange  EXHF       =         0.00000000
  -V(xc)+E(xc)   XCENC  =       -65.95733277
  PAW double counting   =       162.06311082      -88.11246673
  entropy T*S    EENTRO =         0.00018994
  eigenvalues    EBANDS =        19.16420103
  atomic energy  EATOM  =       130.64884137
  ---------------------------------------------------
  free energy    TOTEN  =       -11.15971748 eV

  energy without entropy =      -11.15990742  energy(sigma->0) =      -11.15978080


--------------------------------------------------------------------------------------------------------




----------------------------------------- Iteration    1(   8)  ---------------------------------------


    POTLOK:  cpu time    0.21: real time    0.21
    SETDIJ:  cpu time    0.05: real time    0.05
     EDDAV:  cpu time    3.01: real time    3.01
       DOS:  cpu time    0.01: real time    0.01
    CHARGE:  cpu time    0.21: real time    0.21
    MIXING:  cpu time    0.00: real time    0.00
    --------------------------------------------
      LOOP:  cpu time    3.49: real time    3.51

 eigenvalue-minimisations  :  2338
 total energy-change (2. order) :-0.2409627E+00  (-0.3363143E-01)
 number of electron       5.0000000 magnetization       0.8003802
 augmentation part        0.3774621 magnetization       0.3521031

 Broyden mixing:
  rms(total) = 0.25836E+00    rms(broyden)= 0.25836E+00
  rms(prec ) = 0.54833E+00
  weight for this iteration     100.00

 eigenvalues of (default mixing * dielectric matrix)
  average eigenvalue GAMMA=   1.0917
  1.3693  1.3693  0.5365

 Free energy of the ion-electron system (eV)
  ---------------------------------------------------
  alpha Z        PSCENC =        30.15482628
  Ewald energy   TEWEN  =      -196.96013737
  -1/2 Hartree   DENC   =        -1.13273243
  -exchange  EXHF       =         0.00000000
  -V(xc)+E(xc)   XCENC  =       -66.03895561
  PAW double counting   =       180.67508650     -107.13078983
  entropy T*S    EENTRO =         0.00010463
  eigenvalues    EBANDS =        18.38307629
  atomic energy  EATOM  =       130.64884137
  ---------------------------------------------------
  free energy    TOTEN  =       -11.40068017 eV

  energy without entropy =      -11.40078480  energy(sigma->0) =      -11.40071505


--------------------------------------------------------------------------------------------------------




----------------------------------------- Iteration    1(   9)  ---------------------------------------


    POTLOK:  cpu time    0.21: real time    0.21
    SETDIJ:  cpu time    0.06: real time    0.06
     EDDAV:  cpu time    3.01: real time    3.01
       DOS:  cpu time    0.01: real time    0.01
    CHARGE:  cpu time    0.20: real time    0.20
    MIXING:  cpu time    0.00: real time    0.00
    --------------------------------------------
      LOOP:  cpu time    3.49: real time    3.50

 eigenvalue-minimisations  :  2357
 total energy-change (2. order) :-0.1418560E+00  (-0.1238622E-01)
 number of electron       5.0000000 magnetization       0.2089350
 augmentation part        0.3849417 magnetization      -0.0751889

 Broyden mixing:
  rms(total) = 0.13991E+00    rms(broyden)= 0.13991E+00
  rms(prec ) = 0.29531E+00
  weight for this iteration     100.00

 eigenvalues of (default mixing * dielectric matrix)
  average eigenvalue GAMMA=   1.1826
  1.9396  1.3861  0.7024  0.7024

 Free energy of the ion-electron system (eV)
  ---------------------------------------------------
  alpha Z        PSCENC =        30.15482628
  Ewald energy   TEWEN  =      -196.96013737
  -1/2 Hartree   DENC   =        -0.87638188
  -exchange  EXHF       =         0.00000000
  -V(xc)+E(xc)   XCENC  =       -66.06298795
  PAW double counting   =       185.69333976     -112.26061358
  entropy T*S    EENTRO =         0.00004779
  eigenvalues    EBANDS =        18.12052937
  atomic energy  EATOM  =       130.64884137
  ---------------------------------------------------
  free energy    TOTEN  =       -11.54253621 eV

  energy without entropy =      -11.54258400  energy(sigma->0) =      -11.54255214


--------------------------------------------------------------------------------------------------------




----------------------------------------- Iteration    1(  10)  ---------------------------------------


    POTLOK:  cpu time    0.20: real time    0.21
    SETDIJ:  cpu time    0.06: real time    0.06
     EDDAV:  cpu time    3.15: real time    3.15
       DOS:  cpu time    0.01: real time    0.01
    CHARGE:  cpu time    0.21: real time    0.21
    MIXING:  cpu time    0.00: real time    0.00
    --------------------------------------------
      LOOP:  cpu time    3.63: real time    3.65

 eigenvalue-minimisations  :  2489
 total energy-change (2. order) :-0.6448748E-01  (-0.5133494E-02)
 number of electron       5.0000000 magnetization       0.0882442
 augmentation part        0.3915873 magnetization       0.0280851

 Broyden mixing:
  rms(total) = 0.48762E-01    rms(broyden)= 0.48761E-01
  rms(prec ) = 0.91227E-01
  weight for this iteration     100.00

 eigenvalues of (default mixing * dielectric matrix)
  average eigenvalue GAMMA=   1.1167
  2.1201  1.2473  0.8255  0.8255  0.5650

 Free energy of the ion-electron system (eV)
  ---------------------------------------------------
  alpha Z        PSCENC =        30.15482628
  Ewald energy   TEWEN  =      -196.96013737
  -1/2 Hartree   DENC   =        -0.68556717
  -exchange  EXHF       =         0.00000000
  -V(xc)+E(xc)   XCENC  =       -66.00592244
  PAW double counting   =       189.95477671     -116.60177135
  entropy T*S    EENTRO =         0.00005309
  eigenvalues    EBANDS =        17.88787720
  atomic energy  EATOM  =       130.64884137
  ---------------------------------------------------
  free energy    TOTEN  =       -11.60702369 eV

  energy without entropy =      -11.60707677  energy(sigma->0) =      -11.60704138


--------------------------------------------------------------------------------------------------------




----------------------------------------- Iteration    1(  11)  ---------------------------------------


    POTLOK:  cpu time    0.21: real time    0.21
    SETDIJ:  cpu time    0.06: real time    0.06
     EDDAV:  cpu time    3.42: real time    3.42
       DOS:  cpu time    0.01: real time    0.01
    CHARGE:  cpu time    0.20: real time    0.20
    MIXING:  cpu time    0.00: real time    0.00
    --------------------------------------------
      LOOP:  cpu time    3.89: real time    3.91

 eigenvalue-minimisations  :  2790
 total energy-change (2. order) :-0.5540099E-02  (-0.2015282E-03)
 number of electron       5.0000000 magnetization       0.1312367
 augmentation part        0.3924344 magnetization       0.0857394

 Broyden mixing:
  rms(total) = 0.26784E-01    rms(broyden)= 0.26784E-01
  rms(prec ) = 0.68607E-01
  weight for this iteration     100.00

 eigenvalues of (default mixing * dielectric matrix)
  average eigenvalue GAMMA=   1.2107
  1.9816  1.9816  0.9942  0.9942  0.6562  0.6562

 Free energy of the ion-electron system (eV)
  ---------------------------------------------------
  alpha Z        PSCENC =        30.15482628
  Ewald energy   TEWEN  =      -196.96013737
  -1/2 Hartree   DENC   =        -0.69402498
  -exchange  EXHF       =         0.00000000
  -V(xc)+E(xc)   XCENC  =       -66.01048471
  PAW double counting   =       189.21360212     -115.83373211
  entropy T*S    EENTRO =        -0.00010480
  eigenvalues    EBANDS =        17.86865043
  atomic energy  EATOM  =       130.64884137
  ---------------------------------------------------
  free energy    TOTEN  =       -11.61256379 eV

  energy without entropy =      -11.61245898  energy(sigma->0) =      -11.61252885


--------------------------------------------------------------------------------------------------------




----------------------------------------- Iteration    1(  12)  ---------------------------------------


    POTLOK:  cpu time    0.20: real time    0.20
    SETDIJ:  cpu time    0.05: real time    0.05
     EDDAV:  cpu time    2.92: real time    2.92
       DOS:  cpu time    0.01: real time    0.01
    CHARGE:  cpu time    0.20: real time    0.21
    MIXING:  cpu time    0.01: real time    0.01
    --------------------------------------------
      LOOP:  cpu time    3.39: real time    3.42

 eigenvalue-minimisations  :  2247
 total energy-change (2. order) :-0.7826716E-03  (-0.2120519E-03)
 number of electron       5.0000000 magnetization      -0.0023721
 augmentation part        0.3932433 magnetization      -0.0506186

 Broyden mixing:
  rms(total) = 0.24105E-01    rms(broyden)= 0.24105E-01
  rms(prec ) = 0.59711E-01
  weight for this iteration     100.00

 eigenvalues of (default mixing * dielectric matrix)
  average eigenvalue GAMMA=   1.2470
  2.0119  2.0119  1.2494  1.2494  0.8513  0.6777  0.6777

 Free energy of the ion-electron system (eV)
  ---------------------------------------------------
  alpha Z        PSCENC =        30.15482628
  Ewald energy   TEWEN  =      -196.96013737
  -1/2 Hartree   DENC   =        -0.70222782
  -exchange  EXHF       =         0.00000000
  -V(xc)+E(xc)   XCENC  =       -66.00780346
  PAW double counting   =       188.49148861     -115.08331624
  entropy T*S    EENTRO =        -0.00006446
  eigenvalues    EBANDS =        17.84504664
  atomic energy  EATOM  =       130.64884137
  ---------------------------------------------------
  free energy    TOTEN  =       -11.61334646 eV

  energy without entropy =      -11.61328200  energy(sigma->0) =      -11.61332497


--------------------------------------------------------------------------------------------------------




----------------------------------------- Iteration    1(  13)  ---------------------------------------


    POTLOK:  cpu time    0.20: real time    0.20
    SETDIJ:  cpu time    0.05: real time    0.05
     EDDAV:  cpu time    3.04: real time    3.04
       DOS:  cpu time    0.01: real time    0.01
    CHARGE:  cpu time    0.20: real time    0.20
    MIXING:  cpu time    0.00: real time    0.01
    --------------------------------------------
      LOOP:  cpu time    3.50: real time    3.51

 eigenvalue-minimisations  :  2385
 total energy-change (2. order) :-0.9417622E-03  (-0.3279221E-03)
 number of electron       4.9999999 magnetization      -0.0046206
 augmentation part        0.3961080 magnetization      -0.0044240

 Broyden mixing:
  rms(total) = 0.38043E-02    rms(broyden)= 0.38033E-02
  rms(prec ) = 0.11900E-01
  weight for this iteration     100.00

 eigenvalues of (default mixing * dielectric matrix)
  average eigenvalue GAMMA=   1.2808
  2.4208  1.9225  1.9225  1.0065  1.0065  0.7036  0.6318  0.6318

 Free energy of the ion-electron system (eV)
  ---------------------------------------------------
  alpha Z        PSCENC =        30.15482628
  Ewald energy   TEWEN  =      -196.96013737
  -1/2 Hartree   DENC   =        -0.65124501
  -exchange  EXHF       =         0.00000000
  -V(xc)+E(xc)   XCENC  =       -65.97351504
  PAW double counting   =       189.89454829     -116.51216110
  entropy T*S    EENTRO =        -0.00009335
  eigenvalues    EBANDS =        17.78464772
  atomic energy  EATOM  =       130.64884137
  ---------------------------------------------------
  free energy    TOTEN  =       -11.61428822 eV

  energy without entropy =      -11.61419487  energy(sigma->0) =      -11.61425710


--------------------------------------------------------------------------------------------------------




----------------------------------------- Iteration    1(  14)  ---------------------------------------


    POTLOK:  cpu time    0.20: real time    0.20
    SETDIJ:  cpu time    0.05: real time    0.05
     EDDAV:  cpu time    2.35: real time    2.35
       DOS:  cpu time    0.01: real time    0.01
    --------------------------------------------
      LOOP:  cpu time    2.61: real time    2.63

 eigenvalue-minimisations  :  1561
 total energy-change (2. order) : 0.2690212E-04  (-0.1090358E-04)
 number of electron       4.9999999 magnetization      -0.0046206
 augmentation part        0.3961080 magnetization      -0.0044240

 Free energy of the ion-electron system (eV)
  ---------------------------------------------------
  alpha Z        PSCENC =        30.15482628
  Ewald energy   TEWEN  =      -196.96013737
  -1/2 Hartree   DENC   =        -0.65481430
  -exchange  EXHF       =         0.00000000
  -V(xc)+E(xc)   XCENC  =       -65.97770196
  PAW double counting   =       189.96144513     -116.58063186
  entropy T*S    EENTRO =        -0.00010939
  eigenvalues    EBANDS =        17.79402080
  atomic energy  EATOM  =       130.64884137
  ---------------------------------------------------
  free energy    TOTEN  =       -11.61426132 eV

  energy without entropy =      -11.61415192  energy(sigma->0) =      -11.61422485


--------------------------------------------------------------------------------------------------------




 average (electrostatic) potential at core
  the test charge radii are     1.2538
  (the norm of the test charge is              1.0000)
       1 -35.2327
 
 
 
 E-fermi :   5.9304     XC(G=0): -12.3066     alpha+bet :-13.3143


 spin component 1

 k-point   1 :       0.0625    0.0625    0.0625
  band No.  band energies     occupation 
      1      -2.0833      1.00000
      2       6.2616      0.00000
      3       6.4788      0.00000
      4       6.4788      0.00000
      5       9.3922      0.00000
      6       9.3922      0.00000
      7      18.8221      0.00000
      8      19.6178      0.00000
      9      22.6123      0.00000

 k-point   2 :       0.1875    0.0625    0.0625
  band No.  band energies     occupation 
      1      -1.2890      1.00000
      2       5.6567      1.00000
      3       6.7904      0.00000
      4       6.8222      0.00000
      5       8.7972      0.00000
      6       9.5193      0.00000
      7      19.6164      0.00000
      8      20.2185      0.00000
      9      21.0697      0.00000

 k-point   3 :       0.3125    0.0625    0.0625
  band No.  band energies     occupation 
      1       0.2558      1.00000
      2       5.1216      1.00000
      3       6.6515      0.00000
      4       6.8780      0.00000
      5       9.1578      0.00000
      6      10.3360      0.00000
      7      18.5238      0.00000
      8      19.6199      0.00000
      9      22.4383      0.00000

 k-point   4 :       0.4375    0.0625    0.0625
  band No.  band energies     occupation 
      1       1.2693      1.00000
      2       5.7869      1.00019
      3       6.2271      0.00000
      4       6.4174      0.00000
      5      10.7972      0.00000
      6      11.7781      0.00000
      7      16.8942      0.00000
      8      19.4804      0.00000
      9      19.6482      0.00000

 k-point   5 :      -0.4375    0.0625    0.0625
  band No.  band energies     occupation 
      1       1.4092      1.00000
      2       5.8476      1.02051
      3       6.3007      0.00000
      4       6.6402      0.00000
      5      11.8859      0.00000
      6      11.9907      0.00000
      7      16.1436      0.00000
      8      18.4490      0.00000
      9      19.6226      0.00000

 k-point   6 :      -0.3125    0.0625    0.0625
  band No.  band energies     occupation 
      1       1.0575      1.00000
      2       5.4116      1.00000
      3       6.2785      0.00000
      4       6.6127      0.00000
      5      10.4465      0.00000
      6      11.1365      0.00000
      7      17.3840      0.00000
      8      19.6155      0.00000
      9      20.5381      0.00000

 k-point   7 :      -0.1875    0.0625    0.0625
  band No.  band energies     occupation 
      1      -0.2784      1.00000
      2       5.1733      1.00000
      3       6.8105      0.00000
      4       6.9694      0.00000
      5       8.8969      0.00000
      6       9.8720      0.00000
      7      19.1876      0.00000
      8      19.6233      0.00000
      9      22.3136      0.00000

 k-point   8 :      -0.0625    0.0625    0.0625
  band No.  band energies     occupation 
      1      -1.6743      1.00000
      2       5.8714      1.03513
      3       6.6990      0.00000
      4       6.7122      0.00000
      5       8.8751      0.00000
      6       9.5666      0.00000
      7      19.6172      0.00000
      8      19.6582      0.00000
      9      21.8390      0.00000

 k-point   9 :       0.1875    0.1875    0.0625
  band No.  band energies     occupation 
      1      -0.9044      1.00000
      2       5.2097      1.00000
      3       7.0958      0.00000
      4       7.1760      0.00000
      5       8.0998      0.00000
      6       9.8994      0.00000
      7      19.6167      0.00000
      8      21.0934      0.00000
      9      21.6147      0.00000

 k-point  10 :       0.3125    0.1875    0.0625
  band No.  band energies     occupation 
      1       0.4065      1.00000
      2       4.5610      1.00000
      3       6.4496      0.00000
      4       7.7520      0.00000
      5       8.4991      0.00000
      6      10.6447      0.00000
      7      19.6128      0.00000
      8      20.4433      0.00000
      9      23.2926      0.00000

 k-point  11 :       0.4375    0.1875    0.0625
  band No.  band energies     occupation 
      1       1.7705      1.00000
      2       4.6336      1.00000
      3       5.6228      1.00000
      4       7.3910      0.00000
      5      10.3944      0.00000
      6      12.1004      0.00000
      7      17.8748      0.00000
      8      19.6230      0.00000
      9      21.1272      0.00000

 k-point  12 :      -0.4375    0.1875    0.0625
  band No.  band energies     occupation 
      1       2.1923      1.00000
      2       4.7780      1.00000
      3       6.1073      0.00000
      4       7.0363      0.00000
      5      11.6103      0.00000
      6      13.1716      0.00000
      7      15.5090      0.00000
      8      19.6214      0.00000
      9      20.2167      0.00000

 k-point  13 :      -0.3125    0.1875    0.0625
  band No.  band energies     occupation 
      1       2.0739      1.00000
      2       4.9771      1.00000
      3       5.5637      1.00000
      4       7.1316      0.00000
      5      10.3713      0.00000
      6      12.9259      0.00000
      7      17.0247      0.00000
      8      19.6222      0.00000
      9      20.6769      0.00000

 k-point  14 :      -0.1875    0.1875    0.0625
  band No.  band energies     occupation 
      1       0.9644      1.00000
      2       4.6837      1.00000
      3       6.0699     -0.00029
      4       7.6282      0.00000
      5       8.5188      0.00000
      6      11.4309      0.00000
      7      19.5190      0.00000
      8      19.6768      0.00000
      9      22.8995      0.00000

 k-point  15 :      -0.0625    0.1875    0.0625
  band No.  band energies     occupation 
      1      -0.5610      1.00000
      2       5.1707      1.00000
      3       6.8473      0.00000
      4       7.1995      0.00000
      5       8.3515      0.00000
      6       9.9612      0.00000
      7      19.6145      0.00000
      8      20.3405      0.00000
      9      21.8073      0.00000

 k-point  16 :       0.3125    0.3125    0.0625
  band No.  band energies     occupation 
      1       1.0922      1.00000
      2       3.7818      1.00000
      3       6.3233      0.00000
      4       8.7481      0.00000
      5       9.1352      0.00000
      6      10.8953      0.00000
      7      19.6148      0.00000
      8      21.6554      0.00000
      9      22.7992      0.00000

 k-point  17 :       0.4375    0.3125    0.0625
  band No.  band energies     occupation 
      1       1.9702      1.00000
      2       3.4609      1.00000
      3       5.9687      0.01966
      4       9.3015      0.00000
      5      10.5025      0.00000
      6      12.1737      0.00000
      7      18.7210      0.00000
      8      19.6270      0.00000
      9      20.9473      0.00000

 k-point  18 :      -0.4375    0.3125    0.0625
  band No.  band energies     occupation 
      1       2.7023      1.00000
      2       3.7716      1.00000
      3       5.7596      1.00001
      4       8.6733      0.00000
      5      11.7147      0.00000
      6      14.1451      0.00000
      7      15.1817      0.00000
      8      19.6182      0.00000
      9      20.9164      0.00000

 k-point  19 :      -0.3125    0.3125    0.0625
  band No.  band energies     occupation 
      1       3.3998      1.00000
      2       3.9613      1.00000
      3       5.2643      1.00000
      4       8.1923      0.00000
      5      10.6062      0.00000
      6      13.2880      0.00000
      7      17.5649      0.00000
      8      19.6092      0.00000
      9      19.7494      0.00000

 k-point  20 :      -0.1875    0.3125    0.0625
  band No.  band energies     occupation 
      1       2.5015      1.00000
      2       4.6720      1.00000
      3       4.9889      1.00000
      4       7.7684      0.00000
      5       9.4617      0.00000
      6      13.1559      0.00000
      7      18.0165      0.00000
      8      19.6248      0.00000
      9      21.8237      0.00000

 k-point  21 :      -0.0625    0.3125    0.0625
  band No.  band energies     occupation 
      1       0.9770      1.00000
      2       4.9567      1.00000
      3       6.1938      0.00000
      4       6.9983      0.00000
      5       9.5269      0.00000
      6      11.2340      0.00000
      7      18.3602      0.00000
      8      19.6205      0.00000
      9      21.7103      0.00000

 k-point  22 :       0.4375    0.4375    0.0625
  band No.  band energies     occupation 
      1       1.6679      1.00000
      2       2.8262      1.00000
      3       7.5563      0.00000
      4      10.8223      0.00000
      5      11.6749      0.00000
      6      11.9677      0.00000
      7      18.0890      0.00000
      8      19.0150      0.00000
      9      19.6095      0.00000

 k-point  23 :      -0.4375    0.4375    0.0625
  band No.  band energies     occupation 
      1       1.9060      1.00000
      2       2.9182      1.00000
      3       7.5848      0.00000
      4      10.5733      0.00000
      5      12.3333      0.00000
      6      13.8273      0.00000
      7      15.8615      0.00000
      8      18.0528      0.00000
      9      19.6070      0.00000

 k-point  24 :      -0.3125    0.4375    0.0625
  band No.  band energies     occupation 
      1       2.6798      1.00000
      2       3.6363      1.00000
      3       6.1995      0.00000
      4       9.1176      0.00000
      5      11.6469      0.00000
      6      13.9201      0.00000
      7      16.0059      0.00000
      8      19.4652      0.00000
      9      19.6635      0.00000

 k-point  25 :      -0.1875    0.4375    0.0625
  band No.  band energies     occupation 
      1       2.8423      1.00000
      2       4.2369      1.00000
      3       5.7174      1.00000
      4       7.6380      0.00000
      5      11.1615      0.00000
      6      13.6153      0.00000
      7      15.8063      0.00000
      8      19.6205      0.00000
      9      21.1020      0.00000

 k-point  26 :      -0.0625    0.4375    0.0625
  band No.  band energies     occupation 
      1       1.6486      1.00000
      2       5.4339      1.00000
      3       6.2405      0.00000
      4       6.5986      0.00000
      5      11.3276      0.00000
      6      12.4190      0.00000
      7      16.3166      0.00000
      8      19.3308      0.00000
      9      19.6244      0.00000

 k-point  27 :      -0.4375   -0.4375    0.0625
  band No.  band energies     occupation 
      1       1.5668      1.00000
      2       2.6247      1.00000
      3       8.4985      0.00000
      4      11.4887      0.00000
      5      12.4219      0.00000
      6      12.7924      0.00000
      7      16.6866      0.00000
      8      17.7474      0.00000
      9      19.1682      0.00000

 k-point  28 :      -0.3125   -0.4375    0.0625
  band No.  band energies     occupation 
      1       2.0135      1.00000
      2       3.1024      1.00000
      3       6.7628      0.00000
      4      10.1283      0.00000
      5      11.6329      0.00000
      6      12.9659      0.00000
      7      17.0218      0.00000
      8      19.2067      0.00000
      9      19.6204      0.00000

 k-point  29 :      -0.1875   -0.4375    0.0625
  band No.  band energies     occupation 
      1       2.4297      1.00000
      2       4.1473      1.00000
      3       5.4464      1.00000
      4       7.9968      0.00000
      5      11.3907      0.00000
      6      12.9151      0.00000
      7      16.5192      0.00000
      8      19.6214      0.00000
      9      21.5580      0.00000

 k-point  30 :      -0.3125   -0.3125    0.0625
  band No.  band energies     occupation 
      1       1.6361      1.00000
      2       3.2195      1.00000
      3       6.5699      0.00000
      4       9.7840      0.00000
      5      10.3412      0.00000
      6      11.4483      0.00000
      7      19.6037      0.00000
      8      20.0616      0.00000
      9      20.8695      0.00000

 k-point  31 :      -0.1875   -0.3125    0.0625
  band No.  band energies     occupation 
      1       1.3869      1.00000
      2       3.9641      1.00000
      3       5.9049      0.87619
      4       8.4544      0.00000
      5       9.3531      0.00000
      6      11.4111      0.00000
      7      19.6058      0.00000
      8      20.2245      0.00000
      9      22.8319      0.00000

 k-point  32 :      -0.1875   -0.1875    0.0625
  band No.  band energies     occupation 
      1       0.1059      1.00000
      2       4.4704      1.00000
      3       6.8329      0.00000
      4       7.8615      0.00000
      5       8.1932      0.00000
      6      10.3585      0.00000
      7      19.6160      0.00000
      8      21.6624      0.00000
      9      23.1690      0.00000

 k-point  33 :       0.1875    0.1875    0.1875
  band No.  band energies     occupation 
      1      -0.9396      1.00000
      2       5.5101      1.00000
      3       6.8376      0.00000
      4       6.8376      0.00000
      5       9.2004      0.00000
      6       9.2004      0.00000
      7      19.5620      0.00000
      8      19.6473      0.00000
      9      21.4398      0.00000

 k-point  34 :       0.3125    0.1875    0.1875
  band No.  band energies     occupation 
      1       0.0891      1.00000
      2       5.0025      1.00000
      3       6.5782      0.00000
      4       7.3644      0.00000
      5       8.2672      0.00000
      6      10.5321      0.00000
      7      19.5968      0.00000
      8      19.7886      0.00000
      9      22.6158      0.00000

 k-point  35 :       0.4375    0.1875    0.1875
  band No.  band energies     occupation 
      1       1.6976      1.00000
      2       4.7479      1.00000
      3       5.6196      1.00000
      4       7.5071      0.00000
      5       8.7841      0.00000
      6      12.4014      0.00000
      7      18.8822      0.00000
      8      19.6302      0.00000
      9      21.9801      0.00000

 k-point  36 :      -0.4375    0.1875    0.1875
  band No.  band energies     occupation 
      1       2.4259      1.00000
      2       4.7396      1.00000
      3       5.7478      1.00000
      4       7.2048      0.00000
      5      10.6907      0.00000
      6      13.3019      0.00000
      7      16.4003      0.00000
      8      19.6217      0.00000
      9      20.8723      0.00000

 k-point  37 :      -0.3125    0.1875    0.1875
  band No.  band energies     occupation 
      1       2.2790      1.00000
      2       4.5069      1.00000
      3       5.8203      1.00394
      4       7.3744      0.00000
      5      11.9952      0.00000
      6      12.7192      0.00000
      7      15.7649      0.00000
      8      19.6212      0.00000
      9      20.7066      0.00000

 k-point  38 :      -0.1875    0.1875    0.1875
  band No.  band energies     occupation 
      1       1.5272      1.00000
      2       4.2055      1.00000
      3       5.7910      1.00029
      4       7.8142      0.00000
      5      10.2152      0.00000
      6      11.4357      0.00000
      7      18.9742      0.00000
      8      19.6297      0.00000
      9      22.0711      0.00000

 k-point  39 :       0.3125    0.3125    0.1875
  band No.  band energies     occupation 
      1       0.6057      1.00000
      2       4.7080      1.00000
      3       6.3563      0.00000
      4       7.2885      0.00000
      5       9.2299      0.00000
      6      10.6664      0.00000
      7      19.2357      0.00000
      8      19.6276      0.00000
      9      22.7093      0.00000

 k-point  40 :       0.4375    0.3125    0.1875
  band No.  band energies     occupation 
      1       1.9054      1.00000
      2       4.2936      1.00000
      3       5.4054      1.00000
      4       8.1119      0.00000
      5       9.3339      0.00000
      6      12.3494      0.00000
      7      18.9391      0.00000
      8      19.6321      0.00000
      9      22.2191      0.00000

 k-point  41 :      -0.4375    0.3125    0.1875
  band No.  band energies     occupation 
      1       3.2248      1.00000
      2       4.2203      1.00000
      3       4.7285      1.00000
      4       8.2729      0.00000
      5      10.4060      0.00000
      6      13.5543      0.00000
      7      17.3557      0.00000
      8      19.6219      0.00000
      9      20.3387      0.00000

 k-point  42 :      -0.3125    0.3125    0.1875
  band No.  band energies     occupation 
      1       3.2692      1.00000
      2       3.8722      1.00000
      3       5.3796      1.00000
      4       8.1545      0.00000
      5      11.2985      0.00000
      6      14.7867      0.00000
      7      15.0106      0.00000
      8      19.6188      0.00000
      9      20.9360      0.00000

 k-point  43 :      -0.1875    0.3125    0.1875
  band No.  band energies     occupation 
      1       2.5660      1.00000
      2       3.9089      1.00000
      3       5.1685      1.00000
      4       8.7808      0.00000
      5      10.4045      0.00000
      6      13.1399      0.00000
      7      17.6662      0.00000
      8      19.6231      0.00000
      9      20.7826      0.00000

 k-point  44 :       0.4375    0.4375    0.1875
  band No.  band energies     occupation 
      1       2.1417      1.00000
      2       3.7276      1.00000
      3       5.7466      1.00000
      4       8.5241      0.00000
      5      11.6093      0.00000
      6      11.9995      0.00000
      7      17.5140      0.00000
      8      19.6221      0.00000
      9      21.7252      0.00000

 k-point  45 :      -0.4375    0.4375    0.1875
  band No.  band energies     occupation 
      1       2.6351      1.00000
      2       3.6205      1.00000
      3       5.6953      1.00000
      4       9.2753      0.00000
      5      11.4625      0.00000
      6      13.9401      0.00000
      7      16.5069      0.00000
      8      19.1695      0.00000
      9      19.6238      0.00000

 k-point  46 :      -0.3125    0.4375    0.1875
  band No.  band energies     occupation 
      1       3.0920      1.00000
      2       4.2358      1.00000
      3       5.2407      1.00000
      4       8.2424      0.00000
      5      12.2666      0.00000
      6      15.2950      0.00000
      7      16.0883      0.00000
      8      17.7565      0.00000
      9      19.6237      0.00000

 k-point  47 :      -0.1875    0.4375    0.1875
  band No.  band energies     occupation 
      1       3.3208      1.00000
      2       4.1614      1.00000
      3       4.8366      1.00000
      4       8.4746      0.00000
      5      11.4047      0.00000
      6      14.2075      0.00000
      7      16.7242      0.00000
      8      19.0246      0.00000
      9      19.6253      0.00000

 k-point  48 :      -0.4375   -0.4375    0.1875
  band No.  band energies     occupation 
      1       2.1718      1.00000
      2       3.1934      1.00000
      3       7.0589      0.00000
      4      10.0264      0.00000
      5      11.9978      0.00000
      6      14.3251      0.00000
      7      14.9649      0.00000
      8      19.5905      0.00000
      9      19.9433      0.00000

 k-point  49 :      -0.3125   -0.4375    0.1875
  band No.  band energies     occupation 
      1       2.5030      1.00000
      2       3.4777      1.00000
      3       6.3868      0.00000
      4       9.2651      0.00000
      5      12.2809      0.00000
      6      14.9408      0.00000
      7      15.6199      0.00000
      8      17.9814      0.00000
      9      19.6216      0.00000

 k-point  50 :      -0.3125   -0.3125    0.1875
  band No.  band energies     occupation 
      1       2.2530      1.00000
      2       3.3696      1.00000
      3       6.3757      0.00000
      4       9.3385      0.00000
      5      12.1750      0.00000
      6      13.2206      0.00000
      7      15.8009      0.00000
      8      19.6175      0.00000
      9      20.5178      0.00000

 k-point  51 :       0.3125    0.3125    0.3125
  band No.  band energies     occupation 
      1       0.5832      1.00000
      2       5.3083      1.00000
      3       6.6136      0.00000
      4       6.6136      0.00000
      5      10.1722      0.00000
      6      10.1722      0.00000
      7      17.6672      0.00000
      8      19.6173      0.00000
      9      21.6490      0.00000

 k-point  52 :       0.4375    0.3125    0.3125
  band No.  band energies     occupation 
      1       1.4795      1.00000
      2       5.1719      1.00000
      3       5.8940      0.96964
      4       6.8745      0.00000
      5       9.7563      0.00000
      6      12.1550      0.00000
      7      17.8184      0.00000
      8      19.6206      0.00000
      9      20.7429      0.00000

 k-point  53 :      -0.4375    0.3125    0.3125
  band No.  band energies     occupation 
      1       3.0182      1.00000
      2       4.4565      1.00000
      3       5.0805      1.00000
      4       7.8032      0.00000
      5       9.8920      0.00000
      6      13.3412      0.00000
      7      17.6732      0.00000
      8      19.6229      0.00000
      9      20.7747      0.00000

 k-point  54 :      -0.3125    0.3125    0.3125
  band No.  band energies     occupation 
      1       3.0088      1.00000
      2       3.8669      1.00000
      3       5.8057      1.00119
      4       8.6633      0.00000
      5      11.0539      0.00000
      6      13.1318      0.00000
      7      17.1348      0.00000
      8      19.5340      0.00000
      9      19.6738      0.00000

 k-point  55 :       0.4375    0.4375    0.3125
  band No.  band energies     occupation 
      1       1.6472      1.00000
      2       5.1245      1.00000
      3       5.9327      0.46127
      4       6.8746      0.00000
      5      11.3507      0.00000
      6      11.8248      0.00000
      7      16.9262      0.00000
      8      19.6183      0.00000
      9      20.0137      0.00000

 k-point  56 :      -0.4375    0.4375    0.3125
  band No.  band energies     occupation 
      1       2.7151      1.00000
      2       4.3447      1.00000
      3       5.4734      1.00000
      4       7.6520      0.00000
      5      11.0678      0.00000
      6      13.5971      0.00000
      7      15.9866      0.00000
      8      19.6213      0.00000
      9      21.3322      0.00000

 k-point  57 :      -0.3125    0.4375    0.3125
  band No.  band energies     occupation 
      1       3.3268      1.00000
      2       3.9578      1.00000
      3       5.2981      1.00000
      4       8.3643      0.00000
      5      11.4530      0.00000
      6      14.0255      0.00000
      7      16.7615      0.00000
      8      19.0797      0.00000
      9      19.6295      0.00000

 k-point  58 :      -0.4375   -0.4375    0.3125
  band No.  band energies     occupation 
      1       2.7973      1.00000
      2       4.0246      1.00000
      3       5.7888      1.00023
      4       8.0424      0.00000
      5      11.6156      0.00000
      6      13.5899      0.00000
      7      15.4548      0.00000
      8      19.6194      0.00000
      9      21.0588      0.00000

 k-point  59 :       0.4375    0.4375    0.4375
  band No.  band energies     occupation 
      1       1.2250      1.00000
      2       6.2213      0.00000
      3       6.2213      0.00000
      4       6.4075      0.00000
      5      11.6087      0.00000
      6      11.6087      0.00000
      7      16.4720      0.00000
      8      18.5454      0.00000
      9      19.6244      0.00000

 k-point  60 :      -0.4375    0.4375    0.4375
  band No.  band energies     occupation 
      1       1.8263      1.00000
      2       5.2559      1.00000
      3       6.3847      0.00000
      4       6.6443      0.00000
      5      11.5040      0.00000
      6      12.7950      0.00000
      7      15.8393      0.00000
      8      19.4262      0.00000
      9      19.6221      0.00000

 spin component 2

 k-point   1 :       0.0625    0.0625    0.0625
  band No.  band energies     occupation 
      1      -2.0853      1.00000
      2       6.2567      0.00000
      3       6.4739      0.00000
      4       6.4739      0.00000
      5       9.3931      0.00000
      6       9.3931      0.00000
      7      18.8186      0.00000
      8      19.6135      0.00000
      9      22.6120      0.00000

 k-point   2 :       0.1875    0.0625    0.0625
  band No.  band energies     occupation 
      1      -1.2911      1.00000
      2       5.6520      1.00000
      3       6.7859      0.00000
      4       6.8173      0.00000
      5       8.7981      0.00000
      6       9.5198      0.00000
      7      19.6121      0.00000
      8      20.2154      0.00000
      9      21.0675      0.00000

 k-point   3 :       0.3125    0.0625    0.0625
  band No.  band energies     occupation 
      1       0.2535      1.00000
      2       5.1174      1.00000
      3       6.6489      0.00000
      4       6.8754      0.00000
      5       9.1563      0.00000
      6      10.3347      0.00000
      7      18.5217      0.00000
      8      19.6156      0.00000
      9      22.4346      0.00000

 k-point   4 :       0.4375    0.0625    0.0625
  band No.  band energies     occupation 
      1       1.2662      1.00000
      2       5.7847      1.00015
      3       6.2248      0.00000
      4       6.4160      0.00000
      5      10.7945      0.00000
      6      11.7757      0.00000
      7      16.8914      0.00000
      8      19.4769      0.00000
      9      19.6440      0.00000

[...]
      2       3.7239      1.00000
      3       5.7444      1.00000
      4       8.5223      0.00000
      5      11.6058      0.00000
      6      11.9974      0.00000
      7      17.5115      0.00000
      8      19.6178      0.00000
      9      21.7247      0.00000

 k-point  45 :      -0.4375    0.4375    0.1875
  band No.  band energies     occupation 
      1       2.6346      1.00000
      2       3.6163      1.00000
      3       5.6922      1.00000
      4       9.2757      0.00000
      5      11.4575      0.00000
      6      13.9365      0.00000
      7      16.5053      0.00000
      8      19.1672      0.00000
      9      19.6195      0.00000

 k-point  46 :      -0.3125    0.4375    0.1875
  band No.  band energies     occupation 
      1       3.0920      1.00000
      2       4.2316      1.00000
      3       5.2367      1.00000
      4       8.2429      0.00000
      5      12.2611      0.00000
      6      15.2931      0.00000
      7      16.0854      0.00000
      8      17.7543      0.00000
      9      19.6194      0.00000

 k-point  47 :      -0.1875    0.4375    0.1875
  band No.  band energies     occupation 
      1       3.3205      1.00000
      2       4.1576      1.00000
      3       4.8328      1.00000
      4       8.4750      0.00000
      5      11.3995      0.00000
      6      14.2046      0.00000
      7      16.7222      0.00000
      8      19.0221      0.00000
      9      19.6210      0.00000

 k-point  48 :      -0.4375   -0.4375    0.1875
  band No.  band energies     occupation 
      1       2.1714      1.00000
      2       3.1894      1.00000
      3       7.0554      0.00000
      4      10.0271      0.00000
      5      11.9927      0.00000
      6      14.3228      0.00000
      7      14.9608      0.00000
      8      19.5865      0.00000
      9      19.9478      0.00000

 k-point  49 :      -0.3125   -0.4375    0.1875
  band No.  band energies     occupation 
      1       2.5029      1.00000
      2       3.4734      1.00000
      3       6.3831      0.00000
      4       9.2658      0.00000
      5      12.2754      0.00000
      6      14.9370      0.00000
      7      15.6184      0.00000
      8      17.9796      0.00000
      9      19.6173      0.00000

 k-point  50 :      -0.3125   -0.3125    0.1875
  band No.  band energies     occupation 
      1       2.2521      1.00000
      2       3.3658      1.00000
      3       6.3726      0.00000
      4       9.3377      0.00000
      5      12.1717      0.00000
      6      13.2170      0.00000
      7      15.7985      0.00000
      8      19.6132      0.00000
      9      20.5163      0.00000

 k-point  51 :       0.3125    0.3125    0.3125
  band No.  band energies     occupation 
      1       0.5807      1.00000
      2       5.3046      1.00000
      3       6.6114      0.00000
      4       6.6114      0.00000
      5      10.1703      0.00000
      6      10.1703      0.00000
      7      17.6649      0.00000
      8      19.6130      0.00000
      9      21.6454      0.00000

 k-point  52 :       0.4375    0.3125    0.3125
  band No.  band energies     occupation 
      1       1.4767      1.00000
      2       5.1688      1.00000
      3       5.8920      0.98155
      4       6.8734      0.00000
      5       9.7533      0.00000
      6      12.1528      0.00000
      7      17.8159      0.00000
      8      19.6163      0.00000
      9      20.7395      0.00000

 k-point  53 :      -0.4375    0.3125    0.3125
  band No.  band energies     occupation 
      1       3.0149      1.00000
      2       4.4561      1.00000
      3       5.0764      1.00000
      4       7.8038      0.00000
      5       9.8871      0.00000
      6      13.3382      0.00000
      7      17.6715      0.00000
      8      19.6185      0.00000
      9      20.7714      0.00000

 k-point  54 :      -0.3125    0.3125    0.3125
  band No.  band energies     occupation 
      1       3.0068      1.00000
      2       3.8648      1.00000
      3       5.8018      1.00083
      4       8.6640      0.00000
      5      11.0488      0.00000
      6      13.1292      0.00000
      7      17.1316      0.00000
      8      19.5312      0.00000
      9      19.6705      0.00000

 k-point  55 :       0.4375    0.4375    0.3125
  band No.  band energies     occupation 
      1       1.6441      1.00000
      2       5.1230      1.00000
      3       5.9298      0.51015
      4       6.8730      0.00000
      5      11.3480      0.00000
      6      11.8225      0.00000
      7      16.9233      0.00000
      8      19.6140      0.00000
      9      20.0104      0.00000

 k-point  56 :      -0.4375    0.4375    0.3125
  band No.  band energies     occupation 
      1       2.7118      1.00000
      2       4.3442      1.00000
      3       5.4695      1.00000
      4       7.6514      0.00000
      5      11.0641      0.00000
      6      13.5943      0.00000
      7      15.9842      0.00000
      8      19.6169      0.00000
      9      21.3279      0.00000

 k-point  57 :      -0.3125    0.4375    0.3125
  band No.  band energies     occupation 
      1       3.3263      1.00000
      2       3.9544      1.00000
      3       5.2940      1.00000
      4       8.3648      0.00000
      5      11.4478      0.00000
      6      14.0232      0.00000
      7      16.7586      0.00000
      8      19.0777      0.00000
      9      19.6252      0.00000

 k-point  58 :      -0.4375   -0.4375    0.3125
  band No.  band energies     occupation 
      1       2.7944      1.00000
      2       4.0235      1.00000
      3       5.7849      1.00015
      4       8.0419      0.00000
      5      11.6118      0.00000
      6      13.5874      0.00000
      7      15.4517      0.00000
      8      19.6151      0.00000
      9      21.0563      0.00000

 k-point  59 :       0.4375    0.4375    0.4375
  band No.  band energies     occupation 
      1       1.2217      1.00000
      2       6.2199      0.00000
      3       6.2199      0.00000
      4       6.4051      0.00000
      5      11.6060      0.00000
      6      11.6060      0.00000
      7      16.4688      0.00000
      8      18.5422      0.00000
      9      19.6200      0.00000

 k-point  60 :      -0.4375    0.4375    0.4375
  band No.  band energies     occupation 
      1       1.8228      1.00000
      2       5.2553      1.00000
      3       6.3814      0.00000
      4       6.6432      0.00000
      5      11.5009      0.00000
      6      12.7926      0.00000
      7      15.8361      0.00000
      8      19.4230      0.00000
      9      19.6178      0.00000


--------------------------------------------------------------------------------------------------------


 soft charge-density along one line, spin component           1
         0         1         2         3         4         5         6         7         8         9
 total charge-density along one line
 
 soft charge-density along one line, spin component           2
         0         1         2         3         4         5         6         7         8         9
 total charge-density along one line
 
 pseudopotential strength for first ion, spin component:           1
 -6.585   0.000   0.000   0.000   0.000   0.087   0.000   0.000
  0.000  -6.585   0.000   0.000   0.000   0.000   0.087   0.000
  0.000   0.000  -6.598   0.000   0.000   0.000   0.000   0.087
  0.000   0.000   0.000  -6.585   0.000   0.000   0.000   0.000
  0.000   0.000   0.000   0.000  -6.598   0.000   0.000   0.000
  0.087   0.000   0.000   0.000   0.000   0.071   0.000   0.000
  0.000   0.087   0.000   0.000   0.000   0.000   0.071   0.000
  0.000   0.000   0.087   0.000   0.000   0.000   0.000   0.071
  0.000   0.000   0.000   0.087   0.000   0.000   0.000   0.000
  0.000   0.000   0.000   0.000   0.087   0.000   0.000   0.000
  0.000   0.000   0.000   0.000   0.000   0.000   0.000   0.000
  0.000   0.000   0.000   0.000   0.000   0.000   0.000   0.000
  0.000   0.000   0.000   0.000   0.000   0.000   0.000   0.000
  0.000   0.000   0.000   0.000   0.000   0.000   0.000   0.000
  0.000   0.000   0.000   0.000   0.000   0.000   0.000   0.000
  0.000   0.000   0.000   0.000   0.000   0.000   0.000   0.000
  0.000   0.000   0.000   0.000   0.000   0.000   0.000   0.000
  0.000   0.000   0.000   0.000   0.000   0.000   0.000   0.000
 pseudopotential strength for first ion, spin component:           2
 -6.586   0.000   0.000   0.000   0.000   0.087   0.000   0.000
  0.000  -6.586   0.000   0.000   0.000   0.000   0.087   0.000
  0.000   0.000  -6.598   0.000   0.000   0.000   0.000   0.087
  0.000   0.000   0.000  -6.586   0.000   0.000   0.000   0.000
  0.000   0.000   0.000   0.000  -6.598   0.000   0.000   0.000
  0.087   0.000   0.000   0.000   0.000   0.071   0.000   0.000
  0.000   0.087   0.000   0.000   0.000   0.000   0.071   0.000
  0.000   0.000   0.087   0.000   0.000   0.000   0.000   0.071
  0.000   0.000   0.000   0.087   0.000   0.000   0.000   0.000
  0.000   0.000   0.000   0.000   0.087   0.000   0.000   0.000
  0.000   0.000   0.000   0.000   0.000   0.000   0.000   0.000
  0.000   0.000   0.000   0.000   0.000   0.000   0.000   0.000
  0.000   0.000   0.000   0.000   0.000   0.000   0.000   0.000
  0.000   0.000   0.000   0.000   0.000   0.000   0.000   0.000
  0.000   0.000   0.000   0.000   0.000   0.000   0.000   0.000
  0.000   0.000   0.000   0.000   0.000   0.000   0.000   0.000
  0.000   0.000   0.000   0.000   0.000   0.000   0.000   0.000
  0.000   0.000   0.000   0.000   0.000   0.000   0.000   0.000
 total augmentation occupancy for first ion, spin component:           1
  0.765   0.000   0.000   0.000   0.000  -0.543   0.000   0.000   0.000   0.000   0.000   0.000   0.000   0.000   0.000   0.000
  0.000   0.765   0.000   0.000   0.000   0.000  -0.543   0.000   0.000   0.000   0.000   0.000   0.000   0.000   0.000   0.000
  0.000   0.000   0.537   0.000   0.000   0.000   0.000  -0.419   0.000   0.000   0.000   0.000   0.000   0.000   0.000   0.000
  0.000   0.000   0.000   0.765   0.000   0.000   0.000   0.000  -0.543   0.000   0.000   0.000   0.000   0.000   0.000   0.000
  0.000   0.000   0.000   0.000   0.537   0.000   0.000   0.000   0.000  -0.419   0.000   0.000   0.000   0.000   0.000   0.000
 -0.543   0.000   0.000   0.000   0.000   0.443   0.000   0.000   0.000   0.000   0.000   0.000   0.000   0.000   0.000   0.000
  0.000  -0.543   0.000   0.000   0.000   0.000   0.443   0.000   0.000   0.000   0.000   0.000   0.000   0.000   0.000   0.000
  0.000   0.000  -0.419   0.000   0.000   0.000   0.000   0.375   0.000   0.000   0.000   0.000   0.000   0.000   0.000   0.000
  0.000   0.000   0.000  -0.543   0.000   0.000   0.000   0.000   0.443   0.000   0.000   0.000   0.000   0.000   0.000   0.000
  0.000   0.000   0.000   0.000  -0.419   0.000   0.000   0.000   0.000   0.375   0.000   0.000   0.000   0.000   0.000   0.000
  0.000   0.000   0.000   0.000   0.000   0.000   0.000   0.000   0.000   0.000   1.440  -0.290   0.000   0.000   0.000   0.000
  0.000   0.000   0.000   0.000   0.000   0.000   0.000   0.000   0.000   0.000  -0.290   0.064   0.000   0.000   0.000   0.000
  0.000   0.000   0.000   0.000   0.000   0.000   0.000   0.000   0.000   0.000   0.000   0.000   0.318   0.000   0.000   0.012
  0.000   0.000   0.000   0.000   0.000   0.000   0.000   0.000   0.000   0.000   0.000   0.000   0.000   0.318   0.000   0.000
  0.000   0.000   0.000   0.000   0.000   0.000   0.000   0.000   0.000   0.000   0.000   0.000   0.000   0.000   0.318   0.000
  0.000   0.000   0.000   0.000   0.000   0.000   0.000   0.000   0.000   0.000   0.000   0.000   0.012   0.000   0.000   0.001
  0.000   0.000   0.000   0.000   0.000   0.000   0.000   0.000   0.000   0.000   0.000   0.000   0.000   0.012   0.000   0.000
  0.000   0.000   0.000   0.000   0.000   0.000   0.000   0.000   0.000   0.000   0.000   0.000   0.000   0.000   0.012   0.000
 total augmentation occupancy for first ion, spin component:           2
  0.000   0.000   0.000   0.000   0.000   0.000   0.000   0.000   0.000   0.000   0.000   0.000   0.000   0.000   0.000   0.000
  0.000   0.000   0.000   0.000   0.000   0.000   0.000   0.000   0.000   0.000   0.000   0.000   0.000   0.000   0.000   0.000
  0.000   0.000   0.000   0.000   0.000   0.000   0.000   0.000   0.000   0.000   0.000   0.000   0.000   0.000   0.000   0.000
  0.000   0.000   0.000   0.000   0.000   0.000   0.000   0.000   0.000   0.000   0.000   0.000   0.000   0.000   0.000   0.000
  0.000   0.000   0.000   0.000   0.000   0.000   0.000   0.000   0.000   0.000   0.000   0.000   0.000   0.000   0.000   0.000
  0.000   0.000   0.000   0.000   0.000  -0.001   0.000   0.000   0.000   0.000   0.000   0.000   0.000   0.000   0.000   0.000
  0.000   0.000   0.000   0.000   0.000   0.000  -0.001   0.000   0.000   0.000   0.000   0.000   0.000   0.000   0.000   0.000
  0.000   0.000   0.000   0.000   0.000   0.000   0.000  -0.001   0.000   0.000   0.000   0.000   0.000   0.000   0.000   0.000
  0.000   0.000   0.000   0.000   0.000   0.000   0.000   0.000  -0.001   0.000   0.000   0.000   0.000   0.000   0.000   0.000
  0.000   0.000   0.000   0.000   0.000   0.000   0.000   0.000   0.000  -0.001   0.000   0.000   0.000   0.000   0.000   0.000
  0.000   0.000   0.000   0.000   0.000   0.000   0.000   0.000   0.000   0.000   0.001   0.005   0.000   0.000   0.000   0.000
  0.000   0.000   0.000   0.000   0.000   0.000   0.000   0.000   0.000   0.000   0.005  -0.002   0.000   0.000   0.000   0.000
  0.000   0.000   0.000   0.000   0.000   0.000   0.000   0.000   0.000   0.000   0.000   0.000   0.000   0.000   0.000   0.000
  0.000   0.000   0.000   0.000   0.000   0.000   0.000   0.000   0.000   0.000   0.000   0.000   0.000   0.000   0.000   0.000
  0.000   0.000   0.000   0.000   0.000   0.000   0.000   0.000   0.000   0.000   0.000   0.000   0.000   0.000   0.000   0.000
  0.000   0.000   0.000   0.000   0.000   0.000   0.000   0.000   0.000   0.000   0.000   0.000   0.000   0.000   0.000   0.000
  0.000   0.000   0.000   0.000   0.000   0.000   0.000   0.000   0.000   0.000   0.000   0.000   0.000   0.000   0.000   0.000
  0.000   0.000   0.000   0.000   0.000   0.000   0.000   0.000   0.000   0.000   0.000   0.000   0.000   0.000   0.000   0.000


------------------------ aborting loop because EDIFF is reached ----------------------------------------


 


 total charge     
 
# of ion     s       p       d       tot
----------------------------------------
  1        0.729   0.737   3.228   4.694
 


 magnetization (x)
 
# of ion     s       p       d       tot
----------------------------------------
  1        0.000   0.000  -0.001  -0.001
 
    CHARGE:  cpu time    0.20: real time    0.20
    FORLOC:  cpu time    0.00: real time    0.00
    FORNL :  cpu time    0.34: real time    0.34
    STRESS:  cpu time    0.65: real time    0.66
    FORCOR:  cpu time    0.19: real time    0.19
    FORHAR:  cpu time    0.02: real time    0.02
    MIXING:  cpu time    0.01: real time    0.01

  FORCE on cell =-STRESS in cart. coord.  units (eV):
  Direction    XX          YY          ZZ          XY          YZ          ZX
  --------------------------------------------------------------------------------------
  Alpha Z    30.15483    30.15483    30.15483
  Ewald     -65.65338   -65.65338   -65.65338     0.00000     0.00000     0.00000
  Hartree     0.21968     0.21968     0.21968     0.00000     0.00000     0.00000
  E(xc)     -22.30012   -22.30012   -22.30012     0.00000     0.00000     0.00000
  Local       3.64069     3.64069     3.64069     0.00000     0.00000     0.00000
  n-local    -6.30955    -3.24280    -7.79692     1.98484    -1.89642     0.01485
  augment     2.89609     2.89609     2.89609     0.00000     0.00000     0.00000
  Kinetic    59.41252    55.37642    56.63906    -2.13272     2.08078    -0.23732
  Fock        0.00000     0.00000     0.00000     0.00000     0.00000     0.00000
  -------------------------------------------------------------------------------------
  Total       0.31736     0.31736     0.31736     0.00000     0.00000     0.00000
  in kB      27.64885    27.64885    27.64885     0.00000     0.00000     0.00000
  external pressure =       27.65 kB  Pullay stress =        0.00 kB


 VOLUME and BASIS-vectors are now :
 -----------------------------------------------------------------------------
  energy-cutoff  :      400.00
  volume of cell :       18.39
      direct lattice vectors                 reciprocal lattice vectors
     0.000000000  2.095000000  2.095000000    -0.238663484  0.238663484  0.238663484
     2.095000000  0.000000000  2.095000000     0.238663484 -0.238663484  0.238663484
     2.095000000  2.095000000  0.000000000     0.238663484  0.238663484 -0.238663484

  length of vectors
     2.962777413  2.962777413  2.962777413     0.413377281  0.413377281  0.413377281


 FORCES acting on ions
    electron-ion (+dipol)            ewald-force                    non-local-force                 convergence-correction
 -----------------------------------------------------------------------------------------------
   -.605E-15 -.101E-14 -.131E-14   -.158E-15 -.194E-15 -.345E-15   0.000E+00 -.662E-23 0.000E+00   -.498E-15 0.367E-15 0.153E-15
 -----------------------------------------------------------------------------------------------
   -.605E-15 -.101E-14 -.131E-14   -.158E-15 -.194E-15 -.345E-15   0.000E+00 -.662E-23 0.000E+00   -.498E-15 0.367E-15 0.153E-15
 
 
 POSITION                                       TOTAL-FORCE (eV/Angst)
 -----------------------------------------------------------------------------------
      0.00000      0.00000      0.00000         0.000000      0.000000      0.000000
 -----------------------------------------------------------------------------------
    total drift:                                0.000000      0.000000      0.000000


--------------------------------------------------------------------------------------------------------



  FREE ENERGIE OF THE ION-ELECTRON SYSTEM (eV)
  ---------------------------------------------------
  free  energy   TOTEN  =       -11.614261 eV

  energy  without entropy=      -11.614152  energy(sigma->0) =      -11.614225
 


--------------------------------------------------------------------------------------------------------


    POTLOK:  cpu time    0.24: real time    0.24


--------------------------------------------------------------------------------------------------------


 writing wavefunctions
     LOOP+:  cpu time   50.40: real time   50.74
    4ORBIT:  cpu time    0.00: real time    0.00
 


 total charge     
 
# of ion     s       p       d       tot
----------------------------------------
  1        0.729   0.737   3.228   4.694
 


 magnetization (x)
 
# of ion     s       p       d       tot
----------------------------------------
  1        0.000   0.000  -0.001  -0.001
 

 total amount of memory used by VASP on root node    46857. kBytes
========================================================================

   base      :      30000. kBytes
   nonl-proj :       2934. kBytes
   fftplans  :       2284. kBytes
   grid      :       5440. kBytes
   one-center:         31. kBytes
   wavefun   :       6168. kBytes
 
  
  
 General timing and accounting informations for this job:
 ========================================================
  
                  Total CPU time used (sec):       51.266
                            User time (sec):       51.134
                          System time (sec):        0.132
                         Elapsed time (sec):       51.782
  
                   Maximum memory used (kb):           0.
                   Average memory used (kb):           0.
  
                          Minor page faults:        14359
                          Major page faults:            0
                 Voluntary context switches:         1526
