PROCAR lm decomposed
# of k-points:   60         # of bands:   9         # of ions:   1

 k-point    1 :    0.06250000 0.06250000 0.06250000     weight = 0.00390625

band   1 # energy   -2.08326679 # occ.  1.00000000
 
ion      s     py     pz     px    dxy    dyz    dz2    dxz    dx2    tot
  1  0.838  0.004  0.004  0.004  0.000  0.000  0.000  0.000  0.000  0.850
 
band   2 # energy    6.26155103 # occ.  0.00000000
 
ion      s     py     pz     px    dxy    dyz    dz2    dxz    dx2    tot
  1  0.000  0.002  0.002  0.002  0.332  0.332  0.000  0.332  0.000  1.002
 
band   3 # energy    6.47877247 # occ.  0.00000000
 
ion      s     py     pz     px    dxy    dyz    dz2    dxz    dx2    tot
  1  0.000  0.000  0.001  0.000  0.648  0.282  0.001  0.075  0.000  1.007
 
band   4 # energy    6.47877247 # occ.  0.00000000
 
ion      s     py     pz     px    dxy    dyz    dz2    dxz    dx2    tot
  1  0.000  0.001  0.000  0.001  0.022  0.388  0.000  0.595  0.001  1.007
 
band   5 # energy    9.39219867 # occ.  0.00000000
 
ion      s     py     pz     px    dxy    dyz    dz2    dxz    dx2    tot
  1  0.000  0.000  0.000  0.000  0.001  0.000  0.911  0.000  0.078  0.990
 
band   6 # energy    9.39219867 # occ.  0.00000000
 
ion      s     py     pz     px    dxy    dyz    dz2    dxz    dx2    tot
  1  0.000  0.000  0.000  0.000  0.000  0.000  0.078  0.001  0.911  0.990
 
band   7 # energy   18.82210611 # occ.  0.00000000
 
ion      s     py     pz     px    dxy    dyz    dz2    dxz    dx2    tot
  1  0.000  0.000  0.000  0.000  0.005  0.005  0.000  0.005  0.000  0.016
 
band   8 # energy   19.61782398 # occ.  0.00000000
 
ion      s     py     pz     px    dxy    dyz    dz2    dxz    dx2    tot
  1 43.912  0.000  0.000  0.000  0.000  0.000  0.000  0.000  0.000 43.912
 
band   9 # energy   22.61234258 # occ.  0.00000000
 
ion      s     py     pz     px    dxy    dyz    dz2    dxz    dx2    tot
  1  0.042  0.035  0.035  0.035  0.003  0.003  0.000  0.003  0.000  0.155
 

 k-point    2 :    0.18750000 0.06250000 0.06250000     weight = 0.01171875

band   1 # energy   -1.28902799 # occ.  1.00000000
 
ion      s     py     pz     px    dxy    dyz    dz2    dxz    dx2    tot
  1  0.786  0.033  0.033  0.003  0.001  0.006  0.000  0.001  0.001  0.865
 
band   2 # energy    5.65671765 # occ.  1.00000000
 
ion      s     py     pz     px    dxy    dyz    dz2    dxz    dx2    tot
  1  0.000  0.003  0.003  0.025  0.454  0.039  0.000  0.454  0.000  0.979
 
band   3 # energy    6.79038573 # occ.  0.00000000
 
ion      s     py     pz     px    dxy    dyz    dz2    dxz    dx2    tot
  1  0.000  0.011  0.011  0.001  0.021  0.857  0.018  0.021  0.054  0.993
 
band   4 # energy    6.82218355 # occ.  0.00000000
 
ion      s     py     pz     px    dxy    dyz    dz2    dxz    dx2    tot
  1  0.000  0.000  0.000  0.000  0.489  0.000  0.013  0.489  0.004  0.996
 
band   5 # energy    8.79723874 # occ.  0.00000000
 
ion      s     py     pz     px    dxy    dyz    dz2    dxz    dx2    tot
  1  0.000  0.000  0.000  0.000  0.009  0.000  0.710  0.009  0.237  0.965
 
band   6 # energy    9.51931808 # occ.  0.00000000
 
ion      s     py     pz     px    dxy    dyz    dz2    dxz    dx2    tot
  1  0.001  0.001  0.001  0.000  0.001  0.067  0.225  0.001  0.676  0.975
 
band   7 # energy   19.61637584 # occ.  0.00000000
 
ion      s     py     pz     px    dxy    dyz    dz2    dxz    dx2    tot
  1 43.761  0.000  0.000  0.000  0.000  0.000  0.000  0.000  0.000 43.761
 
band   8 # energy   20.21846447 # occ.  0.00000000
 
ion      s     py     pz     px    dxy    dyz    dz2    dxz    dx2    tot
  1  0.078  0.005  0.005  0.003  0.021  0.000  0.001  0.021  0.002  0.137
 
band   9 # energy   21.06966769 # occ.  0.00000000
 
ion      s     py     pz     px    dxy    dyz    dz2    dxz    dx2    tot
  1  0.154  0.029  0.029  0.008  0.022  0.031  0.004  0.022  0.012  0.310
 

 k-point    3 :    0.31250000 0.06250000 0.06250000     weight = 0.01171875

band   1 # energy    0.25584454 # occ.  1.00000000
 
ion      s     py     pz     px    dxy    dyz    dz2    dxz    dx2    tot
  1  0.645  0.060  0.060  0.015  0.034  0.055  0.001  0.034  0.002  0.907
 
band   2 # energy    5.12155988 # occ.  1.00000000
 
ion      s     py     pz     px    dxy    dyz    dz2    dxz    dx2    tot
  1  0.015  0.047  0.047  0.083  0.333  0.085  0.001  0.333  0.002  0.947
 
band   3 # energy    6.65149004 # occ.  0.00000000
 
ion      s     py     pz     px    dxy    dyz    dz2    dxz    dx2    tot
  1  0.000  0.009  0.009  0.002  0.055  0.474  0.093  0.055  0.278  0.974
 
band   4 # energy    6.87797694 # occ.  0.00000000
 
ion      s     py     pz     px    dxy    dyz    dz2    dxz    dx2    tot
  1  0.000  0.000  0.000  0.000  0.289  0.000  0.300  0.289  0.100  0.979
 
band   5 # energy    9.15778035 # occ.  0.00000000
 
ion      s     py     pz     px    dxy    dyz    dz2    dxz    dx2    tot
  1  0.000  0.005  0.005  0.000  0.196  0.000  0.410  0.196  0.137  0.948
 
band   6 # energy   10.33595123 # occ.  0.00000000
 
ion      s     py     pz     px    dxy    dyz    dz2    dxz    dx2    tot
  1  0.005  0.011  0.011  0.001  0.022  0.310  0.145  0.022  0.435  0.960
 
band   7 # energy   18.52384530 # occ.  0.00000000
 
ion      s     py     pz     px    dxy    dyz    dz2    dxz    dx2    tot
  1  0.077  0.023  0.023  0.022  0.009  0.040  0.004  0.009  0.011  0.217
 
band   8 # energy   19.61988967 # occ.  0.00000000
 
ion      s     py     pz     px    dxy    dyz    dz2    dxz    dx2    tot
  1 43.890  0.000  0.000  0.000  0.000  0.000  0.000  0.000  0.000 43.890
 
band   9 # energy   22.43825726 # occ.  0.00000000
 
ion      s     py     pz     px    dxy    dyz    dz2    dxz    dx2    tot
  1  0.179  0.057  0.057  0.049  0.135  0.098  0.000  0.135  0.000  0.710
 

 k-point    4 :    0.43750000 0.06250000 0.06250000     weight = 0.01171875

band   1 # energy    1.26930161 # occ.  1.00000000
 
ion      s     py     pz     px    dxy    dyz    dz2    dxz    dx2    tot
  1  0.423  0.026  0.026  0.001  0.160  0.176  0.000  0.160  0.001  0.973
 
band   2 # energy    5.78687175 # occ.  1.00018822
 
ion      s     py     pz     px    dxy    dyz    dz2    dxz    dx2    tot
  1  0.030  0.171  0.171  0.158  0.052  0.092  0.038  0.052  0.114  0.878
 
band   3 # energy    6.22709898 # occ.  0.00000000
 
ion      s     py     pz     px    dxy    dyz    dz2    dxz    dx2    tot
  1  0.011  0.014  0.014  0.051  0.138  0.213  0.100  0.138  0.300  0.978
 
band   4 # energy    6.41738030 # occ.  0.00000000
 
ion      s     py     pz     px    dxy    dyz    dz2    dxz    dx2    tot
  1  0.000  0.000  0.000  0.000  0.195  0.000  0.441  0.195  0.147  0.978
 
band   5 # energy   10.79724989 # occ.  0.00000000
 
ion      s     py     pz     px    dxy    dyz    dz2    dxz    dx2    tot
  1  0.000  0.005  0.005  0.000  0.291  0.000  0.270  0.291  0.090  0.954
 
band   6 # energy   11.77807207 # occ.  0.00000000
 
ion      s     py     pz     px    dxy    dyz    dz2    dxz    dx2    tot
  1  0.006  0.018  0.018  0.001  0.050  0.420  0.102  0.050  0.307  0.973
 
band   7 # energy   16.89416132 # occ.  0.00000000
 
ion      s     py     pz     px    dxy    dyz    dz2    dxz    dx2    tot
  1  0.243  0.022  0.022  0.019  0.075  0.121  0.002  0.075  0.006  0.584
 
band   8 # energy   19.48037562 # occ.  0.00000000
 
ion      s     py     pz     px    dxy    dyz    dz2    dxz    dx2    tot
  1  5.835  0.045  0.045  0.027  0.055  0.021  0.001  0.055  0.002  6.085
 
band   9 # energy   19.64820273 # occ.  0.00000000
 
ion      s     py     pz     px    dxy    dyz    dz2    dxz    dx2    tot
  1 38.390  0.009  0.009  0.006  0.013  0.006  0.000  0.013  0.000 38.446
 

 k-point    5 :   -0.43750000 0.06250000 0.06250000     weight = 0.01171875

band   1 # energy    1.40917704 # occ.  1.00000000
 
ion      s     py     pz     px    dxy    dyz    dz2    dxz    dx2    tot
  1  0.352  0.000  0.000  0.012  0.203  0.222  0.000  0.203  0.000  0.993
 
band   2 # energy    5.84764820 # occ.  1.02050667
 
ion      s     py     pz     px    dxy    dyz    dz2    dxz    dx2    tot
  1  0.000  0.053  0.053  0.029  0.050  0.124  0.142  0.050  0.427  0.930
 
band   3 # energy    6.30065851 # occ.  0.00000000
 
ion      s     py     pz     px    dxy    dyz    dz2    dxz    dx2    tot
  1  0.000  0.002  0.002  0.000  0.191  0.000  0.445  0.191  0.148  0.980
 
band   4 # energy    6.64021648 # occ.  0.00000000
 
ion      s     py     pz     px    dxy    dyz    dz2    dxz    dx2    tot
  1  0.003  0.205  0.205  0.227  0.020  0.182  0.009  0.020  0.026  0.897
 
band   5 # energy   11.88587187 # occ.  0.00000000
 
ion      s     py     pz     px    dxy    dyz    dz2    dxz    dx2    tot
  1  0.000  0.000  0.000  0.000  0.306  0.000  0.278  0.306  0.093  0.982
 
band   6 # energy   11.99070409 # occ.  0.00000000
 
ion      s     py     pz     px    dxy    dyz    dz2    dxz    dx2    tot
  1  0.000  0.014  0.014  0.032  0.099  0.351  0.089  0.099  0.267  0.965
 
band   7 # energy   16.14360861 # occ.  0.00000000
 
ion      s     py     pz     px    dxy    dyz    dz2    dxz    dx2    tot
  1  0.443  0.001  0.001  0.002  0.167  0.138  0.000  0.167  0.000  0.920
 
band   8 # energy   18.44900297 # occ.  0.00000000
 
ion      s     py     pz     px    dxy    dyz    dz2    dxz    dx2    tot
  1  0.004  0.016  0.016  0.022  0.000  0.020  0.002  0.000  0.006  0.085
 
band   9 # energy   19.62255947 # occ.  0.00000000
 
ion      s     py     pz     px    dxy    dyz    dz2    dxz    dx2    tot
  1 44.152  0.000  0.000  0.000  0.000  0.000  0.000  0.000  0.000 44.153
 

 k-point    6 :   -0.31250000 0.06250000 0.06250000     weight = 0.01171875

band   1 # energy    1.05751446 # occ.  1.00000000
 
ion      s     py     pz     px    dxy    dyz    dz2    dxz    dx2    tot
  1  0.491  0.014  0.014  0.061  0.121  0.125  0.001  0.121  0.003  0.953
 
band   2 # energy    5.41159536 # occ.  1.00000000
 
ion      s     py     pz     px    dxy    dyz    dz2    dxz    dx2    tot
  1  0.039  0.146  0.146  0.122  0.090  0.227  0.011  0.090  0.032  0.902
 
band   3 # energy    6.27851662 # occ.  0.00000000
 
ion      s     py     pz     px    dxy    dyz    dz2    dxz    dx2    tot
  1  0.005  0.001  0.001  0.002  0.066  0.311  0.131  0.066  0.392  0.974
 
band   4 # energy    6.61273043 # occ.  0.00000000
 
ion      s     py     pz     px    dxy    dyz    dz2    dxz    dx2    tot
  1  0.000  0.005  0.005  0.000  0.237  0.000  0.372  0.237  0.124  0.980
 
band   5 # energy   10.44650569 # occ.  0.00000000
 
ion      s     py     pz     px    dxy    dyz    dz2    dxz    dx2    tot
  1  0.005  0.004  0.004  0.039  0.140  0.245  0.093  0.140  0.278  0.947
 
band   6 # energy   11.13645266 # occ.  0.00000000
 
ion      s     py     pz     px    dxy    dyz    dz2    dxz    dx2    tot
  1  0.000  0.005  0.005  0.000  0.245  0.000  0.349  0.245  0.116  0.966
 
band   7 # energy   17.38395206 # occ.  0.00000000
 
ion      s     py     pz     px    dxy    dyz    dz2    dxz    dx2    tot
  1  0.149  0.024  0.024  0.021  0.071  0.029  0.002  0.071  0.006  0.398
 
band   8 # energy   19.61546570 # occ.  0.00000000
 
ion      s     py     pz     px    dxy    dyz    dz2    dxz    dx2    tot
  1 43.477  0.000  0.000  0.000  0.000  0.000  0.000  0.000  0.000 43.479
 
band   9 # energy   20.53808644 # occ.  0.00000000
 
ion      s     py     pz     px    dxy    dyz    dz2    dxz    dx2    tot
  1  0.750  0.060  0.060  0.082  0.075  0.106  0.001  0.075  0.004  1.213
 

 k-point    7 :   -0.18750000 0.06250000 0.06250000     weight = 0.01171875

band   1 # energy   -0.27842168 # occ.  1.00000000
 
ion      s     py     pz     px    dxy    dyz    dz2    dxz    dx2    tot
  1  0.704  0.024  0.024  0.077  0.021  0.014  0.001  0.021  0.003  0.889
 
band   2 # energy    5.17331108 # occ.  1.00000000
 
ion      s     py     pz     px    dxy    dyz    dz2    dxz    dx2    tot
  1  0.006  0.040  0.040  0.021  0.144  0.565  0.000  0.144  0.001  0.960
 
band   3 # energy    6.81047514 # occ.  0.00000000
 
ion      s     py     pz     px    dxy    dyz    dz2    dxz    dx2    tot
  1  0.000  0.002  0.002  0.004  0.192  0.266  0.079  0.192  0.237  0.975
 
band   4 # energy    6.96938549 # occ.  0.00000000
 
ion      s     py     pz     px    dxy    dyz    dz2    dxz    dx2    tot
  1  0.000  0.009  0.009  0.000  0.372  0.000  0.167  0.372  0.056  0.986
 
band   5 # energy    8.89693937 # occ.  0.00000000
 
ion      s     py     pz     px    dxy    dyz    dz2    dxz    dx2    tot
  1  0.004  0.001  0.001  0.015  0.100  0.107  0.156  0.100  0.467  0.951
 
band   6 # energy    9.87197595 # occ.  0.00000000
 
ion      s     py     pz     px    dxy    dyz    dz2    dxz    dx2    tot
  1  0.000  0.003  0.003  0.000  0.107  0.000  0.557  0.107  0.186  0.964
 
band   7 # energy   19.18764371 # occ.  0.00000000
 
ion      s     py     pz     px    dxy    dyz    dz2    dxz    dx2    tot
  1  0.371  0.022  0.022  0.020  0.015  0.001  0.003  0.015  0.010  0.480
 
band   8 # energy   19.62334769 # occ.  0.00000000
 
ion      s     py     pz     px    dxy    dyz    dz2    dxz    dx2    tot
  1 43.596  0.000  0.000  0.000  0.000  0.000  0.000  0.000  0.000 43.597
 
band   9 # energy   22.31357112 # occ.  0.00000000
 
ion      s     py     pz     px    dxy    dyz    dz2    dxz    dx2    tot
  1  0.077  0.022  0.022  0.019  0.078  0.131  0.000  0.078  0.001  0.428
 

 k-point    8 :   -0.06250000 0.06250000 0.06250000     weight = 0.01171875

band   1 # energy   -1.67429773 # occ.  1.00000000
 
ion      s     py     pz     px    dxy    dyz    dz2    dxz    dx2    tot
  1  0.812  0.004  0.004  0.035  0.001  0.000  0.000  0.001  0.001  0.857
 
band   2 # energy    5.87143877 # occ.  1.03513129
 
ion      s     py     pz     px    dxy    dyz    dz2    dxz    dx2    tot
  1  0.000  0.004  0.004  0.001  0.064  0.851  0.000  0.064  0.000  0.989
 
band   3 # energy    6.69903533 # occ.  0.00000000
 
ion      s     py     pz     px    dxy    dyz    dz2    dxz    dx2    tot
  1  0.000  0.004  0.004  0.002  0.423  0.136  0.002  0.423  0.006  1.000
 
band   4 # energy    6.71218458 # occ.  0.00000000
 
ion      s     py     pz     px    dxy    dyz    dz2    dxz    dx2    tot
  1  0.000  0.006  0.006  0.000  0.489  0.000  0.007  0.489  0.002  1.000
 
band   5 # energy    8.87505549 # occ.  0.00000000
 
ion      s     py     pz     px    dxy    dyz    dz2    dxz    dx2    tot
  1  0.001  0.000  0.000  0.001  0.003  0.001  0.240  0.003  0.720  0.969
 
band   6 # energy    9.56659496 # occ.  0.00000000
 
ion      s     py     pz     px    dxy    dyz    dz2    dxz    dx2    tot
  1  0.000  0.000  0.000  0.000  0.005  0.000  0.733  0.005  0.244  0.987
 
band   7 # energy   19.61720197 # occ.  0.00000000
 
ion      s     py     pz     px    dxy    dyz    dz2    dxz    dx2    tot
  1 43.766  0.000  0.000  0.000  0.000  0.000  0.000  0.000  0.000 43.766
 
band   8 # energy   19.65817536 # occ.  0.00000000
 
ion      s     py     pz     px    dxy    dyz    dz2    dxz    dx2    tot
  1  0.115  0.000  0.000  0.000  0.004  0.041  0.000  0.004  0.000  0.165
 
band   9 # energy   21.83902684 # occ.  0.00000000
 
ion      s     py     pz     px    dxy    dyz    dz2    dxz    dx2    tot
  1  0.096  0.019  0.019  0.042  0.008  0.003  0.006  0.008  0.018  0.220
 

 k-point    9 :    0.18750000 0.18750000 0.06250000     weight = 0.01171875

band   1 # energy   -0.90440557 # occ.  1.00000000
 
ion      s     py     pz     px    dxy    dyz    dz2    dxz    dx2    tot
  1  0.757  0.003  0.092  0.003  0.000  0.002  0.010  0.002  0.000  0.870
 
band   2 # energy    5.20965057 # occ.  1.00000000
 
ion      s     py     pz     px    dxy    dyz    dz2    dxz    dx2    tot
  1  0.000  0.004  0.000  0.004  0.928  0.020  0.000  0.020  0.000  0.978
 
band   3 # energy    7.09583398 # occ.  0.00000000
 
ion      s     py     pz     px    dxy    dyz    dz2    dxz    dx2    tot
  1  0.000  0.013  0.001  0.013  0.043  0.398  0.114  0.398  0.000  0.980
 
band   4 # energy    7.17599222 # occ.  0.00000000
 
ion      s     py     pz     px    dxy    dyz    dz2    dxz    dx2    tot
  1  0.000  0.016  0.000  0.016  0.000  0.465  0.000  0.465  0.027  0.987
 
band   5 # energy    8.09983275 # occ.  0.00000000
 
ion      s     py     pz     px    dxy    dyz    dz2    dxz    dx2    tot
  1  0.009  0.002  0.008  0.002  0.005  0.055  0.812  0.055  0.000  0.946
 
band   6 # energy    9.89944496 # occ.  0.00000000
 
ion      s     py     pz     px    dxy    dyz    dz2    dxz    dx2    tot
  1  0.000  0.000  0.000  0.000  0.000  0.013  0.000  0.013  0.957  0.983
 
band   7 # energy   19.61673876 # occ.  0.00000000
 
ion      s     py     pz     px    dxy    dyz    dz2    dxz    dx2    tot
  1 43.836  0.000  0.000  0.000  0.000  0.000  0.000  0.000  0.000 43.836
 
band   8 # energy   21.09338431 # occ.  0.00000000
 
ion      s     py     pz     px    dxy    dyz    dz2    dxz    dx2    tot
  1  0.027  0.003  0.004  0.003  0.078  0.000  0.012  0.000  0.000  0.128
 
band   9 # energy   21.61465666 # occ.  0.00000000
 
ion      s     py     pz     px    dxy    dyz    dz2    dxz    dx2    tot
  1  0.120  0.016  0.024  0.016  0.028  0.017  0.066  0.017  0.000  0.303
 

 k-point   10 :    0.31250000 0.18750000 0.06250000     weight = 0.02343750

band   1 # energy    0.40649983 # occ.  1.00000000
 
ion      s     py     pz     px    dxy    dyz    dz2    dxz    dx2    tot
  1  0.642  0.024  0.151  0.002  0.003  0.027  0.038  0.004  0.000  0.893
 
band   2 # energy    4.56100648 # occ.  1.00000000
 
ion      s     py     pz     px    dxy    dyz    dz2    dxz    dx2    tot
  1  0.001  0.006  0.002  0.037  0.842  0.007  0.002  0.076  0.000  0.973
 
band   3 # energy    6.44959243 # occ.  0.00000000
 
ion      s     py     pz     px    dxy    dyz    dz2    dxz    dx2    tot
  1  0.012  0.020  0.002  0.000  0.018  0.294  0.547  0.014  0.029  0.937
 
band   4 # energy    7.75198127 # occ.  0.00000000
 
ion      s     py     pz     px    dxy    dyz    dz2    dxz    dx2    tot
  1  0.001  0.011  0.005  0.024  0.043  0.162  0.053  0.521  0.148  0.969
 
band   5 # energy    8.49910914 # occ.  0.00000000
 
ion      s     py     pz     px    dxy    dyz    dz2    dxz    dx2    tot
  1  0.011  0.014  0.033  0.014  0.053  0.196  0.254  0.281  0.099  0.955
 
band   6 # energy   10.64471852 # occ.  0.00000000
 
ion      s     py     pz     px    dxy    dyz    dz2    dxz    dx2    tot
  1  0.005  0.012  0.006  0.000  0.000  0.226  0.020  0.011  0.693  0.974
 
band   7 # energy   19.61276322 # occ.  0.00000000
 
ion      s     py     pz     px    dxy    dyz    dz2    dxz    dx2    tot
  1 43.417  0.001  0.001  0.000  0.000  0.000  0.000  0.000  0.000 43.419
 
band   8 # energy   20.44326138 # occ.  0.00000000
 
ion      s     py     pz     px    dxy    dyz    dz2    dxz    dx2    tot
  1  0.579  0.065  0.026  0.015  0.000  0.076  0.068  0.011  0.012  0.853
 
band   9 # energy   23.29258658 # occ.  0.00000000
 
ion      s     py     pz     px    dxy    dyz    dz2    dxz    dx2    tot
  1  0.033  0.029  0.015  0.015  0.185  0.030  0.001  0.051  0.000  0.360
 

 k-point   11 :    0.43750000 0.18750000 0.06250000     weight = 0.02343750

band   1 # energy    1.77054283 # occ.  1.00000000
 
ion      s     py     pz     px    dxy    dyz    dz2    dxz    dx2    tot
  1  0.429  0.022  0.131  0.000  0.128  0.112  0.054  0.066  0.000  0.943
 
band   2 # energy    4.63358576 # occ.  1.00000000
 
ion      s     py     pz     px    dxy    dyz    dz2    dxz    dx2    tot
  1  0.015  0.090  0.047  0.111  0.406  0.027  0.154  0.066  0.006  0.923
 
band   3 # energy    5.62276651 # occ.  1.00000000
 
ion      s     py     pz     px    dxy    dyz    dz2    dxz    dx2    tot
  1  0.031  0.002  0.027  0.007  0.239  0.195  0.407  0.006  0.038  0.952
 
band   4 # energy    7.39104121 # occ.  0.00000000
 
ion      s     py     pz     px    dxy    dyz    dz2    dxz    dx2    tot
  1  0.001  0.013  0.013  0.012  0.021  0.118  0.064  0.273  0.448  0.962
 
band   5 # energy   10.39442279 # occ.  0.00000000
 
ion      s     py     pz     px    dxy    dyz    dz2    dxz    dx2    tot
  1  0.006  0.010  0.066  0.030  0.115  0.014  0.173  0.426  0.101  0.942
 
band   6 # energy   12.10042472 # occ.  0.00000000
 
ion      s     py     pz     px    dxy    dyz    dz2    dxz    dx2    tot
  1  0.020  0.024  0.034  0.003  0.009  0.444  0.058  0.030  0.361  0.983
 
band   7 # energy   17.87475697 # occ.  0.00000000
 
ion      s     py     pz     px    dxy    dyz    dz2    dxz    dx2    tot
  1  0.202  0.084  0.060  0.053  0.033  0.122  0.011  0.093  0.015  0.673
 
band   8 # energy   19.62295342 # occ.  0.00000000
 
ion      s     py     pz     px    dxy    dyz    dz2    dxz    dx2    tot
  1 44.027  0.000  0.000  0.000  0.000  0.001  0.000  0.000  0.000 44.028
 
band   9 # energy   21.12720689 # occ.  0.00000000
 
ion      s     py     pz     px    dxy    dyz    dz2    dxz    dx2    tot
  1  0.140  0.030  0.074  0.014  0.053  0.001  0.086  0.014  0.001  0.412
 

 k-point   12 :   -0.43750000 0.18750000 0.06250000     weight = 0.02343750

band   1 # energy    2.19231464 # occ.  1.00000000
 
ion      s     py     pz     px    dxy    dyz    dz2    dxz    dx2    tot
  1  0.291  0.000  0.048  0.018  0.281  0.200  0.010  0.139  0.001  0.988
 
band   2 # energy    4.77795391 # occ.  1.00000000
 
ion      s     py     pz     px    dxy    dyz    dz2    dxz    dx2    tot
  1  0.000  0.109  0.021  0.055  0.013  0.050  0.561  0.009  0.062  0.880
 
band   3 # energy    6.10732989 # occ. -0.00000338
 
ion      s     py     pz     px    dxy    dyz    dz2    dxz    dx2    tot
  1  0.006  0.085  0.174  0.137  0.329  0.195  0.015  0.006  0.007  0.953
 
band   4 # energy    7.03626649 # occ.  0.00000000
 
ion      s     py     pz     px    dxy    dyz    dz2    dxz    dx2    tot
  1  0.000  0.005  0.012  0.012  0.015  0.060  0.067  0.240  0.550  0.962
 
band   5 # energy   11.61033296 # occ.  0.00000000
 
ion      s     py     pz     px    dxy    dyz    dz2    dxz    dx2    tot
  1  0.013  0.002  0.006  0.000  0.078  0.161  0.048  0.410  0.245  0.964
 
band   6 # energy   13.17158189 # occ.  0.00000000
 
ion      s     py     pz     px    dxy    dyz    dz2    dxz    dx2    tot
  1  0.000  0.050  0.128  0.089  0.177  0.203  0.225  0.001  0.064  0.939
 
band   7 # energy   15.50903666 # occ.  0.00000000
 
ion      s     py     pz     px    dxy    dyz    dz2    dxz    dx2    tot
  1  0.478  0.002  0.000  0.002  0.084  0.130  0.008  0.192  0.010  0.906
 
band   8 # energy   19.62138577 # occ.  0.00000000
 
ion      s     py     pz     px    dxy    dyz    dz2    dxz    dx2    tot
  1 44.098  0.000  0.000  0.000  0.000  0.000  0.000  0.000  0.000 44.098
 
band   9 # energy   20.21674269 # occ.  0.00000000
 
ion      s     py     pz     px    dxy    dyz    dz2    dxz    dx2    tot
  1  0.012  0.002  0.042  0.013  0.036  0.030  0.067  0.001  0.005  0.208
 

 k-point   13 :   -0.31250000 0.18750000 0.06250000     weight = 0.02343750

band   1 # energy    2.07394134 # occ.  1.00000000
 
ion      s     py     pz     px    dxy    dyz    dz2    dxz    dx2    tot
  1  0.369  0.033  0.005  0.086  0.210  0.153  0.003  0.100  0.007  0.967
 
band   2 # energy    4.97710907 # occ.  1.00000000
 
ion      s     py     pz     px    dxy    dyz    dz2    dxz    dx2    tot
  1  0.006  0.127  0.077  0.070  0.073  0.047  0.362  0.036  0.081  0.880
 
band   3 # energy    5.56366852 # occ.  1.00000000
 
ion      s     py     pz     px    dxy    dyz    dz2    dxz    dx2    tot
  1  0.027  0.013  0.107  0.039  0.179  0.371  0.148  0.070  0.015  0.969
 
band   4 # energy    7.13164308 # occ.  0.00000000
 
ion      s     py     pz     px    dxy    dyz    dz2    dxz    dx2    tot
  1  0.000  0.001  0.002  0.024  0.017  0.073  0.070  0.205  0.566  0.959
 
band   5 # energy   10.37130288 # occ.  0.00000000
 
ion      s     py     pz     px    dxy    dyz    dz2    dxz    dx2    tot
  1  0.000  0.000  0.009  0.025  0.001  0.220  0.005  0.432  0.250  0.944
 
band   6 # energy   12.92586354 # occ.  0.00000000
 
ion      s     py     pz     px    dxy    dyz    dz2    dxz    dx2    tot
  1  0.064  0.029  0.015  0.048  0.478  0.013  0.334  0.007  0.000  0.988
 
band   7 # energy   17.02472630 # occ.  0.00000000
 
ion      s     py     pz     px    dxy    dyz    dz2    dxz    dx2    tot
  1  0.282  0.073  0.040  0.067  0.079  0.065  0.064  0.099  0.000  0.770
 
band   8 # energy   19.62217825 # occ.  0.00000000
 
ion      s     py     pz     px    dxy    dyz    dz2    dxz    dx2    tot
  1 44.082  0.000  0.000  0.000  0.000  0.000  0.000  0.000  0.000 44.083
 
band   9 # energy   20.67685134 # occ.  0.00000000
 
ion      s     py     pz     px    dxy    dyz    dz2    dxz    dx2    tot
  1  0.064  0.022  0.013  0.050  0.013  0.042  0.034  0.019  0.015  0.272
 

 k-point   14 :   -0.18750000 0.18750000 0.06250000     weight = 0.02343750

band   1 # energy    0.96442375 # occ.  1.00000000
 
ion      s     py     pz     px    dxy    dyz    dz2    dxz    dx2    tot
  1  0.596  0.063  0.001  0.135  0.077  0.009  0.010  0.007  0.009  0.907
 
band   2 # energy    4.68370770 # occ.  1.00000000
 
ion      s     py     pz     px    dxy    dyz    dz2    dxz    dx2    tot
  1  0.003  0.009  0.091  0.007  0.005  0.634  0.002  0.214  0.001  0.967
 
band   3 # energy    6.06991804 # occ. -0.00028858
 
ion      s     py     pz     px    dxy    dyz    dz2    dxz    dx2    tot
  1  0.003  0.032  0.000  0.004  0.371  0.019  0.395  0.000  0.108  0.933
 
band   4 # energy    7.62820892 # occ.  0.00000000
 
ion      s     py     pz     px    dxy    dyz    dz2    dxz    dx2    tot
  1  0.002  0.002  0.005  0.015  0.051  0.092  0.036  0.268  0.488  0.959
 
band   5 # energy    8.51884370 # occ.  0.00000000
 
ion      s     py     pz     px    dxy    dyz    dz2    dxz    dx2    tot
  1  0.002  0.001  0.008  0.017  0.018  0.176  0.004  0.408  0.316  0.951
 
band   6 # energy   11.43089936 # occ.  0.00000000
 
ion      s     py     pz     px    dxy    dyz    dz2    dxz    dx2    tot
  1  0.021  0.025  0.000  0.025  0.401  0.001  0.494  0.003  0.008  0.978
 
band   7 # energy   19.51896280 # occ.  0.00000000
 
ion      s     py     pz     px    dxy    dyz    dz2    dxz    dx2    tot
  1 14.730  0.047  0.007  0.032  0.071  0.002  0.048  0.005  0.002 14.945
 
band   8 # energy   19.67680058 # occ.  0.00000000
 
ion      s     py     pz     px    dxy    dyz    dz2    dxz    dx2    tot
  1 29.334  0.026  0.004  0.016  0.043  0.001  0.030  0.003  0.002 29.458
 
band   9 # energy   22.89945502 # occ.  0.00000000
 
ion      s     py     pz     px    dxy    dyz    dz2    dxz    dx2    tot
  1  0.149  0.100  0.031  0.098  0.037  0.090  0.011  0.064  0.012  0.592
 

 k-point   15 :   -0.06250000 0.18750000 0.06250000     weight = 0.02343750

band   1 # energy   -0.56096307 # occ.  1.00000000
 
ion      s     py     pz     px    dxy    dyz    dz2    dxz    dx2    tot
  1  0.733  0.029  0.003  0.087  0.017  0.002  0.003  0.002  0.003  0.878
 
band   2 # energy    5.17070039 # occ.  1.00000000
 
ion      s     py     pz     px    dxy    dyz    dz2    dxz    dx2    tot
  1  0.001  0.005  0.035  0.003  0.017  0.731  0.000  0.181  0.000  0.972
 
band   3 # energy    6.84729516 # occ.  0.00000000
 
ion      s     py     pz     px    dxy    dyz    dz2    dxz    dx2    tot
  1  0.000  0.024  0.000  0.006  0.650  0.036  0.195  0.005  0.054  0.972
 
band   4 # energy    7.19948376 # occ.  0.00000000
 
ion      s     py     pz     px    dxy    dyz    dz2    dxz    dx2    tot
  1  0.000  0.002  0.012  0.000  0.036  0.169  0.008  0.698  0.060  0.984
 
band   5 # energy    8.35146439 # occ.  0.00000000
 
ion      s     py     pz     px    dxy    dyz    dz2    dxz    dx2    tot
  1  0.005  0.001  0.001  0.011  0.076  0.026  0.022  0.052  0.759  0.952
 
band   6 # energy    9.96124010 # occ.  0.00000000
 
ion      s     py     pz     px    dxy    dyz    dz2    dxz    dx2    tot
  1  0.003  0.006  0.000  0.003  0.148  0.000  0.734  0.007  0.071  0.972
 
band   7 # energy   19.61450695 # occ.  0.00000000
 
ion      s     py     pz     px    dxy    dyz    dz2    dxz    dx2    tot
  1 43.534  0.000  0.000  0.000  0.000  0.000  0.000  0.000  0.000 43.535
 
band   8 # energy   20.34048605 # occ.  0.00000000
 
ion      s     py     pz     px    dxy    dyz    dz2    dxz    dx2    tot
  1  0.440  0.032  0.010  0.024  0.033  0.001  0.033  0.001  0.011  0.584
 
band   9 # energy   21.80726520 # occ.  0.00000000
 
ion      s     py     pz     px    dxy    dyz    dz2    dxz    dx2    tot
  1  0.028  0.008  0.001  0.006  0.021  0.100  0.005  0.039  0.001  0.208
 

 k-point   16 :    0.31250000 0.31250000 0.06250000     weight = 0.01171875

band   1 # energy    1.09222929 # occ.  1.00000000
 
ion      s     py     pz     px    dxy    dyz    dz2    dxz    dx2    tot
  1  0.507  0.002  0.188  0.002  0.001  0.003  0.189  0.003  0.000  0.896
 
band   2 # energy    3.78179597 # occ.  1.00000000
 
ion      s     py     pz     px    dxy    dyz    dz2    dxz    dx2    tot
  1  0.000  0.004  0.000  0.004  0.968  0.004  0.001  0.004  0.000  0.985
 
band   3 # energy    6.32329649 # occ.  0.00000000
 
ion      s     py     pz     px    dxy    dyz    dz2    dxz    dx2    tot
  1  0.087  0.002  0.113  0.002  0.002  0.035  0.650  0.035  0.000  0.925
 
band   4 # energy    8.74806904 # occ.  0.00000000
 
ion      s     py     pz     px    dxy    dyz    dz2    dxz    dx2    tot
  1  0.000  0.038  0.000  0.038  0.000  0.389  0.000  0.389  0.102  0.955
 
band   5 # energy    9.13524322 # occ.  0.00000000
 
ion      s     py     pz     px    dxy    dyz    dz2    dxz    dx2    tot
  1  0.008  0.040  0.024  0.040  0.010  0.392  0.046  0.392  0.000  0.951
 
band   6 # energy   10.89529108 # occ.  0.00000000
 
ion      s     py     pz     px    dxy    dyz    dz2    dxz    dx2    tot
  1  0.000  0.002  0.000  0.002  0.000  0.049  0.000  0.049  0.877  0.980
 